Generated by trjconv : CNT in water t= 371.00000
33518
    1C        C    1   2.837   2.763   4.744
    1C        C    2   2.894   2.715   4.864
    1C        C    3   2.836   2.762   4.982
    1C        C    4   2.847   2.775   4.256
    1C        C    5   2.897   2.724   4.378
    1C        C    6   2.840   2.768   4.499
    1C        C    7   3.002   2.632   4.623
    1C        C    8   2.889   2.716   4.621
    1C        C    9   3.068   2.595   4.743
    1C        C   10   3.004   2.627   4.865
    1C        C   11   3.176   2.488   4.975
    1C        C   12   3.054   2.556   4.975
    1C        C   13   2.848   2.769   3.770
    1C        C   14   2.904   2.725   3.893
    1C        C   15   2.848   2.771   4.014
    1C        C   16   3.017   2.642   4.136
    1C        C   17   2.902   2.724   4.136
    1C        C   18   3.075   2.603   4.258
    1C        C   19   3.012   2.642   4.379
    1C        C   20   3.202   2.556   4.502
    1C        C   21   3.069   2.604   4.502
    1C        C   22   3.271   2.531   4.623
    1C        C   23   3.201   2.543   4.745
    1C        C   24   3.407   2.479   4.864
    1C        C   25   3.265   2.497   4.863
    1C        C   26   3.484   2.473   4.981
    1C        C   27   2.849   2.765   3.280
    1C        C   28   2.903   2.722   3.404
    1C        C   29   2.853   2.770   3.527
    1C        C   30   3.018   2.637   3.647
    1C        C   31   2.906   2.723   3.649
    1C        C   32   3.076   2.597   3.769
    1C        C   33   3.013   2.636   3.890
    1C        C   34   3.206   2.551   4.011
    1C        C   35   3.074   2.602   4.013
    1C        C   36   3.271   2.529   4.135
    1C        C   37   3.206   2.549   4.259
    1C        C   38   3.412   2.507   4.380
    1C        C   39   3.273   2.533   4.382
    1C        C   40   3.484   2.506   4.502
    1C        C   41   3.410   2.508   4.623
    1C        C   42   3.623   2.481   4.740
    1C        C   43   3.481   2.480   4.742
    1C        C   44   3.699   2.484   4.859
    1C        C   45   3.622   2.480   4.975
    1C        C   46   2.840   2.755   2.793
    1C        C   47   2.895   2.707   2.914
    1C        C   48   2.843   2.759   3.034
    1C        C   49   3.015   2.637   3.159
    1C        C   50   2.898   2.716   3.157
    1C        C   51   3.079   2.602   3.280
    1C        C   52   3.015   2.636   3.402
    1C        C   53   3.208   2.549   3.526
    1C        C   54   3.077   2.602   3.524
    1C        C   55   3.275   2.521   3.647
    1C        C   56   3.204   2.538   3.768
    1C        C   57   3.414   2.507   3.892
    1C        C   58   3.274   2.526   3.890
    1C        C   59   3.483   2.501   4.016
    1C        C   60   3.409   2.499   4.136
    1C        C   61   3.621   2.505   4.255
    1C        C   62   3.481   2.493   4.258
    1C        C   63   3.695   2.511   4.376
    1C        C   64   3.625   2.509   4.499
    1C        C   65   3.831   2.541   4.619
    1C        C   66   3.696   2.499   4.621
    1C        C   67   3.902   2.561   4.739
    1C        C   68   3.834   2.525   4.858
    1C        C   69   4.044   2.588   4.975
    1C        C   70   3.919   2.524   4.969
    1C        C   71   2.826   2.735   2.303
    1C        C   72   2.882   2.694   2.426
    1C        C   73   2.831   2.746   2.547
    1C        C   74   3.004   2.625   2.671
    1C        C   75   2.888   2.705   2.669
    1C        C   76   3.072   2.592   2.791
    1C        C   77   3.013   2.630   2.914
    1C        C   78   3.204   2.543   3.035
    1C        C   79   3.073   2.596   3.037
    1C        C   80   3.273   2.524   3.157
    1C        C   81   3.207   2.543   3.280
    1C        C   82   3.412   2.493   3.401
    1C        C   83   3.274   2.522   3.403
    1C        C   84   3.482   2.492   3.523
    1C        C   85   3.415   2.501   3.647
    1C        C   86   3.625   2.503   3.765
    1C        C   87   3.484   2.495   3.770
    1C        C   88   3.693   2.514   3.889
    1C        C   89   3.624   2.503   4.012
    1C        C   90   3.832   2.542   4.133
    1C        C   91   3.694   2.514   4.134
    1C        C   92   3.900   2.566   4.255
    1C        C   93   3.833   2.541   4.377
    1C        C   94   4.028   2.627   4.498
    1C        C   95   3.901   2.565   4.498
    1C        C   96   4.088   2.672   4.618
    1C        C   97   4.029   2.625   4.737
    1C        C   98   4.188   2.763   4.860
    1C        C   99   4.096   2.654   4.859
    1C        C  100   4.213   2.837   4.976
    1C        C  101   2.827   2.731   2.066
    1C        C  102   2.990   2.587   2.189
    1C        C  103   2.878   2.677   2.184
    1C        C  104   3.061   2.573   2.311
    1C        C  105   2.999   2.615   2.430
    1C        C  106   3.199   2.537   2.547
    1C        C  107   3.066   2.585   2.551
    1C        C  108   3.271   2.525   2.669
    1C        C  109   3.202   2.537   2.792
    1C        C  110   3.411   2.498   2.912
    1C        C  111   3.270   2.515   2.913
    1C        C  112   3.481   2.492   3.034
    1C        C  113   3.412   2.500   3.157
    1C        C  114   3.624   2.491   3.276
    1C        C  115   3.483   2.486   3.279
    1C        C  116   3.692   2.501   3.399
    1C        C  117   3.624   2.494   3.522
    1C        C  118   3.834   2.537   3.640
    1C        C  119   3.696   2.506   3.643
    1C        C  120   3.896   2.568   3.764
    1C        C  121   3.829   2.551   3.887
    1C        C  122   4.021   2.636   4.009
    1C        C  123   3.894   2.574   4.010
    1C        C  124   4.082   2.671   4.132
    1C        C  125   4.024   2.633   4.255
    1C        C  126   4.195   2.759   4.375
    1C        C  127   4.087   2.667   4.376
    1C        C  128   4.240   2.816   4.496
    1C        C  129   4.191   2.768   4.620
    1C        C  130   4.325   2.935   4.740
    1C        C  131   4.244   2.818   4.741
    1C        C  132   4.353   3.002   4.861
    1C        C  133   4.289   2.954   4.975
    1C        C  134   3.171   2.470   2.078
    1C        C  135   3.036   2.506   2.081
    1C        C  136   3.258   2.477   2.187
    1C        C  137   3.193   2.518   2.306
    1C        C  138   3.403   2.479   2.422
    1C        C  139   3.264   2.505   2.427
    1C        C  140   3.476   2.477   2.543
    1C        C  141   3.408   2.492   2.666
    1C        C  142   3.620   2.485   2.787
    1C        C  143   3.479   2.491   2.788
    1C        C  144   3.691   2.495   2.908
    1C        C  145   3.622   2.490   3.031
    1C        C  146   3.830   2.535   3.154
    1C        C  147   3.693   2.502   3.153
    1C        C  148   3.900   2.556   3.275
    1C        C  149   3.829   2.537   3.396
    1C        C  150   4.022   2.629   3.520
    1C        C  151   3.898   2.561   3.517
    1C        C  152   4.083   2.665   3.642
    1C        C  153   4.022   2.631   3.765
    1C        C  154   4.190   2.761   3.888
    1C        C  155   4.083   2.669   3.887
    1C        C  156   4.241   2.809   4.011
    1C        C  157   4.191   2.761   4.134
    1C        C  158   4.331   2.922   4.252
    1C        C  159   4.248   2.808   4.254
    1C        C  160   4.364   2.986   4.373
    1C        C  161   4.323   2.930   4.496
    1C        C  162   4.435   3.114   4.613
    1C        C  163   4.364   2.992   4.617
    1C        C  164   4.471   3.179   4.733
    1C        C  165   4.437   3.115   4.854
    1C        C  166   4.512   3.315   4.970
    1C        C  167   4.476   3.181   4.972
    1C        C  168   3.471   2.431   2.068
    1C        C  169   3.396   2.449   2.185
    1C        C  170   3.616   2.460   2.302
    1C        C  171   3.474   2.457   2.302
    1C        C  172   3.689   2.481   2.421
    1C        C  173   3.617   2.483   2.543
    1C        C  174   3.826   2.530   2.664
    1C        C  175   3.689   2.497   2.664
    1C        C  176   3.896   2.552   2.785
    1C        C  177   3.828   2.531   2.907
    1C        C  178   4.018   2.624   3.029
    1C        C  179   3.892   2.561   3.029
    1C        C  180   4.083   2.656   3.150
    1C        C  181   4.025   2.621   3.274
    1C        C  182   4.196   2.746   3.395
    1C        C  183   4.083   2.661   3.396
    1C        C  184   4.244   2.797   3.517
    1C        C  185   4.194   2.753   3.642
    1C        C  186   4.332   2.915   3.763
    1C        C  187   4.240   2.808   3.764
    1C        C  188   4.371   2.974   3.885
    1C        C  189   4.331   2.918   4.009
    1C        C  190   4.440   3.103   4.127
    1C        C  191   4.369   2.981   4.129
    1C        C  192   4.463   3.172   4.248
    1C        C  193   4.434   3.109   4.372
    1C        C  194   4.503   3.315   4.489
    1C        C  195   4.465   3.178   4.491
    1C        C  196   4.519   3.384   4.611
    1C        C  197   4.509   3.316   4.734
    1C        C  198   4.549   3.532   4.847
    1C        C  199   4.533   3.390   4.853
    1C        C  200   4.578   3.615   4.960
    1C        C  201   3.610   2.412   2.066
    1C        C  202   3.823   2.503   2.179
    1C        C  203   3.688   2.455   2.179
    1C        C  204   3.895   2.533   2.298
    1C        C  205   3.826   2.513   2.420
    1C        C  206   4.020   2.609   2.541
    1C        C  207   3.893   2.546   2.541
    1C        C  208   4.083   2.650   2.660
    1C        C  209   4.022   2.617   2.784
    1C        C  210   4.193   2.742   2.904
    1C        C  211   4.081   2.655   2.906
    1C        C  212   4.244   2.788   3.027
    1C        C  213   4.195   2.742   3.151
    1C        C  214   4.334   2.906   3.272
    1C        C  215   4.248   2.793   3.272
    1C        C  216   4.367   2.969   3.394
    1C        C  217   4.330   2.909   3.516
    1C        C  218   4.430   3.096   3.637
    1C        C  219   4.372   2.967   3.638
    1C        C  220   4.453   3.167   3.758
    1C        C  221   4.431   3.101   3.881
    1C        C  222   4.492   3.305   4.000
    1C        C  223   4.464   3.166   4.002
    1C        C  224   4.505   3.377   4.121
    1C        C  225   4.499   3.308   4.244
    1C        C  226   4.524   3.521   4.364
    1C        C  227   4.515   3.380   4.364
    1C        C  228   4.516   3.595   4.484
    1C        C  229   4.520   3.525   4.607
    1C        C  230   4.504   3.742   4.725
    1C        C  231   4.527   3.602   4.725
    1C        C  232   4.501   3.818   4.844
    1C        C  233   4.539   3.750   4.961
    1C        C  234   4.013   2.605   2.059
    1C        C  235   3.893   2.535   2.062
    1C        C  236   4.078   2.643   2.177
    1C        C  237   4.018   2.604   2.298
    1C        C  238   4.199   2.722   2.417
    1C        C  239   4.081   2.643   2.418
    1C        C  240   4.250   2.778   2.537
    1C        C  241   4.196   2.734   2.660
    1C        C  242   4.335   2.897   2.783
    1C        C  243   4.244   2.789   2.781
    1C        C  244   4.368   2.958   2.906
    1C        C  245   4.331   2.899   3.029
    1C        C  246   4.432   3.091   3.146
    1C        C  247   4.372   2.963   3.149
    1C        C  248   4.453   3.159   3.268
    1C        C  249   4.428   3.097   3.392
    1C        C  250   4.489   3.299   3.510
    1C        C  251   4.455   3.162   3.515
    1C        C  252   4.502   3.370   3.632
    1C        C  253   4.490   3.303   3.755
    1C        C  254   4.515   3.514   3.873
    1C        C  255   4.505   3.373   3.877
    1C        C  256   4.514   3.586   3.995
    1C        C  257   4.512   3.518   4.119
    1C        C  258   4.489   3.729   4.237
    1C        C  259   4.514   3.590   4.240
    1C        C  260   4.470   3.799   4.358
    1C        C  261   4.488   3.734   4.482
    1C        C  262   4.428   3.938   4.599
    1C        C  263   4.483   3.808   4.602
    1C        C  264   4.397   4.006   4.719
    1C        C  265   4.433   3.941   4.840
    1C        C  266   4.316   4.127   4.955
    1C        C  267   4.384   4.006   4.954
    1C        C  268   4.262   2.766   2.065
    1C        C  269   4.190   2.729   2.179
    1C        C  270   4.340   2.887   2.299
    1C        C  271   4.250   2.777   2.297
    1C        C  272   4.378   2.951   2.420
    1C        C  273   4.339   2.888   2.540
    1C        C  274   4.438   3.080   2.659
    1C        C  275   4.376   2.953   2.660
    1C        C  276   4.463   3.149   2.780
    1C        C  277   4.435   3.082   2.901
    1C        C  278   4.497   3.288   3.022
    1C        C  279   4.463   3.151   3.022
    1C        C  280   4.506   3.364   3.141
    1C        C  281   4.489   3.296   3.263
    1C        C  282   4.503   3.506   3.385
    1C        C  283   4.497   3.365   3.386
    1C        C  284   4.499   3.579   3.506
    1C        C  285   4.511   3.511   3.629
    1C        C  286   4.486   3.722   3.751
    1C        C  287   4.513   3.583   3.750
    1C        C  288   4.471   3.793   3.872
    1C        C  289   4.487   3.725   3.995
    1C        C  290   4.428   3.932   4.113
    1C        C  291   4.475   3.799   4.115
    1C        C  292   4.398   3.996   4.235
    1C        C  293   4.425   3.933   4.358
    1C        C  294   4.325   4.124   4.474
    1C        C  295   4.397   4.002   4.478
    1C        C  296   4.284   4.185   4.595
    1C        C  297   4.323   4.128   4.718
    1C        C  298   4.198   4.311   4.835
    1C        C  299   4.279   4.192   4.837
    1C        C  300   4.167   4.399   4.944
    1C        C  301   4.347   2.876   2.062
    1C        C  302   4.460   3.065   2.175
    1C        C  303   4.395   2.938   2.179
    1C        C  304   4.474   3.141   2.294
    1C        C  305   4.445   3.074   2.415
    1C        C  306   4.507   3.279   2.533
    1C        C  307   4.472   3.142   2.536
    1C        C  308   4.511   3.353   2.654
    1C        C  309   4.496   3.286   2.778
    1C        C  310   4.514   3.498   2.897
    1C        C  311   4.509   3.357   2.899
    1C        C  312   4.508   3.571   3.018
    1C        C  313   4.513   3.505   3.143
    1C        C  314   4.489   3.719   3.262
    1C        C  315   4.507   3.578   3.263
    1C        C  316   4.473   3.787   3.384
    1C        C  317   4.486   3.720   3.508
    1C        C  318   4.424   3.925   3.624
    1C        C  319   4.471   3.792   3.629
    1C        C  320   4.395   3.990   3.746
    1C        C  321   4.423   3.926   3.869
    1C        C  322   4.316   4.111   3.990
    1C        C  323   4.396   3.994   3.990
    1C        C  324   4.276   4.171   4.112
    1C        C  325   4.325   4.118   4.233
    1C        C  326   4.187   4.284   4.355
    1C        C  327   4.288   4.184   4.352
    1C        C  328   4.136   4.338   4.474
    1C        C  329   4.191   4.291   4.596
    1C        C  330   4.022   4.432   4.711
    1C        C  331   4.137   4.349   4.713
    1C        C  332   3.971   4.495   4.827
    1C        C  333   4.053   4.480   4.940
    1C        C  334   4.543   3.264   2.057
    1C        C  335   4.523   3.126   2.061
    1C        C  336   4.527   3.347   2.170
    1C        C  337   4.507   3.279   2.292
    1C        C  338   4.519   3.493   2.410
    1C        C  339   4.521   3.352   2.413
    1C        C  340   4.511   3.565   2.531
    1C        C  341   4.515   3.494   2.653
    1C        C  342   4.494   3.707   2.771
    1C        C  343   4.514   3.568   2.774
    1C        C  344   4.477   3.778   2.892
    1C        C  345   4.492   3.711   3.016
    1C        C  346   4.426   3.915   3.135
    1C        C  347   4.479   3.784   3.137
    1C        C  348   4.390   3.978   3.256
    1C        C  349   4.420   3.917   3.380
    1C        C  350   4.318   4.106   3.500
    1C        C  351   4.391   3.985   3.501
    1C        C  352   4.276   4.163   3.622
    1C        C  353   4.318   4.108   3.745
    1C        C  354   4.180   4.271   3.867
    1C        C  355   4.275   4.167   3.867
    1C        C  356   4.125   4.318   3.989
    1C        C  357   4.176   4.270   4.111
    1C        C  358   4.011   4.403   4.229
    1C        C  359   4.127   4.323   4.233
    1C        C  360   3.951   4.441   4.351
    1C        C  361   4.016   4.413   4.473
    1C        C  362   3.821   4.510   4.591
    1C        C  363   3.952   4.457   4.591
    1C        C  364   3.758   4.539   4.715
    1C        C  365   3.837   4.538   4.832
    1C        C  366   3.625   4.591   4.949
    1C        C  367   3.762   4.567   4.946
    1C        C  368   4.501   3.563   2.050
    1C        C  369   4.515   3.487   2.167
    1C        C  370   4.497   3.702   2.282
    1C        C  371   4.512   3.562   2.287
    1C        C  372   4.479   3.774   2.402
    1C        C  373   4.490   3.705   2.525
    1C        C  374   4.420   3.904   2.648
    1C        C  375   4.474   3.774   2.648
    1C        C  376   4.396   3.974   2.768
    1C        C  377   4.429   3.911   2.890
    1C        C  378   4.320   4.095   3.008
    1C        C  379   4.396   3.976   3.011
    1C        C  380   4.270   4.150   3.129
    1C        C  381   4.312   4.096   3.253
    1C        C  382   4.180   4.261   3.376
    1C        C  383   4.276   4.157   3.375
    1C        C  384   4.123   4.306   3.497
    1C        C  385   4.176   4.263   3.621
    1C        C  386   4.004   4.384   3.741
    1C        C  387   4.124   4.309   3.743
    1C        C  388   3.941   4.422   3.861
    1C        C  389   4.004   4.390   3.984
    1C        C  390   3.815   4.484   4.108
    1C        C  391   3.945   4.428   4.107
    1C        C  392   3.748   4.512   4.229
    1C        C  393   3.820   4.493   4.349
    1C        C  394   3.612   4.548   4.472
    1C        C  395   3.751   4.523   4.469
    1C        C  396   3.542   4.563   4.594
    1C        C  397   3.619   4.562   4.712
    1C        C  398   3.408   4.556   4.836
    1C        C  399   3.548   4.574   4.834
    1C        C  400   3.343   4.510   4.952
    1C        C  401   4.497   3.702   2.045
    1C        C  402   4.454   3.915   2.163
    1C        C  403   4.487   3.777   2.163
    1C        C  404   4.409   3.974   2.282
    1C        C  405   4.433   3.907   2.405
    1C        C  406   4.326   4.092   2.520
    1C        C  407   4.400   3.972   2.526
    1C        C  408   4.278   4.149   2.640
    1C        C  409   4.319   4.092   2.762
    1C        C  410   4.176   4.248   2.885
    1C        C  411   4.273   4.145   2.885
    1C        C  412   4.125   4.296   3.008
    1C        C  413   4.172   4.251   3.133
    1C        C  414   4.001   4.376   3.249
    1C        C  415   4.123   4.304   3.254
    1C        C  416   3.940   4.405   3.373
    1C        C  417   4.001   4.377   3.497
    1C        C  418   3.809   4.469   3.618
    1C        C  419   3.939   4.413   3.619
    1C        C  420   3.742   4.493   3.740
    1C        C  421   3.809   4.473   3.862
    1C        C  422   3.608   4.530   3.984
    1C        C  423   3.747   4.502   3.986
    1C        C  424   3.540   4.536   4.108
    1C        C  425   3.610   4.540   4.230
    1C        C  426   3.398   4.545   4.354
    1C        C  427   3.539   4.551   4.352
    1C        C  428   3.329   4.548   4.477
    1C        C  429   3.401   4.562   4.598
    1C        C  430   3.191   4.519   4.719
    1C        C  431   3.330   4.552   4.719
    1C        C  432   3.124   4.488   4.841
    1C        C  433   3.204   4.496   4.955
    1C        C  434   4.382   4.122   2.048
    1C        C  435   4.450   3.999   2.051
    1C        C  436   4.300   4.161   2.158
    1C        C  437   4.332   4.093   2.279
    1C        C  438   4.187   4.254   2.398
    1C        C  439   4.285   4.152   2.398
    1C        C  440   4.124   4.294   2.518
    1C        C  441   4.179   4.250   2.640
    1C        C  442   4.003   4.368   2.764
    1C        C  443   4.122   4.293   2.763
    1C        C  444   3.943   4.408   2.885
    1C        C  445   4.005   4.372   3.006
    1C        C  446   3.807   4.459   3.129
    1C        C  447   3.939   4.408   3.126
    1C        C  448   3.743   4.480   3.252
    1C        C  449   3.810   4.463   3.375
    1C        C  450   3.603   4.518   3.494
    1C        C  451   3.742   4.491   3.495
    1C        C  452   3.535   4.524   3.617
    1C        C  453   3.604   4.522   3.741
    1C        C  454   3.395   4.535   3.861
    1C        C  455   3.536   4.539   3.863
    1C        C  456   3.328   4.522   3.985
    1C        C  457   3.399   4.529   4.107
    1C        C  458   3.194   4.496   4.233
    1C        C  459   3.330   4.533   4.231
    1C        C  460   3.126   4.481   4.356
    1C        C  461   3.192   4.511   4.477
    1C        C  462   2.994   4.433   4.602
    1C        C  463   3.125   4.488   4.599
    1C        C  464   2.925   4.403   4.721
    1C        C  465   2.990   4.439   4.842
    1C        C  466   2.802   4.332   4.956
    1C        C  467   2.904   4.427   4.957
    1C        C  468   4.119   4.279   2.039
    1C        C  469   4.187   4.250   2.158
    1C        C  470   4.004   4.367   2.275
    1C        C  471   4.128   4.299   2.278
    1C        C  472   3.941   4.400   2.398
    1C        C  473   4.003   4.367   2.520
    1C        C  474   3.810   4.457   2.639
    1C        C  475   3.939   4.401   2.642
    1C        C  476   3.742   4.480   2.761
    1C        C  477   3.812   4.462   2.882
    1C        C  478   3.606   4.511   3.005
    1C        C  479   3.744   4.483   3.005
    1C        C  480   3.535   4.520   3.126
    1C        C  481   3.605   4.511   3.248
    1C        C  482   3.393   4.521   3.373
    1C        C  483   3.535   4.522   3.370
    1C        C  484   3.323   4.516   3.495
    1C        C  485   3.393   4.526   3.617
    1C        C  486   3.185   4.497   3.740
    1C        C  487   3.323   4.527   3.740
    1C        C  488   3.122   4.478   3.865
    1C        C  489   3.189   4.498   3.988
    1C        C  490   2.996   4.416   4.114
    1C        C  491   3.123   4.478   4.112
    1C        C  492   2.938   4.380   4.237
    1C        C  493   2.999   4.419   4.359
    1C        C  494   2.829   4.295   4.480
    1C        C  495   2.935   4.389   4.481
    1C        C  496   2.772   4.252   4.602
    1C        C  497   2.813   4.315   4.722
    1C        C  498   2.662   4.161   4.842
    1C        C  499   2.751   4.271   4.840
    1C        C  500   2.591   4.114   4.953
    1C        C  501   4.001   4.352   2.038
    1C        C  502   3.810   4.457   2.153
    1C        C  503   3.939   4.399   2.154
    1C        C  504   3.741   4.475   2.275
    1C        C  505   3.809   4.448   2.396
    1C        C  506   3.600   4.496   2.520
    1C        C  507   3.740   4.473   2.517
    1C        C  508   3.529   4.509   2.641
    1C        C  509   3.603   4.506   2.762
    1C        C  510   3.392   4.519   2.884
    1C        C  511   3.533   4.518   2.884
    1C        C  512   3.322   4.511   3.006
    1C        C  513   3.393   4.522   3.128
    1C        C  514   3.185   4.491   3.253
    1C        C  515   3.323   4.520   3.250
    1C        C  516   3.115   4.468   3.373
    1C        C  517   3.184   4.492   3.495
    1C        C  518   2.990   4.413   3.622
    1C        C  519   3.117   4.474   3.618
    1C        C  520   2.933   4.376   3.746
    1C        C  521   2.997   4.413   3.867
    1C        C  522   2.837   4.279   3.995
    1C        C  523   2.943   4.373   3.991
    1C        C  524   2.785   4.230   4.117
    1C        C  525   2.831   4.288   4.237
    1C        C  526   2.690   4.131   4.361
    1C        C  527   2.778   4.242   4.360
    1C        C  528   2.648   4.075   4.484
    1C        C  529   2.683   4.143   4.603
    1C        C  530   2.582   3.956   4.727
    1C        C  531   2.641   4.086   4.725
    1C        C  532   2.539   3.896   4.848
    1C        C  533   2.528   3.989   4.956
    1C        C  534   3.614   4.546   2.038
    1C        C  535   3.748   4.506   2.037
    1C        C  536   3.532   4.524   2.153
    1C        C  537   3.601   4.497   2.274
    1C        C  538   3.390   4.504   2.400
    1C        C  539   3.531   4.505   2.397
    1C        C  540   3.316   4.503   2.520
    1C        C  541   3.388   4.510   2.641
    1C        C  542   3.180   4.477   2.763
    1C        C  543   3.318   4.509   2.764
    1C        C  544   3.118   4.456   2.888
    1C        C  545   3.186   4.475   3.011
    1C        C  546   2.989   4.398   3.133
    1C        C  547   3.116   4.462   3.133
    1C        C  548   2.930   4.361   3.256
    1C        C  549   2.991   4.400   3.377
    1C        C  550   2.821   4.281   3.504
    1C        C  551   2.930   4.371   3.501
    1C        C  552   2.779   4.229   3.628
    1C        C  553   2.826   4.283   3.750
    1C        C  554   2.701   4.116   3.874
    1C        C  555   2.781   4.232   3.873
    1C        C  556   2.657   4.058   3.996
    1C        C  557   2.697   4.120   4.116
    1C        C  558   2.597   3.937   4.243
    1C        C  559   2.657   4.065   4.240
    1C        C  560   2.569   3.876   4.367
    1C        C  561   2.586   3.949   4.487
    1C        C  562   2.528   3.745   4.612
    1C        C  563   2.556   3.883   4.609
    1C        C  564   2.515   3.678   4.736
    1C        C  565   2.516   3.755   4.856
    1C        C  566   2.519   3.543   4.972
    1C        C  567   2.516   3.682   4.975
    1C        C  568   3.325   4.466   2.038
    1C        C  569   3.391   4.506   2.155
    1C        C  570   3.182   4.467   2.276
    1C        C  571   3.319   4.507   2.278
    1C        C  572   3.110   4.455   2.397
    1C        C  573   3.178   4.474   2.519
    1C        C  574   2.982   4.396   2.644
    1C        C  575   3.110   4.457   2.642
    1C        C  576   2.925   4.360   2.768
    1C        C  577   2.991   4.395   2.887
    1C        C  578   2.820   4.271   3.011
    1C        C  579   2.932   4.358   3.011
    1C        C  580   2.773   4.221   3.134
    1C        C  581   2.821   4.271   3.257
    1C        C  582   2.692   4.111   3.384
    1C        C  583   2.771   4.228   3.383
    1C        C  584   2.665   4.050   3.509
    1C        C  585   2.696   4.115   3.631
    1C        C  586   2.598   3.928   3.755
    1C        C  587   2.658   4.056   3.754
    1C        C  588   2.571   3.865   3.878
    1C        C  589   2.596   3.931   4.001
    1C        C  590   2.536   3.729   4.126
    1C        C  591   2.571   3.866   4.124
    1C        C  592   2.522   3.664   4.251
    1C        C  593   2.532   3.739   4.370
    1C        C  594   2.511   3.529   4.491
    1C        C  595   2.521   3.669   4.492
    1C        C  596   2.519   3.460   4.615
    1C        C  597   2.518   3.536   4.734
    1C        C  598   2.540   3.325   4.859
    1C        C  599   2.523   3.465   4.856
    1C        C  600   2.536   3.246   4.974
    1C        C  601   3.193   4.424   2.040
    1C        C  602   2.979   4.389   2.155
    1C        C  603   3.115   4.432   2.156
    1C        C  604   2.922   4.351   2.280
    1C        C  605   2.982   4.396   2.400
    1C        C  606   2.814   4.268   2.527
    1C        C  607   2.922   4.359   2.522
    1C        C  608   2.762   4.219   2.649
    1C        C  609   2.816   4.270   2.769
    1C        C  610   2.679   4.108   2.893
    1C        C  611   2.767   4.219   2.891
    1C        C  612   2.641   4.052   3.017
    1C        C  613   2.685   4.110   3.138
    1C        C  614   2.587   3.926   3.265
    1C        C  615   2.651   4.052   3.263
    1C        C  616   2.566   3.861   3.389
    1C        C  617   2.600   3.925   3.511
    1C        C  618   2.530   3.726   3.635
    1C        C  619   2.568   3.862   3.633
    1C        C  620   2.521   3.659   3.759
    1C        C  621   2.532   3.729   3.882
    1C        C  622   2.497   3.520   4.005
    1C        C  623   2.517   3.660   4.004
    1C        C  624   2.498   3.452   4.129
    1C        C  625   2.512   3.523   4.251
    1C        C  626   2.517   3.310   4.375
    1C        C  627   2.511   3.451   4.373
    1C        C  628   2.544   3.244   4.497
    1C        C  629   2.535   3.320   4.616
    1C        C  630   2.597   3.117   4.739
    1C        C  631   2.552   3.252   4.738
    1C        C  632   2.617   3.047   4.862
    1C        C  633   2.561   3.108   4.979
    1C        C  634   2.780   4.296   2.048
    1C        C  635   2.887   4.386   2.045
    1C        C  636   2.747   4.224   2.163
    1C        C  637   2.804   4.271   2.283
    1C        C  638   2.671   4.109   2.407
    1C        C  639   2.756   4.221   2.406
    1C        C  640   2.636   4.045   2.528
    1C        C  641   2.680   4.104   2.649
    1C        C  642   2.580   3.919   2.775
    1C        C  643   2.639   4.048   2.772
    1C        C  644   2.562   3.852   2.898
    1C        C  645   2.588   3.921   3.019
    1C        C  646   2.532   3.721   3.147
    1C        C  647   2.563   3.859   3.143
    1C        C  648   2.511   3.654   3.269
    1C        C  649   2.523   3.726   3.390
    1C        C  650   2.509   3.517   3.517
    1C        C  651   2.510   3.658   3.513
    1C        C  652   2.513   3.446   3.640
    1C        C  653   2.513   3.518   3.761
    1C        C  654   2.528   3.309   3.885
    1C        C  655   2.505   3.449   3.884
    1C        C  656   2.548   3.246   4.009
    1C        C  657   2.522   3.313   4.131
    1C        C  658   2.593   3.112   4.258
    1C        C  659   2.536   3.242   4.253
    1C        C  660   2.614   3.044   4.380
    1C        C  661   2.577   3.107   4.501
    1C        C  662   2.706   2.933   4.622
    1C        C  663   2.619   3.044   4.620
    1C        C  664   2.747   2.873   4.743
    1C        C  665   2.696   2.928   4.864
    1C        C  666   2.740   2.862   4.980
    1C        C  667   2.682   4.021   2.047
    1C        C  668   2.684   4.098   2.164
    1C        C  669   2.593   3.907   2.289
    1C        C  670   2.647   4.039   2.287
    1C        C  671   2.560   3.843   2.410
    1C        C  672   2.583   3.915   2.530
    1C        C  673   2.520   3.716   2.656
    1C        C  674   2.552   3.853   2.653
    1C        C  675   2.511   3.645   2.779
    1C        C  676   2.534   3.714   2.900
    1C        C  677   2.516   3.508   3.026
    1C        C  678   2.528   3.649   3.025
    1C        C  679   2.512   3.440   3.149
    1C        C  680   2.508   3.512   3.270
    1C        C  681   2.528   3.306   3.397
    1C        C  682   2.510   3.446   3.395
    1C        C  683   2.550   3.238   3.519
    1C        C  684   2.530   3.306   3.641
    1C        C  685   2.605   3.109   3.768
    1C        C  686   2.548   3.238   3.764
    1C        C  687   2.637   3.049   3.892
    1C        C  688   2.602   3.115   4.012
    1C        C  689   2.712   2.936   4.134
    1C        C  690   2.633   3.053   4.136
    1C        C  691   2.748   2.876   4.257
    1C        C  692   2.703   2.934   4.378
    1C        C  693   2.750   2.878   4.499
    1C        C  694   2.633   3.890   2.053
    1C        C  695   2.529   3.701   2.171
    1C        C  696   2.578   3.834   2.169
    1C        C  697   2.505   3.637   2.294
    1C        C  698   2.513   3.710   2.415
    1C        C  699   2.492   3.500   2.540
    1C        C  700   2.507   3.640   2.538
    1C        C  701   2.496   3.432   2.664
    1C        C  702   2.497   3.505   2.785
    1C        C  703   2.518   3.293   2.909
    1C        C  704   2.504   3.433   2.906
    1C        C  705   2.538   3.226   3.032
    1C        C  706   2.530   3.300   3.152
    1C        C  707   2.594   3.102   3.274
    1C        C  708   2.543   3.233   3.276
    1C        C  709   2.628   3.041   3.397
    1C        C  710   2.599   3.106   3.519
    1C        C  711   2.707   2.927   3.645
    1C        C  712   2.633   3.048   3.644
    1C        C  713   2.753   2.873   3.767
    1C        C  714   2.712   2.929   3.890
    1C        C  715   2.751   2.873   4.014
    1C        C  716   2.444   3.498   2.063
    1C        C  717   2.492   3.629   2.057
    1C        C  718   2.464   3.419   2.181
    1C        C  719   2.484   3.496   2.299
    1C        C  720   2.517   3.286   2.422
    1C        C  721   2.490   3.424   2.420
    1C        C  722   2.542   3.221   2.545
    1C        C  723   2.518   3.292   2.665
    1C        C  724   2.586   3.092   2.787
    1C        C  725   2.533   3.223   2.787
    1C        C  726   2.618   3.029   2.910
    1C        C  727   2.586   3.094   3.032
    1C        C  728   2.705   2.918   3.157
    1C        C  729   2.622   3.033   3.154
    1C        C  730   2.753   2.868   3.281
    1C        C  731   2.705   2.922   3.402
    1C        C  732   2.753   2.871   3.524
    1C        C  733   2.486   3.193   2.071
    1C        C  734   2.489   3.278   2.183
    1C        C  735   2.574   3.077   2.300
    1C        C  736   2.523   3.210   2.303
    1C        C  737   2.602   3.014   2.423
    1C        C  738   2.585   3.086   2.543
    1C        C  739   2.694   2.906   2.668
    1C        C  740   2.620   3.027   2.667
    1C        C  741   2.740   2.854   2.791
    1C        C  742   2.699   2.914   2.912
    1C        C  743   2.747   2.862   3.035
    1C        C  744   2.543   3.066   2.068
    1C        C  745   2.682   2.892   2.182
    1C        C  746   2.602   3.008   2.180
    1C        C  747   2.723   2.833   2.304
    1C        C  748   2.681   2.897   2.423
    1C        C  749   2.733   2.848   2.545
    1C        C  750   2.733   2.834   2.065
    1C        C  751   3.647   2.326   1.952
    1C        O  752   3.659   2.203   1.977
    1C        O  753   3.599   2.358   1.824
    1C        C  754   4.622   3.049   1.983
    1C        O  755   4.601   2.996   1.870
    1C        O  756   4.760   3.039   2.008
    1C        C  757   4.436   4.229   1.962
    1C        O  758   4.491   4.327   2.018
    1C        O  759   4.376   4.259   1.839
    1C        C  760   3.596   4.676   1.969
    1C        O  761   3.677   4.772   1.967
    1C        O  762   3.522   4.673   1.850
    1C        C  763   2.857   4.507   1.965
    1C        O  764   2.843   4.503   1.840
    1C        O  765   2.828   4.632   2.022
    1C        C  766   2.320   3.476   1.986
    1C        O  767   2.333   3.439   1.866
    1C        O  768   2.193   3.521   2.022
    1C        C  769   4.696   3.576   5.039
    1C        O  770   4.692   3.548   5.162
    1C        O  771   4.822   3.577   4.978
    1C        C  772   4.264   4.429   5.051
    1C        O  773   4.239   4.384   5.166
    1C        O  774   4.372   4.515   5.026
    1C        C  775   4.125   2.551   5.093
    1C        O  776   4.129   2.428   5.122
    1C        O  777   4.110   2.615   5.217
    1C        C  778   2.893   4.533   5.060
    1C        O  779   2.817   4.631   5.039
    1C        O  780   2.930   4.501   5.191
    1C        C  781   2.448   3.044   5.050
    1C        O  782   2.372   2.960   4.994
    1C        O  783   2.443   3.039   5.188
    1C        C  784   2.418   3.989   5.056
    1C        O  785   2.293   3.989   5.038
    1C        O  786   2.446   3.985   5.193
    1C        C  787   2.944   2.406   2.022
    1C        O  788   2.923   2.401   1.898
    1C        O  789   2.876   2.310   2.096
    1C        C  790   3.190   2.385   5.080
    1C        O  791   3.146   2.267   5.079
    1C        O  792   3.225   2.426   5.209
    1C        H  793   4.247   3.027   5.041
    1C        H  794   4.164   2.809   5.067
    1C        H  795   4.455   3.140   5.068
    1C        H  796   4.517   3.355   5.069
    1C        H  797   4.565   3.807   5.048
    1C        H  798   4.395   3.961   5.050
    1C        H  799   4.263   4.154   5.044
    1C        H  800   4.036   4.551   5.019
    1C        H  801   3.820   4.614   5.023
    1C        H  802   3.588   4.661   5.021
    1C        H  803   3.398   4.477   5.037
    1C        H  804   3.154   4.496   5.050
    1C        H  805   3.900   2.450   5.044
    1C        H  806   3.676   2.508   5.063
    1C        H  807   2.989   2.544   5.060
    1C        H  808   3.445   2.434   5.073
    1C        H  809   2.834   2.707   5.074
    1C        H  810   2.691   2.881   5.073
    1C        H  811   2.523   3.293   5.069
    1C        H  812   2.575   3.507   5.056
    1C        H  813   2.552   3.733   5.062
    1C        H  814   2.578   4.177   5.039
    1C        H  815   2.767   4.297   5.051
    1C        H  816   2.710   2.884   1.973
    1C        H  817   2.896   2.734   1.984
    1C        H  818   3.209   2.448   1.980
    1C        H  819   3.431   2.474   1.979
    1C        H  820   3.846   2.505   1.971
    1C        H  821   4.082   2.586   1.979
    1C        H  822   4.301   2.690   1.999
    1C        H  823   4.345   2.929   1.969
    1C        H  824   4.599   3.300   1.973
    1C        H  825   4.482   3.511   1.958
    1C        H  826   4.493   3.753   1.951
    1C        H  827   3.816   4.544   1.963
    1C        H  828   3.964   4.372   1.939
    1C        H  829   4.146   4.232   1.947
    1C        H  830   4.529   3.981   1.982
    1C        H  831   2.659   3.824   1.973
    1C        H  832   2.722   4.046   1.951
    1C        H  833   2.736   4.273   1.953
    1C        H  834   3.358   4.516   1.949
    1C        H  835   3.143   4.422   1.946
    1C        H  836   2.506   2.997   1.995
    1C        H  837   2.423   3.222   1.989
    1C        H  838   2.474   3.685   1.967
    2V3OU   H29  839   2.810   3.548   3.973
    2V3OU   C27  840   2.791   3.497   4.071
    2V3OU   H27  841   2.731   3.560   4.141
    2V3OU   H28  842   2.736   3.403   4.043
    2V3OU   O11  843   2.913   3.471   4.142
    2V3OU   C15  844   2.926   3.390   4.253
    2V3OU   C13  845   3.051   3.371   4.316
    2V3OU   C14  846   3.076   3.267   4.405
    2V3OU   C16  847   2.975   3.183   4.452
    2V3OU    H6  848   2.991   3.094   4.515
    2V3OU   C12  849   3.213   3.218   4.435
    2V3OU    O2  850   3.240   3.115   4.499
    2V3OU   C10  851   3.322   3.303   4.385
    2V3OU    C8  852   3.452   3.269   4.419
    2V3OU   O10  853   3.486   3.152   4.480
    2V3OU   H26  854   3.402   3.110   4.505
    2V3OU    C6  855   3.562   3.350   4.375
    2V3OU    C5  856   3.536   3.466   4.302
    2V3OU    C4  857   3.697   3.288   4.379
    2V3OU    H4  858   3.718   3.222   4.468
    2V3OU    H5  859   3.708   3.223   4.287
    2V3OU    C2  860   3.809   3.392   4.381
    2V3OU    O6  861   3.809   3.473   4.499
    2V3OU   H21  862   3.764   3.547   4.456
    2V3OU    C3  863   3.780   3.492   4.269
    2V3OU    H2  864   3.862   3.568   4.266
    2V3OU    H3  865   3.778   3.440   4.170
    2V3OU   C25  866   3.945   3.324   4.371
    2V3OU    O7  867   3.992   3.293   4.262
    2V3OU   C26  868   4.026   3.293   4.496
    2V3OU   H22  869   4.063   3.383   4.553
    2V3OU   H23  870   4.112   3.225   4.472
    2V3OU    O8  871   3.953   3.209   4.582
    2V3OU   H24  872   3.917   3.267   4.650
    2V3OU    C1  873   3.647   3.565   4.282
    2V3OU    H1  874   3.625   3.614   4.183
    2V3OU    O3  875   3.660   3.656   4.391
    2V3OU   C19  876   3.614   3.790   4.379
    2V3OU    H9  877   3.515   3.793   4.324
    2V3OU    O4  878   3.707   3.852   4.293
    2V3OU   C20  879   3.840   3.876   4.340
    2V3OU   H10  880   3.876   3.770   4.351
    2V3OU   C24  881   3.607   3.856   4.517
    2V3OU   H16  882   3.541   3.796   4.585
    2V3OU   H17  883   3.564   3.957   4.499
    2V3OU   C23  884   3.747   3.871   4.578
    2V3OU   H15  885   3.792   3.767   4.590
    2V3OU    N1  886   3.738   3.947   4.701
    2V3OU   H19  887   3.804   3.907   4.764
    2V3OU   H20  888   3.650   3.925   4.742
    2V3OU   C21  889   3.838   3.946   4.476
    2V3OU   H11  890   3.938   3.919   4.520
    2V3OU    O5  891   3.823   4.086   4.492
    2V3OU   H18  892   3.767   4.091   4.571
    2V3OU   C22  893   3.908   3.948   4.224
    2V3OU   H12  894   3.860   4.047   4.205
    2V3OU   H13  895   3.896   3.888   4.129
    2V3OU   H14  896   4.017   3.963   4.242
    2V3OU   C11  897   3.158   3.468   4.287
    2V3OU    O1  898   3.139   3.579   4.234
    2V3OU    C9  899   3.297   3.424   4.316
    2V3OU    C7  900   3.401   3.505   4.274
    2V3OU    O9  901   3.386   3.622   4.203
    2V3OU   H25  902   3.289   3.629   4.198
    2V3OU   C17  903   2.822   3.312   4.309
    2V3OU    H7  904   2.729   3.347   4.266
    2V3OU   C18  905   2.848   3.215   4.405
    2V3OU    H8  906   2.783   3.168   4.481
    3SOL     OW  907   3.273   4.273   5.303
    3SOL    HW1  908   3.257   4.362   5.261
    3SOL    HW2  909   3.185   4.229   5.324
    4SOL     OW  910   0.019   0.127   0.481
    4SOL    HW1  911   6.957   0.157   0.536
    4SOL    HW2  912   0.094   0.192   0.492
    5SOL     OW  913   4.700   1.167   2.059
    5SOL    HW1  914   4.672   1.263   2.058
    5SOL    HW2  915   4.649   1.118   2.130
    6SOL     OW  916   5.543   2.016   3.143
    6SOL    HW1  917   5.486   2.089   3.107
    6SOL    HW2  918   5.610   2.054   3.208
    7SOL     OW  919   0.960   4.261   4.900
    7SOL    HW1  920   0.890   4.190   4.898
    7SOL    HW2  921   0.969   4.302   4.809
    8SOL     OW  922   2.412   2.430   5.655
    8SOL    HW1  923   2.410   2.468   5.563
    8SOL    HW2  924   2.494   2.461   5.703
    9SOL     OW  925   6.833   1.662   6.112
    9SOL    HW1  926   6.929   1.687   6.127
    9SOL    HW2  927   6.822   1.563   6.123
   10SOL     OW  928   3.735   5.249   3.709
   10SOL    HW1  929   3.779   5.279   3.794
   10SOL    HW2  930   3.715   5.151   3.714
   11SOL     OW  931   2.059   0.366   0.079
   11SOL    HW1  932   1.985   0.315   0.124
   11SOL    HW2  933   2.115   0.303   0.025
   12SOL     OW  934   2.611   4.690   3.806
   12SOL    HW1  935   2.673   4.703   3.729
   12SOL    HW2  936   2.517   4.688   3.772
   13SOL     OW  937   3.517   6.100   3.107
   13SOL    HW1  938   3.450   6.171   3.085
   13SOL    HW2  939   3.609   6.141   3.107
   14SOL     OW  940   4.686   4.766   5.695
   14SOL    HW1  941   4.656   4.822   5.772
   14SOL    HW2  942   4.637   4.679   5.696
   15SOL     OW  943   0.090   5.940   6.437
   15SOL    HW1  944   0.029   5.970   6.511
   15SOL    HW2  945   0.101   5.841   6.440
   16SOL     OW  946   5.691   2.760   6.248
   16SOL    HW1  947   5.697   2.775   6.347
   16SOL    HW2  948   5.630   2.829   6.208
   17SOL     OW  949   6.140   0.309   5.688
   17SOL    HW1  950   6.125   0.320   5.786
   17SOL    HW2  951   6.159   0.398   5.646
   18SOL     OW  952   3.030   1.470   5.102
   18SOL    HW1  953   3.041   1.396   5.035
   18SOL    HW2  954   2.984   1.547   5.059
   19SOL     OW  955   0.835   2.690   2.692
   19SOL    HW1  956   0.769   2.656   2.759
   19SOL    HW2  957   0.927   2.662   2.718
   20SOL     OW  958   5.829   2.010   6.076
   20SOL    HW1  959   5.797   2.064   5.998
   20SOL    HW2  960   5.929   2.001   6.071
   21SOL     OW  961   3.326   6.508   2.822
   21SOL    HW1  962   3.303   6.515   2.725
   21SOL    HW2  963   3.249   6.542   2.876
   22SOL     OW  964   1.462   5.867   5.431
   22SOL    HW1  965   1.375   5.840   5.391
   22SOL    HW2  966   1.513   5.923   5.366
   23SOL     OW  967   4.821   4.622   2.522
   23SOL    HW1  968   4.854   4.662   2.608
   23SOL    HW2  969   4.841   4.525   2.520
   24SOL     OW  970   4.000   0.215   0.844
   24SOL    HW1  971   4.054   0.292   0.877
   24SOL    HW2  972   4.036   0.185   0.755
   25SOL     OW  973   3.189   6.890   3.787
   25SOL    HW1  974   3.225   6.976   3.754
   25SOL    HW2  975   3.172   6.829   3.710
   26SOL     OW  976   1.310   2.248   6.950
   26SOL    HW1  977   1.287   2.163   6.902
   26SOL    HW2  978   1.368   2.226   0.012
   27SOL     OW  979   0.449   1.149   2.821
   27SOL    HW1  980   0.467   1.066   2.875
   27SOL    HW2  981   0.428   1.123   2.726
   28SOL     OW  982   1.404   0.917   4.324
   28SOL    HW1  983   1.357   0.882   4.405
   28SOL    HW2  984   1.487   0.965   4.351
   29SOL     OW  985   6.263   1.089   1.116
   29SOL    HW1  986   6.230   1.125   1.204
   29SOL    HW2  987   6.327   1.014   1.133
   30SOL     OW  988   3.787   0.219   4.982
   30SOL    HW1  989   3.868   0.195   5.035
   30SOL    HW2  990   3.741   0.135   4.954
   31SOL     OW  991   0.114   1.962   5.253
   31SOL    HW1  992   0.116   2.015   5.338
   31SOL    HW2  993   0.208   1.944   5.223
   32SOL     OW  994   1.626   1.842   1.641
   32SOL    HW1  995   1.700   1.883   1.695
   32SOL    HW2  996   1.662   1.810   1.554
   33SOL     OW  997   0.122   3.789   5.025
   33SOL    HW1  998   0.026   3.817   5.025
   33SOL    HW2  999   0.175   3.852   4.968
   34SOL     OW 1000   1.787   5.008   4.883
   34SOL    HW1 1001   1.847   4.941   4.840
   34SOL    HW2 1002   1.775   5.086   4.822
   35SOL     OW 1003   3.763   2.452   5.948
   35SOL    HW1 1004   3.842   2.482   5.894
   35SOL    HW2 1005   3.788   2.373   6.003
   36SOL     OW 1006   5.102   1.486   4.211
   36SOL    HW1 1007   5.189   1.528   4.237
   36SOL    HW2 1008   5.119   1.414   4.144
   37SOL     OW 1009   2.390   1.357   3.266
   37SOL    HW1 1010   2.380   1.325   3.172
   37SOL    HW2 1011   2.406   1.278   3.326
   38SOL     OW 1012   2.209   5.016   1.863
   38SOL    HW1 1013   2.165   5.105   1.848
   38SOL    HW2 1014   2.305   5.021   1.833
   39SOL     OW 1015   6.364   4.422   6.587
   39SOL    HW1 1016   6.344   4.375   6.501
   39SOL    HW2 1017   6.377   4.519   6.570
   40SOL     OW 1018   3.279   0.398   5.953
   40SOL    HW1 1019   3.245   0.489   5.979
   40SOL    HW2 1020   3.364   0.408   5.901
   41SOL     OW 1021   5.903   3.838   2.514
   41SOL    HW1 1022   5.843   3.821   2.593
   41SOL    HW2 1023   5.940   3.751   2.482
   42SOL     OW 1024   3.071   6.063   4.868
   42SOL    HW1 1025   3.133   6.123   4.816
   42SOL    HW2 1026   2.980   6.066   4.827
   43SOL     OW 1027   4.017   6.556   4.484
   43SOL    HW1 1028   4.053   6.522   4.397
   43SOL    HW2 1029   3.919   6.535   4.489
   44SOL     OW 1030   5.940   2.936   4.936
   44SOL    HW1 1031   5.879   2.986   4.874
   44SOL    HW2 1032   5.921   2.961   5.030
   45SOL     OW 1033   4.625   5.772   1.591
   45SOL    HW1 1034   4.657   5.851   1.644
   45SOL    HW2 1035   4.543   5.734   1.634
   46SOL     OW 1036   0.323   3.229   4.249
   46SOL    HW1 1037   0.334   3.141   4.203
   46SOL    HW2 1038   0.297   3.299   4.183
   47SOL     OW 1039   5.150   3.837   1.875
   47SOL    HW1 1040   5.104   3.916   1.834
   47SOL    HW2 1041   5.212   3.797   1.808
   48SOL     OW 1042   0.540   3.161   6.693
   48SOL    HW1 1043   0.594   3.085   6.730
   48SOL    HW2 1044   0.445   3.152   6.724
   49SOL     OW 1045   5.122   2.556   0.406
   49SOL    HW1 1046   5.113   2.509   0.319
   49SOL    HW2 1047   5.037   2.547   0.458
   50SOL     OW 1048   6.135   1.691   5.938
   50SOL    HW1 1049   6.098   1.776   5.977
   50SOL    HW2 1050   6.228   1.707   5.906
   51SOL     OW 1051   2.237   4.991   2.354
   51SOL    HW1 1052   2.305   5.060   2.329
   51SOL    HW2 1053   2.247   4.969   2.451
   52SOL     OW 1054   5.688   2.918   1.391
   52SOL    HW1 1055   5.711   2.989   1.325
   52SOL    HW2 1056   5.611   2.864   1.357
   53SOL     OW 1057   5.267   0.307   3.511
   53SOL    HW1 1058   5.224   0.282   3.424
   53SOL    HW2 1059   5.250   0.236   3.579
   54SOL     OW 1060   5.672   6.252   0.404
   54SOL    HW1 1061   5.654   6.310   0.325
   54SOL    HW2 1062   5.691   6.309   0.484
   55SOL     OW 1063   2.342   2.445   6.432
   55SOL    HW1 1064   2.338   2.443   6.532
   55SOL    HW2 1065   2.434   2.419   6.402
   56SOL     OW 1066   1.323   1.807   0.751
   56SOL    HW1 1067   1.261   1.877   0.784
   56SOL    HW2 1068   1.351   1.748   0.826
   57SOL     OW 1069   3.594   0.513   6.657
   57SOL    HW1 1070   3.528   0.573   6.611
   57SOL    HW2 1071   3.682   0.560   6.663
   58SOL     OW 1072   0.716   1.096   6.270
   58SOL    HW1 1073   0.675   1.142   6.349
   58SOL    HW2 1074   0.682   1.002   6.264
   59SOL     OW 1075   6.468   3.625   6.140
   59SOL    HW1 1076   6.466   3.684   6.221
   59SOL    HW2 1077   6.376   3.619   6.101
   60SOL     OW 1078   6.017   1.045   3.804
   60SOL    HW1 1079   6.090   0.997   3.755
   60SOL    HW2 1080   5.929   1.011   3.773
   61SOL     OW 1081   0.593   1.397   4.435
   61SOL    HW1 1082   0.510   1.351   4.467
   61SOL    HW2 1083   0.569   1.461   4.362
   62SOL     OW 1084   1.363   1.393   1.859
   62SOL    HW1 1085   1.450   1.358   1.825
   62SOL    HW2 1086   1.291   1.326   1.840
   63SOL     OW 1087   3.906   6.838   4.213
   63SOL    HW1 1088   3.896   6.896   4.294
   63SOL    HW2 1089   4.000   6.840   4.181
   64SOL     OW 1090   0.959   3.408   6.432
   64SOL    HW1 1091   0.872   3.425   6.387
   64SOL    HW2 1092   0.943   3.356   6.516
   65SOL     OW 1093   0.059   0.180   5.540
   65SOL    HW1 1094   0.008   0.159   5.457
   65SOL    HW2 1095   0.112   0.099   5.568
   66SOL     OW 1096   3.231   0.182   2.842
   66SOL    HW1 1097   3.324   0.218   2.831
   66SOL    HW2 1098   3.175   0.213   2.765
   67SOL     OW 1099   0.327   2.429   0.340
   67SOL    HW1 1100   0.406   2.403   0.285
   67SOL    HW2 1101   0.338   2.395   0.433
   68SOL     OW 1102   0.094   1.491   5.761
   68SOL    HW1 1103   0.169   1.519   5.820
   68SOL    HW2 1104   0.115   1.515   5.666
   69SOL     OW 1105   1.236   4.836   6.105
   69SOL    HW1 1106   1.255   4.922   6.153
   69SOL    HW2 1107   1.240   4.851   6.007
   70SOL     OW 1108   5.233   4.008   5.058
   70SOL    HW1 1109   5.247   4.093   5.109
   70SOL    HW2 1110   5.314   3.989   5.003
   71SOL     OW 1111   4.745   1.914   4.417
   71SOL    HW1 1112   4.784   1.931   4.507
   71SOL    HW2 1113   4.786   1.976   4.350
   72SOL     OW 1114   0.657   0.753   2.956
   72SOL    HW1 1115   0.675   0.816   3.032
   72SOL    HW2 1116   0.638   0.805   2.873
   73SOL     OW 1117   3.269   1.059   0.137
   73SOL    HW1 1118   3.195   0.996   0.158
   73SOL    HW2 1119   3.329   1.068   0.216
   74SOL     OW 1120   2.039   1.752   6.200
   74SOL    HW1 1121   1.989   1.759   6.114
   74SOL    HW2 1122   2.080   1.661   6.207
   75SOL     OW 1123   4.540   1.494   1.288
   75SOL    HW1 1124   4.534   1.409   1.235
   75SOL    HW2 1125   4.498   1.480   1.378
   76SOL     OW 1126   2.815   4.323   6.060
   76SOL    HW1 1127   2.852   4.319   6.152
   76SOL    HW2 1128   2.828   4.414   6.022
   77SOL     OW 1129   1.893   5.469   4.348
   77SOL    HW1 1130   1.951   5.550   4.347
   77SOL    HW2 1131   1.816   5.483   4.410
   78SOL     OW 1132   4.106   1.212   1.051
   78SOL    HW1 1133   4.123   1.143   1.122
   78SOL    HW2 1134   4.125   1.173   0.961
   79SOL     OW 1135   2.555   5.270   1.442
   79SOL    HW1 1136   2.503   5.253   1.526
   79SOL    HW2 1137   2.503   5.236   1.363
   80SOL     OW 1138   4.724   2.288   4.708
   80SOL    HW1 1139   4.721   2.208   4.768
   80SOL    HW2 1140   4.722   2.371   4.764
   81SOL     OW 1141   1.738   0.478   0.802
   81SOL    HW1 1142   1.645   0.443   0.791
   81SOL    HW2 1143   1.746   0.528   0.888
   82SOL     OW 1144   0.464   6.312   2.550
   82SOL    HW1 1145   0.497   6.345   2.461
   82SOL    HW2 1146   0.531   6.248   2.588
   83SOL     OW 1147   6.750   1.709   5.662
   83SOL    HW1 1148   6.779   1.614   5.648
   83SOL    HW2 1149   6.830   1.769   5.660
   84SOL     OW 1150   6.039   2.961   3.763
   84SOL    HW1 1151   6.004   3.048   3.798
   84SOL    HW2 1152   6.133   2.947   3.794
   85SOL     OW 1153   1.825   7.013   4.076
   85SOL    HW1 1154   1.741   6.958   4.078
   85SOL    HW2 1155   1.891   6.975   4.140
   86SOL     OW 1156   5.997   1.027   6.702
   86SOL    HW1 1157   5.980   0.980   6.615
   86SOL    HW2 1158   5.918   1.082   6.726
   87SOL     OW 1159   4.320   4.289   6.841
   87SOL    HW1 1160   4.240   4.338   6.873
   87SOL    HW2 1161   4.401   4.348   6.845
   88SOL     OW 1162   2.902   2.263   5.614
   88SOL    HW1 1163   2.967   2.254   5.690
   88SOL    HW2 1164   2.950   2.295   5.533
   89SOL     OW 1165   3.011   3.878   2.416
   89SOL    HW1 1166   2.929   3.927   2.445
   89SOL    HW2 1167   3.004   3.856   2.319
   90SOL     OW 1168   4.599   4.302   3.068
   90SOL    HW1 1169   4.625   4.206   3.072
   90SOL    HW2 1170   4.604   4.333   2.973
   91SOL     OW 1171   6.030   5.774   5.871
   91SOL    HW1 1172   6.018   5.847   5.939
   91SOL    HW2 1173   6.058   5.815   5.784
   92SOL     OW 1174   4.882   4.086   0.408
   92SOL    HW1 1175   4.805   4.044   0.361
   92SOL    HW2 1176   4.874   4.072   0.507
   93SOL     OW 1177   3.250   3.255   0.996
   93SOL    HW1 1178   3.209   3.200   1.069
   93SOL    HW2 1179   3.243   3.205   0.909
   94SOL     OW 1180   2.563   0.222   6.577
   94SOL    HW1 1181   2.557   0.168   6.493
   94SOL    HW2 1182   2.615   0.305   6.560
   95SOL     OW 1183   0.640   0.443   4.338
   95SOL    HW1 1184   0.739   0.448   4.338
   95SOL    HW2 1185   0.608   0.394   4.420
   96SOL     OW 1186   4.876   5.399   0.156
   96SOL    HW1 1187   4.924   5.455   0.223
   96SOL    HW2 1188   4.929   5.394   0.072
   97SOL     OW 1189   2.037   4.492   5.450
   97SOL    HW1 1190   1.963   4.442   5.495
   97SOL    HW2 1191   2.102   4.524   5.519
   98SOL     OW 1192   0.644   2.689   2.142
   98SOL    HW1 1193   0.609   2.694   2.236
   98SOL    HW2 1194   0.611   2.605   2.099
   99SOL     OW 1195   3.738   3.760   3.196
   99SOL    HW1 1196   3.698   3.808   3.118
   99SOL    HW2 1197   3.772   3.671   3.166
  100SOL     OW 1198   0.051   6.827   3.794
  100SOL    HW1 1199   0.070   6.914   3.748
  100SOL    HW2 1200   0.070   6.751   3.732
  101SOL     OW 1201   0.694   5.050   2.278
  101SOL    HW1 1202   0.618   5.053   2.343
  101SOL    HW2 1203   0.674   5.112   2.202
  102SOL     OW 1204   2.727   6.052   2.086
  102SOL    HW1 1205   2.783   5.969   2.086
  102SOL    HW2 1206   2.662   6.049   2.010
  103SOL     OW 1207   2.026   1.164   2.494
  103SOL    HW1 1208   1.935   1.195   2.523
  103SOL    HW2 1209   2.094   1.232   2.520
  104SOL     OW 1210   1.003   4.585   2.242
  104SOL    HW1 1211   1.089   4.635   2.250
  104SOL    HW2 1212   0.929   4.648   2.220
  105SOL     OW 1213   5.552   1.307   6.558
  105SOL    HW1 1214   5.458   1.337   6.577
  105SOL    HW2 1215   5.565   1.296   6.460
  106SOL     OW 1216   5.074   4.930   1.555
  106SOL    HW1 1217   5.122   4.992   1.617
  106SOL    HW2 1218   5.127   4.846   1.545
  107SOL     OW 1219   6.634   0.801   0.247
  107SOL    HW1 1220   6.724   0.840   0.267
  107SOL    HW2 1221   6.640   0.702   0.248
  108SOL     OW 1222   2.765   0.580   4.621
  108SOL    HW1 1223   2.859   0.607   4.642
  108SOL    HW2 1224   2.755   0.571   4.521
  109SOL     OW 1225   3.307   0.821   2.672
  109SOL    HW1 1226   3.380   0.871   2.625
  109SOL    HW2 1227   3.303   0.728   2.635
  110SOL     OW 1228   2.439   4.470   5.273
  110SOL    HW1 1229   2.447   4.460   5.373
  110SOL    HW2 1230   2.351   4.434   5.242
  111SOL     OW 1231   6.677   1.499   2.632
  111SOL    HW1 1232   6.687   1.571   2.701
  111SOL    HW2 1233   6.671   1.410   2.678
  112SOL     OW 1234   3.952   6.213   6.797
  112SOL    HW1 1235   3.885   6.242   6.865
  112SOL    HW2 1236   3.915   6.135   6.745
  113SOL     OW 1237   6.415   5.372   2.767
  113SOL    HW1 1238   6.496   5.318   2.790
  113SOL    HW2 1239   6.440   5.468   2.756
  114SOL     OW 1240   1.396   4.690   3.080
  114SOL    HW1 1241   1.322   4.623   3.082
  114SOL    HW2 1242   1.449   4.684   3.165
  115SOL     OW 1243   5.792   1.233   3.576
  115SOL    HW1 1244   5.769   1.322   3.613
  115SOL    HW2 1245   5.884   1.235   3.538
  116SOL     OW 1246   0.281   6.010   1.118
  116SOL    HW1 1247   0.335   6.047   1.194
  116SOL    HW2 1248   0.192   5.979   1.152
  117SOL     OW 1249   2.942   1.562   6.760
  117SOL    HW1 1250   2.848   1.587   6.740
  117SOL    HW2 1251   2.978   1.621   6.833
  118SOL     OW 1252   1.532   1.402   3.242
  118SOL    HW1 1253   1.557   1.494   3.272
  118SOL    HW2 1254   1.459   1.367   3.300
  119SOL     OW 1255   6.985   6.878   0.124
  119SOL    HW1 1256   6.926   6.815   0.173
  119SOL    HW2 1257   0.038   6.827   0.074
  120SOL     OW 1258   4.633   0.607   5.233
  120SOL    HW1 1259   4.645   0.508   5.241
  120SOL    HW2 1260   4.645   0.634   5.137
  121SOL     OW 1261   1.298   4.016   0.053
  121SOL    HW1 1262   1.260   4.021   0.146
  121SOL    HW2 1263   1.264   4.093   7.016
  122SOL     OW 1264   1.043   4.715   6.996
  122SOL    HW1 1265   1.098   4.775   0.036
  122SOL    HW2 1266   1.025   4.630   0.028
  123SOL     OW 1267   1.594   1.135   1.766
  123SOL    HW1 1268   1.528   1.062   1.749
  123SOL    HW2 1269   1.606   1.189   1.683
  124SOL     OW 1270   3.133   2.497   0.824
  124SOL    HW1 1271   3.120   2.504   0.725
  124SOL    HW2 1272   3.111   2.584   0.867
  125SOL     OW 1273   3.219   2.537   6.889
  125SOL    HW1 1274   3.312   2.522   6.922
  125SOL    HW2 1275   3.221   2.549   6.789
  126SOL     OW 1276   3.005   3.241   3.294
  126SOL    HW1 1277   3.056   3.243   3.380
  126SOL    HW2 1278   3.064   3.267   3.218
  127SOL     OW 1279   6.827   6.076   5.626
  127SOL    HW1 1280   6.745   6.025   5.652
  127SOL    HW2 1281   6.800   6.166   5.591
  128SOL     OW 1282   4.888   3.672   2.191
  128SOL    HW1 1283   4.793   3.641   2.192
  128SOL    HW2 1284   4.946   3.600   2.153
  129SOL     OW 1285   1.967   5.411   0.599
  129SOL    HW1 1286   1.936   5.339   0.661
  129SOL    HW2 1287   2.035   5.374   0.536
  130SOL     OW 1288   5.956   1.737   4.434
  130SOL    HW1 1289   6.017   1.662   4.459
  130SOL    HW2 1290   5.933   1.790   4.515
  131SOL     OW 1291   6.433   1.305   4.189
  131SOL    HW1 1292   6.346   1.272   4.226
  131SOL    HW2 1293   6.417   1.361   4.108
  132SOL     OW 1294   3.347   3.996   1.745
  132SOL    HW1 1295   3.280   4.066   1.720
  132SOL    HW2 1296   3.418   4.036   1.801
  133SOL     OW 1297   5.235   0.588   4.077
  133SOL    HW1 1298   5.221   0.561   4.172
  133SOL    HW2 1299   5.175   0.533   4.018
  134SOL     OW 1300   6.214   0.507   2.297
  134SOL    HW1 1301   6.300   0.556   2.299
  134SOL    HW2 1302   6.164   0.523   2.382
  135SOL     OW 1303   4.910   3.429   4.545
  135SOL    HW1 1304   4.923   3.515   4.594
  135SOL    HW2 1305   4.880   3.359   4.610
  136SOL     OW 1306   2.435   6.015   4.899
  136SOL    HW1 1307   2.336   6.012   4.911
  136SOL    HW2 1308   2.479   5.981   4.982
  137SOL     OW 1309   3.913   1.349   4.673
  137SOL    HW1 1310   3.874   1.440   4.689
  137SOL    HW2 1311   4.012   1.354   4.684
  138SOL     OW 1312   0.761   5.521   3.628
  138SOL    HW1 1313   0.690   5.570   3.578
  138SOL    HW2 1314   0.851   5.547   3.592
  139SOL     OW 1315   2.112   5.511   6.462
  139SOL    HW1 1316   2.100   5.497   6.363
  139SOL    HW2 1317   2.110   5.609   6.482
  140SOL     OW 1318   2.279   0.251   3.110
  140SOL    HW1 1319   2.374   0.263   3.081
  140SOL    HW2 1320   2.275   0.188   3.188
  141SOL     OW 1321   6.647   3.414   0.094
  141SOL    HW1 1322   6.693   3.443   0.010
  141SOL    HW2 1323   6.716   3.387   0.162
  142SOL     OW 1324   1.412   4.562   1.609
  142SOL    HW1 1325   1.451   4.515   1.530
  142SOL    HW2 1326   1.485   4.584   1.674
  143SOL     OW 1327   5.927   6.345   1.779
  143SOL    HW1 1328   5.837   6.386   1.792
  143SOL    HW2 1329   5.965   6.375   1.692
  144SOL     OW 1330   3.039   4.837   3.631
  144SOL    HW1 1331   3.103   4.878   3.696
  144SOL    HW2 1332   3.073   4.849   3.537
  145SOL     OW 1333   0.135   4.470   2.612
  145SOL    HW1 1334   0.042   4.433   2.617
  145SOL    HW2 1335   0.143   4.531   2.533
  146SOL     OW 1336   6.019   1.575   6.181
  146SOL    HW1 1337   6.039   1.613   6.271
  146SOL    HW2 1338   6.081   1.615   6.113
  147SOL     OW 1339   5.393   1.316   5.071
  147SOL    HW1 1340   5.299   1.350   5.060
  147SOL    HW2 1341   5.454   1.394   5.085
  148SOL     OW 1342   1.192   4.982   1.501
  148SOL    HW1 1343   1.144   4.926   1.568
  148SOL    HW2 1344   1.126   5.040   1.453
  149SOL     OW 1345   2.599   1.945   5.380
  149SOL    HW1 1346   2.511   1.901   5.395
  149SOL    HW2 1347   2.636   1.976   5.468
  150SOL     OW 1348   3.931   1.773   5.312
  150SOL    HW1 1349   3.971   1.708   5.376
  150SOL    HW2 1350   3.913   1.727   5.225
  151SOL     OW 1351   3.955   1.803   0.902
  151SOL    HW1 1352   3.919   1.798   0.809
  151SOL    HW2 1353   4.034   1.865   0.904
  152SOL     OW 1354   0.597   1.589   0.056
  152SOL    HW1 1355   0.596   1.629   6.982
  152SOL    HW2 1356   0.522   1.524   0.065
  153SOL     OW 1357   3.002   1.138   3.242
  153SOL    HW1 1358   2.908   1.127   3.276
  153SOL    HW2 1359   3.065   1.147   3.319
  154SOL     OW 1360   6.437   1.684   0.701
  154SOL    HW1 1361   6.395   1.684   0.610
  154SOL    HW2 1362   6.420   1.772   0.745
  155SOL     OW 1363   0.141   6.939   1.627
  155SOL    HW1 1364   0.048   6.963   1.600
  155SOL    HW2 1365   0.143   6.912   1.723
  156SOL     OW 1366   5.088   0.834   0.363
  156SOL    HW1 1367   5.023   0.846   0.288
  156SOL    HW2 1368   5.182   0.841   0.327
  157SOL     OW 1369   5.405   3.562   0.264
  157SOL    HW1 1370   5.467   3.613   0.205
  157SOL    HW2 1371   5.428   3.464   0.259
  158SOL     OW 1372   1.563   2.795   2.290
  158SOL    HW1 1373   1.556   2.744   2.376
  158SOL    HW2 1374   1.543   2.891   2.306
  159SOL     OW 1375   4.576   4.980   0.758
  159SOL    HW1 1376   4.617   5.007   0.671
  159SOL    HW2 1377   4.646   4.944   0.819
  160SOL     OW 1378   5.877   0.271   0.648
  160SOL    HW1 1379   5.825   0.321   0.579
  160SOL    HW2 1380   5.814   0.232   0.715
  161SOL     OW 1381   1.036   6.628   0.786
  161SOL    HW1 1382   0.996   6.577   0.862
  161SOL    HW2 1383   0.974   6.701   0.758
  162SOL     OW 1384   2.161   6.412   6.895
  162SOL    HW1 1385   2.190   6.451   6.982
  162SOL    HW2 1386   2.123   6.320   6.911
  163SOL     OW 1387   6.905   4.897   2.853
  163SOL    HW1 1388   6.827   4.921   2.795
  163SOL    HW2 1389   6.914   4.797   2.857
  164SOL     OW 1390   1.884   2.059   3.121
  164SOL    HW1 1391   1.840   2.119   3.187
  164SOL    HW2 1392   1.860   2.088   3.028
  165SOL     OW 1393   0.352   5.451   2.239
  165SOL    HW1 1394   0.415   5.386   2.280
  165SOL    HW2 1395   0.267   5.405   2.213
  166SOL     OW 1396   6.244   3.995   1.200
  166SOL    HW1 1397   6.200   3.981   1.288
  166SOL    HW2 1398   6.342   4.010   1.213
  167SOL     OW 1399   5.076   1.861   0.014
  167SOL    HW1 1400   5.038   1.770   7.015
  167SOL    HW2 1401   5.145   1.880   6.961
  168SOL     OW 1402   3.968   3.326   2.237
  168SOL    HW1 1403   4.022   3.346   2.319
  168SOL    HW2 1404   4.003   3.381   2.160
  169SOL     OW 1405   6.061   3.089   0.694
  169SOL    HW1 1406   5.975   3.132   0.667
  169SOL    HW2 1407   6.135   3.123   0.637
  170SOL     OW 1408   1.242   5.585   2.660
  170SOL    HW1 1409   1.325   5.582   2.715
  170SOL    HW2 1410   1.163   5.597   2.720
  171SOL     OW 1411   1.571   3.214   0.155
  171SOL    HW1 1412   1.560   3.282   0.082
  171SOL    HW2 1413   1.667   3.208   0.181
  172SOL     OW 1414   5.504   2.130   1.560
  172SOL    HW1 1415   5.533   2.102   1.652
  172SOL    HW2 1416   5.422   2.080   1.534
  173SOL     OW 1417   5.901   0.978   5.305
  173SOL    HW1 1418   5.999   0.997   5.315
  173SOL    HW2 1419   5.876   0.977   5.208
  174SOL     OW 1420   5.347   5.264   5.387
  174SOL    HW1 1421   5.438   5.265   5.346
  174SOL    HW2 1422   5.341   5.190   5.454
  175SOL     OW 1423   1.688   1.024   0.820
  175SOL    HW1 1424   1.688   0.933   0.863
  175SOL    HW2 1425   1.657   1.092   0.886
  176SOL     OW 1426   5.026   4.717   3.065
  176SOL    HW1 1427   5.043   4.641   3.002
  176SOL    HW2 1428   5.013   4.682   3.157
  177SOL     OW 1429   4.965   1.918   4.653
  177SOL    HW1 1430   5.000   1.893   4.743
  177SOL    HW2 1431   4.988   2.014   4.634
  178SOL     OW 1432   2.654   5.415   5.066
  178SOL    HW1 1433   2.620   5.460   5.149
  178SOL    HW2 1434   2.748   5.442   5.049
  179SOL     OW 1435   4.122   5.598   7.013
  179SOL    HW1 1436   4.187   5.548   0.054
  179SOL    HW2 1437   4.173   5.658   6.951
  180SOL     OW 1438   3.644   6.703   1.168
  180SOL    HW1 1439   3.691   6.771   1.225
  180SOL    HW2 1440   3.577   6.749   1.110
  181SOL     OW 1441   2.822   2.527   5.383
  181SOL    HW1 1442   2.829   2.440   5.335
  181SOL    HW2 1443   2.905   2.542   5.437
  182SOL     OW 1444   4.902   3.517   0.227
  182SOL    HW1 1445   4.829   3.566   0.181
  182SOL    HW2 1446   4.923   3.562   0.314
  183SOL     OW 1447   4.055   2.079   4.348
  183SOL    HW1 1448   4.071   2.135   4.429
  183SOL    HW2 1449   3.958   2.083   4.324
  184SOL     OW 1450   1.212   5.815   3.642
  184SOL    HW1 1451   1.214   5.730   3.695
  184SOL    HW2 1452   1.149   5.805   3.565
  185SOL     OW 1453   0.541   1.861   4.076
  185SOL    HW1 1454   0.493   1.931   4.022
  185SOL    HW2 1455   0.564   1.899   4.166
  186SOL     OW 1456   5.868   6.049   4.324
  186SOL    HW1 1457   5.946   6.030   4.382
  186SOL    HW2 1458   5.889   6.125   4.262
  187SOL     OW 1459   4.197   5.340   2.702
  187SOL    HW1 1460   4.221   5.256   2.750
  187SOL    HW2 1461   4.252   5.416   2.737
  188SOL     OW 1462   2.148   2.255   3.188
  188SOL    HW1 1463   2.080   2.319   3.152
  188SOL    HW2 1464   2.187   2.202   3.112
  189SOL     OW 1465   5.908   5.220   6.954
  189SOL    HW1 1466   5.974   5.295   6.950
  189SOL    HW2 1467   5.892   5.185   6.862
  190SOL     OW 1468   6.026   5.459   6.991
  190SOL    HW1 1469   6.079   5.417   0.048
  190SOL    HW2 1470   6.069   5.545   6.965
  191SOL     OW 1471   6.810   1.156   5.978
  191SOL    HW1 1472   6.757   1.102   5.913
  191SOL    HW2 1473   6.895   1.187   5.934
  192SOL     OW 1474   0.528   4.384   1.440
  192SOL    HW1 1475   0.607   4.420   1.391
  192SOL    HW2 1476   0.547   4.384   1.538
  193SOL     OW 1477   3.751   4.256   5.882
  193SOL    HW1 1478   3.662   4.230   5.921
  193SOL    HW2 1479   3.743   4.260   5.783
  194SOL     OW 1480   4.094   6.572   2.084
  194SOL    HW1 1481   4.155   6.585   2.162
  194SOL    HW2 1482   4.023   6.506   2.108
  195SOL     OW 1483   2.976   0.750   2.549
  195SOL    HW1 1484   3.054   0.758   2.488
  195SOL    HW2 1485   2.902   0.702   2.503
  196SOL     OW 1486   2.283   1.032   6.565
  196SOL    HW1 1487   2.312   1.035   6.469
  196SOL    HW2 1488   2.339   0.965   6.615
  197SOL     OW 1489   2.016   6.102   6.281
  197SOL    HW1 1490   1.964   6.049   6.213
  197SOL    HW2 1491   1.984   6.079   6.373
  198SOL     OW 1492   4.353   5.888   0.813
  198SOL    HW1 1493   4.262   5.846   0.808
  198SOL    HW2 1494   4.349   5.969   0.872
  199SOL     OW 1495   6.442   1.408   2.250
  199SOL    HW1 1496   6.373   1.394   2.178
  199SOL    HW2 1497   6.400   1.455   2.328
  200SOL     OW 1498   1.343   2.898   1.840
  200SOL    HW1 1499   1.383   2.990   1.849
  200SOL    HW2 1500   1.392   2.834   1.898
  201SOL     OW 1501   2.584   0.689   6.450
  201SOL    HW1 1502   2.658   0.634   6.490
  201SOL    HW2 1503   2.532   0.733   6.522
  202SOL     OW 1504   5.055   6.630   4.651
  202SOL    HW1 1505   5.020   6.550   4.700
  202SOL    HW2 1506   5.125   6.676   4.706
  203SOL     OW 1507   5.483   2.927   6.159
  203SOL    HW1 1508   5.395   2.888   6.131
  203SOL    HW2 1509   5.472   3.023   6.181
  204SOL     OW 1510   0.571   0.011   0.550
  204SOL    HW1 1511   0.519   6.950   0.514
  204SOL    HW2 1512   0.507   0.079   0.586
  205SOL     OW 1513   0.650   1.638   1.066
  205SOL    HW1 1514   0.722   1.570   1.050
  205SOL    HW2 1515   0.562   1.592   1.075
  206SOL     OW 1516   0.715   4.496   1.266
  206SOL    HW1 1517   0.753   4.584   1.295
  206SOL    HW2 1518   0.706   4.495   1.166
  207SOL     OW 1519   4.207   0.437   5.706
  207SOL    HW1 1520   4.113   0.415   5.731
  207SOL    HW2 1521   4.207   0.498   5.627
  208SOL     OW 1522   5.128   4.438   6.115
  208SOL    HW1 1523   5.167   4.420   6.205
  208SOL    HW2 1524   5.158   4.528   6.083
  209SOL     OW 1525   0.245   5.877   5.857
  209SOL    HW1 1526   0.198   5.889   5.945
  209SOL    HW2 1527   0.237   5.960   5.803
  210SOL     OW 1528   4.307   2.378   1.969
  210SOL    HW1 1529   4.210   2.370   1.991
  210SOL    HW2 1530   4.317   2.405   1.873
  211SOL     OW 1531   0.873   0.774   2.622
  211SOL    HW1 1532   0.781   0.798   2.589
  211SOL    HW2 1533   0.865   0.713   2.701
  212SOL     OW 1534   1.612   4.763   2.880
  212SOL    HW1 1535   1.662   4.677   2.867
  212SOL    HW2 1536   1.534   4.748   2.940
  213SOL     OW 1537   4.729   1.396   6.392
  213SOL    HW1 1538   4.631   1.410   6.380
  213SOL    HW2 1539   4.753   1.403   6.489
  214SOL     OW 1540   1.531   6.553   3.280
  214SOL    HW1 1541   1.614   6.570   3.332
  214SOL    HW2 1542   1.555   6.513   3.191
  215SOL     OW 1543   3.789   3.213   1.859
  215SOL    HW1 1544   3.753   3.300   1.894
  215SOL    HW2 1545   3.714   3.157   1.826
  216SOL     OW 1546   1.562   6.780   4.750
  216SOL    HW1 1547   1.469   6.805   4.726
  216SOL    HW2 1548   1.606   6.856   4.798
  217SOL     OW 1549   1.771   2.630   4.289
  217SOL    HW1 1550   1.809   2.722   4.280
  217SOL    HW2 1551   1.829   2.565   4.241
  218SOL     OW 1552   1.688   2.397   4.807
  218SOL    HW1 1553   1.718   2.481   4.762
  218SOL    HW2 1554   1.768   2.346   4.839
  219SOL     OW 1555   3.603   3.771   6.581
  219SOL    HW1 1556   3.552   3.856   6.572
  219SOL    HW2 1557   3.699   3.788   6.559
  220SOL     OW 1558   2.431   6.175   0.206
  220SOL    HW1 1559   2.340   6.216   0.203
  220SOL    HW2 1560   2.494   6.231   0.153
  221SOL     OW 1561   5.379   3.686   3.715
  221SOL    HW1 1562   5.335   3.638   3.790
  221SOL    HW2 1563   5.459   3.736   3.749
  222SOL     OW 1564   1.548   5.610   5.313
  222SOL    HW1 1565   1.575   5.704   5.333
  222SOL    HW2 1566   1.479   5.610   5.241
  223SOL     OW 1567   0.564   3.651   1.406
  223SOL    HW1 1568   0.506   3.672   1.486
  223SOL    HW2 1569   0.552   3.722   1.337
  224SOL     OW 1570   2.914   2.255   2.860
  224SOL    HW1 1571   2.980   2.205   2.804
  224SOL    HW2 1572   2.948   2.263   2.953
  225SOL     OW 1573   5.796   1.082   0.418
  225SOL    HW1 1574   5.874   1.144   0.407
  225SOL    HW2 1575   5.809   1.001   0.360
  226SOL     OW 1576   0.473   0.336   0.282
  226SOL    HW1 1577   0.496   0.254   0.229
  226SOL    HW2 1578   0.553   0.367   0.332
  227SOL     OW 1579   1.322   3.938   3.309
  227SOL    HW1 1580   1.357   3.847   3.285
  227SOL    HW2 1581   1.390   4.007   3.286
  228SOL     OW 1582   3.847   6.909   4.558
  228SOL    HW1 1583   3.791   6.847   4.613
  228SOL    HW2 1584   3.943   6.885   4.570
  229SOL     OW 1585   5.915   5.891   1.724
  229SOL    HW1 1586   5.887   5.797   1.743
  229SOL    HW2 1587   5.982   5.892   1.650
  230SOL     OW 1588   1.934   4.358   3.880
  230SOL    HW1 1589   1.991   4.298   3.823
  230SOL    HW2 1590   1.986   4.384   3.962
  231SOL     OW 1591   6.323   3.260   6.494
  231SOL    HW1 1592   6.363   3.168   6.493
  231SOL    HW2 1593   6.249   3.264   6.561
  232SOL     OW 1594   1.164   3.027   6.475
  232SOL    HW1 1595   1.170   3.055   6.379
  232SOL    HW2 1596   1.223   3.086   6.530
  233SOL     OW 1597   2.221   0.860   4.936
  233SOL    HW1 1598   2.205   0.773   4.891
  233SOL    HW2 1599   2.303   0.854   4.993
  234SOL     OW 1600   2.231   5.018   6.536
  234SOL    HW1 1601   2.213   4.928   6.577
  234SOL    HW2 1602   2.213   5.014   6.438
  235SOL     OW 1603   3.407   3.174   3.490
  235SOL    HW1 1604   3.410   3.257   3.546
  235SOL    HW2 1605   3.490   3.120   3.507
  236SOL     OW 1606   6.730   3.172   6.742
  236SOL    HW1 1607   6.752   3.106   6.670
  236SOL    HW2 1608   6.772   3.142   6.828
  237SOL     OW 1609   0.495   6.535   1.100
  237SOL    HW1 1610   0.499   6.437   1.116
  237SOL    HW2 1611   0.547   6.583   1.171
  238SOL     OW 1612   5.784   3.628   1.408
  238SOL    HW1 1613   5.819   3.627   1.314
  238SOL    HW2 1614   5.860   3.623   1.472
  239SOL     OW 1615   6.661   5.623   6.854
  239SOL    HW1 1616   6.705   5.667   6.932
  239SOL    HW2 1617   6.576   5.580   6.885
  240SOL     OW 1618   0.459   3.264   6.180
  240SOL    HW1 1619   0.388   3.203   6.145
  240SOL    HW2 1620   0.520   3.292   6.105
  241SOL     OW 1621   0.746   1.249   3.431
  241SOL    HW1 1622   0.727   1.240   3.333
  241SOL    HW2 1623   0.833   1.206   3.452
  242SOL     OW 1624   1.302   3.102   5.285
  242SOL    HW1 1625   1.313   3.026   5.222
  242SOL    HW2 1626   1.370   3.173   5.264
  243SOL     OW 1627   4.729   0.204   6.255
  243SOL    HW1 1628   4.780   0.197   6.341
  243SOL    HW2 1629   4.631   0.208   6.275
  244SOL     OW 1630   4.777   2.456   4.430
  244SOL    HW1 1631   4.729   2.369   4.440
  244SOL    HW2 1632   4.810   2.465   4.336
  245SOL     OW 1633   6.793   2.592   4.578
  245SOL    HW1 1634   6.876   2.645   4.597
  245SOL    HW2 1635   6.805   2.542   4.492
  246SOL     OW 1636   5.303   3.937   4.111
  246SOL    HW1 1637   5.259   3.868   4.168
  246SOL    HW2 1638   5.263   3.935   4.019
  247SOL     OW 1639   2.651   1.203   3.012
  247SOL    HW1 1640   2.564   1.251   3.027
  247SOL    HW2 1641   2.655   1.170   2.917
  248SOL     OW 1642   4.989   2.188   4.639
  248SOL    HW1 1643   4.916   2.254   4.625
  248SOL    HW2 1644   5.068   2.214   4.582
  249SOL     OW 1645   3.172   6.268   5.074
  249SOL    HW1 1646   3.159   6.348   5.015
  249SOL    HW2 1647   3.200   6.190   5.019
  250SOL     OW 1648   5.843   2.101   5.562
  250SOL    HW1 1649   5.942   2.111   5.576
  250SOL    HW2 1650   5.819   2.133   5.470
  251SOL     OW 1651   4.500   3.042   6.142
  251SOL    HW1 1652   4.425   3.090   6.186
  251SOL    HW2 1653   4.569   3.017   6.210
  252SOL     OW 1654   0.045   1.134   5.280
  252SOL    HW1 1655   0.004   1.225   5.275
  252SOL    HW2 1656   7.004   1.068   5.232
  253SOL     OW 1657   1.816   3.507   1.378
  253SOL    HW1 1658   1.874   3.425   1.379
  253SOL    HW2 1659   1.872   3.587   1.399
  254SOL     OW 1660   6.630   2.839   4.747
  254SOL    HW1 1661   6.684   2.756   4.727
  254SOL    HW2 1662   6.679   2.894   4.815
  255SOL     OW 1663   3.277   2.114   3.765
  255SOL    HW1 1664   3.336   2.063   3.702
  255SOL    HW2 1665   3.331   2.148   3.842
  256SOL     OW 1666   6.361   5.488   6.656
  256SOL    HW1 1667   6.298   5.556   6.618
  256SOL    HW2 1668   6.370   5.504   6.754
  257SOL     OW 1669   2.907   5.690   6.051
  257SOL    HW1 1670   2.887   5.762   6.118
  257SOL    HW2 1671   2.858   5.709   5.966
  258SOL     OW 1672   4.763   4.373   5.021
  258SOL    HW1 1673   4.838   4.320   4.982
  258SOL    HW2 1674   4.708   4.412   4.947
  259SOL     OW 1675   1.553   2.739   2.559
  259SOL    HW1 1676   1.598   2.650   2.558
  259SOL    HW2 1677   1.480   2.739   2.628
  260SOL     OW 1678   4.925   0.765   6.436
  260SOL    HW1 1679   4.934   0.743   6.533
  260SOL    HW2 1680   4.870   0.695   6.390
  261SOL     OW 1681   0.345   3.697   1.623
  261SOL    HW1 1682   0.418   3.714   1.689
  261SOL    HW2 1683   0.297   3.783   1.603
  262SOL     OW 1684   1.515   3.036   2.463
  262SOL    HW1 1685   1.607   2.999   2.474
  262SOL    HW2 1686   1.511   3.127   2.504
  263SOL     OW 1687   0.618   2.561   4.696
  263SOL    HW1 1688   0.713   2.565   4.667
  263SOL    HW2 1689   0.591   2.647   4.738
  264SOL     OW 1690   0.577   3.221   5.287
  264SOL    HW1 1691   0.488   3.244   5.326
  264SOL    HW2 1692   0.634   3.304   5.284
  265SOL     OW 1693   4.490   4.488   4.224
  265SOL    HW1 1694   4.522   4.416   4.163
  265SOL    HW2 1695   4.506   4.462   4.319
  266SOL     OW 1696   3.757   1.887   6.985
  266SOL    HW1 1697   3.830   1.870   0.036
  266SOL    HW2 1698   3.796   1.933   6.905
  267SOL     OW 1699   1.759   2.373   7.000
  267SOL    HW1 1700   1.763   2.463   6.957
  267SOL    HW2 1701   1.663   2.345   7.010
  268SOL     OW 1702   4.306   4.673   4.637
  268SOL    HW1 1703   4.264   4.635   4.720
  268SOL    HW2 1704   4.389   4.724   4.662
  269SOL     OW 1705   1.364   1.651   6.688
  269SOL    HW1 1706   1.379   1.582   6.760
  269SOL    HW2 1707   1.265   1.668   6.679
  270SOL     OW 1708   5.225   1.063   2.423
  270SOL    HW1 1709   5.184   1.072   2.332
  270SOL    HW2 1710   5.318   1.099   2.421
  271SOL     OW 1711   1.617   1.178   1.060
  271SOL    HW1 1712   1.558   1.148   1.135
  271SOL    HW2 1713   1.709   1.140   1.074
  272SOL     OW 1714   3.775   5.224   4.789
  272SOL    HW1 1715   3.808   5.218   4.884
  272SOL    HW2 1716   3.704   5.294   4.783
  273SOL     OW 1717   1.029   5.563   4.902
  273SOL    HW1 1718   1.003   5.631   4.970
  273SOL    HW2 1719   1.123   5.581   4.873
  274SOL     OW 1720   5.502   2.875   3.502
  274SOL    HW1 1721   5.417   2.858   3.450
  274SOL    HW2 1722   5.575   2.900   3.438
  275SOL     OW 1723   0.200   6.323   6.079
  275SOL    HW1 1724   0.196   6.251   6.149
  275SOL    HW2 1725   0.290   6.367   6.082
  276SOL     OW 1726   6.903   5.527   3.424
  276SOL    HW1 1727   6.900   5.515   3.325
  276SOL    HW2 1728   6.826   5.477   3.465
  277SOL     OW 1729   3.450   0.832   5.070
  277SOL    HW1 1730   3.384   0.794   5.135
  277SOL    HW2 1731   3.485   0.919   5.106
  278SOL     OW 1732   5.748   4.753   2.627
  278SOL    HW1 1733   5.802   4.757   2.543
  278SOL    HW2 1734   5.717   4.660   2.642
  279SOL     OW 1735   0.226   2.844   3.318
  279SOL    HW1 1736   0.186   2.883   3.401
  279SOL    HW2 1737   0.184   2.886   3.237
  280SOL     OW 1738   4.835   6.543   3.945
  280SOL    HW1 1739   4.807   6.517   3.853
  280SOL    HW2 1740   4.871   6.463   3.993
  281SOL     OW 1741   4.076   5.702   3.994
  281SOL    HW1 1742   4.086   5.635   3.920
  281SOL    HW2 1743   4.020   5.778   3.961
  282SOL     OW 1744   4.389   1.716   5.748
  282SOL    HW1 1745   4.316   1.730   5.815
  282SOL    HW2 1746   4.368   1.636   5.692
  283SOL     OW 1747   6.186   0.210   4.853
  283SOL    HW1 1748   6.156   0.115   4.846
  283SOL    HW2 1749   6.115   0.271   4.819
  284SOL     OW 1750   0.277   4.601   4.733
  284SOL    HW1 1751   0.279   4.649   4.821
  284SOL    HW2 1752   0.210   4.645   4.673
  285SOL     OW 1753   5.487   6.994   0.247
  285SOL    HW1 1754   5.391   6.994   0.274
  285SOL    HW2 1755   5.515   0.070   0.223
  286SOL     OW 1756   3.422   5.233   4.852
  286SOL    HW1 1757   3.462   5.240   4.760
  286SOL    HW2 1758   3.390   5.322   4.882
  287SOL     OW 1759   1.574   5.788   6.194
  287SOL    HW1 1760   1.649   5.852   6.211
  287SOL    HW2 1761   1.494   5.838   6.160
  288SOL     OW 1762   4.237   0.662   0.875
  288SOL    HW1 1763   4.266   0.575   0.836
  288SOL    HW2 1764   4.140   0.677   0.855
  289SOL     OW 1765   1.418   5.346   5.867
  289SOL    HW1 1766   1.500   5.361   5.922
  289SOL    HW2 1767   1.435   5.271   5.802
  290SOL     OW 1768   4.373   0.428   2.650
  290SOL    HW1 1769   4.413   0.358   2.710
  290SOL    HW2 1770   4.304   0.479   2.700
  291SOL     OW 1771   4.252   0.351   4.175
  291SOL    HW1 1772   4.295   0.341   4.085
  291SOL    HW2 1773   4.319   0.332   4.246
  292SOL     OW 1774   3.712   0.128   3.792
  292SOL    HW1 1775   3.717   0.082   3.880
  292SOL    HW2 1776   3.776   0.205   3.791
  293SOL     OW 1777   4.650   6.625   2.544
  293SOL    HW1 1778   4.579   6.662   2.483
  293SOL    HW2 1779   4.726   6.591   2.489
  294SOL     OW 1780   5.720   0.074   5.795
  294SOL    HW1 1781   5.735   0.173   5.787
  294SOL    HW2 1782   5.652   0.056   5.866
  295SOL     OW 1783   1.067   2.290   5.121
  295SOL    HW1 1784   0.996   2.357   5.143
  295SOL    HW2 1785   1.089   2.236   5.202
  296SOL     OW 1786   6.401   1.541   1.143
  296SOL    HW1 1787   6.443   1.468   1.089
  296SOL    HW2 1788   6.444   1.628   1.120
  297SOL     OW 1789   5.105   5.115   4.093
  297SOL    HW1 1790   5.022   5.169   4.080
  297SOL    HW2 1791   5.182   5.161   4.051
  298SOL     OW 1792   4.577   0.667   0.750
  298SOL    HW1 1793   4.520   0.644   0.671
  298SOL    HW2 1794   4.616   0.758   0.736
  299SOL     OW 1795   3.372   1.813   0.249
  299SOL    HW1 1796   3.345   1.859   0.334
  299SOL    HW2 1797   3.376   1.880   0.175
  300SOL     OW 1798   3.599   1.086   2.069
  300SOL    HW1 1799   3.520   1.124   2.118
  300SOL    HW2 1800   3.653   1.029   2.131
  301SOL     OW 1801   5.259   6.482   1.525
  301SOL    HW1 1802   5.260   6.515   1.619
  301SOL    HW2 1803   5.262   6.382   1.525
  302SOL     OW 1804   6.942   6.533   1.523
  302SOL    HW1 1805   6.873   6.599   1.552
  302SOL    HW2 1806   0.013   6.578   1.513
  303SOL     OW 1807   5.744   5.739   2.259
  303SOL    HW1 1808   5.690   5.660   2.288
  303SOL    HW2 1809   5.753   5.738   2.159
  304SOL     OW 1810   1.387   0.136   5.659
  304SOL    HW1 1811   1.356   0.061   5.601
  304SOL    HW2 1812   1.327   0.215   5.647
  305SOL     OW 1813   1.188   3.261   1.704
  305SOL    HW1 1814   1.144   3.171   1.703
  305SOL    HW2 1815   1.172   3.304   1.793
  306SOL     OW 1816   0.025   0.860   2.266
  306SOL    HW1 1817   7.007   0.896   2.352
  306SOL    HW2 1818   0.112   0.904   2.244
  307SOL     OW 1819   3.490   3.251   0.670
  307SOL    HW1 1820   3.525   3.221   0.759
  307SOL    HW2 1821   3.390   3.245   0.670
  308SOL     OW 1822   5.603   1.716   4.642
  308SOL    HW1 1823   5.584   1.656   4.565
  308SOL    HW2 1824   5.699   1.745   4.639
  309SOL     OW 1825   0.192   0.014   6.803
  309SOL    HW1 1826   0.235   0.054   6.884
  309SOL    HW2 1827   0.191   0.082   6.730
  310SOL     OW 1828   5.918   6.292   4.189
  310SOL    HW1 1829   6.003   6.299   4.137
  310SOL    HW2 1830   5.909   6.371   4.249
  311SOL     OW 1831   2.473   5.143   2.347
  311SOL    HW1 1832   2.530   5.154   2.265
  311SOL    HW2 1833   2.526   5.101   2.420
  312SOL     OW 1834   4.650   2.432   3.845
  312SOL    HW1 1835   4.559   2.467   3.826
  312SOL    HW2 1836   4.689   2.393   3.761
  313SOL     OW 1837   3.416   3.239   2.810
  313SOL    HW1 1838   3.448   3.313   2.868
  313SOL    HW2 1839   3.348   3.185   2.859
  314SOL     OW 1840   2.067   5.858   5.146
  314SOL    HW1 1841   2.103   5.785   5.089
  314SOL    HW2 1842   2.125   5.871   5.226
  315SOL     OW 1843   6.606   1.289   3.344
  315SOL    HW1 1844   6.677   1.292   3.274
  315SOL    HW2 1845   6.649   1.296   3.435
  316SOL     OW 1846   4.235   2.173   5.618
  316SOL    HW1 1847   4.186   2.238   5.560
  316SOL    HW2 1848   4.272   2.100   5.561
  317SOL     OW 1849   2.132   1.364   2.087
  317SOL    HW1 1850   2.139   1.269   2.056
  317SOL    HW2 1851   2.053   1.374   2.148
  318SOL     OW 1852   6.861   0.222   6.548
  318SOL    HW1 1853   6.871   0.162   6.626
  318SOL    HW2 1854   6.846   0.168   6.465
  319SOL     OW 1855   0.479   2.418   2.925
  319SOL    HW1 1856   0.542   2.402   2.850
  319SOL    HW2 1857   0.385   2.414   2.892
  320SOL     OW 1858   5.984   2.387   6.925
  320SOL    HW1 1859   5.991   2.475   6.973
  320SOL    HW2 1860   6.033   2.392   6.838
  321SOL     OW 1861   3.561   3.356   0.357
  321SOL    HW1 1862   3.525   3.365   0.264
  321SOL    HW2 1863   3.640   3.415   0.369
  322SOL     OW 1864   3.656   3.447   5.905
  322SOL    HW1 1865   3.627   3.480   5.994
  322SOL    HW2 1866   3.747   3.481   5.884
  323SOL     OW 1867   0.639   3.082   3.463
  323SOL    HW1 1868   0.574   3.158   3.468
  323SOL    HW2 1869   0.670   3.070   3.369
  324SOL     OW 1870   2.561   6.763   3.493
  324SOL    HW1 1871   2.583   6.716   3.408
  324SOL    HW2 1872   2.646   6.793   3.537
  325SOL     OW 1873   1.545   3.475   2.727
  325SOL    HW1 1874   1.572   3.424   2.808
  325SOL    HW2 1875   1.472   3.539   2.750
  326SOL     OW 1876   1.796   4.478   6.667
  326SOL    HW1 1877   1.749   4.488   6.579
  326SOL    HW2 1878   1.880   4.427   6.655
  327SOL     OW 1879   2.321   4.639   2.520
  327SOL    HW1 1880   2.231   4.628   2.562
  327SOL    HW2 1881   2.335   4.735   2.496
  328SOL     OW 1882   1.924   4.292   1.607
  328SOL    HW1 1883   1.917   4.194   1.588
  328SOL    HW2 1884   1.890   4.311   1.698
  329SOL     OW 1885   2.816   3.919   0.602
  329SOL    HW1 1886   2.719   3.904   0.584
  329SOL    HW2 1887   2.836   3.893   0.697
  330SOL     OW 1888   4.110   5.989   6.939
  330SOL    HW1 1889   4.055   5.961   6.860
  330SOL    HW2 1890   4.100   6.088   6.953
  331SOL     OW 1891   5.200   4.912   0.749
  331SOL    HW1 1892   5.117   4.866   0.718
  331SOL    HW2 1893   5.274   4.894   0.685
  332SOL     OW 1894   5.333   1.590   3.936
  332SOL    HW1 1895   5.346   1.689   3.943
  332SOL    HW2 1896   5.258   1.571   3.872
  333SOL     OW 1897   4.198   0.880   5.168
  333SOL    HW1 1898   4.146   0.871   5.253
  333SOL    HW2 1899   4.295   0.872   5.187
  334SOL     OW 1900   3.775   2.811   1.753
  334SOL    HW1 1901   3.717   2.765   1.821
  334SOL    HW2 1902   3.746   2.785   1.661
  335SOL     OW 1903   4.364   0.129   6.554
  335SOL    HW1 1904   4.416   0.142   6.639
  335SOL    HW2 1905   4.418   0.163   6.477
  336SOL     OW 1906   3.191   1.669   2.764
  336SOL    HW1 1907   3.124   1.595   2.765
  336SOL    HW2 1908   3.159   1.745   2.821
  337SOL     OW 1909   1.945   2.350   6.045
  337SOL    HW1 1910   1.964   2.369   6.142
  337SOL    HW2 1911   2.008   2.279   6.012
  338SOL     OW 1912   3.905   3.359   0.778
  338SOL    HW1 1913   3.981   3.400   0.728
  338SOL    HW2 1914   3.857   3.294   0.718
  339SOL     OW 1915   4.239   4.969   4.472
  339SOL    HW1 1916   4.156   4.956   4.526
  339SOL    HW2 1917   4.282   4.880   4.455
  340SOL     OW 1918   5.233   3.435   4.884
  340SOL    HW1 1919   5.307   3.453   4.950
  340SOL    HW2 1920   5.146   3.439   4.932
  341SOL     OW 1921   6.030   6.021   4.768
  341SOL    HW1 1922   6.032   6.024   4.668
  341SOL    HW2 1923   5.975   5.944   4.799
  342SOL     OW 1924   4.891   3.442   0.733
  342SOL    HW1 1925   4.928   3.418   0.822
  342SOL    HW2 1926   4.791   3.436   0.735
  343SOL     OW 1927   0.225   6.210   2.615
  343SOL    HW1 1928   0.240   6.125   2.665
  343SOL    HW2 1929   0.313   6.246   2.584
  344SOL     OW 1930   1.082   1.678   2.245
  344SOL    HW1 1931   1.106   1.686   2.149
  344SOL    HW2 1932   0.992   1.719   2.261
  345SOL     OW 1933   6.815   2.051   4.195
  345SOL    HW1 1934   6.837   2.052   4.293
  345SOL    HW2 1935   6.831   1.960   4.158
  346SOL     OW 1936   1.879   0.005   2.741
  346SOL    HW1 1937   1.816   6.944   2.737
  346SOL    HW2 1938   1.827   0.089   2.754
  347SOL     OW 1939   2.555   5.769   6.693
  347SOL    HW1 1940   2.491   5.813   6.756
  347SOL    HW2 1941   2.648   5.790   6.722
  348SOL     OW 1942   4.347   5.082   2.781
  348SOL    HW1 1943   4.443   5.059   2.801
  348SOL    HW2 1944   4.297   5.091   2.867
  349SOL     OW 1945   6.571   4.490   2.229
  349SOL    HW1 1946   6.642   4.535   2.283
  349SOL    HW2 1947   6.481   4.521   2.261
  350SOL     OW 1948   3.269   2.860   0.553
  350SOL    HW1 1949   3.340   2.922   0.520
  350SOL    HW2 1950   3.223   2.817   0.475
  351SOL     OW 1951   3.086   3.362   0.464
  351SOL    HW1 1952   3.013   3.431   0.472
  351SOL    HW2 1953   3.135   3.376   0.378
  352SOL     OW 1954   4.447   6.325   3.499
  352SOL    HW1 1955   4.546   6.317   3.492
  352SOL    HW2 1956   4.407   6.234   3.509
  353SOL     OW 1957   3.047   0.292   6.078
  353SOL    HW1 1958   3.140   0.266   6.050
  353SOL    HW2 1959   3.008   0.354   6.009
  354SOL     OW 1960   5.135   2.389   0.198
  354SOL    HW1 1961   5.214   2.343   0.237
  354SOL    HW2 1962   5.164   2.449   0.123
  355SOL     OW 1963   1.826   3.181   2.384
  355SOL    HW1 1964   1.844   3.097   2.436
  355SOL    HW2 1965   1.798   3.254   2.446
  356SOL     OW 1966   2.355   0.534   4.709
  356SOL    HW1 1967   2.332   0.442   4.678
  356SOL    HW2 1968   2.419   0.576   4.644
  357SOL     OW 1969   0.745   5.919   4.226
  357SOL    HW1 1970   0.673   5.948   4.162
  357SOL    HW2 1971   0.710   5.924   4.319
  358SOL     OW 1972   4.231   6.335   1.114
  358SOL    HW1 1973   4.281   6.352   1.198
  358SOL    HW2 1974   4.157   6.402   1.104
  359SOL     OW 1975   3.467   0.541   1.572
  359SOL    HW1 1976   3.430   0.449   1.563
  359SOL    HW2 1977   3.562   0.543   1.541
  360SOL     OW 1978   1.505   4.285   4.403
  360SOL    HW1 1979   1.544   4.365   4.357
  360SOL    HW2 1980   1.572   4.248   4.469
  361SOL     OW 1981   6.171   6.324   2.867
  361SOL    HW1 1982   6.162   6.323   2.768
  361SOL    HW2 1983   6.235   6.397   2.893
  362SOL     OW 1984   3.496   4.038   0.547
  362SOL    HW1 1985   3.455   4.120   0.588
  362SOL    HW2 1986   3.423   3.978   0.514
  363SOL     OW 1987   6.188   4.569   3.176
  363SOL    HW1 1988   6.131   4.648   3.152
  363SOL    HW2 1989   6.138   4.485   3.157
  364SOL     OW 1990   0.312   4.853   6.137
  364SOL    HW1 1991   0.291   4.920   6.208
  364SOL    HW2 1992   0.321   4.899   6.049
  365SOL     OW 1993   3.759   1.087   1.024
  365SOL    HW1 1994   3.684   1.138   1.067
  365SOL    HW2 1995   3.814   1.044   1.095
  366SOL     OW 1996   5.527   2.720   6.726
  366SOL    HW1 1997   5.482   2.632   6.712
  366SOL    HW2 1998   5.611   2.707   6.778
  367SOL     OW 1999   5.884   2.656   6.085
  367SOL    HW1 2000   5.799   2.691   6.123
  367SOL    HW2 2001   5.906   2.568   6.129
  368SOL     OW 2002   6.574   2.359   5.895
  368SOL    HW1 2003   6.547   2.360   5.799
  368SOL    HW2 2004   6.642   2.431   5.911
  369SOL     OW 2005   6.087   4.251   2.898
  369SOL    HW1 2006   6.047   4.160   2.897
  369SOL    HW2 2007   6.129   4.268   2.988
  370SOL     OW 2008   1.091   1.949   4.052
  370SOL    HW1 2009   1.026   1.888   4.007
  370SOL    HW2 2010   1.041   2.017   4.105
  371SOL     OW 2011   2.177   4.246   6.993
  371SOL    HW1 2012   2.189   4.324   0.038
  371SOL    HW2 2013   2.255   4.241   6.931
  372SOL     OW 2014   1.650   6.829   5.074
  372SOL    HW1 2015   1.668   6.926   5.057
  372SOL    HW2 2016   1.737   6.780   5.079
  373SOL     OW 2017   5.273   6.408   5.253
  373SOL    HW1 2018   5.371   6.425   5.245
  373SOL    HW2 2019   5.236   6.461   5.330
  374SOL     OW 2020   2.443   2.281   3.095
  374SOL    HW1 2021   2.502   2.221   3.041
  374SOL    HW2 2022   2.481   2.373   3.095
  375SOL     OW 2023   0.584   4.722   4.906
  375SOL    HW1 2024   0.679   4.697   4.889
  375SOL    HW2 2025   0.537   4.736   4.819
  376SOL     OW 2026   1.471   2.022   5.291
  376SOL    HW1 2027   1.415   2.022   5.373
  376SOL    HW2 2028   1.568   2.018   5.316
  377SOL     OW 2029   2.161   2.778   0.016
  377SOL    HW1 2030   2.153   2.821   0.105
  377SOL    HW2 2031   2.221   2.699   0.022
  378SOL     OW 2032   3.889   1.601   6.446
  378SOL    HW1 2033   3.940   1.586   6.362
  378SOL    HW2 2034   3.877   1.699   6.460
  379SOL     OW 2035   4.922   2.874   0.333
  379SOL    HW1 2036   4.880   2.791   0.296
  379SOL    HW2 2037   4.875   2.900   0.417
  380SOL     OW 2038   3.017   1.339   0.569
  380SOL    HW1 2039   2.947   1.410   0.559
  380SOL    HW2 2040   3.088   1.372   0.632
  381SOL     OW 2041   1.501   3.589   4.082
  381SOL    HW1 2042   1.486   3.492   4.068
  381SOL    HW2 2043   1.599   3.607   4.094
  382SOL     OW 2044   5.724   0.452   6.934
  382SOL    HW1 2045   5.784   0.396   6.991
  382SOL    HW2 2046   5.680   0.522   6.990
  383SOL     OW 2047   4.291   2.985   0.556
  383SOL    HW1 2048   4.218   3.006   0.621
  383SOL    HW2 2049   4.318   2.889   0.566
  384SOL     OW 2050   0.287   5.183   4.001
  384SOL    HW1 2051   0.352   5.176   4.076
  384SOL    HW2 2052   0.336   5.189   3.914
  385SOL     OW 2053   3.546   6.083   6.156
  385SOL    HW1 2054   3.638   6.054   6.133
  385SOL    HW2 2055   3.492   6.094   6.072
  386SOL     OW 2056   3.714   0.310   4.097
  386SOL    HW1 2057   3.809   0.278   4.101
  386SOL    HW2 2058   3.665   0.279   4.178
  387SOL     OW 2059   1.225   5.845   2.230
  387SOL    HW1 2060   1.294   5.916   2.221
  387SOL    HW2 2061   1.270   5.757   2.249
  388SOL     OW 2062   1.990   1.848   6.478
  388SOL    HW1 2063   1.982   1.841   6.378
  388SOL    HW2 2064   1.939   1.928   6.510
  389SOL     OW 2065   3.585   3.410   2.375
  389SOL    HW1 2066   3.541   3.476   2.314
  389SOL    HW2 2067   3.583   3.320   2.334
  390SOL     OW 2068   3.717   0.994   3.335
  390SOL    HW1 2069   3.749   0.977   3.241
  390SOL    HW2 2070   3.704   0.906   3.381
  391SOL     OW 2071   2.247   2.943   6.845
  391SOL    HW1 2072   2.325   2.908   6.794
  391SOL    HW2 2073   2.216   2.874   6.910
  392SOL     OW 2074   1.478   4.143   0.308
  392SOL    HW1 2075   1.465   4.049   0.278
  392SOL    HW2 2076   1.570   4.173   0.284
  393SOL     OW 2077   0.110   4.611   5.402
  393SOL    HW1 2078   0.170   4.635   5.326
  393SOL    HW2 2079   0.115   4.513   5.418
  394SOL     OW 2080   0.090   0.900   6.867
  394SOL    HW1 2081   0.012   0.955   6.839
  394SOL    HW2 2082   0.098   0.900   6.967
  395SOL     OW 2083   5.230   3.919   3.156
  395SOL    HW1 2084   5.162   3.853   3.126
  395SOL    HW2 2085   5.265   3.893   3.246
  396SOL     OW 2086   3.720   3.912   1.997
  396SOL    HW1 2087   3.731   3.900   2.095
  396SOL    HW2 2088   3.684   3.828   1.957
  397SOL     OW 2089   4.035   2.419   5.761
  397SOL    HW1 2090   4.050   2.476   5.680
  397SOL    HW2 2091   3.979   2.340   5.736
  398SOL     OW 2092   0.244   6.508   2.105
  398SOL    HW1 2093   0.219   6.569   2.029
  398SOL    HW2 2094   0.322   6.452   2.079
  399SOL     OW 2095   4.579   6.363   2.887
  399SOL    HW1 2096   4.656   6.388   2.829
  399SOL    HW2 2097   4.565   6.434   2.956
  400SOL     OW 2098   6.453   6.733   5.477
  400SOL    HW1 2099   6.423   6.675   5.402
  400SOL    HW2 2100   6.522   6.797   5.445
  401SOL     OW 2101   4.759   1.023   5.563
  401SOL    HW1 2102   4.669   1.022   5.606
  401SOL    HW2 2103   4.757   0.967   5.480
  402SOL     OW 2104   6.056   6.944   3.123
  402SOL    HW1 2105   6.066   6.942   3.024
  402SOL    HW2 2106   5.973   6.896   3.150
  403SOL     OW 2107   3.853   2.207   5.208
  403SOL    HW1 2108   3.762   2.169   5.194
  403SOL    HW2 2109   3.892   2.171   5.292
  404SOL     OW 2110   1.650   6.121   4.161
  404SOL    HW1 2111   1.692   6.047   4.215
  404SOL    HW2 2112   1.694   6.124   4.071
  405SOL     OW 2113   1.661   3.548   1.921
  405SOL    HW1 2114   1.632   3.619   1.985
  405SOL    HW2 2115   1.757   3.526   1.938
  406SOL     OW 2116   0.888   3.893   3.537
  406SOL    HW1 2117   0.894   3.944   3.451
  406SOL    HW2 2118   0.804   3.919   3.585
  407SOL     OW 2119   2.025   0.374   3.763
  407SOL    HW1 2120   1.949   0.439   3.755
  407SOL    HW2 2121   2.092   0.410   3.829
  408SOL     OW 2122   0.985   1.323   3.216
  408SOL    HW1 2123   0.985   1.263   3.296
  408SOL    HW2 2124   1.020   1.413   3.242
  409SOL     OW 2125   6.216   2.985   1.388
  409SOL    HW1 2126   6.139   2.985   1.453
  409SOL    HW2 2127   6.286   2.921   1.420
  410SOL     OW 2128   2.158   0.394   6.798
  410SOL    HW1 2129   2.124   0.348   6.716
  410SOL    HW2 2130   2.083   0.406   6.863
  411SOL     OW 2131   5.988   6.825   6.582
  411SOL    HW1 2132   5.917   6.813   6.512
  411SOL    HW2 2133   5.966   6.769   6.662
  412SOL     OW 2134   4.990   6.704   3.780
  412SOL    HW1 2135   4.983   6.655   3.866
  412SOL    HW2 2136   4.904   6.696   3.730
  413SOL     OW 2137   5.285   4.882   2.043
  413SOL    HW1 2138   5.279   4.834   1.956
  413SOL    HW2 2139   5.255   4.977   2.031
  414SOL     OW 2140   3.529   4.948   3.934
  414SOL    HW1 2141   3.611   4.911   3.890
  414SOL    HW2 2142   3.534   5.048   3.937
  415SOL     OW 2143   0.931   6.152   6.620
  415SOL    HW1 2144   0.892   6.111   6.702
  415SOL    HW2 2145   0.969   6.242   6.642
  416SOL     OW 2146   5.277   5.055   4.862
  416SOL    HW1 2147   5.284   5.113   4.943
  416SOL    HW2 2148   5.313   4.964   4.883
  417SOL     OW 2149   2.427   5.527   0.757
  417SOL    HW1 2150   2.516   5.540   0.799
  417SOL    HW2 2151   2.358   5.511   0.828
  418SOL     OW 2152   4.300   5.885   1.594
  418SOL    HW1 2153   4.327   5.854   1.686
  418SOL    HW2 2154   4.225   5.950   1.602
  419SOL     OW 2155   1.476   0.565   1.564
  419SOL    HW1 2156   1.524   0.499   1.621
  419SOL    HW2 2157   1.377   0.549   1.570
  420SOL     OW 2158   6.360   3.149   0.867
  420SOL    HW1 2159   6.402   3.187   0.784
  420SOL    HW2 2160   6.430   3.134   0.936
  421SOL     OW 2161   6.701   4.610   5.859
  421SOL    HW1 2162   6.674   4.651   5.772
  421SOL    HW2 2163   6.798   4.589   5.857
  422SOL     OW 2164   5.638   4.631   0.560
  422SOL    HW1 2165   5.710   4.665   0.621
  422SOL    HW2 2166   5.657   4.535   0.538
  423SOL     OW 2167   0.870   2.791   0.451
  423SOL    HW1 2168   0.951   2.766   0.398
  423SOL    HW2 2169   0.797   2.725   0.434
  424SOL     OW 2170   3.123   3.826   1.264
  424SOL    HW1 2171   3.184   3.782   1.330
  424SOL    HW2 2172   3.055   3.881   1.313
  425SOL     OW 2173   6.289   1.349   2.036
  425SOL    HW1 2174   6.240   1.269   2.001
  425SOL    HW2 2175   6.327   1.401   1.960
  426SOL     OW 2176   4.913   2.561   4.224
  426SOL    HW1 2177   4.898   2.493   4.153
  426SOL    HW2 2178   4.977   2.630   4.191
  427SOL     OW 2179   5.621   4.929   3.149
  427SOL    HW1 2180   5.605   4.842   3.102
  427SOL    HW2 2181   5.718   4.951   3.147
  428SOL     OW 2182   4.438   7.008   4.825
  428SOL    HW1 2183   4.461   6.922   4.780
  428SOL    HW2 2184   4.483   0.067   4.778
  429SOL     OW 2185   2.792   4.166   1.440
  429SOL    HW1 2186   2.802   4.253   1.487
  429SOL    HW2 2187   2.771   4.181   1.344
  430SOL     OW 2188   0.477   0.005   4.082
  430SOL    HW1 2189   0.426   6.936   4.075
  430SOL    HW2 2190   0.482   0.032   4.179
  431SOL     OW 2191   3.744   0.453   0.659
  431SOL    HW1 2192   3.722   0.548   0.682
  431SOL    HW2 2193   3.762   0.401   0.742
  432SOL     OW 2194   6.274   1.937   1.995
  432SOL    HW1 2195   6.215   1.938   1.914
  432SOL    HW2 2196   6.218   1.935   2.077
  433SOL     OW 2197   3.170   6.237   4.683
  433SOL    HW1 2198   3.172   6.193   4.593
  433SOL    HW2 2199   3.158   6.336   4.671
  434SOL     OW 2200   3.931   5.536   2.147
  434SOL    HW1 2201   3.957   5.496   2.235
  434SOL    HW2 2202   3.866   5.610   2.163
  435SOL     OW 2203   3.991   1.984   5.134
  435SOL    HW1 2204   3.950   2.069   5.167
  435SOL    HW2 2205   4.012   1.924   5.211
  436SOL     OW 2206   3.137   5.916   1.050
  436SOL    HW1 2207   3.227   5.921   1.093
  436SOL    HW2 2208   3.090   6.004   1.059
  437SOL     OW 2209   0.911   0.150   6.588
  437SOL    HW1 2210   0.904   0.058   6.549
  437SOL    HW2 2211   1.006   0.173   6.604
  438SOL     OW 2212   2.190   3.014   2.226
  438SOL    HW1 2213   2.285   3.009   2.257
  438SOL    HW2 2214   2.174   2.943   2.158
  439SOL     OW 2215   6.248   4.854   3.327
  439SOL    HW1 2216   6.190   4.890   3.254
  439SOL    HW2 2217   6.197   4.855   3.414
  440SOL     OW 2218   1.235   1.486   5.103
  440SOL    HW1 2219   1.215   1.441   5.190
  440SOL    HW2 2220   1.333   1.479   5.084
  441SOL     OW 2221   1.377   2.646   3.926
  441SOL    HW1 2222   1.371   2.745   3.920
  441SOL    HW2 2223   1.291   2.605   3.895
  442SOL     OW 2224   2.520   5.033   6.611
  442SOL    HW1 2225   2.430   5.021   6.568
  442SOL    HW2 2226   2.512   5.013   6.709
  443SOL     OW 2227   0.333   4.061   4.484
  443SOL    HW1 2228   0.319   3.963   4.477
  443SOL    HW2 2229   0.266   4.109   4.427
  444SOL     OW 2230   5.305   1.925   5.713
  444SOL    HW1 2231   5.211   1.910   5.743
  444SOL    HW2 2232   5.354   1.839   5.713
  445SOL     OW 2233   1.424   5.382   3.282
  445SOL    HW1 2234   1.390   5.320   3.353
  445SOL    HW2 2235   1.515   5.415   3.307
  446SOL     OW 2236   3.808   4.926   3.889
  446SOL    HW1 2237   3.873   4.851   3.897
  446SOL    HW2 2238   3.806   4.959   3.795
  447SOL     OW 2239   0.583   2.745   0.090
  447SOL    HW1 2240   0.676   2.739   0.054
  447SOL    HW2 2241   0.583   2.722   0.187
  448SOL     OW 2242   2.928   0.859   4.360
  448SOL    HW1 2243   2.881   0.930   4.414
  448SOL    HW2 2244   2.960   0.899   4.274
  449SOL     OW 2245   4.437   0.446   4.679
  449SOL    HW1 2246   4.499   0.520   4.704
  449SOL    HW2 2247   4.374   0.478   4.608
  450SOL     OW 2248   1.436   5.921   3.998
  450SOL    HW1 2249   1.401   5.994   4.056
  450SOL    HW2 2250   1.500   5.959   3.931
  451SOL     OW 2251   2.312   1.882   3.772
  451SOL    HW1 2252   2.324   1.827   3.689
  451SOL    HW2 2253   2.342   1.976   3.754
  452SOL     OW 2254   6.462   6.178   1.414
  452SOL    HW1 2255   6.399   6.139   1.347
  452SOL    HW2 2256   6.410   6.221   1.488
  453SOL     OW 2257   3.269   0.789   4.599
  453SOL    HW1 2258   3.334   0.784   4.675
  453SOL    HW2 2259   3.298   0.725   4.528
  454SOL     OW 2260   6.726   4.730   6.115
  454SOL    HW1 2261   6.691   4.680   6.036
  454SOL    HW2 2262   6.817   4.765   6.095
  455SOL     OW 2263   6.283   2.314   2.982
  455SOL    HW1 2264   6.206   2.256   2.954
  455SOL    HW2 2265   6.253   2.377   3.053
  456SOL     OW 2266   5.359   6.018   4.367
  456SOL    HW1 2267   5.423   6.033   4.443
  456SOL    HW2 2268   5.410   6.021   4.281
  457SOL     OW 2269   2.129   3.570   3.638
  457SOL    HW1 2270   2.089   3.522   3.559
  457SOL    HW2 2271   2.134   3.668   3.618
  458SOL     OW 2272   4.148   5.432   3.862
  458SOL    HW1 2273   4.102   5.353   3.822
  458SOL    HW2 2274   4.245   5.427   3.843
  459SOL     OW 2275   1.965   6.736   4.848
  459SOL    HW1 2276   2.064   6.723   4.848
  459SOL    HW2 2277   1.920   6.655   4.886
  460SOL     OW 2278   1.760   0.303   4.041
  460SOL    HW1 2279   1.761   0.233   3.969
  460SOL    HW2 2280   1.728   0.390   4.003
  461SOL     OW 2281   5.987   6.973   5.752
  461SOL    HW1 2282   5.947   6.901   5.696
  461SOL    HW2 2283   5.917   0.024   5.774
  462SOL     OW 2284   3.651   2.599   6.191
  462SOL    HW1 2285   3.559   2.637   6.201
  462SOL    HW2 2286   3.658   2.549   6.105
  463SOL     OW 2287   6.528   5.213   3.457
  463SOL    HW1 2288   6.598   5.188   3.390
  463SOL    HW2 2289   6.495   5.130   3.503
  464SOL     OW 2290   2.224   2.557   6.214
  464SOL    HW1 2291   2.131   2.541   6.181
  464SOL    HW2 2292   2.241   2.499   6.294
  465SOL     OW 2293   0.858   2.609   4.925
  465SOL    HW1 2294   0.832   2.565   5.011
  465SOL    HW2 2295   0.844   2.708   4.933
  466SOL     OW 2296   1.462   5.536   2.841
  466SOL    HW1 2297   1.526   5.541   2.918
  466SOL    HW2 2298   1.452   5.440   2.813
  467SOL     OW 2299   1.618   1.275   0.287
  467SOL    HW1 2300   1.654   1.210   0.353
  467SOL    HW2 2301   1.673   1.273   0.204
  468SOL     OW 2302   3.439   6.341   6.974
  468SOL    HW1 2303   3.490   6.276   0.013
  468SOL    HW2 2304   3.489   6.427   6.967
  469SOL     OW 2305   2.950   4.736   0.121
  469SOL    HW1 2306   2.949   4.662   0.054
  469SOL    HW2 2307   2.935   4.699   0.212
  470SOL     OW 2308   4.378   0.065   2.420
  470SOL    HW1 2309   4.288   0.079   2.462
  470SOL    HW2 2310   4.374   7.004   2.357
  471SOL     OW 2311   1.985   2.217   4.023
  471SOL    HW1 2312   2.050   2.153   4.063
  471SOL    HW2 2313   1.896   2.173   4.011
  472SOL     OW 2314   5.175   3.421   6.598
  472SOL    HW1 2315   5.260   3.372   6.616
  472SOL    HW2 2316   5.186   3.517   6.621
  473SOL     OW 2317   0.900   3.116   2.453
  473SOL    HW1 2318   0.829   3.145   2.388
  473SOL    HW2 2319   0.892   3.018   2.468
  474SOL     OW 2320   5.233   5.222   4.451
  474SOL    HW1 2321   5.143   5.185   4.471
  474SOL    HW2 2322   5.224   5.308   4.400
  475SOL     OW 2323   5.671   0.854   6.817
  475SOL    HW1 2324   5.713   0.836   6.728
  475SOL    HW2 2325   5.601   0.925   6.807
  476SOL     OW 2326   6.755   4.035   3.113
  476SOL    HW1 2327   6.799   4.119   3.147
  476SOL    HW2 2328   6.666   4.058   3.075
  477SOL     OW 2329   1.622   4.405   4.051
  477SOL    HW1 2330   1.620   4.342   3.973
  477SOL    HW2 2331   1.688   4.373   4.118
  478SOL     OW 2332   3.089   0.112   1.877
  478SOL    HW1 2333   3.057   0.022   1.846
  478SOL    HW2 2334   3.085   0.116   1.977
  479SOL     OW 2335   4.143   2.196   6.292
  479SOL    HW1 2336   4.060   2.202   6.348
  479SOL    HW2 2337   4.179   2.288   6.277
  480SOL     OW 2338   1.997   1.169   0.239
  480SOL    HW1 2339   1.973   1.264   0.260
  480SOL    HW2 2340   2.072   1.167   0.173
  481SOL     OW 2341   1.501   0.605   0.478
  481SOL    HW1 2342   1.429   0.537   0.470
  481SOL    HW2 2343   1.574   0.584   0.413
  482SOL     OW 2344   4.734   4.944   3.150
  482SOL    HW1 2345   4.829   4.959   3.123
  482SOL    HW2 2346   4.724   4.853   3.189
  483SOL     OW 2347   6.786   1.398   2.031
  483SOL    HW1 2348   6.733   1.427   1.950
  483SOL    HW2 2349   6.725   1.393   2.110
  484SOL     OW 2350   1.329   3.215   4.917
  484SOL    HW1 2351   1.322   3.259   5.007
  484SOL    HW2 2352   1.400   3.260   4.864
  485SOL     OW 2353   3.793   5.310   2.879
  485SOL    HW1 2354   3.815   5.236   2.943
  485SOL    HW2 2355   3.878   5.352   2.848
  486SOL     OW 2356   6.644   1.981   0.732
  486SOL    HW1 2357   6.555   1.955   0.770
  486SOL    HW2 2358   6.643   1.970   0.633
  487SOL     OW 2359   1.398   1.966   1.511
  487SOL    HW1 2360   1.440   1.917   1.435
  487SOL    HW2 2361   1.452   1.951   1.594
  488SOL     OW 2362   0.256   1.581   2.180
  488SOL    HW1 2363   0.290   1.554   2.270
  488SOL    HW2 2364   0.303   1.528   2.109
  489SOL     OW 2365   2.964   6.233   6.443
  489SOL    HW1 2366   2.867   6.256   6.433
  489SOL    HW2 2367   3.019   6.312   6.414
  490SOL     OW 2368   6.990   5.778   3.183
  490SOL    HW1 2369   6.939   5.841   3.241
  490SOL    HW2 2370   0.069   5.779   3.209
  491SOL     OW 2371   0.276   3.017   2.320
  491SOL    HW1 2372   0.194   2.962   2.336
  491SOL    HW2 2373   0.335   3.015   2.400
  492SOL     OW 2374   2.478   0.372   5.455
  492SOL    HW1 2375   2.453   0.366   5.358
  492SOL    HW2 2376   2.459   0.285   5.499
  493SOL     OW 2377   5.073   6.439   5.054
  493SOL    HW1 2378   5.145   6.404   5.113
  493SOL    HW2 2379   5.022   6.511   5.101
  494SOL     OW 2380   6.614   1.187   6.753
  494SOL    HW1 2381   6.702   1.203   6.796
  494SOL    HW2 2382   6.585   1.268   6.704
  495SOL     OW 2383   5.041   5.775   3.885
  495SOL    HW1 2384   5.079   5.684   3.867
  495SOL    HW2 2385   4.941   5.770   3.884
  496SOL     OW 2386   5.207   3.385   1.901
  496SOL    HW1 2387   5.143   3.410   1.974
  496SOL    HW2 2388   5.300   3.385   1.937
  497SOL     OW 2389   3.294   1.002   4.411
  497SOL    HW1 2390   3.281   0.955   4.498
  497SOL    HW2 2391   3.357   1.078   4.422
  498SOL     OW 2392   2.183   3.986   1.470
  498SOL    HW1 2393   2.160   4.042   1.390
  498SOL    HW2 2394   2.113   3.998   1.541
  499SOL     OW 2395   2.745   0.413   4.120
  499SOL    HW1 2396   2.774   0.500   4.080
  499SOL    HW2 2397   2.711   0.352   4.048
  500SOL     OW 2398   0.605   3.642   3.917
  500SOL    HW1 2399   0.521   3.597   3.886
  500SOL    HW2 2400   0.597   3.741   3.905
  501SOL     OW 2401   2.463   6.076   0.478
  501SOL    HW1 2402   2.376   6.036   0.506
  501SOL    HW2 2403   2.455   6.113   0.386
  502SOL     OW 2404   6.527   4.009   0.145
  502SOL    HW1 2405   6.586   4.034   0.069
  502SOL    HW2 2406   6.479   3.924   0.123
  503SOL     OW 2407   6.207   5.749   6.596
  503SOL    HW1 2408   6.273   5.823   6.615
  503SOL    HW2 2409   6.139   5.781   6.531
  504SOL     OW 2410   2.067   5.521   2.985
  504SOL    HW1 2411   2.018   5.433   2.990
  504SOL    HW2 2412   2.146   5.519   3.046
  505SOL     OW 2413   3.356   6.597   4.772
  505SOL    HW1 2414   3.434   6.543   4.803
  505SOL    HW2 2415   3.385   6.691   4.753
  506SOL     OW 2416   1.452   5.214   4.853
  506SOL    HW1 2417   1.358   5.215   4.888
  506SOL    HW2 2418   1.479   5.307   4.828
  507SOL     OW 2419   3.457   6.847   3.067
  507SOL    HW1 2420   3.479   6.780   3.139
  507SOL    HW2 2421   3.480   6.809   2.978
  508SOL     OW 2422   6.865   3.826   2.136
  508SOL    HW1 2423   6.824   3.859   2.051
  508SOL    HW2 2424   6.821   3.871   2.213
  509SOL     OW 2425   3.271   0.922   1.798
  509SOL    HW1 2426   3.298   0.876   1.714
  509SOL    HW2 2427   3.172   0.915   1.810
  510SOL     OW 2428   6.020   4.981   0.459
  510SOL    HW1 2429   6.050   4.918   0.388
  510SOL    HW2 2430   5.938   5.031   0.429
  511SOL     OW 2431   0.796   1.321   6.118
  511SOL    HW1 2432   0.758   1.245   6.171
  511SOL    HW2 2433   0.722   1.368   6.070
  512SOL     OW 2434   6.482   2.863   0.005
  512SOL    HW1 2435   6.540   2.934   0.046
  512SOL    HW2 2436   6.458   2.889   6.929
  513SOL     OW 2437   5.894   6.178   3.141
  513SOL    HW1 2438   5.946   6.195   3.225
  513SOL    HW2 2439   5.863   6.265   3.103
  514SOL     OW 2440   6.792   2.674   4.190
  514SOL    HW1 2441   6.847   2.602   4.147
  514SOL    HW2 2442   6.766   2.741   4.120
  515SOL     OW 2443   1.900   1.034   6.489
  515SOL    HW1 2444   1.912   1.129   6.520
  515SOL    HW2 2445   1.828   0.990   6.543
  516SOL     OW 2446   2.839   4.706   1.661
  516SOL    HW1 2447   2.832   4.640   1.736
  516SOL    HW2 2448   2.790   4.789   1.685
  517SOL     OW 2449   4.651   5.670   2.422
  517SOL    HW1 2450   4.730   5.629   2.375
  517SOL    HW2 2451   4.674   5.686   2.518
  518SOL     OW 2452   2.149   2.080   2.946
  518SOL    HW1 2453   2.139   2.134   2.863
  518SOL    HW2 2454   2.103   1.992   2.934
  519SOL     OW 2455   0.953   1.222   4.291
  519SOL    HW1 2456   0.952   1.145   4.227
  519SOL    HW2 2457   0.936   1.307   4.241
  520SOL     OW 2458   6.030   4.776   0.269
  520SOL    HW1 2459   5.969   4.696   0.270
  520SOL    HW2 2460   6.111   4.756   0.215
  521SOL     OW 2461   6.934   3.762   5.457
  521SOL    HW1 2462   7.004   3.813   5.408
  521SOL    HW2 2463   6.913   3.677   5.407
  522SOL     OW 2464   3.526   3.404   5.199
  522SOL    HW1 2465   3.457   3.471   5.226
  522SOL    HW2 2466   3.606   3.451   5.163
  523SOL     OW 2467   0.652   5.226   1.239
  523SOL    HW1 2468   0.613   5.276   1.161
  523SOL    HW2 2469   0.729   5.277   1.276
  524SOL     OW 2470   0.209   1.321   0.789
  524SOL    HW1 2471   0.134   1.295   0.850
  524SOL    HW2 2472   0.296   1.305   0.835
  525SOL     OW 2473   1.676   3.449   6.419
  525SOL    HW1 2474   1.630   3.364   6.395
  525SOL    HW2 2475   1.728   3.482   6.340
  526SOL     OW 2476   4.582   6.478   4.343
  526SOL    HW1 2477   4.530   6.420   4.279
  526SOL    HW2 2478   4.664   6.430   4.372
  527SOL     OW 2479   6.840   3.067   0.002
  527SOL    HW1 2480   6.908   2.997   6.995
  527SOL    HW2 2481   6.885   3.156   0.009
  528SOL     OW 2482   1.325   1.507   3.597
  528SOL    HW1 2483   1.305   1.460   3.684
  528SOL    HW2 2484   1.424   1.512   3.584
  529SOL     OW 2485   0.967   6.534   4.244
  529SOL    HW1 2486   0.993   6.577   4.331
  529SOL    HW2 2487   1.046   6.532   4.183
  530SOL     OW 2488   3.012   3.104   4.936
  530SOL    HW1 2489   3.100   3.058   4.924
  530SOL    HW2 2490   2.941   3.037   4.957
  531SOL     OW 2491   0.719   0.314   2.885
  531SOL    HW1 2492   0.677   0.324   2.975
  531SOL    HW2 2493   0.656   0.345   2.814
  532SOL     OW 2494   1.067   2.053   7.010
  532SOL    HW1 2495   1.140   2.018   6.951
  532SOL    HW2 2496   1.065   2.000   0.078
  533SOL     OW 2497   4.765   0.023   3.675
  533SOL    HW1 2498   4.834   7.006   3.611
  533SOL    HW2 2499   4.717   6.963   3.717
  534SOL     OW 2500   4.907   5.789   3.098
  534SOL    HW1 2501   4.893   5.782   2.999
  534SOL    HW2 2502   4.875   5.878   3.130
  535SOL     OW 2503   0.743   3.345   4.536
  535SOL    HW1 2504   0.808   3.411   4.572
  535SOL    HW2 2505   0.676   3.321   4.606
  536SOL     OW 2506   0.124   4.976   1.731
  536SOL    HW1 2507   0.053   4.921   1.688
  536SOL    HW2 2508   0.100   4.994   1.826
  537SOL     OW 2509   1.735   6.575   3.922
  537SOL    HW1 2510   1.726   6.590   4.021
  537SOL    HW2 2511   1.819   6.618   3.890
  538SOL     OW 2512   1.282   4.043   2.498
  538SOL    HW1 2513   1.366   4.049   2.445
  538SOL    HW2 2514   1.216   4.109   2.463
  539SOL     OW 2515   1.129   6.658   0.336
  539SOL    HW1 2516   1.031   6.679   0.333
  539SOL    HW2 2517   1.142   6.559   0.327
  540SOL     OW 2518   0.909   0.498   2.463
  540SOL    HW1 2519   0.892   0.585   2.509
  540SOL    HW2 2520   0.822   0.458   2.434
  541SOL     OW 2521   3.776   6.306   4.246
  541SOL    HW1 2522   3.764   6.272   4.339
  541SOL    HW2 2523   3.759   6.405   4.244
  542SOL     OW 2524   6.577   0.218   6.988
  542SOL    HW1 2525   6.596   0.161   0.051
  542SOL    HW2 2526   6.612   0.311   7.004
  543SOL     OW 2527   1.819   4.419   5.561
  543SOL    HW1 2528   1.840   4.397   5.657
  543SOL    HW2 2529   1.735   4.473   5.558
  544SOL     OW 2530   2.070   3.908   0.814
  544SOL    HW1 2531   2.056   3.840   0.886
  544SOL    HW2 2532   2.034   3.996   0.843
  545SOL     OW 2533   2.846   0.226   2.970
  545SOL    HW1 2534   2.878   0.175   2.890
  545SOL    HW2 2535   2.754   0.194   2.995
  546SOL     OW 2536   1.508   2.812   0.452
  546SOL    HW1 2537   1.421   2.853   0.424
  546SOL    HW2 2538   1.507   2.798   0.552
  547SOL     OW 2539   2.895   1.113   6.840
  547SOL    HW1 2540   2.990   1.123   6.869
  547SOL    HW2 2541   2.836   1.115   6.921
  548SOL     OW 2542   3.770   3.072   2.537
  548SOL    HW1 2543   3.690   3.015   2.520
  548SOL    HW2 2544   3.758   3.121   2.623
  549SOL     OW 2545   4.633   3.237   1.275
  549SOL    HW1 2546   4.633   3.183   1.359
  549SOL    HW2 2547   4.649   3.177   1.197
  550SOL     OW 2548   6.231   4.543   3.447
  550SOL    HW1 2549   6.232   4.619   3.512
  550SOL    HW2 2550   6.220   4.578   3.354
  551SOL     OW 2551   1.182   1.128   1.482
  551SOL    HW1 2552   1.089   1.161   1.463
  551SOL    HW2 2553   1.188   1.030   1.459
  552SOL     OW 2554   4.430   5.163   0.270
  552SOL    HW1 2555   4.408   5.179   0.173
  552SOL    HW2 2556   4.420   5.066   0.290
  553SOL     OW 2557   2.191   6.333   1.979
  553SOL    HW1 2558   2.122   6.320   1.908
  553SOL    HW2 2559   2.213   6.430   1.987
  554SOL     OW 2560   5.743   6.202   5.561
  554SOL    HW1 2561   5.787   6.129   5.614
  554SOL    HW2 2562   5.649   6.174   5.538
  555SOL     OW 2563   2.487   5.304   2.770
  555SOL    HW1 2564   2.435   5.306   2.685
  555SOL    HW2 2565   2.549   5.225   2.771
  556SOL     OW 2566   5.297   2.747   3.365
  556SOL    HW1 2567   5.272   2.797   3.282
  556SOL    HW2 2568   5.337   2.659   3.340
  557SOL     OW 2569   0.244   4.818   0.066
  557SOL    HW1 2570   0.331   4.859   0.038
  557SOL    HW2 2571   0.243   4.721   0.041
  558SOL     OW 2572   2.897   3.739   4.806
  558SOL    HW1 2573   2.845   3.787   4.876
  558SOL    HW2 2574   2.935   3.654   4.844
  559SOL     OW 2575   6.516   5.740   6.388
  559SOL    HW1 2576   6.484   5.825   6.346
  559SOL    HW2 2577   6.502   5.744   6.487
  560SOL     OW 2578   4.434   5.798   0.134
  560SOL    HW1 2579   4.379   5.875   0.166
  560SOL    HW2 2580   4.399   5.766   0.045
  561SOL     OW 2581   6.194   0.889   0.450
  561SOL    HW1 2582   6.139   0.943   0.514
  561SOL    HW2 2583   6.177   0.920   0.357
  562SOL     OW 2584   4.740   1.187   6.135
  562SOL    HW1 2585   4.749   1.094   6.100
  562SOL    HW2 2586   4.752   1.187   6.234
  563SOL     OW 2587   2.301   6.867   3.067
  563SOL    HW1 2588   2.224   6.895   3.009
  563SOL    HW2 2589   2.274   6.871   3.163
  564SOL     OW 2590   2.875   1.741   6.411
  564SOL    HW1 2591   2.896   1.797   6.331
  564SOL    HW2 2592   2.831   1.797   6.481
  565SOL     OW 2593   3.616   3.772   5.801
  565SOL    HW1 2594   3.526   3.739   5.772
  565SOL    HW2 2595   3.626   3.868   5.773
  566SOL     OW 2596   6.168   4.175   4.037
  566SOL    HW1 2597   6.228   4.254   4.053
  566SOL    HW2 2598   6.206   4.120   3.963
  567SOL     OW 2599   3.844   3.939   2.792
  567SOL    HW1 2600   3.853   3.905   2.698
  567SOL    HW2 2601   3.768   4.005   2.796
  568SOL     OW 2602   3.462   2.462   0.256
  568SOL    HW1 2603   3.389   2.394   0.259
  568SOL    HW2 2604   3.447   2.530   0.327
  569SOL     OW 2605   1.308   3.770   0.353
  569SOL    HW1 2606   1.342   3.685   0.312
  569SOL    HW2 2607   1.368   3.795   0.429
  570SOL     OW 2608   2.409   6.621   6.607
  570SOL    HW1 2609   2.397   6.580   6.697
  570SOL    HW2 2610   2.327   6.607   6.552
  571SOL     OW 2611   3.061   7.010   3.193
  571SOL    HW1 2612   3.138   6.994   3.131
  571SOL    HW2 2613   3.044   0.091   3.199
  572SOL     OW 2614   2.375   4.610   5.966
  572SOL    HW1 2615   2.429   4.694   5.972
  572SOL    HW2 2616   2.278   4.633   5.962
  573SOL     OW 2617   4.575   1.590   5.244
  573SOL    HW1 2618   4.629   1.515   5.281
  573SOL    HW2 2619   4.545   1.567   5.152
  574SOL     OW 2620   2.835   2.145   3.678
  574SOL    HW1 2621   2.903   2.109   3.742
  574SOL    HW2 2622   2.817   2.241   3.700
  575SOL     OW 2623   6.617   3.335   6.362
  575SOL    HW1 2624   6.650   3.249   6.323
  575SOL    HW2 2625   6.517   3.337   6.356
  576SOL     OW 2626   1.138   2.218   2.292
  576SOL    HW1 2627   1.105   2.161   2.368
  576SOL    HW2 2628   1.108   2.178   2.205
  577SOL     OW 2629   1.728   0.902   3.203
  577SOL    HW1 2630   1.745   0.911   3.302
  577SOL    HW2 2631   1.716   0.992   3.163
  578SOL     OW 2632   0.001   4.224   3.352
  578SOL    HW1 2633   6.946   4.256   3.290
  578SOL    HW2 2634   0.008   4.286   3.430
  579SOL     OW 2635   2.643   3.000   0.978
  579SOL    HW1 2636   2.722   3.003   1.039
  579SOL    HW2 2637   2.568   3.054   1.017
  580SOL     OW 2638   0.746   4.381   6.648
  580SOL    HW1 2639   0.732   4.369   6.746
  580SOL    HW2 2640   0.749   4.292   6.604
  581SOL     OW 2641   3.206   3.515   2.585
  581SOL    HW1 2642   3.305   3.514   2.598
  581SOL    HW2 2643   3.172   3.422   2.575
  582SOL     OW 2644   6.025   5.258   2.741
  582SOL    HW1 2645   6.067   5.342   2.706
  582SOL    HW2 2646   6.070   5.231   2.826
  583SOL     OW 2647   2.051   5.408   6.175
  583SOL    HW1 2648   1.977   5.465   6.138
  583SOL    HW2 2649   2.064   5.328   6.116
  584SOL     OW 2650   1.295   4.919   5.854
  584SOL    HW1 2651   1.302   4.855   5.778
  584SOL    HW2 2652   1.335   5.006   5.829
  585SOL     OW 2653   6.159   2.825   5.594
  585SOL    HW1 2654   6.232   2.765   5.563
  585SOL    HW2 2655   6.109   2.781   5.668
  586SOL     OW 2656   3.173   0.849   6.417
  586SOL    HW1 2657   3.131   0.938   6.435
  586SOL    HW2 2658   3.121   0.802   6.346
  587SOL     OW 2659   2.737   2.315   5.232
  587SOL    HW1 2660   2.705   2.227   5.197
  587SOL    HW2 2661   2.660   2.364   5.274
  588SOL     OW 2662   2.365   5.172   0.455
  588SOL    HW1 2663   2.408   5.108   0.392
  588SOL    HW2 2664   2.427   5.248   0.474
  589SOL     OW 2665   4.004   5.230   1.518
  589SOL    HW1 2666   3.919   5.198   1.560
  589SOL    HW2 2667   4.044   5.302   1.575
  590SOL     OW 2668   5.727   3.124   1.178
  590SOL    HW1 2669   5.700   3.214   1.145
  590SOL    HW2 2670   5.825   3.124   1.201
  591SOL     OW 2671   4.146   6.085   3.861
  591SOL    HW1 2672   4.209   6.158   3.835
  591SOL    HW2 2673   4.184   5.997   3.835
  592SOL     OW 2674   4.090   0.071   1.234
  592SOL    HW1 2675   4.001   0.031   1.211
  592SOL    HW2 2676   4.146   0.001   1.280
  593SOL     OW 2677   4.638   2.178   3.373
  593SOL    HW1 2678   4.664   2.093   3.328
  593SOL    HW2 2679   4.596   2.157   3.461
  594SOL     OW 2680   4.675   2.161   6.050
  594SOL    HW1 2681   4.609   2.227   6.084
  594SOL    HW2 2682   4.768   2.197   6.060
  595SOL     OW 2683   5.365   6.631   3.650
  595SOL    HW1 2684   5.447   6.656   3.700
  595SOL    HW2 2685   5.359   6.531   3.643
  596SOL     OW 2686   1.226   3.770   1.984
  596SOL    HW1 2687   1.313   3.810   1.953
  596SOL    HW2 2688   1.214   3.790   2.082
  597SOL     OW 2689   4.886   0.144   5.665
  597SOL    HW1 2690   4.871   0.108   5.757
  597SOL    HW2 2691   4.844   0.084   5.598
  598SOL     OW 2692   3.152   4.177   6.716
  598SOL    HW1 2693   3.233   4.122   6.734
  598SOL    HW2 2694   3.080   4.152   6.782
  599SOL     OW 2695   1.616   6.712   3.007
  599SOL    HW1 2696   1.648   6.717   2.913
  599SOL    HW2 2697   1.657   6.632   3.052
  600SOL     OW 2698   1.282   1.309   1.117
  600SOL    HW1 2699   1.301   1.211   1.119
  600SOL    HW2 2700   1.369   1.359   1.116
  601SOL     OW 2701   3.573   6.565   4.303
  601SOL    HW1 2702   3.547   6.649   4.256
  601SOL    HW2 2703   3.509   6.492   4.280
  602SOL     OW 2704   1.099   2.398   6.985
  602SOL    HW1 2705   1.186   2.360   6.954
  602SOL    HW2 2706   1.054   2.332   0.029
  603SOL     OW 2707   4.137   1.985   3.790
  603SOL    HW1 2708   4.190   1.926   3.729
  603SOL    HW2 2709   4.180   1.985   3.881
  604SOL     OW 2710   0.519   3.885   1.273
  604SOL    HW1 2711   0.434   3.921   1.234
  604SOL    HW2 2712   0.596   3.910   1.215
  605SOL     OW 2713   6.732   5.353   2.679
  605SOL    HW1 2714   6.725   5.282   2.749
  605SOL    HW2 2715   6.717   5.442   2.721
  606SOL     OW 2716   4.906   0.402   5.454
  606SOL    HW1 2717   4.943   0.374   5.543
  606SOL    HW2 2718   4.831   0.342   5.429
  607SOL     OW 2719   5.790   0.705   5.543
  607SOL    HW1 2720   5.813   0.690   5.447
  607SOL    HW2 2721   5.779   0.802   5.560
  608SOL     OW 2722   3.954   6.538   6.991
  608SOL    HW1 2723   3.924   6.620   6.941
  608SOL    HW2 2724   4.034   6.561   0.030
  609SOL     OW 2725   3.282   3.443   3.839
  609SOL    HW1 2726   3.253   3.347   3.831
  609SOL    HW2 2727   3.216   3.493   3.896
  610SOL     OW 2728   5.205   2.026   2.675
  610SOL    HW1 2729   5.167   2.031   2.768
  610SOL    HW2 2730   5.141   1.977   2.616
  611SOL     OW 2731   1.190   0.710   6.233
  611SOL    HW1 2732   1.256   0.753   6.171
  611SOL    HW2 2733   1.112   0.771   6.245
  612SOL     OW 2734   4.157   5.945   5.470
  612SOL    HW1 2735   4.074   5.911   5.426
  612SOL    HW2 2736   4.222   5.870   5.482
  613SOL     OW 2737   4.826   6.881   5.362
  613SOL    HW1 2738   4.766   6.901   5.439
  613SOL    HW2 2739   4.903   6.946   5.363
  614SOL     OW 2740   5.993   4.319   1.229
  614SOL    HW1 2741   5.894   4.324   1.242
  614SOL    HW2 2742   6.014   4.302   1.133
  615SOL     OW 2743   0.809   1.546   1.634
  615SOL    HW1 2744   0.726   1.505   1.596
  615SOL    HW2 2745   0.887   1.522   1.576
  616SOL     OW 2746   5.999   1.779   3.182
  616SOL    HW1 2747   5.939   1.738   3.114
  616SOL    HW2 2748   6.022   1.710   3.252
  617SOL     OW 2749   0.027   3.684   6.766
  617SOL    HW1 2750   6.965   3.745   6.769
  617SOL    HW2 2751   0.024   3.628   6.683
  618SOL     OW 2752   6.341   3.562   0.657
  618SOL    HW1 2753   6.395   3.585   0.738
  618SOL    HW2 2754   6.260   3.510   0.686
  619SOL     OW 2755   4.063   0.061   6.589
  619SOL    HW1 2756   4.153   0.105   6.586
  619SOL    HW2 2757   4.048   0.023   6.680
  620SOL     OW 2758   5.884   2.797   0.865
  620SOL    HW1 2759   5.907   2.776   0.960
  620SOL    HW2 2760   5.842   2.888   0.861
  621SOL     OW 2761   1.610   0.364   5.050
  621SOL    HW1 2762   1.536   0.364   5.117
  621SOL    HW2 2763   1.661   0.450   5.057
  622SOL     OW 2764   0.362   1.646   5.217
  622SOL    HW1 2765   0.362   1.730   5.163
  622SOL    HW2 2766   0.371   1.567   5.156
  623SOL     OW 2767   0.661   6.865   5.057
  623SOL    HW1 2768   0.563   6.887   5.058
  623SOL    HW2 2769   0.681   6.802   5.132
  624SOL     OW 2770   6.418   0.902   0.085
  624SOL    HW1 2771   6.440   0.957   0.004
  624SOL    HW2 2772   6.497   0.900   0.146
  625SOL     OW 2773   1.690   1.938   0.864
  625SOL    HW1 2774   1.774   1.966   0.816
  625SOL    HW2 2775   1.691   1.839   0.877
  626SOL     OW 2776   0.664   5.933   2.567
  626SOL    HW1 2777   0.656   5.868   2.642
  626SOL    HW2 2778   0.620   5.896   2.485
  627SOL     OW 2779   6.441   6.375   0.585
  627SOL    HW1 2780   6.468   6.452   0.527
  627SOL    HW2 2781   6.508   6.301   0.576
  628SOL     OW 2782   5.723   3.598   5.243
  628SOL    HW1 2783   5.781   3.517   5.253
  628SOL    HW2 2784   5.634   3.581   5.286
  629SOL     OW 2785   0.852   1.223   6.670
  629SOL    HW1 2786   0.756   1.251   6.680
  629SOL    HW2 2787   0.894   1.274   6.596
  630SOL     OW 2788   0.316   2.304   0.993
  630SOL    HW1 2789   0.375   2.378   1.024
  630SOL    HW2 2790   0.272   2.330   0.908
  631SOL     OW 2791   3.719   1.212   4.435
  631SOL    HW1 2792   3.729   1.289   4.498
  631SOL    HW2 2793   3.783   1.140   4.461
  632SOL     OW 2794   4.429   2.371   0.419
  632SOL    HW1 2795   4.395   2.464   0.408
  632SOL    HW2 2796   4.355   2.306   0.399
  633SOL     OW 2797   3.202   4.424   6.794
  633SOL    HW1 2798   3.131   4.487   6.762
  633SOL    HW2 2799   3.187   4.334   6.753
  634SOL     OW 2800   3.676   3.155   2.771
  634SOL    HW1 2801   3.665   3.056   2.786
  634SOL    HW2 2802   3.589   3.200   2.789
  635SOL     OW 2803   4.678   6.818   0.468
  635SOL    HW1 2804   4.731   6.838   0.550
  635SOL    HW2 2805   4.711   6.732   0.428
  636SOL     OW 2806   2.837   0.117   6.136
  636SOL    HW1 2807   2.916   0.178   6.139
  636SOL    HW2 2808   2.862   0.032   6.089
  637SOL     OW 2809   6.309   2.613   2.446
  637SOL    HW1 2810   6.245   2.660   2.386
  637SOL    HW2 2811   6.358   2.543   2.395
  638SOL     OW 2812   5.876   4.040   3.870
  638SOL    HW1 2813   5.832   4.039   3.960
  638SOL    HW2 2814   5.822   4.096   3.807
  639SOL     OW 2815   5.186   4.359   3.719
  639SOL    HW1 2816   5.091   4.377   3.695
  639SOL    HW2 2817   5.225   4.293   3.654
  640SOL     OW 2818   6.724   4.877   3.297
  640SOL    HW1 2819   6.755   4.800   3.353
  640SOL    HW2 2820   6.634   4.856   3.258
  641SOL     OW 2821   0.844   4.698   4.863
  641SOL    HW1 2822   0.918   4.631   4.854
  641SOL    HW2 2823   0.873   4.772   4.923
  642SOL     OW 2824   1.395   2.866   4.721
  642SOL    HW1 2825   1.337   2.841   4.798
  642SOL    HW2 2826   1.339   2.904   4.647
  643SOL     OW 2827   6.283   0.394   6.120
  643SOL    HW1 2828   6.232   0.338   6.185
  643SOL    HW2 2829   6.380   0.372   6.125
  644SOL     OW 2830   1.894   0.625   4.355
  644SOL    HW1 2831   1.898   0.691   4.430
  644SOL    HW2 2832   1.977   0.570   4.354
  645SOL     OW 2833   3.284   5.458   4.449
  645SOL    HW1 2834   3.264   5.508   4.534
  645SOL    HW2 2835   3.378   5.475   4.422
  646SOL     OW 2836   3.815   0.531   4.600
  646SOL    HW1 2837   3.868   0.509   4.518
  646SOL    HW2 2838   3.862   0.495   4.681
  647SOL     OW 2839   5.632   1.637   4.893
  647SOL    HW1 2840   5.617   1.724   4.940
  647SOL    HW2 2841   5.603   1.644   4.798
  648SOL     OW 2842   6.922   4.028   3.542
  648SOL    HW1 2843   6.827   3.996   3.551
  648SOL    HW2 2844   6.930   4.081   3.457
  649SOL     OW 2845   2.208   3.676   0.673
  649SOL    HW1 2846   2.206   3.773   0.696
  649SOL    HW2 2847   2.168   3.623   0.748
  650SOL     OW 2848   6.528   5.242   0.375
  650SOL    HW1 2849   6.438   5.198   0.372
  650SOL    HW2 2850   6.536   5.306   0.300
  651SOL     OW 2851   1.628   0.640   5.142
  651SOL    HW1 2852   1.719   0.676   5.121
  651SOL    HW2 2853   1.612   0.645   5.240
  652SOL     OW 2854   4.523   6.886   2.901
  652SOL    HW1 2855   4.588   6.819   2.868
  652SOL    HW2 2856   4.507   6.954   2.829
  653SOL     OW 2857   0.555   6.330   0.298
  653SOL    HW1 2858   0.587   6.269   0.371
  653SOL    HW2 2859   0.615   6.322   0.219
  654SOL     OW 2860   0.136   6.593   6.233
  654SOL    HW1 2861   0.221   6.577   6.184
  654SOL    HW2 2862   0.155   6.597   6.331
  655SOL     OW 2863   6.633   5.527   2.160
  655SOL    HW1 2864   6.692   5.446   2.171
  655SOL    HW2 2865   6.672   5.604   2.210
  656SOL     OW 2866   1.750   6.356   6.806
  656SOL    HW1 2867   1.795   6.407   6.879
  656SOL    HW2 2868   1.654   6.385   6.799
  657SOL     OW 2869   3.254   4.167   0.953
  657SOL    HW1 2870   3.271   4.070   0.967
  657SOL    HW2 2871   3.259   4.215   1.040
  658SOL     OW 2872   1.243   3.883   5.363
  658SOL    HW1 2873   1.188   3.926   5.291
  658SOL    HW2 2874   1.336   3.868   5.329
  659SOL     OW 2875   2.841   6.050   4.697
  659SOL    HW1 2876   2.831   6.149   4.698
  659SOL    HW2 2877   2.828   6.016   4.603
  660SOL     OW 2878   4.622   4.584   2.792
  660SOL    HW1 2879   4.642   4.486   2.792
  660SOL    HW2 2880   4.594   4.612   2.701
  661SOL     OW 2881   4.829   4.012   4.651
  661SOL    HW1 2882   4.865   4.100   4.618
  661SOL    HW2 2883   4.776   3.969   4.578
  662SOL     OW 2884   4.490   1.092   5.690
  662SOL    HW1 2885   4.395   1.086   5.660
  662SOL    HW2 2886   4.505   1.179   5.737
  663SOL     OW 2887   0.433   4.501   0.196
  663SOL    HW1 2888   0.456   4.404   0.188
  663SOL    HW2 2889   0.462   4.549   0.113
  664SOL     OW 2890   1.671   5.696   6.657
  664SOL    HW1 2891   1.656   5.625   6.588
  664SOL    HW2 2892   1.614   5.677   6.737
  665SOL     OW 2893   4.106   5.195   1.001
  665SOL    HW1 2894   4.183   5.254   0.974
  665SOL    HW2 2895   4.075   5.221   1.093
  666SOL     OW 2896   4.414   2.232   1.031
  666SOL    HW1 2897   4.424   2.185   1.118
  666SOL    HW2 2898   4.339   2.298   1.037
  667SOL     OW 2899   0.490   4.214   3.685
  667SOL    HW1 2900   0.428   4.139   3.707
  667SOL    HW2 2901   0.584   4.180   3.682
  668SOL     OW 2902   4.839   5.793   6.960
  668SOL    HW1 2903   4.774   5.723   6.929
  668SOL    HW2 2904   4.932   5.754   6.959
  669SOL     OW 2905   2.600   6.023   3.037
  669SOL    HW1 2906   2.631   6.049   3.129
  669SOL    HW2 2907   2.631   6.091   2.972
  670SOL     OW 2908   3.140   3.409   2.176
  670SOL    HW1 2909   3.118   3.405   2.079
  670SOL    HW2 2910   3.059   3.382   2.229
  671SOL     OW 2911   2.480   5.930   6.485
  671SOL    HW1 2912   2.541   5.983   6.543
  671SOL    HW2 2913   2.464   5.840   6.525
  672SOL     OW 2914   0.852   4.361   2.185
  672SOL    HW1 2915   0.923   4.427   2.211
  672SOL    HW2 2916   0.888   4.301   2.113
  673SOL     OW 2917   4.792   0.348   1.192
  673SOL    HW1 2918   4.879   0.313   1.228
  673SOL    HW2 2919   4.728   0.272   1.179
  674SOL     OW 2920   6.732   3.104   4.071
  674SOL    HW1 2921   6.633   3.093   4.062
  674SOL    HW2 2922   6.779   3.031   4.021
  675SOL     OW 2923   0.363   1.446   5.050
  675SOL    HW1 2924   0.327   1.364   5.093
  675SOL    HW2 2925   0.362   1.436   4.951
  676SOL     OW 2926   2.596   4.955   3.207
  676SOL    HW1 2927   2.648   4.884   3.159
  676SOL    HW2 2928   2.658   5.007   3.266
  677SOL     OW 2929   5.757   1.412   6.377
  677SOL    HW1 2930   5.846   1.400   6.422
  677SOL    HW2 2931   5.761   1.373   6.285
  678SOL     OW 2932   1.906   1.472   5.195
  678SOL    HW1 2933   1.991   1.525   5.195
  678SOL    HW2 2934   1.915   1.397   5.129
  679SOL     OW 2935   4.955   1.063   4.443
  679SOL    HW1 2936   5.013   1.138   4.413
  679SOL    HW2 2937   4.987   1.029   4.531
  680SOL     OW 2938   5.785   4.925   5.943
  680SOL    HW1 2939   5.715   4.881   5.886
  680SOL    HW2 2940   5.745   4.949   6.032
  681SOL     OW 2941   6.559   0.041   0.891
  681SOL    HW1 2942   6.562   0.021   0.793
  681SOL    HW2 2943   6.472   0.010   0.929
  682SOL     OW 2944   1.693   6.585   6.572
  682SOL    HW1 2945   1.783   6.628   6.580
  682SOL    HW2 2946   1.696   6.494   6.612
  683SOL     OW 2947   3.518   0.971   5.930
  683SOL    HW1 2948   3.466   1.032   5.990
  683SOL    HW2 2949   3.505   1.000   5.835
  684SOL     OW 2950   6.105   1.321   6.258
  684SOL    HW1 2951   6.066   1.409   6.231
  684SOL    HW2 2952   6.077   1.299   6.351
  685SOL     OW 2953   5.234   6.609   5.492
  685SOL    HW1 2954   5.168   6.659   5.436
  685SOL    HW2 2955   5.262   6.666   5.569
  686SOL     OW 2956   5.433   3.196   2.769
  686SOL    HW1 2957   5.341   3.159   2.783
  686SOL    HW2 2958   5.500   3.140   2.819
  687SOL     OW 2959   6.964   2.822   5.361
  687SOL    HW1 2960   7.005   2.736   5.331
  687SOL    HW2 2961   6.887   2.845   5.302
  688SOL     OW 2962   1.303   3.898   0.634
  688SOL    HW1 2963   1.282   3.816   0.688
  688SOL    HW2 2964   1.230   3.914   0.568
  689SOL     OW 2965   0.790   4.316   5.370
  689SOL    HW1 2966   0.826   4.303   5.463
  689SOL    HW2 2967   0.790   4.414   5.348
  690SOL     OW 2968   0.203   3.357   3.061
  690SOL    HW1 2969   0.171   3.335   2.969
  690SOL    HW2 2970   0.234   3.274   3.107
  691SOL     OW 2971   2.249   1.824   6.600
  691SOL    HW1 2972   2.156   1.851   6.576
  691SOL    HW2 2973   2.270   1.736   6.559
  692SOL     OW 2974   3.306   6.054   3.880
  692SOL    HW1 2975   3.373   5.992   3.838
  692SOL    HW2 2976   3.329   6.148   3.858
  693SOL     OW 2977   6.337   1.255   3.408
  693SOL    HW1 2978   6.331   1.292   3.501
  693SOL    HW2 2979   6.433   1.256   3.378
  694SOL     OW 2980   3.323   5.898   2.352
  694SOL    HW1 2981   3.368   5.968   2.297
  694SOL    HW2 2982   3.231   5.882   2.316
  695SOL     OW 2983   4.856   4.510   6.119
  695SOL    HW1 2984   4.844   4.592   6.175
  695SOL    HW2 2985   4.941   4.464   6.146
  696SOL     OW 2986   3.427   5.143   1.725
  696SOL    HW1 2987   3.370   5.222   1.746
  696SOL    HW2 2988   3.472   5.110   1.808
  697SOL     OW 2989   1.312   2.303   5.311
  697SOL    HW1 2990   1.258   2.239   5.366
  697SOL    HW2 2991   1.338   2.259   5.225
  698SOL     OW 2992   5.754   0.438   5.963
  698SOL    HW1 2993   5.747   0.537   5.953
  698SOL    HW2 2994   5.763   0.396   5.873
  699SOL     OW 2995   0.528   4.246   0.143
  699SOL    HW1 2996   0.508   4.199   0.229
  699SOL    HW2 2997   0.554   4.178   0.074
  700SOL     OW 2998   3.285   1.779   3.909
  700SOL    HW1 2999   3.327   1.719   3.978
  700SOL    HW2 3000   3.242   1.857   3.955
  701SOL     OW 3001   0.247   4.132   5.727
  701SOL    HW1 3002   0.310   4.169   5.796
  701SOL    HW2 3003   0.156   4.125   5.767
  702SOL     OW 3004   5.672   6.004   5.937
  702SOL    HW1 3005   5.686   6.076   6.004
  702SOL    HW2 3006   5.660   5.916   5.984
  703SOL     OW 3007   4.316   3.724   6.388
  703SOL    HW1 3008   4.344   3.714   6.484
  703SOL    HW2 3009   4.261   3.807   6.378
  704SOL     OW 3010   1.794   1.502   6.281
  704SOL    HW1 3011   1.867   1.512   6.348
  704SOL    HW2 3012   1.823   1.441   6.208
  705SOL     OW 3013   5.234   6.852   3.802
  705SOL    HW1 3014   5.318   6.801   3.786
  705SOL    HW2 3015   5.157   6.789   3.811
  706SOL     OW 3016   3.941   2.117   3.429
  706SOL    HW1 3017   3.988   2.051   3.371
  706SOL    HW2 3018   4.008   2.176   3.474
  707SOL     OW 3019   4.166   0.157   2.801
  707SOL    HW1 3020   4.112   0.093   2.854
  707SOL    HW2 3021   4.106   0.224   2.757
  708SOL     OW 3022   4.421   0.502   1.305
  708SOL    HW1 3023   4.479   0.447   1.365
  708SOL    HW2 3024   4.374   0.572   1.359
  709SOL     OW 3025   1.260   5.551   0.593
  709SOL    HW1 3026   1.256   5.607   0.511
  709SOL    HW2 3027   1.347   5.566   0.640
  710SOL     OW 3028   4.026   3.082   2.491
  710SOL    HW1 3029   3.927   3.076   2.506
  710SOL    HW2 3030   4.051   3.032   2.408
  711SOL     OW 3031   1.089   1.842   6.277
  711SOL    HW1 3032   1.164   1.908   6.283
  711SOL    HW2 3033   1.126   1.751   6.260
  712SOL     OW 3034   2.358   4.364   0.508
  712SOL    HW1 3035   2.401   4.448   0.476
  712SOL    HW2 3036   2.423   4.288   0.501
  713SOL     OW 3037   3.252   3.473   0.259
  713SOL    HW1 3038   3.348   3.473   0.229
  713SOL    HW2 3039   3.233   3.557   0.309
  714SOL     OW 3040   6.809   4.993   4.741
  714SOL    HW1 3041   6.713   4.965   4.744
  714SOL    HW2 3042   6.818   5.073   4.682
  715SOL     OW 3043   5.078   6.280   1.037
  715SOL    HW1 3044   4.998   6.339   1.049
  715SOL    HW2 3045   5.049   6.186   1.023
  716SOL     OW 3046   0.831   6.684   0.363
  716SOL    HW1 3047   0.802   6.750   0.432
  716SOL    HW2 3048   0.860   6.599   0.408
  717SOL     OW 3049   5.610   5.300   6.342
  717SOL    HW1 3050   5.605   5.361   6.263
  717SOL    HW2 3051   5.517   5.278   6.373
  718SOL     OW 3052   4.655   2.303   5.437
  718SOL    HW1 3053   4.654   2.205   5.417
  718SOL    HW2 3054   4.666   2.317   5.535
  719SOL     OW 3055   6.407   2.367   1.037
  719SOL    HW1 3056   6.505   2.370   1.060
  719SOL    HW2 3057   6.374   2.460   1.020
  720SOL     OW 3058   3.686   0.887   6.113
  720SOL    HW1 3059   3.765   0.843   6.071
  720SOL    HW2 3060   3.617   0.905   6.043
  721SOL     OW 3061   1.584   0.203   4.447
  721SOL    HW1 3062   1.673   0.162   4.429
  721SOL    HW2 3063   1.597   0.297   4.481
  722SOL     OW 3064   3.161   6.935   5.416
  722SOL    HW1 3065   3.093   6.934   5.343
  722SOL    HW2 3066   3.160   0.007   5.462
  723SOL     OW 3067   2.137   3.169   2.967
  723SOL    HW1 3068   2.140   3.268   2.957
  723SOL    HW2 3069   2.153   3.126   2.878
  724SOL     OW 3070   1.123   1.515   4.138
  724SOL    HW1 3071   1.042   1.463   4.109
  724SOL    HW2 3072   1.165   1.560   4.060
  725SOL     OW 3073   3.322   5.365   1.539
  725SOL    HW1 3074   3.248   5.308   1.576
  725SOL    HW2 3075   3.326   5.353   1.440
  726SOL     OW 3076   3.612   4.342   1.022
  726SOL    HW1 3077   3.661   4.271   0.972
  726SOL    HW2 3078   3.672   4.380   1.093
  727SOL     OW 3079   4.824   5.619   5.609
  727SOL    HW1 3080   4.733   5.654   5.587
  727SOL    HW2 3081   4.828   5.597   5.706
  728SOL     OW 3082   0.464   3.827   5.278
  728SOL    HW1 3083   0.403   3.879   5.338
  728SOL    HW2 3084   0.409   3.768   5.218
  729SOL     OW 3085   2.207   0.965   0.621
  729SOL    HW1 3086   2.160   0.943   0.706
  729SOL    HW2 3087   2.155   0.928   0.544
  730SOL     OW 3088   5.673   0.310   3.687
  730SOL    HW1 3089   5.631   0.295   3.597
  730SOL    HW2 3090   5.722   0.398   3.686
  731SOL     OW 3091   6.279   3.684   5.806
  731SOL    HW1 3092   6.198   3.719   5.852
  731SOL    HW2 3093   6.263   3.591   5.773
  732SOL     OW 3094   0.402   3.648   1.123
  732SOL    HW1 3095   0.499   3.653   1.097
  732SOL    HW2 3096   0.365   3.741   1.128
  733SOL     OW 3097   5.839   4.026   5.279
  733SOL    HW1 3098   5.739   4.023   5.282
  733SOL    HW2 3099   5.869   4.067   5.193
  734SOL     OW 3100   6.586   4.626   2.639
  734SOL    HW1 3101   6.652   4.620   2.564
  734SOL    HW2 3102   6.601   4.709   2.692
  735SOL     OW 3103   3.572   3.043   0.971
  735SOL    HW1 3104   3.484   2.998   0.955
  735SOL    HW2 3105   3.615   3.005   1.053
  736SOL     OW 3106   6.221   6.208   2.574
  736SOL    HW1 3107   6.208   6.131   2.637
  736SOL    HW2 3108   6.317   6.231   2.569
  737SOL     OW 3109   4.185   2.485   6.636
  737SOL    HW1 3110   4.225   2.394   6.630
  737SOL    HW2 3111   4.086   2.476   6.651
  738SOL     OW 3112   1.933   4.283   2.473
  738SOL    HW1 3113   1.986   4.365   2.453
  738SOL    HW2 3114   1.985   4.201   2.446
  739SOL     OW 3115   4.565   6.302   5.367
  739SOL    HW1 3116   4.637   6.252   5.415
  739SOL    HW2 3117   4.603   6.387   5.330
  740SOL     OW 3118   4.999   6.892   0.657
  740SOL    HW1 3119   4.909   6.866   0.691
  740SOL    HW2 3120   5.035   6.968   0.713
  741SOL     OW 3121   2.065   6.250   3.177
  741SOL    HW1 3122   2.027   6.226   3.266
  741SOL    HW2 3123   2.018   6.330   3.140
  742SOL     OW 3124   2.056   6.451   1.550
  742SOL    HW1 3125   2.062   6.440   1.450
  742SOL    HW2 3126   2.104   6.535   1.577
  743SOL     OW 3127   1.565   4.105   4.064
  743SOL    HW1 3128   1.472   4.139   4.076
  743SOL    HW2 3129   1.601   4.137   3.976
  744SOL     OW 3130   6.184   0.174   6.321
  744SOL    HW1 3131   6.134   0.087   6.314
  744SOL    HW2 3132   6.210   0.189   6.417
  745SOL     OW 3133   0.539   4.926   4.647
  745SOL    HW1 3134   0.630   4.885   4.649
  745SOL    HW2 3135   0.547   5.025   4.656
  746SOL     OW 3136   0.799   5.783   5.877
  746SOL    HW1 3137   0.725   5.725   5.911
  746SOL    HW2 3138   0.766   5.876   5.864
  747SOL     OW 3139   4.734   5.408   5.171
  747SOL    HW1 3140   4.763   5.468   5.245
  747SOL    HW2 3141   4.681   5.332   5.208
  748SOL     OW 3142   3.689   5.592   3.039
  748SOL    HW1 3143   3.762   5.620   2.978
  748SOL    HW2 3144   3.615   5.659   3.036
  749SOL     OW 3145   6.459   3.735   4.475
  749SOL    HW1 3146   6.400   3.702   4.401
  749SOL    HW2 3147   6.405   3.789   4.539
  750SOL     OW 3148   2.102   3.546   0.906
  750SOL    HW1 3149   2.102   3.627   0.964
  750SOL    HW2 3150   2.030   3.484   0.937
  751SOL     OW 3151   3.813   1.957   6.192
  751SOL    HW1 3152   3.825   1.895   6.269
  751SOL    HW2 3153   3.901   1.969   6.145
  752SOL     OW 3154   4.346   2.452   1.722
  752SOL    HW1 3155   4.299   2.534   1.690
  752SOL    HW2 3156   4.335   2.379   1.655
  753SOL     OW 3157   1.884   2.914   4.296
  753SOL    HW1 3158   1.851   2.939   4.387
  753SOL    HW2 3159   1.907   2.996   4.244
  754SOL     OW 3160   5.679   3.078   6.664
  754SOL    HW1 3161   5.727   3.153   6.618
  754SOL    HW2 3162   5.719   3.063   6.755
  755SOL     OW 3163   1.834   5.568   6.065
  755SOL    HW1 3164   1.910   5.628   6.041
  755SOL    HW2 3165   1.754   5.623   6.090
  756SOL     OW 3166   3.771   6.895   1.335
  756SOL    HW1 3167   3.805   6.921   1.245
  756SOL    HW2 3168   3.764   6.976   1.394
  757SOL     OW 3169   0.401   6.419   3.104
  757SOL    HW1 3170   0.495   6.391   3.082
  757SOL    HW2 3171   0.353   6.443   3.020
  758SOL     OW 3172   4.058   0.780   1.771
  758SOL    HW1 3173   3.998   0.800   1.693
  758SOL    HW2 3174   4.131   0.848   1.775
  759SOL     OW 3175   0.699   0.774   0.755
  759SOL    HW1 3176   0.671   0.795   0.661
  759SOL    HW2 3177   0.754   0.849   0.791
  760SOL     OW 3178   4.358   0.592   6.022
  760SOL    HW1 3179   4.423   0.570   5.950
  760SOL    HW2 3180   4.366   0.525   6.096
  761SOL     OW 3181   5.665   3.728   5.572
  761SOL    HW1 3182   5.741   3.666   5.554
  761SOL    HW2 3183   5.672   3.764   5.665
  762SOL     OW 3184   2.136   6.750   4.513
  762SOL    HW1 3185   2.051   6.801   4.526
  762SOL    HW2 3186   2.133   6.665   4.564
  763SOL     OW 3187   3.738   4.889   6.598
  763SOL    HW1 3188   3.830   4.850   6.592
  763SOL    HW2 3189   3.673   4.817   6.627
  764SOL     OW 3190   4.548   0.573   3.507
  764SOL    HW1 3191   4.453   0.565   3.539
  764SOL    HW2 3192   4.605   0.607   3.581
  765SOL     OW 3193   1.267   6.753   1.054
  765SOL    HW1 3194   1.286   6.716   0.963
  765SOL    HW2 3195   1.179   6.717   1.086
  766SOL     OW 3196   0.702   2.347   0.810
  766SOL    HW1 3197   0.791   2.385   0.784
  766SOL    HW2 3198   0.683   2.371   0.905
  767SOL     OW 3199   6.215   5.768   2.596
  767SOL    HW1 3200   6.182   5.762   2.502
  767SOL    HW2 3201   6.185   5.853   2.637
  768SOL     OW 3202   2.880   6.558   2.050
  768SOL    HW1 3203   2.856   6.464   2.075
  768SOL    HW2 3204   2.825   6.622   2.103
  769SOL     OW 3205   3.277   0.573   4.374
  769SOL    HW1 3206   3.342   0.521   4.429
  769SOL    HW2 3207   3.239   0.515   4.302
  770SOL     OW 3208   1.517   4.422   2.963
  770SOL    HW1 3209   1.508   4.323   2.946
  770SOL    HW2 3210   1.594   4.458   2.912
  771SOL     OW 3211   2.420   5.515   2.313
  771SOL    HW1 3212   2.356   5.570   2.367
  771SOL    HW2 3213   2.430   5.425   2.354
  772SOL     OW 3214   6.791   5.214   0.517
  772SOL    HW1 3215   6.722   5.268   0.468
  772SOL    HW2 3216   6.873   5.207   0.461
  773SOL     OW 3217   0.112   4.027   3.204
  773SOL    HW1 3218   0.077   4.098   3.265
  773SOL    HW2 3219   0.104   3.938   3.248
  774SOL     OW 3220   1.093   1.187   2.454
  774SOL    HW1 3221   1.106   1.150   2.546
  774SOL    HW2 3222   1.145   1.272   2.444
  775SOL     OW 3223   0.801   1.790   3.310
  775SOL    HW1 3224   0.762   1.785   3.218
  775SOL    HW2 3225   0.848   1.878   3.322
  776SOL     OW 3226   6.526   1.022   5.476
  776SOL    HW1 3227   6.516   1.081   5.556
  776SOL    HW2 3228   6.622   1.014   5.451
  777SOL     OW 3229   3.378   5.975   0.756
  777SOL    HW1 3230   3.455   5.924   0.795
  777SOL    HW2 3231   3.293   5.926   0.776
  778SOL     OW 3232   3.392   1.341   3.078
  778SOL    HW1 3233   3.354   1.433   3.083
  778SOL    HW2 3234   3.377   1.303   2.986
  779SOL     OW 3235   0.650   2.252   2.473
  779SOL    HW1 3236   0.704   2.187   2.419
  779SOL    HW2 3237   0.553   2.229   2.464
  780SOL     OW 3238   6.564   3.833   4.136
  780SOL    HW1 3239   6.640   3.889   4.169
  780SOL    HW2 3240   6.583   3.736   4.154
  781SOL     OW 3241   5.228   2.031   6.541
  781SOL    HW1 3242   5.205   1.951   6.596
  781SOL    HW2 3243   5.248   2.003   6.448
  782SOL     OW 3244   0.632   3.584   0.161
  782SOL    HW1 3245   0.590   3.644   0.229
  782SOL    HW2 3246   0.690   3.517   0.207
  783SOL     OW 3247   3.769   4.922   1.026
  783SOL    HW1 3248   3.707   4.844   1.034
  783SOL    HW2 3249   3.740   4.993   1.090
  784SOL     OW 3250   5.301   6.717   6.460
  784SOL    HW1 3251   5.330   6.812   6.470
  784SOL    HW2 3252   5.287   6.677   6.550
  785SOL     OW 3253   6.562   2.429   3.017
  785SOL    HW1 3254   6.502   2.352   3.042
  785SOL    HW2 3255   6.552   2.501   3.085
  786SOL     OW 3256   1.710   1.599   1.399
  786SOL    HW1 3257   1.761   1.685   1.402
  786SOL    HW2 3258   1.774   1.522   1.388
  787SOL     OW 3259   3.297   1.364   6.485
  787SOL    HW1 3260   3.327   1.427   6.557
  787SOL    HW2 3261   3.217   1.313   6.516
  788SOL     OW 3262   2.765   1.932   4.954
  788SOL    HW1 3263   2.801   2.016   4.911
  788SOL    HW2 3264   2.709   1.957   5.033
  789SOL     OW 3265   5.157   3.891   0.591
  789SOL    HW1 3266   5.218   3.832   0.538
  789SOL    HW2 3267   5.189   3.895   0.686
  790SOL     OW 3268   2.830   0.833   3.960
  790SOL    HW1 3269   2.778   0.846   3.876
  790SOL    HW2 3270   2.848   0.921   4.002
  791SOL     OW 3271   3.339   6.459   3.117
  791SOL    HW1 3272   3.278   6.530   3.085
  791SOL    HW2 3273   3.301   6.369   3.095
  792SOL     OW 3274   0.433   0.228   1.702
  792SOL    HW1 3275   0.437   0.221   1.603
  792SOL    HW2 3276   0.356   0.286   1.729
  793SOL     OW 3277   4.363   6.245   2.741
  793SOL    HW1 3278   4.345   6.295   2.656
  793SOL    HW2 3279   4.436   6.290   2.791
  794SOL     OW 3280   3.031   3.310   4.732
  794SOL    HW1 3281   3.127   3.293   4.711
  794SOL    HW2 3282   2.996   3.238   4.791
  795SOL     OW 3283   3.496   5.832   4.854
  795SOL    HW1 3284   3.439   5.913   4.846
  795SOL    HW2 3285   3.553   5.839   4.936
  796SOL     OW 3286   0.997   2.082   6.681
  796SOL    HW1 3287   1.031   2.001   6.728
  796SOL    HW2 3288   1.025   2.079   6.585
  797SOL     OW 3289   4.832   2.447   2.515
  797SOL    HW1 3290   4.838   2.442   2.416
  797SOL    HW2 3291   4.871   2.364   2.555
  798SOL     OW 3292   5.002   6.742   1.352
  798SOL    HW1 3293   5.006   6.654   1.399
  798SOL    HW2 3294   4.967   6.812   1.414
  799SOL     OW 3295   6.150   1.514   4.150
  799SOL    HW1 3296   6.245   1.515   4.182
  799SOL    HW2 3297   6.133   1.596   4.095
  800SOL     OW 3298   5.491   1.190   2.428
  800SOL    HW1 3299   5.554   1.244   2.484
  800SOL    HW2 3300   5.542   1.116   2.385
  801SOL     OW 3301   1.870   3.122   3.611
  801SOL    HW1 3302   1.783   3.154   3.650
  801SOL    HW2 3303   1.858   3.107   3.513
  802SOL     OW 3304   4.242   0.396   0.686
  802SOL    HW1 3305   4.152   0.384   0.643
  802SOL    HW2 3306   4.312   0.403   0.615
  803SOL     OW 3307   0.625   5.375   4.788
  803SOL    HW1 3308   0.552   5.312   4.760
  803SOL    HW2 3309   0.705   5.363   4.728
  804SOL     OW 3310   6.059   6.019   6.752
  804SOL    HW1 3311   6.141   6.032   6.695
  804SOL    HW2 3312   6.069   5.936   6.807
  805SOL     OW 3313   3.387   2.037   5.462
  805SOL    HW1 3314   3.438   2.108   5.509
  805SOL    HW2 3315   3.341   2.076   5.382
  806SOL     OW 3316   4.750   0.679   4.406
  806SOL    HW1 3317   4.789   0.589   4.426
  806SOL    HW2 3318   4.650   0.670   4.397
  807SOL     OW 3319   0.387   2.061   3.939
  807SOL    HW1 3320   0.288   2.071   3.940
  807SOL    HW2 3321   0.430   2.150   3.951
  808SOL     OW 3322   4.778   3.650   6.396
  808SOL    HW1 3323   4.827   3.693   6.472
  808SOL    HW2 3324   4.736   3.564   6.427
  809SOL     OW 3325   0.767   4.775   1.332
  809SOL    HW1 3326   0.839   4.844   1.325
  809SOL    HW2 3327   0.697   4.791   1.263
  810SOL     OW 3328   3.544   2.758   1.078
  810SOL    HW1 3329   3.579   2.724   1.165
  810SOL    HW2 3330   3.530   2.682   1.015
  811SOL     OW 3331   4.197   5.677   4.499
  811SOL    HW1 3332   4.273   5.740   4.515
  811SOL    HW2 3333   4.186   5.662   4.400
  812SOL     OW 3334   0.990   1.471   1.898
  812SOL    HW1 3335   1.031   1.557   1.869
  812SOL    HW2 3336   1.008   1.400   1.829
  813SOL     OW 3337   3.729   4.948   4.752
  813SOL    HW1 3338   3.820   4.906   4.763
  813SOL    HW2 3339   3.739   5.048   4.749
  814SOL     OW 3340   5.471   6.147   3.452
  814SOL    HW1 3341   5.553   6.195   3.482
  814SOL    HW2 3342   5.495   6.082   3.380
  815SOL     OW 3343   6.666   3.144   2.946
  815SOL    HW1 3344   6.700   3.216   2.885
  815SOL    HW2 3345   6.582   3.105   2.908
  816SOL     OW 3346   6.905   6.679   0.291
  816SOL    HW1 3347   6.959   6.695   0.374
  816SOL    HW2 3348   6.956   6.619   0.229
  817SOL     OW 3349   2.442   4.130   1.590
  817SOL    HW1 3350   2.395   4.177   1.515
  817SOL    HW2 3351   2.403   4.039   1.601
  818SOL     OW 3352   6.307   3.077   1.715
  818SOL    HW1 3353   6.226   3.031   1.679
  818SOL    HW2 3354   6.282   3.170   1.744
  819SOL     OW 3355   5.806   3.388   3.409
  819SOL    HW1 3356   5.836   3.401   3.504
  819SOL    HW2 3357   5.825   3.472   3.357
  820SOL     OW 3358   2.455   2.780   6.741
  820SOL    HW1 3359   2.468   2.795   6.642
  820SOL    HW2 3360   2.535   2.734   6.778
  821SOL     OW 3361   2.181   4.645   0.908
  821SOL    HW1 3362   2.129   4.562   0.928
  821SOL    HW2 3363   2.118   4.723   0.901
  822SOL     OW 3364   1.063   4.407   4.686
  822SOL    HW1 3365   1.159   4.381   4.679
  822SOL    HW2 3366   1.048   4.494   4.640
  823SOL     OW 3367   5.117   4.220   0.034
  823SOL    HW1 3368   5.151   4.303   7.005
  823SOL    HW2 3369   5.018   4.226   0.044
  824SOL     OW 3370   5.253   0.985   5.199
  824SOL    HW1 3371   5.329   1.049   5.207
  824SOL    HW2 3372   5.224   0.957   5.291
  825SOL     OW 3373   1.179   3.712   1.451
  825SOL    HW1 3374   1.149   3.620   1.475
  825SOL    HW2 3375   1.251   3.707   1.382
  826SOL     OW 3376   5.641   3.259   6.889
  826SOL    HW1 3377   5.585   3.338   6.917
  826SOL    HW2 3378   5.596   3.175   6.918
  827SOL     OW 3379   3.333   5.890   6.179
  827SOL    HW1 3380   3.273   5.938   6.244
  827SOL    HW2 3381   3.427   5.922   6.192
  828SOL     OW 3382   6.018   0.051   6.009
  828SOL    HW1 3383   6.015   0.004   5.921
  828SOL    HW2 3384   5.996   0.148   5.995
  829SOL     OW 3385   2.985   3.813   4.003
  829SOL    HW1 3386   2.894   3.812   4.043
  829SOL    HW2 3387   2.980   3.786   3.907
  830SOL     OW 3388   4.909   4.756   6.619
  830SOL    HW1 3389   4.957   4.800   6.543
  830SOL    HW2 3390   4.952   4.784   6.705
  831SOL     OW 3391   6.430   1.242   5.217
  831SOL    HW1 3392   6.367   1.249   5.295
  831SOL    HW2 3393   6.426   1.328   5.164
  832SOL     OW 3394   2.191   0.881   1.100
  832SOL    HW1 3395   2.272   0.935   1.122
  832SOL    HW2 3396   2.139   0.864   1.184
  833SOL     OW 3397   0.383   4.586   5.985
  833SOL    HW1 3398   0.464   4.535   5.957
  833SOL    HW2 3399   0.411   4.662   6.045
  834SOL     OW 3400   2.880   3.823   1.115
  834SOL    HW1 3401   2.853   3.738   1.069
  834SOL    HW2 3402   2.948   3.802   1.185
  835SOL     OW 3403   3.276   0.178   4.144
  835SOL    HW1 3404   3.321   0.090   4.160
  835SOL    HW2 3405   3.337   0.239   4.093
  836SOL     OW 3406   3.373   6.942   0.218
  836SOL    HW1 3407   3.465   6.952   0.181
  836SOL    HW2 3408   3.306   6.962   0.147
  837SOL     OW 3409   5.394   6.619   0.041
  837SOL    HW1 3410   5.445   6.639   6.974
  837SOL    HW2 3411   5.439   6.664   0.118
  838SOL     OW 3412   1.277   0.634   4.931
  838SOL    HW1 3413   1.268   0.728   4.899
  838SOL    HW2 3414   1.374   0.608   4.934
  839SOL     OW 3415   2.618   2.366   2.018
  839SOL    HW1 3416   2.645   2.417   1.936
  839SOL    HW2 3417   2.700   2.331   2.063
  840SOL     OW 3418   6.080   6.958   6.234
  840SOL    HW1 3419   6.125   6.871   6.213
  840SOL    HW2 3420   6.063   7.008   6.149
  841SOL     OW 3421   5.010   4.649   0.417
  841SOL    HW1 3422   5.091   4.708   0.421
  841SOL    HW2 3423   4.933   4.701   0.380
  842SOL     OW 3424   4.493   5.065   4.436
  842SOL    HW1 3425   4.516   5.134   4.504
  842SOL    HW2 3426   4.396   5.044   4.441
  843SOL     OW 3427   3.917   1.901   6.449
  843SOL    HW1 3428   3.888   1.978   6.505
  843SOL    HW2 3429   4.015   1.911   6.428
  844SOL     OW 3430   4.440   0.003   1.068
  844SOL    HW1 3431   4.400   0.093   1.054
  844SOL    HW2 3432   4.506   0.007   1.142
  845SOL     OW 3433   6.353   3.469   4.808
  845SOL    HW1 3434   6.306   3.499   4.725
  845SOL    HW2 3435   6.318   3.379   4.835
  846SOL     OW 3436   3.983   1.917   0.285
  846SOL    HW1 3437   4.073   1.957   0.270
  846SOL    HW2 3438   3.985   1.820   0.260
  847SOL     OW 3439   0.256   3.645   0.256
  847SOL    HW1 3440   0.208   3.609   0.175
  847SOL    HW2 3441   0.191   3.656   0.331
  848SOL     OW 3442   6.339   1.623   6.509
  848SOL    HW1 3443   6.339   1.528   6.477
  848SOL    HW2 3444   6.425   1.642   6.556
  849SOL     OW 3445   1.221   4.317   5.884
  849SOL    HW1 3446   1.179   4.380   5.949
  849SOL    HW2 3447   1.170   4.231   5.881
  850SOL     OW 3448   5.033   1.145   3.535
  850SOL    HW1 3449   5.057   1.137   3.438
  850SOL    HW2 3450   5.112   1.180   3.586
  851SOL     OW 3451   0.270   1.596   1.821
  851SOL    HW1 3452   0.197   1.539   1.783
  851SOL    HW2 3453   0.341   1.538   1.860
  852SOL     OW 3454   1.911   2.920   0.817
  852SOL    HW1 3455   1.897   2.965   0.905
  852SOL    HW2 3456   1.958   2.982   0.755
  853SOL     OW 3457   1.468   4.063   2.076
  853SOL    HW1 3458   1.499   4.004   2.001
  853SOL    HW2 3459   1.526   4.144   2.081
  854SOL     OW 3460   4.737   5.936   2.406
  854SOL    HW1 3461   4.701   5.849   2.373
  854SOL    HW2 3462   4.830   5.949   2.372
  855SOL     OW 3463   6.898   0.101   0.827
  855SOL    HW1 3464   6.991   0.137   0.828
  855SOL    HW2 3465   6.860   0.105   0.920
  856SOL     OW 3466   1.566   1.737   5.308
  856SOL    HW1 3467   1.470   1.740   5.337
  856SOL    HW2 3468   1.584   1.815   5.247
  857SOL     OW 3469   5.816   4.962   1.407
  857SOL    HW1 3470   5.798   4.899   1.483
  857SOL    HW2 3471   5.829   5.055   1.443
  858SOL     OW 3472   2.201   4.378   1.642
  858SOL    HW1 3473   2.108   4.343   1.629
  858SOL    HW2 3474   2.237   4.347   1.730
  859SOL     OW 3475   4.902   5.065   6.856
  859SOL    HW1 3476   4.896   5.142   6.920
  859SOL    HW2 3477   4.997   5.051   6.828
  860SOL     OW 3478   4.170   4.282   0.960
  860SOL    HW1 3479   4.118   4.321   1.036
  860SOL    HW2 3480   4.252   4.338   0.944
  861SOL     OW 3481   2.577   0.165   4.713
  861SOL    HW1 3482   2.580   0.203   4.806
  861SOL    HW2 3483   2.640   0.088   4.707
  862SOL     OW 3484   6.709   4.925   5.499
  862SOL    HW1 3485   6.777   4.876   5.444
  862SOL    HW2 3486   6.751   5.006   5.539
  863SOL     OW 3487   1.192   0.543   0.729
  863SOL    HW1 3488   1.194   0.642   0.716
  863SOL    HW2 3489   1.107   0.505   0.694
  864SOL     OW 3490   5.048   4.622   3.797
  864SOL    HW1 3491   5.002   4.643   3.883
  864SOL    HW2 3492   5.126   4.562   3.815
  865SOL     OW 3493   1.775   6.531   5.354
  865SOL    HW1 3494   1.819   6.555   5.440
  865SOL    HW2 3495   1.679   6.559   5.357
  866SOL     OW 3496   1.737   2.741   1.160
  866SOL    HW1 3497   1.696   2.825   1.126
  866SOL    HW2 3498   1.836   2.745   1.148
  867SOL     OW 3499   3.960   2.557   0.977
  867SOL    HW1 3500   3.896   2.537   0.903
  867SOL    HW2 3501   3.912   2.599   1.053
  868SOL     OW 3502   5.649   6.290   1.400
  868SOL    HW1 3503   5.565   6.252   1.361
  868SOL    HW2 3504   5.702   6.217   1.443
  869SOL     OW 3505   0.101   5.379   2.821
  869SOL    HW1 3506   0.072   5.470   2.849
  869SOL    HW2 3507   0.035   5.311   2.853
  870SOL     OW 3508   6.019   3.704   0.528
  870SOL    HW1 3509   5.930   3.742   0.555
  870SOL    HW2 3510   6.067   3.671   0.609
  871SOL     OW 3511   6.236   3.332   1.739
  871SOL    HW1 3512   6.153   3.356   1.788
  871SOL    HW2 3513   6.298   3.410   1.737
  872SOL     OW 3514   6.446   4.289   3.865
  872SOL    HW1 3515   6.540   4.310   3.840
  872SOL    HW2 3516   6.444   4.200   3.912
  873SOL     OW 3517   4.795   0.174   3.889
  873SOL    HW1 3518   4.888   0.152   3.919
  873SOL    HW2 3519   4.773   0.120   3.807
  874SOL     OW 3520   1.481   4.202   5.395
  874SOL    HW1 3521   1.552   4.253   5.348
  874SOL    HW2 3522   1.392   4.246   5.379
  875SOL     OW 3523   4.676   3.640   1.059
  875SOL    HW1 3524   4.771   3.665   1.078
  875SOL    HW2 3525   4.639   3.591   1.138
  876SOL     OW 3526   0.180   5.379   3.636
  876SOL    HW1 3527   0.091   5.355   3.674
  876SOL    HW2 3528   0.168   5.456   3.572
  877SOL     OW 3529   3.607   4.653   6.675
  877SOL    HW1 3530   3.617   4.702   6.762
  877SOL    HW2 3531   3.511   4.630   6.660
  878SOL     OW 3532   4.382   6.008   6.534
  878SOL    HW1 3533   4.401   6.105   6.523
  878SOL    HW2 3534   4.408   5.959   6.450
  879SOL     OW 3535   3.506   1.887   2.358
  879SOL    HW1 3536   3.547   1.949   2.290
  879SOL    HW2 3537   3.420   1.852   2.323
  880SOL     OW 3538   2.893   4.893   6.854
  880SOL    HW1 3539   2.914   4.985   6.824
  880SOL    HW2 3540   2.969   4.832   6.831
  881SOL     OW 3541   4.070   4.526   5.310
  881SOL    HW1 3542   4.106   4.465   5.240
  881SOL    HW2 3543   4.018   4.473   5.377
  882SOL     OW 3544   1.808   1.215   3.834
  882SOL    HW1 3545   1.864   1.189   3.755
  882SOL    HW2 3546   1.731   1.271   3.803
  883SOL     OW 3547   4.931   5.232   5.049
  883SOL    HW1 3548   4.853   5.268   5.099
  883SOL    HW2 3549   4.994   5.307   5.028
  884SOL     OW 3550   0.141   3.871   1.969
  884SOL    HW1 3551   0.134   3.901   2.064
  884SOL    HW2 3552   0.066   3.807   1.948
  885SOL     OW 3553   5.506   5.911   6.903
  885SOL    HW1 3554   5.424   5.905   6.960
  885SOL    HW2 3555   5.553   5.998   6.921
  886SOL     OW 3556   4.558   0.829   0.235
  886SOL    HW1 3557   4.468   0.862   0.209
  886SOL    HW2 3558   4.611   0.905   0.274
  887SOL     OW 3559   4.281   6.385   5.390
  887SOL    HW1 3560   4.222   6.340   5.323
  887SOL    HW2 3561   4.369   6.337   5.394
  888SOL     OW 3562   6.307   6.604   3.387
  888SOL    HW1 3563   6.370   6.568   3.456
  888SOL    HW2 3564   6.219   6.624   3.430
  889SOL     OW 3565   0.398   6.808   6.211
  889SOL    HW1 3566   0.418   6.879   6.142
  889SOL    HW2 3567   0.395   6.719   6.167
  890SOL     OW 3568   2.754   4.869   1.909
  890SOL    HW1 3569   2.799   4.784   1.936
  890SOL    HW2 3570   2.763   4.937   1.983
  891SOL     OW 3571   5.371   3.599   1.343
  891SOL    HW1 3572   5.444   3.537   1.370
  891SOL    HW2 3573   5.285   3.548   1.335
  892SOL     OW 3574   3.756   3.920   0.566
  892SOL    HW1 3575   3.742   3.832   0.521
  892SOL    HW2 3576   3.687   3.985   0.534
  893SOL     OW 3577   2.371   1.017   1.533
  893SOL    HW1 3578   2.449   1.023   1.470
  893SOL    HW2 3579   2.398   1.051   1.623
  894SOL     OW 3580   2.179   3.898   3.906
  894SOL    HW1 3581   2.147   3.804   3.911
  894SOL    HW2 3582   2.194   3.934   3.998
  895SOL     OW 3583   2.061   6.240   4.844
  895SOL    HW1 3584   2.080   6.338   4.857
  895SOL    HW2 3585   1.982   6.229   4.784
  896SOL     OW 3586   5.372   5.675   2.980
  896SOL    HW1 3587   5.297   5.675   3.047
  896SOL    HW2 3588   5.359   5.598   2.917
  897SOL     OW 3589   4.807   1.201   0.589
  897SOL    HW1 3590   4.883   1.261   0.563
  897SOL    HW2 3591   4.758   1.242   0.666
  898SOL     OW 3592   4.367   6.065   3.544
  898SOL    HW1 3593   4.384   6.070   3.642
  898SOL    HW2 3594   4.439   6.013   3.499
  899SOL     OW 3595   0.622   5.073   0.137
  899SOL    HW1 3596   0.644   5.006   0.067
  899SOL    HW2 3597   0.523   5.090   0.137
  900SOL     OW 3598   5.399   5.607   1.678
  900SOL    HW1 3599   5.480   5.556   1.706
  900SOL    HW2 3600   5.319   5.548   1.683
  901SOL     OW 3601   0.025   1.435   4.772
  901SOL    HW1 3602   7.017   1.377   4.694
  901SOL    HW2 3603   0.011   1.384   4.857
  902SOL     OW 3604   0.542   1.475   6.237
  902SOL    HW1 3605   0.516   1.571   6.246
  902SOL    HW2 3606   0.546   1.450   6.141
  903SOL     OW 3607   6.495   4.560   6.874
  903SOL    HW1 3608   6.398   4.547   6.894
  903SOL    HW2 3609   6.531   4.478   6.831
  904SOL     OW 3610   1.873   2.179   4.388
  904SOL    HW1 3611   1.777   2.202   4.373
  904SOL    HW2 3612   1.930   2.258   4.367
  905SOL     OW 3613   5.143   2.767   6.483
  905SOL    HW1 3614   5.094   2.765   6.396
  905SOL    HW2 3615   5.193   2.853   6.490
  906SOL     OW 3616   0.607   3.675   6.191
  906SOL    HW1 3617   0.698   3.680   6.150
  906SOL    HW2 3618   0.604   3.732   6.273
  907SOL     OW 3619   6.007   2.814   3.538
  907SOL    HW1 3620   6.017   2.876   3.616
  907SOL    HW2 3621   6.033   2.862   3.454
  908SOL     OW 3622   1.234   6.800   4.186
  908SOL    HW1 3623   1.173   6.879   4.192
  908SOL    HW2 3624   1.218   6.752   4.100
  909SOL     OW 3625   2.362   1.085   1.128
  909SOL    HW1 3626   2.460   1.071   1.120
  909SOL    HW2 3627   2.343   1.146   1.205
  910SOL     OW 3628   2.278   0.615   0.992
  910SOL    HW1 3629   2.253   0.710   1.010
  910SOL    HW2 3630   2.226   0.581   0.914
  911SOL     OW 3631   6.791   5.399   1.299
  911SOL    HW1 3632   6.768   5.451   1.217
  911SOL    HW2 3633   6.799   5.302   1.275
  912SOL     OW 3634   0.033   0.792   5.358
  912SOL    HW1 3635   0.010   0.718   5.420
  912SOL    HW2 3636   6.970   0.816   5.303
  913SOL     OW 3637   2.135   0.821   3.567
  913SOL    HW1 3638   2.225   0.861   3.551
  913SOL    HW2 3639   2.143   0.721   3.573
  914SOL     OW 3640   2.690   5.908   5.530
  914SOL    HW1 3641   2.682   5.856   5.614
  914SOL    HW2 3642   2.763   5.976   5.540
  915SOL     OW 3643   0.654   3.488   1.039
  915SOL    HW1 3644   0.717   3.487   1.117
  915SOL    HW2 3645   0.668   3.408   0.982
  916SOL     OW 3646   1.357   2.411   2.381
  916SOL    HW1 3647   1.307   2.493   2.410
  916SOL    HW2 3648   1.294   2.347   2.337
  917SOL     OW 3649   3.916   0.410   1.560
  917SOL    HW1 3650   3.906   0.353   1.479
  917SOL    HW2 3651   4.013   0.416   1.585
  918SOL     OW 3652   2.822   6.241   0.173
  918SOL    HW1 3653   2.826   6.274   0.079
  918SOL    HW2 3654   2.792   6.315   0.233
  919SOL     OW 3655   1.651   6.355   1.680
  919SOL    HW1 3656   1.552   6.353   1.692
  919SOL    HW2 3657   1.684   6.262   1.658
  920SOL     OW 3658   2.184   0.128   3.367
  920SOL    HW1 3659   2.227   0.059   3.426
  920SOL    HW2 3660   2.085   0.125   3.379
  921SOL     OW 3661   4.736   4.899   3.837
  921SOL    HW1 3662   4.777   4.990   3.824
  921SOL    HW2 3663   4.712   4.860   3.748
  922SOL     OW 3664   3.293   2.580   6.612
  922SOL    HW1 3665   3.312   2.678   6.617
  922SOL    HW2 3666   3.369   2.535   6.565
  923SOL     OW 3667   3.221   5.770   0.507
  923SOL    HW1 3668   3.149   5.727   0.562
  923SOL    HW2 3669   3.310   5.747   0.545
  924SOL     OW 3670   5.281   3.375   2.558
  924SOL    HW1 3671   5.184   3.374   2.585
  924SOL    HW2 3672   5.336   3.329   2.628
  925SOL     OW 3673   6.912   1.362   5.305
  925SOL    HW1 3674   6.857   1.437   5.269
  925SOL    HW2 3675   6.869   1.325   5.387
  926SOL     OW 3676   6.101   0.800   6.837
  926SOL    HW1 3677   6.083   0.892   6.802
  926SOL    HW2 3678   6.060   0.733   6.776
  927SOL     OW 3679   4.746   4.110   4.000
  927SOL    HW1 3680   4.772   4.014   4.013
  927SOL    HW2 3681   4.825   4.161   3.966
  928SOL     OW 3682   1.805   0.430   0.541
  928SOL    HW1 3683   1.797   0.457   0.637
  928SOL    HW2 3684   1.716   0.402   0.506
  929SOL     OW 3685   6.687   2.114   1.001
  929SOL    HW1 3686   6.703   2.197   0.946
  929SOL    HW2 3687   6.598   2.076   0.979
  930SOL     OW 3688   0.024   5.778   4.907
  930SOL    HW1 3689   0.016   5.690   4.860
  930SOL    HW2 3690   0.117   5.789   4.941
  931SOL     OW 3691   0.129   3.767   3.374
  931SOL    HW1 3692   0.149   3.813   3.461
  931SOL    HW2 3693   0.031   3.744   3.371
  932SOL     OW 3694   3.061   6.310   1.219
  932SOL    HW1 3695   2.989   6.288   1.286
  932SOL    HW2 3696   3.119   6.382   1.256
  933SOL     OW 3697   1.031   5.207   2.026
  933SOL    HW1 3698   1.101   5.278   2.026
  933SOL    HW2 3699   0.971   5.218   2.105
  934SOL     OW 3700   2.634   1.031   4.746
  934SOL    HW1 3701   2.600   0.941   4.774
  934SOL    HW2 3702   2.618   1.097   4.819
  935SOL     OW 3703   5.161   3.373   5.355
  935SOL    HW1 3704   5.180   3.465   5.319
  935SOL    HW2 3705   5.107   3.380   5.439
  936SOL     OW 3706   1.220   0.407   6.569
  936SOL    HW1 3707   1.257   0.315   6.576
  936SOL    HW2 3708   1.207   0.431   6.473
  937SOL     OW 3709   4.898   2.365   5.270
  937SOL    HW1 3710   4.987   2.359   5.316
  937SOL    HW2 3711   4.826   2.354   5.338
  938SOL     OW 3712   0.036   4.894   5.803
  938SOL    HW1 3713   0.030   4.809   5.751
  938SOL    HW2 3714   0.027   4.873   5.901
  939SOL     OW 3715   4.994   1.305   5.641
  939SOL    HW1 3716   5.077   1.288   5.588
  939SOL    HW2 3717   4.980   1.231   5.707
  940SOL     OW 3718   6.446   2.178   2.793
  940SOL    HW1 3719   6.391   2.239   2.850
  940SOL    HW2 3720   6.386   2.118   2.741
  941SOL     OW 3721   6.200   0.933   4.229
  941SOL    HW1 3722   6.224   1.014   4.283
  941SOL    HW2 3723   6.277   0.869   4.231
  942SOL     OW 3724   5.131   1.017   4.697
  942SOL    HW1 3725   5.197   1.091   4.712
  942SOL    HW2 3726   5.152   0.941   4.759
  943SOL     OW 3727   0.818   3.320   2.922
  943SOL    HW1 3728   0.748   3.253   2.896
  943SOL    HW2 3729   0.901   3.305   2.868
  944SOL     OW 3730   6.332   3.260   6.229
  944SOL    HW1 3731   6.321   3.258   6.328
  944SOL    HW2 3732   6.404   3.196   6.202
  945SOL     OW 3733   6.065   4.630   5.207
  945SOL    HW1 3734   6.102   4.566   5.275
  945SOL    HW2 3735   6.121   4.713   5.206
  946SOL     OW 3736   5.780   2.527   6.510
  946SOL    HW1 3737   5.737   2.616   6.490
  946SOL    HW2 3738   5.852   2.510   6.443
  947SOL     OW 3739   2.910   3.516   5.189
  947SOL    HW1 3740   2.919   3.422   5.156
  947SOL    HW2 3741   2.912   3.579   5.112
  948SOL     OW 3742   4.324   1.366   0.842
  948SOL    HW1 3743   4.339   1.278   0.796
  948SOL    HW2 3744   4.231   1.397   0.824
  949SOL     OW 3745   6.571   6.077   6.304
  949SOL    HW1 3746   6.565   6.175   6.322
  949SOL    HW2 3747   6.643   6.059   6.238
  950SOL     OW 3748   4.515   4.783   2.995
  950SOL    HW1 3749   4.545   4.860   2.938
  950SOL    HW2 3750   4.543   4.697   2.952
  951SOL     OW 3751   2.035   0.586   1.770
  951SOL    HW1 3752   2.089   0.669   1.786
  951SOL    HW2 3753   1.984   0.595   1.684
  952SOL     OW 3754   5.788   1.314   2.232
  952SOL    HW1 3755   5.734   1.317   2.148
  952SOL    HW2 3756   5.881   1.346   2.213
  953SOL     OW 3757   4.924   5.995   5.741
  953SOL    HW1 3758   4.888   6.078   5.784
  953SOL    HW2 3759   4.985   6.019   5.666
  954SOL     OW 3760   5.404   6.956   0.909
  954SOL    HW1 3761   5.357   6.989   0.827
  954SOL    HW2 3762   5.499   6.986   0.907
  955SOL     OW 3763   0.858   5.263   3.696
  955SOL    HW1 3764   0.949   5.266   3.739
  955SOL    HW2 3765   0.823   5.356   3.686
  956SOL     OW 3766   0.833   1.865   2.146
  956SOL    HW1 3767   0.756   1.862   2.082
  956SOL    HW2 3768   0.804   1.831   2.235
  957SOL     OW 3769   1.390   4.622   4.607
  957SOL    HW1 3770   1.437   4.654   4.689
  957SOL    HW2 3771   1.350   4.700   4.559
  958SOL     OW 3772   4.804   2.611   0.975
  958SOL    HW1 3773   4.826   2.633   1.070
  958SOL    HW2 3774   4.759   2.522   0.972
  959SOL     OW 3775   2.713   4.746   3.066
  959SOL    HW1 3776   2.655   4.734   2.985
  959SOL    HW2 3777   2.796   4.795   3.041
  960SOL     OW 3778   0.364   5.893   4.031
  960SOL    HW1 3779   0.365   5.840   4.116
  960SOL    HW2 3780   0.441   5.957   4.030
  961SOL     OW 3781   4.824   6.347   3.154
  961SOL    HW1 3782   4.729   6.370   3.132
  961SOL    HW2 3783   4.882   6.427   3.141
  962SOL     OW 3784   1.510   1.196   3.681
  962SOL    HW1 3785   1.539   1.145   3.762
  962SOL    HW2 3786   1.411   1.186   3.669
  963SOL     OW 3787   5.770   0.924   0.176
  963SOL    HW1 3788   5.812   0.852   0.121
  963SOL    HW2 3789   5.787   1.013   0.132
  964SOL     OW 3790   6.104   3.428   0.706
  964SOL    HW1 3791   6.019   3.378   0.688
  964SOL    HW2 3792   6.115   3.440   0.804
  965SOL     OW 3793   5.807   1.847   0.791
  965SOL    HW1 3794   5.745   1.815   0.862
  965SOL    HW2 3795   5.783   1.806   0.704
  966SOL     OW 3796   6.258   1.707   2.278
  966SOL    HW1 3797   6.232   1.801   2.301
  966SOL    HW2 3798   6.208   1.678   2.196
  967SOL     OW 3799   1.416   5.291   0.622
  967SOL    HW1 3800   1.321   5.271   0.603
  967SOL    HW2 3801   1.438   5.266   0.717
  968SOL     OW 3802   4.540   2.438   2.082
  968SOL    HW1 3803   4.446   2.408   2.068
  968SOL    HW2 3804   4.579   2.467   1.995
  969SOL     OW 3805   3.789   5.974   6.081
  969SOL    HW1 3806   3.887   5.960   6.072
  969SOL    HW2 3807   3.741   5.924   6.009
  970SOL     OW 3808   4.828   1.423   5.002
  970SOL    HW1 3809   4.917   1.395   5.037
  970SOL    HW2 3810   4.822   1.404   4.904
  971SOL     OW 3811   0.401   1.698   2.776
  971SOL    HW1 3812   0.446   1.612   2.802
  971SOL    HW2 3813   0.396   1.758   2.855
  972SOL     OW 3814   5.517   3.981   0.959
  972SOL    HW1 3815   5.491   4.002   0.865
  972SOL    HW2 3816   5.616   3.990   0.970
  973SOL     OW 3817   7.011   4.807   6.105
  973SOL    HW1 3818   0.049   4.745   6.162
  973SOL    HW2 3819   7.004   4.896   6.151
  974SOL     OW 3820   4.037   0.595   2.072
  974SOL    HW1 3821   3.955   0.609   2.017
  974SOL    HW2 3822   4.118   0.595   2.013
  975SOL     OW 3823   1.722   5.986   6.600
  975SOL    HW1 3824   1.739   6.040   6.682
  975SOL    HW2 3825   1.701   5.892   6.626
  976SOL     OW 3826   6.303   3.137   2.657
  976SOL    HW1 3827   6.353   3.181   2.582
  976SOL    HW2 3828   6.262   3.051   2.624
  977SOL     OW 3829   2.483   1.137   3.932
  977SOL    HW1 3830   2.464   1.234   3.920
  977SOL    HW2 3831   2.582   1.121   3.929
  978SOL     OW 3832   5.029   4.072   5.335
  978SOL    HW1 3833   5.080   4.038   5.256
  978SOL    HW2 3834   4.931   4.056   5.321
  979SOL     OW 3835   6.839   1.365   3.153
  979SOL    HW1 3836   6.926   1.363   3.204
  979SOL    HW2 3837   6.840   1.443   3.090
  980SOL     OW 3838   5.000   1.675   3.495
  980SOL    HW1 3839   5.008   1.673   3.595
  980SOL    HW2 3840   4.942   1.599   3.465
  981SOL     OW 3841   1.502   1.418   4.996
  981SOL    HW1 3842   1.547   1.374   4.918
  981SOL    HW2 3843   1.570   1.465   5.052
  982SOL     OW 3844   2.206   2.298   3.870
  982SOL    HW1 3845   2.139   2.282   3.942
  982SOL    HW2 3846   2.202   2.393   3.840
  983SOL     OW 3847   5.701   2.772   3.670
  983SOL    HW1 3848   5.629   2.809   3.611
  983SOL    HW2 3849   5.786   2.763   3.618
  984SOL     OW 3850   3.893   0.657   4.858
  984SOL    HW1 3851   3.915   0.559   4.850
  984SOL    HW2 3852   3.977   0.710   4.853
  985SOL     OW 3853   5.203   4.751   6.365
  985SOL    HW1 3854   5.131   4.820   6.375
  985SOL    HW2 3855   5.290   4.788   6.400
  986SOL     OW 3856   5.344   5.657   0.137
  986SOL    HW1 3857   5.348   5.647   0.038
  986SOL    HW2 3858   5.260   5.704   0.163
  987SOL     OW 3859   4.314   6.075   1.077
  987SOL    HW1 3860   4.269   6.164   1.082
  987SOL    HW2 3861   4.282   6.017   1.152
  988SOL     OW 3862   3.941   2.595   1.662
  988SOL    HW1 3863   3.903   2.660   1.727
  988SOL    HW2 3864   3.877   2.519   1.649
  989SOL     OW 3865   0.451   0.735   5.650
  989SOL    HW1 3866   0.389   0.741   5.572
  989SOL    HW2 3867   0.539   0.777   5.626
  990SOL     OW 3868   4.755   0.365   3.358
  990SOL    HW1 3869   4.674   0.373   3.416
  990SOL    HW2 3870   4.836   0.394   3.409
  991SOL     OW 3871   1.742   1.957   5.287
  991SOL    HW1 3872   1.756   2.007   5.373
  991SOL    HW2 3873   1.792   2.003   5.213
  992SOL     OW 3874   0.849   3.671   1.155
  992SOL    HW1 3875   0.850   3.628   1.245
  992SOL    HW2 3876   0.935   3.719   1.140
  993SOL     OW 3877   1.949   5.428   2.336
  993SOL    HW1 3878   1.897   5.354   2.380
  993SOL    HW2 3879   1.891   5.473   2.267
  994SOL     OW 3880   3.758   3.652   2.819
  994SOL    HW1 3881   3.742   3.553   2.828
  994SOL    HW2 3882   3.847   3.675   2.859
  995SOL     OW 3883   2.789   2.193   6.239
  995SOL    HW1 3884   2.844   2.232   6.166
  995SOL    HW2 3885   2.848   2.159   6.311
  996SOL     OW 3886   1.836   4.012   3.720
  996SOL    HW1 3887   1.864   4.074   3.647
  996SOL    HW2 3888   1.771   4.059   3.780
  997SOL     OW 3889   6.329   0.440   1.119
  997SOL    HW1 3890   6.296   0.462   1.027
  997SOL    HW2 3891   6.267   0.376   1.162
  998SOL     OW 3892   4.789   6.928   4.043
  998SOL    HW1 3893   4.832   6.881   3.966
  998SOL    HW2 3894   4.768   0.005   4.017
  999SOL     OW 3895   5.291   5.146   0.831
  999SOL    HW1 3896   5.230   5.079   0.791
  999SOL    HW2 3897   5.350   5.102   0.898
 1000SOL     OW 3898   1.068   0.880   2.445
 1000SOL    HW1 3899   1.032   0.973   2.436
 1000SOL    HW2 3900   1.010   0.827   2.507
 1001SOL     OW 3901   5.566   6.653   6.845
 1001SOL    HW1 3902   5.608   6.734   6.804
 1001SOL    HW2 3903   5.552   6.583   6.774
 1002SOL     OW 3904   5.799   1.983   6.662
 1002SOL    HW1 3905   5.701   1.989   6.643
 1002SOL    HW2 3906   5.816   2.008   6.758
 1003SOL     OW 3907   2.690   6.774   1.687
 1003SOL    HW1 3908   2.743   6.692   1.708
 1003SOL    HW2 3909   2.684   6.832   1.768
 1004SOL     OW 3910   6.625   0.540   0.867
 1004SOL    HW1 3911   6.661   0.506   0.954
 1004SOL    HW2 3912   6.526   0.549   0.874
 1005SOL     OW 3913   0.325   1.437   3.342
 1005SOL    HW1 3914   0.227   1.446   3.321
 1005SOL    HW2 3915   0.376   1.508   3.293
 1006SOL     OW 3916   1.765   6.105   1.546
 1006SOL    HW1 3917   1.771   6.017   1.593
 1006SOL    HW2 3918   1.712   6.094   1.462
 1007SOL     OW 3919   5.879   0.484   4.207
 1007SOL    HW1 3920   5.901   0.387   4.217
 1007SOL    HW2 3921   5.963   0.536   4.196
 1008SOL     OW 3922   1.839   3.128   4.481
 1008SOL    HW1 3923   1.914   3.193   4.467
 1008SOL    HW2 3924   1.840   3.096   4.575
 1009SOL     OW 3925   0.158   6.271   3.929
 1009SOL    HW1 3926   0.227   6.239   3.994
 1009SOL    HW2 3927   0.179   6.365   3.902
 1010SOL     OW 3928   3.728   2.087   6.579
 1010SOL    HW1 3929   3.773   2.159   6.526
 1010SOL    HW2 3930   3.646   2.123   6.622
 1011SOL     OW 3931   2.953   5.284   2.548
 1011SOL    HW1 3932   3.010   5.256   2.470
 1011SOL    HW2 3933   2.907   5.370   2.526
 1012SOL     OW 3934   6.696   6.183   0.309
 1012SOL    HW1 3935   6.719   6.116   0.238
 1012SOL    HW2 3936   6.769   6.250   0.316
 1013SOL     OW 3937   0.306   1.076   6.304
 1013SOL    HW1 3938   0.281   1.119   6.390
 1013SOL    HW2 3939   0.325   0.979   6.319
 1014SOL     OW 3940   4.960   5.359   6.915
 1014SOL    HW1 3941   5.034   5.426   6.907
 1014SOL    HW2 3942   4.916   5.349   6.826
 1015SOL     OW 3943   1.911   6.568   5.125
 1015SOL    HW1 3944   1.872   6.551   5.215
 1015SOL    HW2 3945   1.853   6.525   5.055
 1016SOL     OW 3946   2.403   3.496   0.554
 1016SOL    HW1 3947   2.334   3.542   0.610
 1016SOL    HW2 3948   2.370   3.404   0.530
 1017SOL     OW 3949   4.631   2.417   0.678
 1017SOL    HW1 3950   4.595   2.349   0.614
 1017SOL    HW2 3951   4.599   2.508   0.651
 1018SOL     OW 3952   1.647   3.366   3.852
 1018SOL    HW1 3953   1.600   3.422   3.784
 1018SOL    HW2 3954   1.606   3.274   3.853
 1019SOL     OW 3955   1.471   0.842   0.282
 1019SOL    HW1 3956   1.494   0.746   0.296
 1019SOL    HW2 3957   1.447   0.884   0.370
 1020SOL     OW 3958   1.351   6.999   0.913
 1020SOL    HW1 3959   1.362   6.924   0.978
 1020SOL    HW2 3960   1.275   0.040   0.942
 1021SOL     OW 3961   6.117   0.405   0.497
 1021SOL    HW1 3962   6.063   0.332   0.540
 1021SOL    HW2 3963   6.160   0.369   0.414
 1022SOL     OW 3964   3.989   4.240   5.997
 1022SOL    HW1 3965   3.994   4.325   6.049
 1022SOL    HW2 3966   3.899   4.233   5.954
 1023SOL     OW 3967   6.092   0.265   2.334
 1023SOL    HW1 3968   6.119   0.190   2.273
 1023SOL    HW2 3969   6.140   0.348   2.307
 1024SOL     OW 3970   6.132   3.304   4.046
 1024SOL    HW1 3971   6.142   3.218   4.096
 1024SOL    HW2 3972   6.037   3.315   4.018
 1025SOL     OW 3973   3.320   3.970   0.200
 1025SOL    HW1 3974   3.399   3.909   0.203
 1025SOL    HW2 3975   3.242   3.926   0.245
 1026SOL     OW 3976   1.465   2.008   0.971
 1026SOL    HW1 3977   1.554   1.991   0.928
 1026SOL    HW2 3978   1.478   2.034   1.066
 1027SOL     OW 3979   2.336   6.500   0.888
 1027SOL    HW1 3980   2.359   6.552   0.970
 1027SOL    HW2 3981   2.242   6.467   0.894
 1028SOL     OW 3982   3.973   5.808   0.275
 1028SOL    HW1 3983   3.884   5.843   0.245
 1028SOL    HW2 3984   3.973   5.798   0.374
 1029SOL     OW 3985   1.579   0.296   0.484
 1029SOL    HW1 3986   1.492   0.309   0.532
 1029SOL    HW2 3987   1.570   0.223   0.417
 1030SOL     OW 3988   3.945   2.958   1.927
 1030SOL    HW1 3989   3.889   2.897   1.871
 1030SOL    HW2 3990   4.034   2.916   1.943
 1031SOL     OW 3991   4.935   5.582   0.360
 1031SOL    HW1 3992   4.862   5.617   0.419
 1031SOL    HW2 3993   4.997   5.525   0.413
 1032SOL     OW 3994   1.606   1.822   4.573
 1032SOL    HW1 3995   1.556   1.906   4.597
 1032SOL    HW2 3996   1.575   1.747   4.631
 1033SOL     OW 3997   1.193   6.752   1.730
 1033SOL    HW1 3998   1.217   6.772   1.825
 1033SOL    HW2 3999   1.269   6.776   1.670
 1034SOL     OW 4000   1.295   5.979   4.872
 1034SOL    HW1 4001   1.214   5.990   4.814
 1034SOL    HW2 4002   1.279   6.023   4.961
 1035SOL     OW 4003   2.682   1.329   3.572
 1035SOL    HW1 4004   2.633   1.344   3.658
 1035SOL    HW2 4005   2.751   1.400   3.560
 1036SOL     OW 4006   3.048   0.249   1.427
 1036SOL    HW1 4007   2.966   0.247   1.485
 1036SOL    HW2 4008   3.113   0.315   1.464
 1037SOL     OW 4009   1.840   1.162   1.521
 1037SOL    HW1 4010   1.822   1.210   1.606
 1037SOL    HW2 4011   1.939   1.164   1.501
 1038SOL     OW 4012   1.159   0.889   5.577
 1038SOL    HW1 4013   1.089   0.851   5.517
 1038SOL    HW2 4014   1.144   0.987   5.589
 1039SOL     OW 4015   4.107   2.831   5.597
 1039SOL    HW1 4016   4.176   2.868   5.660
 1039SOL    HW2 4017   4.095   2.894   5.520
 1040SOL     OW 4018   5.061   2.749   2.403
 1040SOL    HW1 4019   5.016   2.839   2.408
 1040SOL    HW2 4020   5.058   2.716   2.308
 1041SOL     OW 4021   6.717   6.901   4.420
 1041SOL    HW1 4022   6.639   6.902   4.357
 1041SOL    HW2 4023   6.764   6.813   4.415
 1042SOL     OW 4024   3.392   4.922   2.290
 1042SOL    HW1 4025   3.302   4.893   2.320
 1042SOL    HW2 4026   3.454   4.927   2.368
 1043SOL     OW 4027   4.527   1.362   5.567
 1043SOL    HW1 4028   4.603   1.390   5.507
 1043SOL    HW2 4029   4.551   1.277   5.613
 1044SOL     OW 4030   4.392   3.530   1.467
 1044SOL    HW1 4031   4.360   3.438   1.493
 1044SOL    HW2 4032   4.313   3.591   1.458
 1045SOL     OW 4033   2.810   6.544   1.790
 1045SOL    HW1 4034   2.834   6.560   1.886
 1045SOL    HW2 4035   2.800   6.446   1.774
 1046SOL     OW 4036   1.944   0.102   0.079
 1046SOL    HW1 4037   1.894   0.163   0.141
 1046SOL    HW2 4038   1.894   0.096   7.009
 1047SOL     OW 4039   1.395   6.051   2.556
 1047SOL    HW1 4040   1.428   6.091   2.641
 1047SOL    HW2 4041   1.472   6.015   2.504
 1048SOL     OW 4042   4.591   5.645   5.368
 1048SOL    HW1 4043   4.635   5.694   5.293
 1048SOL    HW2 4044   4.627   5.679   5.455
 1049SOL     OW 4045   6.838   4.338   4.936
 1049SOL    HW1 4046   6.855   4.411   4.869
 1049SOL    HW2 4047   6.827   4.251   4.889
 1050SOL     OW 4048   3.178   5.268   0.856
 1050SOL    HW1 4049   3.270   5.307   0.844
 1050SOL    HW2 4050   3.167   5.188   0.797
 1051SOL     OW 4051   3.303   5.240   0.246
 1051SOL    HW1 4052   3.360   5.181   0.303
 1051SOL    HW2 4053   3.352   5.263   0.162
 1052SOL     OW 4054   4.429   0.258   3.961
 1052SOL    HW1 4055   4.493   0.301   3.898
 1052SOL    HW2 4056   4.353   0.219   3.909
 1053SOL     OW 4057   5.152   5.582   3.113
 1053SOL    HW1 4058   5.141   5.671   3.157
 1053SOL    HW2 4059   5.175   5.513   3.181
 1054SOL     OW 4060   2.884   4.760   5.696
 1054SOL    HW1 4061   2.868   4.822   5.619
 1054SOL    HW2 4062   2.814   4.688   5.695
 1055SOL     OW 4063   5.746   6.876   4.085
 1055SOL    HW1 4064   5.792   6.907   4.168
 1055SOL    HW2 4065   5.814   6.837   4.022
 1056SOL     OW 4066   1.959   6.128   5.539
 1056SOL    HW1 4067   1.991   6.035   5.525
 1056SOL    HW2 4068   1.945   6.145   5.636
 1057SOL     OW 4069   3.531   3.419   2.975
 1057SOL    HW1 4070   3.629   3.400   2.973
 1057SOL    HW2 4071   3.499   3.423   3.069
 1058SOL     OW 4072   5.024   1.604   2.152
 1058SOL    HW1 4073   5.015   1.703   2.160
 1058SOL    HW2 4074   5.052   1.566   2.240
 1059SOL     OW 4075   2.837   0.490   1.360
 1059SOL    HW1 4076   2.773   0.545   1.305
 1059SOL    HW2 4077   2.924   0.483   1.312
 1060SOL     OW 4078   0.406   2.902   4.559
 1060SOL    HW1 4079   0.503   2.888   4.542
 1060SOL    HW2 4080   0.355   2.820   4.531
 1061SOL     OW 4081   4.659   3.760   1.370
 1061SOL    HW1 4082   4.593   3.735   1.299
 1061SOL    HW2 4083   4.652   3.697   1.447
 1062SOL     OW 4084   6.550   5.118   6.246
 1062SOL    HW1 4085   6.529   5.124   6.344
 1062SOL    HW2 4086   6.472   5.079   6.197
 1063SOL     OW 4087   1.243   4.651   0.910
 1063SOL    HW1 4088   1.274   4.744   0.932
 1063SOL    HW2 4089   1.287   4.620   0.826
 1064SOL     OW 4090   1.010   4.183   2.006
 1064SOL    HW1 4091   1.098   4.165   2.051
 1064SOL    HW2 4092   1.026   4.218   1.914
 1065SOL     OW 4093   4.961   0.569   4.835
 1065SOL    HW1 4094   4.915   0.628   4.768
 1065SOL    HW2 4095   5.035   0.518   4.790
 1066SOL     OW 4096   5.414   0.771   4.189
 1066SOL    HW1 4097   5.346   0.831   4.232
 1066SOL    HW2 4098   5.369   0.688   4.156
 1067SOL     OW 4099   1.612   2.478   0.224
 1067SOL    HW1 4100   1.696   2.433   0.256
 1067SOL    HW2 4101   1.534   2.445   0.276
 1068SOL     OW 4102   5.458   4.143   2.001
 1068SOL    HW1 4103   5.392   4.077   1.966
 1068SOL    HW2 4104   5.426   4.236   1.981
 1069SOL     OW 4105   4.974   5.069   1.338
 1069SOL    HW1 4106   5.047   5.079   1.271
 1069SOL    HW2 4107   5.002   5.004   1.409
 1070SOL     OW 4108   1.334   1.230   0.321
 1070SOL    HW1 4109   1.428   1.212   0.293
 1070SOL    HW2 4110   1.279   1.250   0.240
 1071SOL     OW 4111   3.677   0.222   3.252
 1071SOL    HW1 4112   3.740   0.170   3.309
 1071SOL    HW2 4113   3.596   0.167   3.232
 1072SOL     OW 4114   1.823   5.868   1.640
 1072SOL    HW1 4115   1.779   5.832   1.558
 1072SOL    HW2 4116   1.819   5.799   1.712
 1073SOL     OW 4117   3.484   5.853   2.988
 1073SOL    HW1 4118   3.500   5.947   3.019
 1073SOL    HW2 4119   3.435   5.854   2.901
 1074SOL     OW 4120   1.875   5.129   1.295
 1074SOL    HW1 4121   1.867   5.213   1.349
 1074SOL    HW2 4122   1.855   5.149   1.200
 1075SOL     OW 4123   4.702   6.016   3.582
 1075SOL    HW1 4124   4.777   5.953   3.564
 1075SOL    HW2 4125   4.639   5.975   3.648
 1076SOL     OW 4126   0.650   4.579   4.660
 1076SOL    HW1 4127   0.622   4.492   4.701
 1076SOL    HW2 4128   0.718   4.623   4.719
 1077SOL     OW 4129   6.289   6.830   0.337
 1077SOL    HW1 4130   6.196   6.798   0.316
 1077SOL    HW2 4131   6.312   6.906   0.276
 1078SOL     OW 4132   2.039   0.641   2.536
 1078SOL    HW1 4133   1.960   0.682   2.582
 1078SOL    HW2 4134   2.106   0.612   2.605
 1079SOL     OW 4135   1.958   5.617   2.610
 1079SOL    HW1 4136   1.923   5.543   2.552
 1079SOL    HW2 4137   1.906   5.620   2.695
 1080SOL     OW 4138   1.818   4.503   3.478
 1080SOL    HW1 4139   1.792   4.549   3.394
 1080SOL    HW2 4140   1.917   4.491   3.481
 1081SOL     OW 4141   0.396   0.585   5.285
 1081SOL    HW1 4142   0.375   0.674   5.325
 1081SOL    HW2 4143   0.418   0.520   5.357
 1082SOL     OW 4144   1.790   0.143   5.654
 1082SOL    HW1 4145   1.750   0.051   5.654
 1082SOL    HW2 4146   1.724   0.208   5.616
 1083SOL     OW 4147   3.995   3.901   1.583
 1083SOL    HW1 4148   4.037   3.971   1.526
 1083SOL    HW2 4149   3.904   3.878   1.546
 1084SOL     OW 4150   6.569   5.734   1.346
 1084SOL    HW1 4151   6.622   5.681   1.412
 1084SOL    HW2 4152   6.532   5.816   1.390
 1085SOL     OW 4153   1.847   4.533   3.203
 1085SOL    HW1 4154   1.807   4.441   3.202
 1085SOL    HW2 4155   1.919   4.538   3.134
 1086SOL     OW 4156   6.868   5.517   3.150
 1086SOL    HW1 4157   6.930   5.584   3.110
 1086SOL    HW2 4158   6.776   5.556   3.159
 1087SOL     OW 4159   5.416   2.676   5.656
 1087SOL    HW1 4160   5.443   2.716   5.744
 1087SOL    HW2 4161   5.496   2.636   5.613
 1088SOL     OW 4162   6.084   4.945   3.546
 1088SOL    HW1 4163   6.125   5.018   3.601
 1088SOL    HW2 4164   6.034   4.883   3.607
 1089SOL     OW 4165   1.048   6.852   4.865
 1089SOL    HW1 4166   0.971   6.789   4.853
 1089SOL    HW2 4167   1.017   6.946   4.850
 1090SOL     OW 4168   2.954   1.362   3.776
 1090SOL    HW1 4169   2.961   1.385   3.679
 1090SOL    HW2 4170   3.004   1.277   3.794
 1091SOL     OW 4171   2.030   2.399   4.356
 1091SOL    HW1 4172   2.106   2.422   4.295
 1091SOL    HW2 4173   2.037   2.453   4.440
 1092SOL     OW 4174   2.635   3.731   1.407
 1092SOL    HW1 4175   2.725   3.766   1.434
 1092SOL    HW2 4176   2.566   3.769   1.468
 1093SOL     OW 4177   2.314   1.967   3.157
 1093SOL    HW1 4178   2.279   1.996   3.068
 1093SOL    HW2 4179   2.398   2.017   3.178
 1094SOL     OW 4180   0.755   6.902   2.629
 1094SOL    HW1 4181   0.663   6.864   2.629
 1094SOL    HW2 4182   0.781   6.927   2.723
 1095SOL     OW 4183   6.581   2.087   6.042
 1095SOL    HW1 4184   6.585   2.183   6.016
 1095SOL    HW2 4185   6.625   2.075   6.131
 1096SOL     OW 4186   3.643   4.661   1.616
 1096SOL    HW1 4187   3.608   4.693   1.704
 1096SOL    HW2 4188   3.739   4.633   1.627
 1097SOL     OW 4189   0.820   4.744   4.375
 1097SOL    HW1 4190   0.724   4.733   4.401
 1097SOL    HW2 4191   0.839   4.688   4.295
 1098SOL     OW 4192   5.451   2.838   0.743
 1098SOL    HW1 4193   5.416   2.926   0.776
 1098SOL    HW2 4194   5.490   2.787   0.819
 1099SOL     OW 4195   4.187   1.280   4.732
 1099SOL    HW1 4196   4.201   1.228   4.816
 1099SOL    HW2 4197   4.229   1.370   4.741
 1100SOL     OW 4198   1.993   1.572   6.827
 1100SOL    HW1 4199   2.067   1.638   6.831
 1100SOL    HW2 4200   1.919   1.601   6.888
 1101SOL     OW 4201   5.520   2.968   1.100
 1101SOL    HW1 4202   5.610   3.007   1.118
 1101SOL    HW2 4203   5.454   3.004   1.166
 1102SOL     OW 4204   2.089   4.576   2.653
 1102SOL    HW1 4205   2.017   4.554   2.587
 1102SOL    HW2 4206   2.056   4.556   2.746
 1103SOL     OW 4207   2.877   0.935   0.988
 1103SOL    HW1 4208   2.947   0.884   1.039
 1103SOL    HW2 4209   2.907   1.029   0.974
 1104SOL     OW 4210   1.557   3.682   6.403
 1104SOL    HW1 4211   1.626   3.747   6.372
 1104SOL    HW2 4212   1.601   3.599   6.436
 1105SOL     OW 4213   4.838   3.875   5.870
 1105SOL    HW1 4214   4.887   3.814   5.932
 1105SOL    HW2 4215   4.851   3.970   5.900
 1106SOL     OW 4216   1.094   1.870   0.521
 1106SOL    HW1 4217   1.064   1.959   0.555
 1106SOL    HW2 4218   1.096   1.804   0.596
 1107SOL     OW 4219   0.419   0.894   6.502
 1107SOL    HW1 4220   0.411   0.956   6.579
 1107SOL    HW2 4221   0.438   0.801   6.536
 1108SOL     OW 4222   2.409   0.562   5.629
 1108SOL    HW1 4223   2.427   0.485   5.568
 1108SOL    HW2 4224   2.493   0.587   5.678
 1109SOL     OW 4225   4.287   5.595   4.849
 1109SOL    HW1 4226   4.341   5.667   4.804
 1109SOL    HW2 4227   4.317   5.505   4.815
 1110SOL     OW 4228   3.188   1.737   2.511
 1110SOL    HW1 4229   3.146   1.828   2.505
 1110SOL    HW2 4230   3.187   1.708   2.607
 1111SOL     OW 4231   5.847   6.040   0.404
 1111SOL    HW1 4232   5.822   6.027   0.499
 1111SOL    HW2 4233   5.832   6.136   0.378
 1112SOL     OW 4234   6.238   0.910   2.909
 1112SOL    HW1 4235   6.208   0.822   2.872
 1112SOL    HW2 4236   6.338   0.916   2.904
 1113SOL     OW 4237   6.179   3.344   2.352
 1113SOL    HW1 4238   6.269   3.321   2.387
 1113SOL    HW2 4239   6.182   3.349   2.252
 1114SOL     OW 4240   4.607   0.754   6.198
 1114SOL    HW1 4241   4.641   0.829   6.142
 1114SOL    HW2 4242   4.682   0.716   6.252
 1115SOL     OW 4243   4.076   3.291   6.684
 1115SOL    HW1 4244   4.100   3.343   6.602
 1115SOL    HW2 4245   4.060   3.353   6.760
 1116SOL     OW 4246   5.846   5.483   4.703
 1116SOL    HW1 4247   5.860   5.423   4.624
 1116SOL    HW2 4248   5.756   5.466   4.743
 1117SOL     OW 4249   2.675   2.664   1.135
 1117SOL    HW1 4250   2.625   2.677   1.049
 1117SOL    HW2 4251   2.740   2.588   1.125
 1118SOL     OW 4252   1.864   5.141   1.866
 1118SOL    HW1 4253   1.933   5.194   1.816
 1118SOL    HW2 4254   1.776   5.148   1.819
 1119SOL     OW 4255   3.647   4.036   1.556
 1119SOL    HW1 4256   3.699   4.094   1.492
 1119SOL    HW2 4257   3.549   4.054   1.545
 1120SOL     OW 4258   5.592   5.782   5.559
 1120SOL    HW1 4259   5.684   5.820   5.564
 1120SOL    HW2 4260   5.555   5.771   5.651
 1121SOL     OW 4261   4.916   3.897   2.876
 1121SOL    HW1 4262   5.002   3.948   2.869
 1121SOL    HW2 4263   4.867   3.901   2.789
 1122SOL     OW 4264   5.216   3.175   6.470
 1122SOL    HW1 4265   5.171   3.257   6.506
 1122SOL    HW2 4266   5.195   3.165   6.373
 1123SOL     OW 4267   4.810   1.709   2.405
 1123SOL    HW1 4268   4.795   1.717   2.307
 1123SOL    HW2 4269   4.723   1.719   2.453
 1124SOL     OW 4270   6.597   3.961   4.960
 1124SOL    HW1 4271   6.695   3.955   4.981
 1124SOL    HW2 4272   6.578   4.047   4.913
 1125SOL     OW 4273   2.099   1.452   4.801
 1125SOL    HW1 4274   2.145   1.538   4.820
 1125SOL    HW2 4275   2.138   1.380   4.859
 1126SOL     OW 4276   5.240   0.055   0.316
 1126SOL    HW1 4277   5.158   0.009   0.350
 1126SOL    HW2 4278   5.215   0.116   0.241
 1127SOL     OW 4279   4.026   5.320   5.517
 1127SOL    HW1 4280   4.015   5.225   5.489
 1127SOL    HW2 4281   3.940   5.353   5.557
 1128SOL     OW 4282   4.945   2.674   5.188
 1128SOL    HW1 4283   4.913   2.746   5.126
 1128SOL    HW2 4284   4.918   2.585   5.150
 1129SOL     OW 4285   4.167   6.803   0.074
 1129SOL    HW1 4286   4.185   6.787   6.994
 1129SOL    HW2 4287   4.245   6.771   0.128
 1130SOL     OW 4288   1.692   3.493   1.047
 1130SOL    HW1 4289   1.677   3.568   0.983
 1130SOL    HW2 4290   1.642   3.510   1.132
 1131SOL     OW 4291   0.588   6.461   6.095
 1131SOL    HW1 4292   0.639   6.427   6.016
 1131SOL    HW2 4293   0.572   6.386   6.159
 1132SOL     OW 4294   4.528   0.539   6.487
 1132SOL    HW1 4295   4.595   0.494   6.545
 1132SOL    HW2 4296   4.572   0.569   6.402
 1133SOL     OW 4297   6.509   2.127   0.270
 1133SOL    HW1 4298   6.421   2.084   0.246
 1133SOL    HW2 4299   6.522   2.209   0.214
 1134SOL     OW 4300   5.456   1.707   0.737
 1134SOL    HW1 4301   5.478   1.612   0.762
 1134SOL    HW2 4302   5.395   1.746   0.806
 1135SOL     OW 4303   2.956   1.613   2.295
 1135SOL    HW1 4304   2.976   1.515   2.302
 1135SOL    HW2 4305   2.896   1.641   2.370
 1136SOL     OW 4306   3.163   4.810   5.112
 1136SOL    HW1 4307   3.135   4.902   5.083
 1136SOL    HW2 4308   3.162   4.749   5.032
 1137SOL     OW 4309   0.915   3.479   0.146
 1137SOL    HW1 4310   0.853   3.427   0.205
 1137SOL    HW2 4311   0.921   3.434   0.056
 1138SOL     OW 4312   1.392   1.713   6.403
 1138SOL    HW1 4313   1.475   1.658   6.417
 1138SOL    HW2 4314   1.406   1.777   6.328
 1139SOL     OW 4315   2.144   6.670   1.742
 1139SOL    HW1 4316   2.159   6.769   1.743
 1139SOL    HW2 4317   2.046   6.651   1.733
 1140SOL     OW 4318   3.649   2.095   2.524
 1140SOL    HW1 4319   3.572   2.138   2.571
 1140SOL    HW2 4320   3.630   1.998   2.510
 1141SOL     OW 4321   6.293   5.439   6.085
 1141SOL    HW1 4322   6.201   5.407   6.064
 1141SOL    HW2 4323   6.292   5.488   6.173
 1142SOL     OW 4324   4.817   0.434   4.529
 1142SOL    HW1 4325   4.805   0.408   4.625
 1142SOL    HW2 4326   4.909   0.410   4.499
 1143SOL     OW 4327   3.075   1.975   2.512
 1143SOL    HW1 4328   2.990   1.939   2.549
 1143SOL    HW2 4329   3.060   2.008   2.419
 1144SOL     OW 4330   6.628   4.651   4.651
 1144SOL    HW1 4331   6.591   4.718   4.716
 1144SOL    HW2 4332   6.558   4.627   4.584
 1145SOL     OW 4333   0.185   4.756   3.168
 1145SOL    HW1 4334   0.215   4.683   3.229
 1145SOL    HW2 4335   0.101   4.797   3.204
 1146SOL     OW 4336   5.026   0.999   1.220
 1146SOL    HW1 4337   5.099   1.035   1.161
 1146SOL    HW2 4338   4.939   1.041   1.195
 1147SOL     OW 4339   0.871   4.267   0.426
 1147SOL    HW1 4340   0.790   4.222   0.463
 1147SOL    HW2 4341   0.909   4.331   0.493
 1148SOL     OW 4342   2.955   6.852   0.365
 1148SOL    HW1 4343   3.034   6.840   0.425
 1148SOL    HW2 4344   2.973   6.927   0.301
 1149SOL     OW 4345   5.550   3.588   3.078
 1149SOL    HW1 4346   5.493   3.509   3.055
 1149SOL    HW2 4347   5.510   3.671   3.040
 1150SOL     OW 4348   1.662   3.985   1.179
 1150SOL    HW1 4349   1.669   3.964   1.081
 1150SOL    HW2 4350   1.689   4.081   1.194
 1151SOL     OW 4351   5.059   5.606   6.708
 1151SOL    HW1 4352   4.990   5.547   6.666
 1151SOL    HW2 4353   5.079   5.683   6.648
 1152SOL     OW 4354   0.915   6.654   5.173
 1152SOL    HW1 4355   0.943   6.643   5.268
 1152SOL    HW2 4356   0.866   6.572   5.143
 1153SOL     OW 4357   2.476   6.648   2.178
 1153SOL    HW1 4358   2.516   6.558   2.195
 1153SOL    HW2 4359   2.411   6.642   2.102
 1154SOL     OW 4360   0.075   3.389   1.903
 1154SOL    HW1 4361   0.056   3.291   1.911
 1154SOL    HW2 4362   0.016   3.439   1.966
 1155SOL     OW 4363   3.656   5.005   6.867
 1155SOL    HW1 4364   3.559   5.028   6.855
 1155SOL    HW2 4365   3.693   4.972   6.780
 1156SOL     OW 4366   2.459   0.576   4.463
 1156SOL    HW1 4367   2.390   0.644   4.442
 1156SOL    HW2 4368   2.550   0.617   4.456
 1157SOL     OW 4369   5.973   2.055   4.628
 1157SOL    HW1 4370   5.912   2.132   4.640
 1157SOL    HW2 4371   6.055   2.084   4.578
 1158SOL     OW 4372   6.430   5.386   5.705
 1158SOL    HW1 4373   6.400   5.459   5.767
 1158SOL    HW2 4374   6.514   5.345   5.740
 1159SOL     OW 4375   4.801   0.614   2.717
 1159SOL    HW1 4376   4.785   0.533   2.772
 1159SOL    HW2 4377   4.847   0.684   2.772
 1160SOL     OW 4378   3.506   3.765   1.767
 1160SOL    HW1 4379   3.477   3.672   1.746
 1160SOL    HW2 4380   3.452   3.830   1.713
 1161SOL     OW 4381   5.103   0.534   5.277
 1161SOL    HW1 4382   5.176   0.565   5.337
 1161SOL    HW2 4383   5.042   0.472   5.327
 1162SOL     OW 4384   4.105   3.076   0.768
 1162SOL    HW1 4385   4.081   3.142   0.839
 1162SOL    HW2 4386   4.090   2.983   0.803
 1163SOL     OW 4387   5.741   2.734   1.972
 1163SOL    HW1 4388   5.704   2.651   1.932
 1163SOL    HW2 4389   5.667   2.798   1.993
 1164SOL     OW 4390   5.058   2.800   3.864
 1164SOL    HW1 4391   4.963   2.829   3.849
 1164SOL    HW2 4392   5.102   2.782   3.776
 1165SOL     OW 4393   2.065   4.606   3.788
 1165SOL    HW1 4394   2.005   4.686   3.787
 1165SOL    HW2 4395   2.011   4.523   3.778
 1166SOL     OW 4396   4.118   0.820   6.977
 1166SOL    HW1 4397   4.042   0.757   6.992
 1166SOL    HW2 4398   4.085   0.905   6.937
 1167SOL     OW 4399   2.759   0.419   6.489
 1167SOL    HW1 4400   2.820   0.414   6.410
 1167SOL    HW2 4401   2.810   0.452   6.569
 1168SOL     OW 4402   5.446   0.326   2.463
 1168SOL    HW1 4403   5.493   0.249   2.507
 1168SOL    HW2 4404   5.505   0.406   2.465
 1169SOL     OW 4405   6.962   3.059   0.365
 1169SOL    HW1 4406   6.916   2.970   0.356
 1169SOL    HW2 4407   6.967   3.085   0.461
 1170SOL     OW 4408   4.464   0.648   2.182
 1170SOL    HW1 4409   4.453   0.582   2.256
 1170SOL    HW2 4410   4.489   0.600   2.098
 1171SOL     OW 4411   2.309   5.686   0.531
 1171SOL    HW1 4412   2.349   5.638   0.609
 1171SOL    HW2 4413   2.342   5.644   0.446
 1172SOL     OW 4414   3.595   4.054   3.149
 1172SOL    HW1 4415   3.610   4.075   3.246
 1172SOL    HW2 4416   3.498   4.066   3.127
 1173SOL     OW 4417   3.227   6.932   6.083
 1173SOL    HW1 4418   3.142   6.879   6.074
 1173SOL    HW2 4419   3.240   6.959   6.178
 1174SOL     OW 4420   3.002   5.608   0.573
 1174SOL    HW1 4421   2.958   5.553   0.644
 1174SOL    HW2 4422   2.940   5.681   0.545
 1175SOL     OW 4423   4.727   3.636   0.063
 1175SOL    HW1 4424   4.641   3.679   0.091
 1175SOL    HW2 4425   4.714   3.588   6.993
 1176SOL     OW 4426   5.921   4.747   0.631
 1176SOL    HW1 4427   5.959   4.812   0.565
 1176SOL    HW2 4428   5.892   4.797   0.712
 1177SOL     OW 4429   0.086   1.565   5.488
 1177SOL    HW1 4430   0.034   1.505   5.428
 1177SOL    HW2 4431   0.039   1.652   5.498
 1178SOL     OW 4432   4.092   3.617   1.491
 1178SOL    HW1 4433   4.048   3.580   1.573
 1178SOL    HW2 4434   4.033   3.687   1.451
 1179SOL     OW 4435   3.240   5.150   0.574
 1179SOL    HW1 4436   3.225   5.248   0.575
 1179SOL    HW2 4437   3.205   5.111   0.488
 1180SOL     OW 4438   2.782   0.482   3.668
 1180SOL    HW1 4439   2.747   0.395   3.633
 1180SOL    HW2 4440   2.823   0.534   3.594
 1181SOL     OW 4441   0.265   3.121   4.495
 1181SOL    HW1 4442   0.318   3.038   4.513
 1181SOL    HW2 4443   0.290   3.159   4.406
 1182SOL     OW 4444   2.040   4.902   2.928
 1182SOL    HW1 4445   1.956   4.852   2.949
 1182SOL    HW2 4446   2.108   4.840   2.888
 1183SOL     OW 4447   3.979   5.512   2.790
 1183SOL    HW1 4448   3.911   5.517   2.717
 1183SOL    HW2 4449   4.060   5.464   2.755
 1184SOL     OW 4450   3.537   1.933   5.126
 1184SOL    HW1 4451   3.491   1.849   5.155
 1184SOL    HW2 4452   3.601   1.963   5.197
 1185SOL     OW 4453   1.982   0.477   0.352
 1185SOL    HW1 4454   2.076   0.501   0.373
 1185SOL    HW2 4455   1.926   0.487   0.435
 1186SOL     OW 4456   6.126   6.694   6.147
 1186SOL    HW1 4457   6.124   6.615   6.086
 1186SOL    HW2 4458   6.116   6.663   6.242
 1187SOL     OW 4459   5.694   6.023   4.777
 1187SOL    HW1 4460   5.740   6.074   4.849
 1187SOL    HW2 4461   5.713   5.925   4.788
 1188SOL     OW 4462   3.243   6.655   6.244
 1188SOL    HW1 4463   3.220   6.747   6.277
 1188SOL    HW2 4464   3.186   6.587   6.289
 1189SOL     OW 4465   5.431   1.095   2.003
 1189SOL    HW1 4466   5.508   1.059   1.950
 1189SOL    HW2 4467   5.367   1.141   1.942
 1190SOL     OW 4468   4.329   5.028   4.824
 1190SOL    HW1 4469   4.322   4.992   4.731
 1190SOL    HW2 4470   4.343   4.953   4.889
 1191SOL     OW 4471   3.532   5.502   5.638
 1191SOL    HW1 4472   3.600   5.556   5.686
 1191SOL    HW2 4473   3.576   5.454   5.562
 1192SOL     OW 4474   5.870   4.861   3.384
 1192SOL    HW1 4475   5.861   4.902   3.293
 1192SOL    HW2 4476   5.958   4.886   3.424
 1193SOL     OW 4477   6.663   0.591   4.366
 1193SOL    HW1 4478   6.606   0.539   4.302
 1193SOL    HW2 4479   6.759   0.564   4.354
 1194SOL     OW 4480   0.018   1.492   1.103
 1194SOL    HW1 4481   0.045   1.396   1.090
 1194SOL    HW2 4482   7.010   1.507   1.199
 1195SOL     OW 4483   6.260   2.012   0.486
 1195SOL    HW1 4484   6.259   2.002   0.386
 1195SOL    HW2 4485   6.275   2.108   0.510
 1196SOL     OW 4486   0.282   4.458   2.129
 1196SOL    HW1 4487   0.309   4.449   2.225
 1196SOL    HW2 4488   0.208   4.525   2.122
 1197SOL     OW 4489   3.728   5.907   5.825
 1197SOL    HW1 4490   3.638   5.947   5.806
 1197SOL    HW2 4491   3.797   5.954   5.770
 1198SOL     OW 4492   2.326   2.708   2.372
 1198SOL    HW1 4493   2.251   2.651   2.340
 1198SOL    HW2 4494   2.412   2.674   2.332
 1199SOL     OW 4495   3.640   2.893   2.863
 1199SOL    HW1 4496   3.558   2.849   2.827
 1199SOL    HW2 4497   3.644   2.880   2.962
 1200SOL     OW 4498   4.087   3.446   5.147
 1200SOL    HW1 4499   4.036   3.530   5.128
 1200SOL    HW2 4500   4.068   3.379   5.075
 1201SOL     OW 4501   0.394   1.132   3.997
 1201SOL    HW1 4502   0.391   1.215   4.052
 1201SOL    HW2 4503   0.488   1.116   3.967
 1202SOL     OW 4504   6.139   0.650   5.685
 1202SOL    HW1 4505   6.216   0.644   5.749
 1202SOL    HW2 4506   6.069   0.710   5.723
 1203SOL     OW 4507   5.592   6.629   0.851
 1203SOL    HW1 4508   5.628   6.722   0.836
 1203SOL    HW2 4509   5.665   6.572   0.890
 1204SOL     OW 4510   4.046   1.183   0.202
 1204SOL    HW1 4511   4.031   1.092   0.242
 1204SOL    HW2 4512   3.964   1.212   0.152
 1205SOL     OW 4513   4.434   3.367   6.265
 1205SOL    HW1 4514   4.495   3.435   6.306
 1205SOL    HW2 4515   4.437   3.283   6.320
 1206SOL     OW 4516   1.362   2.216   5.033
 1206SOL    HW1 4517   1.283   2.154   5.040
 1206SOL    HW2 4518   1.440   2.167   4.995
 1207SOL     OW 4519   0.086   6.911   1.059
 1207SOL    HW1 4520   0.096   6.941   0.964
 1207SOL    HW2 4521   0.111   6.814   1.066
 1208SOL     OW 4522   3.430   4.157   2.587
 1208SOL    HW1 4523   3.466   4.156   2.494
 1208SOL    HW2 4524   3.336   4.123   2.587
 1209SOL     OW 4525   5.952   6.668   4.603
 1209SOL    HW1 4526   5.970   6.577   4.640
 1209SOL    HW2 4527   5.971   6.668   4.505
 1210SOL     OW 4528   4.675   6.558   3.425
 1210SOL    HW1 4529   4.722   6.470   3.430
 1210SOL    HW2 4530   4.601   6.553   3.358
 1211SOL     OW 4531   1.833   3.476   3.258
 1211SOL    HW1 4532   1.830   3.525   3.171
 1211SOL    HW2 4533   1.772   3.397   3.253
 1212SOL     OW 4534   6.787   1.955   5.906
 1212SOL    HW1 4535   6.773   1.861   5.939
 1212SOL    HW2 4536   6.728   2.017   5.958
 1213SOL     OW 4537   5.578   2.859   5.008
 1213SOL    HW1 4538   5.624   2.838   4.921
 1213SOL    HW2 4539   5.643   2.900   5.071
 1214SOL     OW 4540   1.115   3.391   4.706
 1214SOL    HW1 4541   1.083   3.313   4.760
 1214SOL    HW2 4542   1.037   3.444   4.673
 1215SOL     OW 4543   1.857   4.893   2.015
 1215SOL    HW1 4544   1.926   4.859   2.079
 1215SOL    HW2 4545   1.890   4.979   1.974
 1216SOL     OW 4546   0.500   0.155   1.376
 1216SOL    HW1 4547   0.401   0.150   1.389
 1216SOL    HW2 4548   0.543   0.072   1.413
 1217SOL     OW 4549   1.991   6.634   0.809
 1217SOL    HW1 4550   2.011   6.541   0.838
 1217SOL    HW2 4551   1.904   6.664   0.849
 1218SOL     OW 4552   0.775   3.622   5.052
 1218SOL    HW1 4553   0.837   3.607   4.974
 1218SOL    HW2 4554   0.686   3.651   5.019
 1219SOL     OW 4555   4.400   4.296   1.316
 1219SOL    HW1 4556   4.489   4.319   1.277
 1219SOL    HW2 4557   4.328   4.339   1.262
 1220SOL     OW 4558   5.155   4.103   2.847
 1220SOL    HW1 4559   5.212   4.043   2.791
 1220SOL    HW2 4560   5.199   4.118   2.935
 1221SOL     OW 4561   5.655   4.073   6.601
 1221SOL    HW1 4562   5.608   4.009   6.541
 1221SOL    HW2 4563   5.598   4.155   6.614
 1222SOL     OW 4564   6.972   0.483   0.785
 1222SOL    HW1 4565   0.016   0.408   0.812
 1222SOL    HW2 4566   6.886   0.446   0.753
 1223SOL     OW 4567   5.112   1.182   0.763
 1223SOL    HW1 4568   5.045   1.159   0.834
 1223SOL    HW2 4569   5.107   1.114   0.690
 1224SOL     OW 4570   3.490   5.961   0.257
 1224SOL    HW1 4571   3.425   6.002   0.320
 1224SOL    HW2 4572   3.547   6.033   0.216
 1225SOL     OW 4573   4.183   2.400   1.029
 1225SOL    HW1 4574   4.113   2.464   0.997
 1225SOL    HW2 4575   4.144   2.342   1.101
 1226SOL     OW 4576   5.342   6.335   1.094
 1226SOL    HW1 4577   5.323   6.425   1.134
 1226SOL    HW2 4578   5.260   6.301   1.048
 1227SOL     OW 4579   5.963   5.050   5.740
 1227SOL    HW1 4580   5.910   5.044   5.824
 1227SOL    HW2 4581   6.054   5.087   5.760
 1228SOL     OW 4582   3.743   3.258   0.571
 1228SOL    HW1 4583   3.761   3.292   0.479
 1228SOL    HW2 4584   3.647   3.274   0.595
 1229SOL     OW 4585   1.383   6.832   1.563
 1229SOL    HW1 4586   1.468   6.819   1.613
 1229SOL    HW2 4587   1.382   6.922   1.519
 1230SOL     OW 4588   5.191   5.851   3.206
 1230SOL    HW1 4589   5.152   5.838   3.297
 1230SOL    HW2 4590   5.118   5.847   3.138
 1231SOL     OW 4591   1.649   2.456   6.266
 1231SOL    HW1 4592   1.615   2.550   6.263
 1231SOL    HW2 4593   1.647   2.423   6.360
 1232SOL     OW 4594   4.740   1.039   5.094
 1232SOL    HW1 4595   4.751   1.059   5.191
 1232SOL    HW2 4596   4.740   1.124   5.042
 1233SOL     OW 4597   1.327   5.545   3.601
 1233SOL    HW1 4598   1.280   5.591   3.526
 1233SOL    HW2 4599   1.370   5.462   3.567
 1234SOL     OW 4600   6.712   2.448   6.451
 1234SOL    HW1 4601   6.738   2.381   6.520
 1234SOL    HW2 4602   6.738   2.413   6.360
 1235SOL     OW 4603   6.632   4.810   6.836
 1235SOL    HW1 4604   6.552   4.752   6.844
 1235SOL    HW2 4605   6.646   4.834   6.740
 1236SOL     OW 4606   3.498   2.205   0.539
 1236SOL    HW1 4607   3.506   2.170   0.446
 1236SOL    HW2 4608   3.576   2.264   0.559
 1237SOL     OW 4609   1.743   6.188   4.766
 1237SOL    HW1 4610   1.649   6.225   4.765
 1237SOL    HW2 4611   1.789   6.210   4.680
 1238SOL     OW 4612   0.555   6.612   3.544
 1238SOL    HW1 4613   0.559   6.567   3.455
 1238SOL    HW2 4614   0.565   6.711   3.533
 1239SOL     OW 4615   6.550   5.651   4.387
 1239SOL    HW1 4616   6.599   5.584   4.445
 1239SOL    HW2 4617   6.593   5.741   4.397
 1240SOL     OW 4618   5.686   5.075   2.221
 1240SOL    HW1 4619   5.607   5.051   2.277
 1240SOL    HW2 4620   5.684   5.022   2.136
 1241SOL     OW 4621   0.309   4.358   4.890
 1241SOL    HW1 4622   0.287   4.447   4.853
 1241SOL    HW2 4623   0.287   4.287   4.823
 1242SOL     OW 4624   2.011   3.515   0.383
 1242SOL    HW1 4625   1.987   3.611   0.398
 1242SOL    HW2 4626   2.097   3.509   0.332
 1243SOL     OW 4627   0.303   1.518   4.592
 1243SOL    HW1 4628   0.232   1.542   4.658
 1243SOL    HW2 4629   0.317   1.595   4.530
 1244SOL     OW 4630   5.504   6.980   5.462
 1244SOL    HW1 4631   5.527   0.055   5.427
 1244SOL    HW2 4632   5.462   6.927   5.388
 1245SOL     OW 4633   5.047   5.831   1.431
 1245SOL    HW1 4634   5.016   5.920   1.464
 1245SOL    HW2 4635   4.971   5.766   1.432
 1246SOL     OW 4636   3.792   1.266   2.219
 1246SOL    HW1 4637   3.840   1.196   2.167
 1246SOL    HW2 4638   3.712   1.225   2.264
 1247SOL     OW 4639   6.251   0.005   4.604
 1247SOL    HW1 4640   6.203   0.085   4.569
 1247SOL    HW2 4641   6.258   6.953   4.532
 1248SOL     OW 4642   0.881   6.149   3.849
 1248SOL    HW1 4643   0.970   6.125   3.810
 1248SOL    HW2 4644   0.890   6.162   3.948
 1249SOL     OW 4645   0.083   4.571   1.850
 1249SOL    HW1 4646   0.173   4.575   1.807
 1249SOL    HW2 4647   0.048   4.478   1.845
 1250SOL     OW 4648   6.627   2.989   4.500
 1250SOL    HW1 4649   6.626   2.942   4.588
 1250SOL    HW2 4650   6.670   3.078   4.511
 1251SOL     OW 4651   2.078   0.366   2.388
 1251SOL    HW1 4652   2.070   0.443   2.451
 1251SOL    HW2 4653   2.165   0.319   2.403
 1252SOL     OW 4654   3.094   5.440   6.743
 1252SOL    HW1 4655   3.169   5.481   6.691
 1252SOL    HW2 4656   3.066   5.502   6.817
 1253SOL     OW 4657   2.535   0.657   1.586
 1253SOL    HW1 4658   2.484   0.686   1.506
 1253SOL    HW2 4659   2.503   0.566   1.614
 1254SOL     OW 4660   6.384   2.085   3.304
 1254SOL    HW1 4661   6.450   2.128   3.366
 1254SOL    HW2 4662   6.411   2.103   3.210
 1255SOL     OW 4663   5.850   2.623   5.192
 1255SOL    HW1 4664   5.799   2.592   5.272
 1255SOL    HW2 4665   5.947   2.627   5.214
 1256SOL     OW 4666   0.179   6.125   2.921
 1256SOL    HW1 4667   0.258   6.121   2.859
 1256SOL    HW2 4668   0.154   6.220   2.937
 1257SOL     OW 4669   0.108   4.630   4.091
 1257SOL    HW1 4670   0.180   4.690   4.055
 1257SOL    HW2 4671   0.127   4.535   4.064
 1258SOL     OW 4672   2.391   5.866   2.606
 1258SOL    HW1 4673   2.365   5.895   2.514
 1258SOL    HW2 4674   2.328   5.794   2.636
 1259SOL     OW 4675   3.534   6.366   5.439
 1259SOL    HW1 4676   3.533   6.404   5.531
 1259SOL    HW2 4677   3.572   6.433   5.375
 1260SOL     OW 4678   3.458   0.978   1.382
 1260SOL    HW1 4679   3.530   1.016   1.440
 1260SOL    HW2 4680   3.402   1.052   1.346
 1261SOL     OW 4681   0.243   3.699   6.943
 1261SOL    HW1 4682   0.196   3.698   6.855
 1261SOL    HW2 4683   0.310   3.625   6.946
 1262SOL     OW 4684   4.692   4.795   1.381
 1262SOL    HW1 4685   4.766   4.801   1.314
 1262SOL    HW2 4686   4.625   4.727   1.350
 1263SOL     OW 4687   6.384   1.722   0.432
 1263SOL    HW1 4688   6.466   1.700   0.381
 1263SOL    HW2 4689   6.379   1.821   0.446
 1264SOL     OW 4690   0.894   4.142   2.537
 1264SOL    HW1 4691   0.963   4.181   2.476
 1264SOL    HW2 4692   0.839   4.075   2.486
 1265SOL     OW 4693   6.472   4.877   3.187
 1265SOL    HW1 4694   6.389   4.922   3.217
 1265SOL    HW2 4695   6.453   4.780   3.169
 1266SOL     OW 4696   2.514   0.938   4.219
 1266SOL    HW1 4697   2.489   0.998   4.143
 1266SOL    HW2 4698   2.573   0.988   4.283
 1267SOL     OW 4699   5.952   5.629   1.425
 1267SOL    HW1 4700   6.046   5.664   1.428
 1267SOL    HW2 4701   5.892   5.699   1.386
 1268SOL     OW 4702   5.181   2.166   6.782
 1268SOL    HW1 4703   5.235   2.240   6.822
 1268SOL    HW2 4704   5.222   2.139   6.695
 1269SOL     OW 4705   5.848   5.851   5.171
 1269SOL    HW1 4706   5.846   5.784   5.245
 1269SOL    HW2 4707   5.935   5.900   5.173
 1270SOL     OW 4708   2.218   3.918   4.358
 1270SOL    HW1 4709   2.181   3.919   4.451
 1270SOL    HW2 4710   2.296   3.980   4.353
 1271SOL     OW 4711   3.387   1.842   3.168
 1271SOL    HW1 4712   3.306   1.881   3.211
 1271SOL    HW2 4713   3.451   1.915   3.144
 1272SOL     OW 4714   0.015   5.941   1.191
 1272SOL    HW1 4715   0.008   5.872   1.263
 1272SOL    HW2 4716   6.996   5.904   1.105
 1273SOL     OW 4717   1.580   4.272   6.951
 1273SOL    HW1 4718   1.586   4.304   6.856
 1273SOL    HW2 4719   1.484   4.268   6.978
 1274SOL     OW 4720   6.745   3.379   1.678
 1274SOL    HW1 4721   6.796   3.325   1.611
 1274SOL    HW2 4722   6.661   3.413   1.636
 1275SOL     OW 4723   4.000   0.348   3.459
 1275SOL    HW1 4724   4.005   0.360   3.360
 1275SOL    HW2 4725   3.998   0.250   3.481
 1276SOL     OW 4726   6.952   0.314   3.727
 1276SOL    HW1 4727   0.015   0.312   3.666
 1276SOL    HW2 4728   6.894   0.392   3.704
 1277SOL     OW 4729   0.602   0.607   4.570
 1277SOL    HW1 4730   0.514   0.565   4.591
 1277SOL    HW2 4731   0.649   0.630   4.655
 1278SOL     OW 4732   1.315   1.436   5.374
 1278SOL    HW1 4733   1.242   1.372   5.397
 1278SOL    HW2 4734   1.396   1.417   5.429
 1279SOL     OW 4735   2.103   0.049   0.534
 1279SOL    HW1 4736   2.089   0.012   0.626
 1279SOL    HW2 4737   2.126   6.992   0.471
 1280SOL     OW 4738   2.574   6.140   3.595
 1280SOL    HW1 4739   2.586   6.224   3.542
 1280SOL    HW2 4740   2.630   6.146   3.678
 1281SOL     OW 4741   0.923   5.492   2.871
 1281SOL    HW1 4742   0.953   5.587   2.866
 1281SOL    HW2 4743   0.923   5.461   2.966
 1282SOL     OW 4744   0.770   1.100   0.580
 1282SOL    HW1 4745   0.805   1.029   0.519
 1282SOL    HW2 4746   0.783   1.072   0.675
 1283SOL     OW 4747   5.614   2.423   5.237
 1283SOL    HW1 4748   5.658   2.487   5.175
 1283SOL    HW2 4749   5.515   2.422   5.220
 1284SOL     OW 4750   3.465   3.494   1.676
 1284SOL    HW1 4751   3.391   3.431   1.702
 1284SOL    HW2 4752   3.531   3.446   1.619
 1285SOL     OW 4753   5.630   3.679   6.280
 1285SOL    HW1 4754   5.708   3.716   6.330
 1285SOL    HW2 4755   5.563   3.643   6.344
 1286SOL     OW 4756   5.358   4.301   2.689
 1286SOL    HW1 4757   5.412   4.222   2.660
 1286SOL    HW2 4758   5.309   4.338   2.610
 1287SOL     OW 4759   5.291   4.119   6.163
 1287SOL    HW1 4760   5.195   4.112   6.139
 1287SOL    HW2 4761   5.347   4.113   6.080
 1288SOL     OW 4762   6.279   3.671   1.079
 1288SOL    HW1 4763   6.181   3.676   1.100
 1288SOL    HW2 4764   6.313   3.580   1.102
 1289SOL     OW 4765   0.317   6.237   1.793
 1289SOL    HW1 4766   0.226   6.274   1.773
 1289SOL    HW2 4767   0.341   6.258   1.888
 1290SOL     OW 4768   0.927   0.720   6.912
 1290SOL    HW1 4769   0.969   0.669   6.837
 1290SOL    HW2 4770   0.920   0.817   6.887
 1291SOL     OW 4771   0.925   3.742   5.763
 1291SOL    HW1 4772   0.844   3.708   5.716
 1291SOL    HW2 4773   1.007   3.708   5.717
 1292SOL     OW 4774   6.196   5.059   2.403
 1292SOL    HW1 4775   6.252   5.056   2.319
 1292SOL    HW2 4776   6.099   5.054   2.378
 1293SOL     OW 4777   2.408   1.398   6.560
 1293SOL    HW1 4778   2.446   1.329   6.498
 1293SOL    HW2 4779   2.404   1.360   6.652
 1294SOL     OW 4780   0.968   3.420   1.054
 1294SOL    HW1 4781   0.937   3.514   1.068
 1294SOL    HW2 4782   0.968   3.398   0.957
 1295SOL     OW 4783   6.438   3.562   2.799
 1295SOL    HW1 4784   6.490   3.550   2.715
 1295SOL    HW2 4785   6.346   3.525   2.787
 1296SOL     OW 4786   3.883   0.573   5.120
 1296SOL    HW1 4787   3.901   0.585   5.023
 1296SOL    HW2 4788   3.962   0.529   5.163
 1297SOL     OW 4789   5.904   0.688   6.169
 1297SOL    HW1 4790   5.823   0.730   6.210
 1297SOL    HW2 4791   5.902   0.589   6.185
 1298SOL     OW 4792   6.281   3.441   3.434
 1298SOL    HW1 4793   6.254   3.417   3.341
 1298SOL    HW2 4794   6.374   3.408   3.451
 1299SOL     OW 4795   0.824   3.781   2.513
 1299SOL    HW1 4796   0.818   3.681   2.505
 1299SOL    HW2 4797   0.914   3.805   2.549
 1300SOL     OW 4798   3.288   3.998   2.150
 1300SOL    HW1 4799   3.276   3.914   2.203
 1300SOL    HW2 4800   3.208   4.012   2.092
 1301SOL     OW 4801   0.701   6.193   2.665
 1301SOL    HW1 4802   0.687   6.100   2.632
 1301SOL    HW2 4803   0.796   6.220   2.648
 1302SOL     OW 4804   3.072   0.272   5.105
 1302SOL    HW1 4805   3.075   0.179   5.142
 1302SOL    HW2 4806   3.073   0.338   5.181
 1303SOL     OW 4807   4.509   1.688   0.749
 1303SOL    HW1 4808   4.441   1.664   0.818
 1303SOL    HW2 4809   4.493   1.781   0.717
 1304SOL     OW 4810   1.552   1.292   6.645
 1304SOL    HW1 4811   1.569   1.338   6.557
 1304SOL    HW2 4812   1.464   1.246   6.642
 1305SOL     OW 4813   5.663   5.276   6.736
 1305SOL    HW1 4814   5.661   5.375   6.723
 1305SOL    HW2 4815   5.751   5.241   6.704
 1306SOL     OW 4816   0.728   4.600   5.299
 1306SOL    HW1 4817   0.805   4.663   5.307
 1306SOL    HW2 4818   0.742   4.541   5.220
 1307SOL     OW 4819   1.489   2.464   4.980
 1307SOL    HW1 4820   1.458   2.372   5.006
 1307SOL    HW2 4821   1.556   2.457   4.906
 1308SOL     OW 4822   4.021   5.503   4.810
 1308SOL    HW1 4823   3.993   5.439   4.883
 1308SOL    HW2 4824   4.112   5.537   4.830
 1309SOL     OW 4825   5.667   2.713   5.412
 1309SOL    HW1 4826   5.572   2.684   5.404
 1309SOL    HW2 4827   5.689   2.777   5.338
 1310SOL     OW 4828   6.639   3.734   5.181
 1310SOL    HW1 4829   6.693   3.788   5.245
 1310SOL    HW2 4830   6.612   3.791   5.104
 1311SOL     OW 4831   6.683   6.610   4.178
 1311SOL    HW1 4832   6.754   6.681   4.175
 1311SOL    HW2 4833   6.671   6.579   4.272
 1312SOL     OW 4834   0.562   0.487   6.754
 1312SOL    HW1 4835   0.634   0.455   6.692
 1312SOL    HW2 4836   0.573   0.444   6.844
 1313SOL     OW 4837   1.513   4.905   5.397
 1313SOL    HW1 4838   1.585   4.915   5.329
 1313SOL    HW2 4839   1.553   4.912   5.489
 1314SOL     OW 4840   2.377   1.848   5.503
 1314SOL    HW1 4841   2.411   1.754   5.508
 1314SOL    HW2 4842   2.368   1.885   5.595
 1315SOL     OW 4843   0.799   0.690   0.308
 1315SOL    HW1 4844   0.743   0.678   0.226
 1315SOL    HW2 4845   0.872   0.754   0.290
 1316SOL     OW 4846   1.998   6.662   3.914
 1316SOL    HW1 4847   2.013   6.761   3.920
 1316SOL    HW2 4848   1.998   6.622   4.005
 1317SOL     OW 4849   0.994   3.734   4.225
 1317SOL    HW1 4850   1.055   3.811   4.242
 1317SOL    HW2 4851   0.937   3.719   4.306
 1318SOL     OW 4852   6.850   0.637   0.444
 1318SOL    HW1 4853   6.819   0.686   0.526
 1318SOL    HW2 4854   6.772   0.619   0.384
 1319SOL     OW 4855   6.445   1.598   6.965
 1319SOL    HW1 4856   6.387   1.516   6.969
 1319SOL    HW2 4857   6.388   1.679   6.953
 1320SOL     OW 4858   5.941   3.761   0.246
 1320SOL    HW1 4859   6.001   3.754   0.167
 1320SOL    HW2 4860   5.993   3.743   0.329
 1321SOL     OW 4861   4.489   2.565   6.287
 1321SOL    HW1 4862   4.449   2.653   6.261
 1321SOL    HW2 4863   4.587   2.577   6.306
 1322SOL     OW 4864   5.290   0.955   3.432
 1322SOL    HW1 4865   5.200   0.914   3.417
 1322SOL    HW2 4866   5.324   0.930   3.522
 1323SOL     OW 4867   5.258   1.701   5.111
 1323SOL    HW1 4868   5.262   1.799   5.092
 1323SOL    HW2 4869   5.166   1.676   5.141
 1324SOL     OW 4870   1.102   3.012   1.688
 1324SOL    HW1 4871   1.155   2.951   1.747
 1324SOL    HW2 4872   1.065   2.960   1.611
 1325SOL     OW 4873   2.087   6.787   2.133
 1325SOL    HW1 4874   2.100   6.873   2.083
 1325SOL    HW2 4875   2.077   6.806   2.230
 1326SOL     OW 4876   4.996   3.073   4.625
 1326SOL    HW1 4877   4.921   3.010   4.604
 1326SOL    HW2 4878   4.961   3.148   4.681
 1327SOL     OW 4879   2.938   4.938   3.067
 1327SOL    HW1 4880   3.031   4.966   3.046
 1327SOL    HW2 4881   2.891   5.011   3.117
 1328SOL     OW 4882   0.982   2.611   1.101
 1328SOL    HW1 4883   0.937   2.699   1.082
 1328SOL    HW2 4884   1.045   2.590   1.026
 1329SOL     OW 4885   6.651   1.972   0.461
 1329SOL    HW1 4886   6.597   2.038   0.409
 1329SOL    HW2 4887   6.740   1.959   0.418
 1330SOL     OW 4888   6.396   0.816   1.037
 1330SOL    HW1 4889   6.317   0.765   1.004
 1330SOL    HW2 4890   6.477   0.790   0.983
 1331SOL     OW 4891   4.449   2.031   3.099
 1331SOL    HW1 4892   4.537   2.059   3.140
 1331SOL    HW2 4893   4.377   2.041   3.167
 1332SOL     OW 4894   3.634   6.974   0.129
 1332SOL    HW1 4895   3.730   6.951   0.140
 1332SOL    HW2 4896   3.626   0.045   0.081
 1333SOL     OW 4897   3.834   3.685   6.005
 1333SOL    HW1 4898   3.755   3.740   5.978
 1333SOL    HW2 4899   3.917   3.724   5.966
 1334SOL     OW 4900   6.780   2.415   4.804
 1334SOL    HW1 4901   6.778   2.467   4.719
 1334SOL    HW2 4902   6.875   2.390   4.825
 1335SOL     OW 4903   2.905   6.598   2.830
 1335SOL    HW1 4904   2.989   6.651   2.830
 1335SOL    HW2 4905   2.833   6.649   2.878
 1336SOL     OW 4906   1.576   1.479   6.411
 1336SOL    HW1 4907   1.657   1.467   6.353
 1336SOL    HW2 4908   1.498   1.431   6.370
 1337SOL     OW 4909   0.768   1.695   5.017
 1337SOL    HW1 4910   0.856   1.692   4.969
 1337SOL    HW2 4911   0.695   1.715   4.951
 1338SOL     OW 4912   4.655   2.911   5.749
 1338SOL    HW1 4913   4.650   2.852   5.669
 1338SOL    HW2 4914   4.582   2.887   5.813
 1339SOL     OW 4915   0.337   6.934   0.178
 1339SOL    HW1 4916   0.295   0.007   0.190
 1339SOL    HW2 4917   0.266   6.864   0.178
 1340SOL     OW 4918   1.026   1.236   2.096
 1340SOL    HW1 4919   0.989   1.320   2.055
 1340SOL    HW2 4920   1.125   1.246   2.109
 1341SOL     OW 4921   4.009   0.110   5.656
 1341SOL    HW1 4922   3.913   0.138   5.654
 1341SOL    HW2 4923   4.015   0.015   5.686
 1342SOL     OW 4924   1.610   4.870   6.145
 1342SOL    HW1 4925   1.605   4.824   6.057
 1342SOL    HW2 4926   1.594   4.803   6.218
 1343SOL     OW 4927   3.708   6.142   2.104
 1343SOL    HW1 4928   3.764   6.223   2.086
 1343SOL    HW2 4929   3.756   6.060   2.074
 1344SOL     OW 4930   0.140   3.902   3.598
 1344SOL    HW1 4931   0.122   3.891   3.696
 1344SOL    HW2 4932   0.063   3.949   3.555
 1345SOL     OW 4933   1.291   1.829   3.456
 1345SOL    HW1 4934   1.212   1.776   3.487
 1345SOL    HW2 4935   1.261   1.920   3.428
 1346SOL     OW 4936   1.716   6.983   3.249
 1346SOL    HW1 4937   1.630   6.968   3.201
 1346SOL    HW2 4938   1.788   6.927   3.207
 1347SOL     OW 4939   6.296   6.378   3.722
 1347SOL    HW1 4940   6.394   6.372   3.705
 1347SOL    HW2 4941   6.277   6.452   3.786
 1348SOL     OW 4942   5.870   5.833   3.155
 1348SOL    HW1 4943   5.771   5.828   3.140
 1348SOL    HW2 4944   5.887   5.859   3.250
 1349SOL     OW 4945   4.833   2.742   6.243
 1349SOL    HW1 4946   4.839   2.645   6.267
 1349SOL    HW2 4947   4.924   2.783   6.247
 1350SOL     OW 4948   3.579   4.771   0.247
 1350SOL    HW1 4949   3.607   4.839   0.180
 1350SOL    HW2 4950   3.479   4.761   0.245
 1351SOL     OW 4951   0.144   2.157   3.096
 1351SOL    HW1 4952   0.179   2.076   3.143
 1351SOL    HW2 4953   0.101   2.218   3.163
 1352SOL     OW 4954   0.973   0.973   3.159
 1352SOL    HW1 4955   0.880   0.938   3.168
 1352SOL    HW2 4956   1.033   0.928   3.226
 1353SOL     OW 4957   6.579   4.049   5.797
 1353SOL    HW1 4958   6.522   4.119   5.754
 1353SOL    HW2 4959   6.640   4.009   5.729
 1354SOL     OW 4960   6.972   1.941   0.595
 1354SOL    HW1 4961   6.992   2.039   0.603
 1354SOL    HW2 4962   7.010   1.893   0.673
 1355SOL     OW 4963   5.887   3.150   5.657
 1355SOL    HW1 4964   5.945   3.148   5.739
 1355SOL    HW2 4965   5.844   3.240   5.648
 1356SOL     OW 4966   3.267   3.765   3.969
 1356SOL    HW1 4967   3.298   3.855   3.937
 1356SOL    HW2 4968   3.176   3.773   4.009
 1357SOL     OW 4969   2.065   3.580   5.785
 1357SOL    HW1 4970   2.140   3.515   5.779
 1357SOL    HW2 4971   2.082   3.657   5.724
 1358SOL     OW 4972   3.593   1.540   5.980
 1358SOL    HW1 4973   3.633   1.523   6.070
 1358SOL    HW2 4974   3.588   1.454   5.929
 1359SOL     OW 4975   0.026   4.562   1.081
 1359SOL    HW1 4976   0.018   4.641   1.142
 1359SOL    HW2 4977   6.957   4.550   1.032
 1360SOL     OW 4978   4.080   3.700   2.658
 1360SOL    HW1 4979   4.108   3.618   2.708
 1360SOL    HW2 4980   4.098   3.781   2.714
 1361SOL     OW 4981   6.773   6.907   6.333
 1361SOL    HW1 4982   6.686   6.863   6.356
 1361SOL    HW2 4983   6.764   6.956   6.246
 1362SOL     OW 4984   2.974   3.784   4.344
 1362SOL    HW1 4985   2.943   3.745   4.432
 1362SOL    HW2 4986   3.034   3.718   4.299
 1363SOL     OW 4987   6.971   6.049   3.754
 1363SOL    HW1 4988   6.976   5.958   3.713
 1363SOL    HW2 4989   0.046   6.091   3.752
 1364SOL     OW 4990   0.381   2.341   0.590
 1364SOL    HW1 4991   0.288   2.305   0.591
 1364SOL    HW2 4992   0.447   2.265   0.590
 1365SOL     OW 4993   1.022   3.291   5.513
 1365SOL    HW1 4994   1.022   3.290   5.413
 1365SOL    HW2 4995   0.995   3.383   5.545
 1366SOL     OW 4996   0.298   4.290   0.917
 1366SOL    HW1 4997   0.229   4.344   0.869
 1366SOL    HW2 4998   0.300   4.317   1.013
 1367SOL     OW 4999   1.394   5.638   2.441
 1367SOL    HW1 5000   1.454   5.718   2.439
 1367SOL    HW2 5001   1.343   5.637   2.527
 1368SOL     OW 5002   0.003   0.645   4.059
 1368SOL    HW1 5003   6.961   0.714   4.018
 1368SOL    HW2 5004   0.098   0.677   4.059
 1369SOL     OW 5005   2.561   6.367   2.256
 1369SOL    HW1 5006   2.615   6.286   2.231
 1369SOL    HW2 5007   2.595   6.405   2.342
 1370SOL     OW 5008   5.883   2.287   3.902
 1370SOL    HW1 5009   5.795   2.314   3.943
 1370SOL    HW2 5010   5.914   2.360   3.841
 1371SOL     OW 5011   4.661   1.622   4.765
 1371SOL    HW1 5012   4.641   1.596   4.670
 1371SOL    HW2 5013   4.760   1.619   4.780
 1372SOL     OW 5014   0.130   2.101   1.162
 1372SOL    HW1 5015   0.077   2.058   1.089
 1372SOL    HW2 5016   0.194   2.167   1.123
 1373SOL     OW 5017   4.939   2.227   0.244
 1373SOL    HW1 5018   4.853   2.279   0.242
 1373SOL    HW2 5019   5.016   2.290   0.239
 1374SOL     OW 5020   4.755   3.851   0.298
 1374SOL    HW1 5021   4.814   3.870   0.220
 1374SOL    HW2 5022   4.809   3.852   0.382
 1375SOL     OW 5023   0.030   6.833   6.659
 1375SOL    HW1 5024   0.052   6.739   6.683
 1375SOL    HW2 5025   0.092   6.895   6.707
 1376SOL     OW 5026   3.465   4.687   5.716
 1376SOL    HW1 5027   3.461   4.648   5.625
 1376SOL    HW2 5028   3.446   4.786   5.711
 1377SOL     OW 5029   1.033   3.419   3.559
 1377SOL    HW1 5030   1.069   3.429   3.652
 1377SOL    HW2 5031   0.968   3.493   3.540
 1378SOL     OW 5032   5.762   2.645   5.673
 1378SOL    HW1 5033   5.853   2.681   5.697
 1378SOL    HW2 5034   5.732   2.685   5.587
 1379SOL     OW 5035   4.022   5.435   3.522
 1379SOL    HW1 5036   4.038   5.336   3.529
 1379SOL    HW2 5037   4.106   5.480   3.493
 1380SOL     OW 5038   0.199   6.145   3.208
 1380SOL    HW1 5039   0.296   6.128   3.229
 1380SOL    HW2 5040   0.182   6.124   3.112
 1381SOL     OW 5041   5.720   1.955   6.996
 1381SOL    HW1 5042   5.713   2.000   0.068
 1381SOL    HW2 5043   5.634   1.966   6.946
 1382SOL     OW 5044   4.870   3.271   1.118
 1382SOL    HW1 5045   4.932   3.224   1.182
 1382SOL    HW2 5046   4.814   3.336   1.169
 1383SOL     OW 5047   0.990   0.223   1.531
 1383SOL    HW1 5048   1.065   0.273   1.574
 1383SOL    HW2 5049   0.921   0.200   1.600
 1384SOL     OW 5050   4.825   7.005   2.090
 1384SOL    HW1 5051   4.890   6.950   2.038
 1384SOL    HW2 5052   4.804   6.960   2.176
 1385SOL     OW 5053   2.773   4.756   3.592
 1385SOL    HW1 5054   2.785   4.750   3.493
 1385SOL    HW2 5055   2.853   4.801   3.632
 1386SOL     OW 5056   3.217   0.579   3.669
 1386SOL    HW1 5057   3.310   0.556   3.697
 1386SOL    HW2 5058   3.180   0.648   3.732
 1387SOL     OW 5059   3.607   5.895   3.301
 1387SOL    HW1 5060   3.568   5.962   3.238
 1387SOL    HW2 5061   3.597   5.927   3.395
 1388SOL     OW 5062   6.591   0.297   1.841
 1388SOL    HW1 5063   6.507   0.329   1.884
 1388SOL    HW2 5064   6.670   0.332   1.892
 1389SOL     OW 5065   6.213   1.164   4.442
 1389SOL    HW1 5066   6.206   1.118   4.531
 1389SOL    HW2 5067   6.121   1.182   4.406
 1390SOL     OW 5068   0.205   3.797   6.433
 1390SOL    HW1 5069   0.217   3.732   6.358
 1390SOL    HW2 5070   0.166   3.749   6.512
 1391SOL     OW 5071   6.387   6.460   4.986
 1391SOL    HW1 5072   6.389   6.388   5.055
 1391SOL    HW2 5073   6.480   6.475   4.950
 1392SOL     OW 5074   5.677   6.188   6.163
 1392SOL    HW1 5075   5.669   6.274   6.214
 1392SOL    HW2 5076   5.732   6.123   6.217
 1393SOL     OW 5077   6.600   4.758   5.039
 1393SOL    HW1 5078   6.591   4.663   5.011
 1393SOL    HW2 5079   6.578   4.767   5.136
 1394SOL     OW 5080   3.642   4.933   5.907
 1394SOL    HW1 5081   3.577   4.982   5.848
 1394SOL    HW2 5082   3.596   4.855   5.949
 1395SOL     OW 5083   2.455   4.389   5.532
 1395SOL    HW1 5084   2.446   4.297   5.493
 1395SOL    HW2 5085   2.475   4.381   5.629
 1396SOL     OW 5086   0.891   1.383   5.067
 1396SOL    HW1 5087   0.945   1.466   5.051
 1396SOL    HW2 5088   0.808   1.386   5.012
 1397SOL     OW 5089   0.240   0.406   3.748
 1397SOL    HW1 5090   0.328   0.404   3.701
 1397SOL    HW2 5091   0.242   0.345   3.827
 1398SOL     OW 5092   2.986   0.721   6.244
 1398SOL    HW1 5093   2.926   0.796   6.268
 1398SOL    HW2 5094   2.933   0.636   6.239
 1399SOL     OW 5095   3.920   5.504   0.597
 1399SOL    HW1 5096   3.895   5.485   0.692
 1399SOL    HW2 5097   3.987   5.436   0.566
 1400SOL     OW 5098   0.435   1.788   3.235
 1400SOL    HW1 5099   0.476   1.699   3.215
 1400SOL    HW2 5100   0.422   1.797   3.334
 1401SOL     OW 5101   6.454   0.915   4.724
 1401SOL    HW1 5102   6.394   0.835   4.717
 1401SOL    HW2 5103   6.518   0.916   4.647
 1402SOL     OW 5104   6.711   4.072   6.285
 1402SOL    HW1 5105   6.642   4.116   6.343
 1402SOL    HW2 5106   6.669   3.998   6.233
 1403SOL     OW 5107   2.337   2.531   1.496
 1403SOL    HW1 5108   2.353   2.538   1.397
 1403SOL    HW2 5109   2.364   2.617   1.540
 1404SOL     OW 5110   6.271   6.766   0.751
 1404SOL    HW1 5111   6.271   6.847   0.810
 1404SOL    HW2 5112   6.350   6.770   0.689
 1405SOL     OW 5113   2.493   3.704   1.169
 1405SOL    HW1 5114   2.456   3.622   1.212
 1405SOL    HW2 5115   2.567   3.741   1.226
 1406SOL     OW 5116   0.484   5.529   0.714
 1406SOL    HW1 5117   0.582   5.539   0.735
 1406SOL    HW2 5118   0.430   5.568   0.788
 1407SOL     OW 5119   0.167   2.366   2.603
 1407SOL    HW1 5120   0.181   2.366   2.702
 1407SOL    HW2 5121   0.090   2.307   2.580
 1408SOL     OW 5122   5.586   1.411   6.053
 1408SOL    HW1 5123   5.513   1.479   6.063
 1408SOL    HW2 5124   5.675   1.458   6.051
 1409SOL     OW 5125   0.143   0.211   5.156
 1409SOL    HW1 5126   0.106   0.177   5.242
 1409SOL    HW2 5127   0.077   0.274   5.115
 1410SOL     OW 5128   1.052   3.475   6.180
 1410SOL    HW1 5129   1.018   3.459   6.273
 1410SOL    HW2 5130   1.133   3.418   6.164
 1411SOL     OW 5131   3.443   6.524   1.181
 1411SOL    HW1 5132   3.514   6.589   1.209
 1411SOL    HW2 5133   3.419   6.541   1.085
 1412SOL     OW 5134   0.507   2.102   1.003
 1412SOL    HW1 5135   0.605   2.102   0.985
 1412SOL    HW2 5136   0.469   2.193   0.985
 1413SOL     OW 5137   1.287   1.971   5.484
 1413SOL    HW1 5138   1.251   1.896   5.429
 1413SOL    HW2 5139   1.321   1.935   5.571
 1414SOL     OW 5140   2.733   1.360   2.077
 1414SOL    HW1 5141   2.720   1.411   1.991
 1414SOL    HW2 5142   2.669   1.284   2.080
 1415SOL     OW 5143   2.842   1.012   4.577
 1415SOL    HW1 5144   2.928   0.984   4.621
 1415SOL    HW2 5145   2.776   1.037   4.647
 1416SOL     OW 5146   5.428   5.123   4.617
 1416SOL    HW1 5147   5.367   5.102   4.693
 1416SOL    HW2 5148   5.375   5.163   4.542
 1417SOL     OW 5149   2.771   2.012   0.225
 1417SOL    HW1 5150   2.868   2.036   0.229
 1417SOL    HW2 5151   2.759   1.915   0.247
 1418SOL     OW 5152   3.338   4.035   3.083
 1418SOL    HW1 5153   3.312   3.940   3.064
 1418SOL    HW2 5154   3.304   4.094   3.010
 1419SOL     OW 5155   2.869   5.656   4.870
 1419SOL    HW1 5156   2.907   5.638   4.960
 1419SOL    HW2 5157   2.809   5.736   4.874
 1420SOL     OW 5158   2.911   6.477   1.550
 1420SOL    HW1 5159   2.868   6.518   1.630
 1420SOL    HW2 5160   2.956   6.549   1.496
 1421SOL     OW 5161   1.888   4.763   3.334
 1421SOL    HW1 5162   1.884   4.667   3.304
 1421SOL    HW2 5163   1.974   4.779   3.382
 1422SOL     OW 5164   1.310   3.852   1.000
 1422SOL    HW1 5165   1.351   3.812   0.918
 1422SOL    HW2 5166   1.344   3.805   1.081
 1423SOL     OW 5167   5.238   6.297   3.387
 1423SOL    HW1 5168   5.328   6.268   3.420
 1423SOL    HW2 5169   5.189   6.343   3.461
 1424SOL     OW 5170   6.297   4.967   6.130
 1424SOL    HW1 5171   6.202   4.937   6.129
 1424SOL    HW2 5172   6.328   4.984   6.036
 1425SOL     OW 5173   1.802   5.474   5.272
 1425SOL    HW1 5174   1.766   5.431   5.190
 1425SOL    HW2 5175   1.744   5.552   5.298
 1426SOL     OW 5176   1.811   3.581   6.222
 1426SOL    HW1 5177   1.814   3.597   6.124
 1426SOL    HW2 5178   1.816   3.668   6.271
 1427SOL     OW 5179   0.710   0.258   3.719
 1427SOL    HW1 5180   0.747   0.210   3.798
 1427SOL    HW2 5181   0.612   0.238   3.710
 1428SOL     OW 5182   6.836   3.631   0.200
 1428SOL    HW1 5183   6.803   3.726   0.201
 1428SOL    HW2 5184   6.793   3.581   0.275
 1429SOL     OW 5185   4.331   2.083   6.882
 1429SOL    HW1 5186   4.352   2.134   6.965
 1429SOL    HW2 5187   4.415   2.046   6.843
 1430SOL     OW 5188   1.411   4.764   3.558
 1430SOL    HW1 5189   1.456   4.721   3.636
 1430SOL    HW2 5190   1.315   4.737   3.555
 1431SOL     OW 5191   2.695   1.844   0.709
 1431SOL    HW1 5192   2.762   1.916   0.727
 1431SOL    HW2 5193   2.636   1.873   0.633
 1432SOL     OW 5194   2.730   1.676   2.446
 1432SOL    HW1 5195   2.678   1.646   2.366
 1432SOL    HW2 5196   2.672   1.674   2.526
 1433SOL     OW 5197   4.305   1.139   4.962
 1433SOL    HW1 5198   4.335   1.230   4.991
 1433SOL    HW2 5199   4.211   1.124   4.993
 1434SOL     OW 5200   0.129   6.928   5.521
 1434SOL    HW1 5201   0.095   6.901   5.611
 1434SOL    HW2 5202   0.078   6.879   5.450
 1435SOL     OW 5203   6.398   0.092   2.872
 1435SOL    HW1 5204   6.340   0.160   2.827
 1435SOL    HW2 5205   6.491   0.099   2.836
 1436SOL     OW 5206   5.222   4.050   6.682
 1436SOL    HW1 5207   5.199   4.040   6.585
 1436SOL    HW2 5208   5.148   4.014   6.738
 1437SOL     OW 5209   2.906   1.982   4.071
 1437SOL    HW1 5210   2.919   2.026   3.982
 1437SOL    HW2 5211   2.865   1.892   4.058
 1438SOL     OW 5212   2.550   6.268   0.962
 1438SOL    HW1 5213   2.547   6.322   0.878
 1438SOL    HW2 5214   2.635   6.215   0.964
 1439SOL     OW 5215   6.529   5.637   1.657
 1439SOL    HW1 5216   6.593   5.584   1.602
 1439SOL    HW2 5217   6.536   5.734   1.632
 1440SOL     OW 5218   3.291   2.896   6.951
 1440SOL    HW1 5219   3.206   2.941   6.979
 1440SOL    HW2 5220   3.305   2.813   7.006
 1441SOL     OW 5221   6.532   0.440   4.191
 1441SOL    HW1 5222   6.569   0.459   4.100
 1441SOL    HW2 5223   6.498   0.346   4.194
 1442SOL     OW 5224   0.683   5.884   0.018
 1442SOL    HW1 5225   0.677   5.786   0.000
 1442SOL    HW2 5226   0.614   5.933   6.982
 1443SOL     OW 5227   0.444   3.362   4.015
 1443SOL    HW1 5228   0.515   3.431   4.024
 1443SOL    HW2 5229   0.484   3.276   3.984
 1444SOL     OW 5230   4.797   5.809   0.691
 1444SOL    HW1 5231   4.726   5.759   0.641
 1444SOL    HW2 5232   4.758   5.843   0.777
 1445SOL     OW 5233   1.368   2.817   3.172
 1445SOL    HW1 5234   1.362   2.916   3.163
 1445SOL    HW2 5235   1.276   2.779   3.187
 1446SOL     OW 5236   6.043   1.465   6.915
 1446SOL    HW1 5237   5.944   1.474   6.930
 1446SOL    HW2 5238   6.078   1.547   6.870
 1447SOL     OW 5239   5.766   6.413   4.396
 1447SOL    HW1 5240   5.790   6.359   4.477
 1447SOL    HW2 5241   5.667   6.426   4.393
 1448SOL     OW 5242   0.024   2.568   5.296
 1448SOL    HW1 5243   0.031   2.500   5.224
 1448SOL    HW2 5244   0.114   2.584   5.336
 1449SOL     OW 5245   1.324   2.778   6.482
 1449SOL    HW1 5246   1.272   2.703   6.441
 1449SOL    HW2 5247   1.265   2.858   6.492
 1450SOL     OW 5248   0.559   2.063   1.280
 1450SOL    HW1 5249   0.621   1.984   1.281
 1450SOL    HW2 5250   0.491   2.051   1.207
 1451SOL     OW 5251   0.866   6.529   2.686
 1451SOL    HW1 5252   0.862   6.447   2.744
 1451SOL    HW2 5253   0.915   6.601   2.735
 1452SOL     OW 5254   4.273   1.717   5.056
 1452SOL    HW1 5255   4.269   1.638   4.996
 1452SOL    HW2 5256   4.325   1.790   5.013
 1453SOL     OW 5257   0.337   3.785   5.810
 1453SOL    HW1 5258   0.297   3.858   5.865
 1453SOL    HW2 5259   0.415   3.820   5.759
 1454SOL     OW 5260   0.628   2.896   1.916
 1454SOL    HW1 5261   0.669   2.969   1.971
 1454SOL    HW2 5262   0.582   2.831   1.977
 1455SOL     OW 5263   1.289   0.364   1.402
 1455SOL    HW1 5264   1.328   0.288   1.350
 1455SOL    HW2 5265   1.240   0.329   1.481
 1456SOL     OW 5266   6.530   0.017   6.001
 1456SOL    HW1 5267   6.554   0.073   6.080
 1456SOL    HW2 5268   6.467   6.961   6.029
 1457SOL     OW 5269   0.517   6.476   1.459
 1457SOL    HW1 5270   0.534   6.384   1.495
 1457SOL    HW2 5271   0.467   6.529   1.527
 1458SOL     OW 5272   5.939   5.350   4.470
 1458SOL    HW1 5273   6.022   5.294   4.459
 1458SOL    HW2 5274   5.879   5.336   4.391
 1459SOL     OW 5275   3.831   6.286   6.252
 1459SOL    HW1 5276   3.919   6.268   6.296
 1459SOL    HW2 5277   3.757   6.270   6.317
 1460SOL     OW 5278   0.407   0.190   5.037
 1460SOL    HW1 5279   0.316   0.194   5.079
 1460SOL    HW2 5280   0.476   0.198   5.109
 1461SOL     OW 5281   6.388   4.171   3.075
 1461SOL    HW1 5282   6.404   4.260   3.033
 1461SOL    HW2 5283   6.448   4.103   3.034
 1462SOL     OW 5284   1.836   0.942   0.165
 1462SOL    HW1 5285   1.877   1.022   0.207
 1462SOL    HW2 5286   1.903   0.868   0.160
 1463SOL     OW 5287   0.130   5.325   6.312
 1463SOL    HW1 5288   0.191   5.402   6.292
 1463SOL    HW2 5289   0.078   5.345   6.394
 1464SOL     OW 5290   7.015   5.902   2.184
 1464SOL    HW1 5291   0.027   5.987   2.229
 1464SOL    HW2 5292   0.068   5.832   2.196
 1465SOL     OW 5293   1.796   0.536   3.714
 1465SOL    HW1 5294   1.808   0.619   3.660
 1465SOL    HW2 5295   1.741   0.555   3.795
 1466SOL     OW 5296   2.406   2.191   1.989
 1466SOL    HW1 5297   2.485   2.238   2.026
 1466SOL    HW2 5298   2.422   2.167   1.894
 1467SOL     OW 5299   1.892   1.455   3.052
 1467SOL    HW1 5300   1.858   1.437   2.960
 1467SOL    HW2 5301   1.900   1.369   3.103
 1468SOL     OW 5302   2.524   5.747   2.225
 1468SOL    HW1 5303   2.613   5.772   2.262
 1468SOL    HW2 5304   2.497   5.657   2.261
 1469SOL     OW 5305   0.533   0.394   2.149
 1469SOL    HW1 5306   0.517   0.460   2.076
 1469SOL    HW2 5307   0.563   0.307   2.111
 1470SOL     OW 5308   1.101   1.823   2.616
 1470SOL    HW1 5309   1.156   1.811   2.533
 1470SOL    HW2 5310   1.156   1.804   2.696
 1471SOL     OW 5311   0.702   0.202   0.795
 1471SOL    HW1 5312   0.674   0.155   0.712
 1471SOL    HW2 5313   0.674   0.298   0.791
 1472SOL     OW 5314   2.521   5.440   5.322
 1472SOL    HW1 5315   2.462   5.519   5.307
 1472SOL    HW2 5316   2.500   5.399   5.411
 1473SOL     OW 5317   3.741   5.305   5.500
 1473SOL    HW1 5318   3.740   5.214   5.458
 1473SOL    HW2 5319   3.751   5.374   5.428
 1474SOL     OW 5320   5.305   4.819   2.323
 1474SOL    HW1 5321   5.295   4.857   2.231
 1474SOL    HW2 5322   5.215   4.804   2.363
 1475SOL     OW 5323   5.640   0.736   1.604
 1475SOL    HW1 5324   5.627   0.641   1.573
 1475SOL    HW2 5325   5.736   0.761   1.593
 1476SOL     OW 5326   3.061   0.734   1.097
 1476SOL    HW1 5327   3.050   0.648   1.147
 1476SOL    HW2 5328   3.094   0.715   1.005
 1477SOL     OW 5329   2.950   6.725   6.089
 1477SOL    HW1 5330   2.944   6.633   6.130
 1477SOL    HW2 5331   2.866   6.776   6.110
 1478SOL     OW 5332   6.167   5.346   5.364
 1478SOL    HW1 5333   6.192   5.433   5.323
 1478SOL    HW2 5334   6.069   5.330   5.354
 1479SOL     OW 5335   2.047   2.462   0.821
 1479SOL    HW1 5336   2.094   2.440   0.736
 1479SOL    HW2 5337   1.992   2.545   0.809
 1480SOL     OW 5338   3.431   0.836   4.803
 1480SOL    HW1 5339   3.501   0.903   4.780
 1480SOL    HW2 5340   3.432   0.819   4.902
 1481SOL     OW 5341   6.197   3.085   6.937
 1481SOL    HW1 5342   6.236   3.026   6.866
 1481SOL    HW2 5343   6.148   3.030   7.004
 1482SOL     OW 5344   4.679   1.276   1.608
 1482SOL    HW1 5345   4.743   1.353   1.603
 1482SOL    HW2 5346   4.684   1.222   1.525
 1483SOL     OW 5347   4.941   2.247   6.023
 1483SOL    HW1 5348   5.005   2.176   6.053
 1483SOL    HW2 5349   4.966   2.334   6.065
 1484SOL     OW 5350   4.723   5.140   4.292
 1484SOL    HW1 5351   4.650   5.113   4.356
 1484SOL    HW2 5352   4.770   5.058   4.259
 1485SOL     OW 5353   4.036   0.770   4.602
 1485SOL    HW1 5354   3.960   0.705   4.604
 1485SOL    HW2 5355   4.007   0.856   4.645
 1486SOL     OW 5356   6.021   0.713   2.718
 1486SOL    HW1 5357   6.076   0.663   2.651
 1486SOL    HW2 5358   6.008   0.656   2.799
 1487SOL     OW 5359   0.175   2.453   0.122
 1487SOL    HW1 5360   0.233   2.449   0.204
 1487SOL    HW2 5361   0.105   2.382   0.127
 1488SOL     OW 5362   5.873   0.531   3.852
 1488SOL    HW1 5363   5.863   0.602   3.921
 1488SOL    HW2 5364   5.838   0.564   3.764
 1489SOL     OW 5365   4.397   4.773   5.951
 1489SOL    HW1 5366   4.479   4.809   5.995
 1489SOL    HW2 5367   4.335   4.735   6.020
 1490SOL     OW 5368   0.831   3.561   1.425
 1490SOL    HW1 5369   0.731   3.572   1.419
 1490SOL    HW2 5370   0.869   3.639   1.474
 1491SOL     OW 5371   5.922   4.765   2.402
 1491SOL    HW1 5372   6.020   4.774   2.384
 1491SOL    HW2 5373   5.883   4.694   2.343
 1492SOL     OW 5374   6.404   0.323   2.555
 1492SOL    HW1 5375   6.472   0.276   2.498
 1492SOL    HW2 5376   6.343   0.377   2.497
 1493SOL     OW 5377   3.758   6.911   6.384
 1493SOL    HW1 5378   3.772   6.812   6.391
 1493SOL    HW2 5379   3.679   6.937   6.439
 1494SOL     OW 5380   4.993   2.496   6.216
 1494SOL    HW1 5381   4.909   2.466   6.262
 1494SOL    HW2 5382   5.072   2.473   6.273
 1495SOL     OW 5383   0.661   3.657   5.379
 1495SOL    HW1 5384   0.690   3.588   5.313
 1495SOL    HW2 5385   0.587   3.712   5.340
 1496SOL     OW 5386   0.405   1.467   1.302
 1496SOL    HW1 5387   0.413   1.433   1.208
 1496SOL    HW2 5388   0.357   1.555   1.302
 1497SOL     OW 5389   5.254   3.048   2.520
 1497SOL    HW1 5390   5.319   3.101   2.575
 1497SOL    HW2 5391   5.181   3.015   2.579
 1498SOL     OW 5392   2.446   4.561   6.686
 1498SOL    HW1 5393   2.488   4.491   6.629
 1498SOL    HW2 5394   2.510   4.588   6.758
 1499SOL     OW 5395   0.793   2.101   5.376
 1499SOL    HW1 5396   0.891   2.108   5.394
 1499SOL    HW2 5397   0.778   2.048   5.293
 1500SOL     OW 5398   0.047   0.400   0.282
 1500SOL    HW1 5399   0.051   0.464   0.359
 1500SOL    HW2 5400   0.073   0.449   0.198
 1501SOL     OW 5401   5.312   2.507   6.609
 1501SOL    HW1 5402   5.379   2.444   6.571
 1501SOL    HW2 5403   5.278   2.568   6.537
 1502SOL     OW 5404   4.501   0.513   6.908
 1502SOL    HW1 5405   4.463   0.602   6.934
 1502SOL    HW2 5406   4.427   0.454   6.875
 1503SOL     OW 5407   1.437   2.729   2.040
 1503SOL    HW1 5408   1.475   2.773   2.122
 1503SOL    HW2 5409   1.359   2.673   2.066
 1504SOL     OW 5410   0.506   0.057   4.338
 1504SOL    HW1 5411   0.526   0.143   4.385
 1504SOL    HW2 5412   0.435   0.007   4.388
 1505SOL     OW 5413   4.604   0.204   4.721
 1505SOL    HW1 5414   4.536   0.273   4.696
 1505SOL    HW2 5415   4.683   0.249   4.762
 1506SOL     OW 5416   0.711   6.628   0.120
 1506SOL    HW1 5417   0.763   6.600   0.200
 1506SOL    HW2 5418   0.773   6.637   0.042
 1507SOL     OW 5419   0.112   1.714   6.128
 1507SOL    HW1 5420   0.140   1.634   6.179
 1507SOL    HW2 5421   0.172   1.791   6.150
 1508SOL     OW 5422   6.410   1.285   0.981
 1508SOL    HW1 5423   6.332   1.250   1.032
 1508SOL    HW2 5424   6.485   1.218   0.984
 1509SOL     OW 5425   3.695   1.805   4.892
 1509SOL    HW1 5426   3.772   1.760   4.937
 1509SOL    HW2 5427   3.682   1.896   4.930
 1510SOL     OW 5428   4.692   1.238   4.781
 1510SOL    HW1 5429   4.741   1.150   4.779
 1510SOL    HW2 5430   4.611   1.232   4.721
 1511SOL     OW 5431   4.162   3.479   3.860
 1511SOL    HW1 5432   4.240   3.464   3.800
 1511SOL    HW2 5433   4.147   3.397   3.916
 1512SOL     OW 5434   6.958   5.564   0.472
 1512SOL    HW1 5435   0.021   5.623   0.455
 1512SOL    HW2 5436   6.986   5.485   0.525
 1513SOL     OW 5437   3.937   0.385   4.812
 1513SOL    HW1 5438   4.030   0.347   4.811
 1513SOL    HW2 5439   3.881   0.334   4.876
 1514SOL     OW 5440   3.608   2.602   5.364
 1514SOL    HW1 5441   3.706   2.584   5.358
 1514SOL    HW2 5442   3.593   2.700   5.382
 1515SOL     OW 5443   5.648   2.020   2.248
 1515SOL    HW1 5444   5.577   2.060   2.306
 1515SOL    HW2 5445   5.659   1.923   2.271
 1516SOL     OW 5446   6.706   5.581   5.996
 1516SOL    HW1 5447   6.688   5.490   6.032
 1516SOL    HW2 5448   6.745   5.573   5.904
 1517SOL     OW 5449   4.325   6.045   2.999
 1517SOL    HW1 5450   4.316   5.951   2.967
 1517SOL    HW2 5451   4.397   6.091   2.947
 1518SOL     OW 5452   0.323   2.907   0.762
 1518SOL    HW1 5453   0.330   2.974   0.688
 1518SOL    HW2 5454   0.398   2.842   0.756
 1519SOL     OW 5455   6.893   4.744   1.757
 1519SOL    HW1 5456   6.808   4.695   1.737
 1519SOL    HW2 5457   6.963   4.680   1.789
 1520SOL     OW 5458   0.611   4.414   1.783
 1520SOL    HW1 5459   0.634   4.326   1.741
 1520SOL    HW2 5460   0.526   4.405   1.836
 1521SOL     OW 5461   1.871   4.189   6.316
 1521SOL    HW1 5462   1.811   4.227   6.386
 1521SOL    HW2 5463   1.959   4.166   6.358
 1522SOL     OW 5464   5.685   6.254   4.956
 1522SOL    HW1 5465   5.591   6.229   4.933
 1522SOL    HW2 5466   5.702   6.349   4.932
 1523SOL     OW 5467   4.034   6.237   0.095
 1523SOL    HW1 5468   3.992   6.225   0.184
 1523SOL    HW2 5469   4.109   6.303   0.102
 1524SOL     OW 5470   2.487   1.555   2.874
 1524SOL    HW1 5471   2.398   1.600   2.869
 1524SOL    HW2 5472   2.542   1.580   2.794
 1525SOL     OW 5473   6.308   3.831   0.601
 1525SOL    HW1 5474   6.268   3.799   0.515
 1525SOL    HW2 5475   6.378   3.767   0.632
 1526SOL     OW 5476   6.879   1.205   6.832
 1526SOL    HW1 5477   6.937   1.286   6.833
 1526SOL    HW2 5478   6.853   1.181   6.925
 1527SOL     OW 5479   4.076   1.501   4.896
 1527SOL    HW1 5480   4.018   1.536   4.823
 1527SOL    HW2 5481   4.030   1.425   4.942
 1528SOL     OW 5482   3.843   4.847   2.656
 1528SOL    HW1 5483   3.859   4.877   2.562
 1528SOL    HW2 5484   3.931   4.824   2.699
 1529SOL     OW 5485   4.268   0.142   0.080
 1529SOL    HW1 5486   4.241   0.089   0.160
 1529SOL    HW2 5487   4.354   0.190   0.100
 1530SOL     OW 5488   4.055   2.097   2.309
 1530SOL    HW1 5489   3.959   2.119   2.328
 1530SOL    HW2 5490   4.072   2.001   2.330
 1531SOL     OW 5491   4.517   6.905   5.799
 1531SOL    HW1 5492   4.545   6.916   5.703
 1531SOL    HW2 5493   4.440   6.965   5.818
 1532SOL     OW 5494   3.404   3.434   6.367
 1532SOL    HW1 5495   3.480   3.386   6.410
 1532SOL    HW2 5496   3.325   3.373   6.360
 1533SOL     OW 5497   5.911   4.766   6.402
 1533SOL    HW1 5498   5.820   4.733   6.423
 1533SOL    HW2 5499   5.940   4.833   6.470
 1534SOL     OW 5500   3.014   5.602   6.956
 1534SOL    HW1 5501   3.011   5.672   0.010
 1534SOL    HW2 5502   2.929   5.549   6.957
 1535SOL     OW 5503   5.129   6.305   4.478
 1535SOL    HW1 5504   5.125   6.381   4.413
 1535SOL    HW2 5505   5.092   6.223   4.434
 1536SOL     OW 5506   3.761   4.080   5.651
 1536SOL    HW1 5507   3.803   4.097   5.561
 1536SOL    HW2 5508   3.664   4.061   5.639
 1537SOL     OW 5509   4.344   5.865   3.826
 1537SOL    HW1 5510   4.282   5.804   3.777
 1537SOL    HW2 5511   4.338   5.847   3.925
 1538SOL     OW 5512   3.244   0.046   0.012
 1538SOL    HW1 5513   3.313   0.118   0.008
 1538SOL    HW2 5514   3.188   0.049   6.946
 1539SOL     OW 5515   4.696   3.818   1.720
 1539SOL    HW1 5516   4.743   3.801   1.807
 1539SOL    HW2 5517   4.679   3.731   1.674
 1540SOL     OW 5518   1.222   5.671   5.689
 1540SOL    HW1 5519   1.156   5.667   5.615
 1540SOL    HW2 5520   1.183   5.718   5.768
 1541SOL     OW 5521   3.394   2.968   4.064
 1541SOL    HW1 5522   3.316   2.959   4.126
 1541SOL    HW2 5523   3.478   2.946   4.113
 1542SOL     OW 5524   6.618   7.000   2.299
 1542SOL    HW1 5525   6.527   6.971   2.271
 1542SOL    HW2 5526   6.620   7.013   2.398
 1543SOL     OW 5527   3.140   5.078   5.614
 1543SOL    HW1 5528   3.204   5.149   5.585
 1543SOL    HW2 5529   3.074   5.061   5.541
 1544SOL     OW 5530   2.850   3.485   2.779
 1544SOL    HW1 5531   2.794   3.402   2.775
 1544SOL    HW2 5532   2.878   3.511   2.686
 1545SOL     OW 5533   4.918   0.780   2.959
 1545SOL    HW1 5534   5.006   0.761   3.002
 1545SOL    HW2 5535   4.844   0.746   3.018
 1546SOL     OW 5536   4.008   6.852   5.784
 1546SOL    HW1 5537   3.966   6.810   5.865
 1546SOL    HW2 5538   4.102   6.880   5.806
 1547SOL     OW 5539   1.920   4.169   2.170
 1547SOL    HW1 5540   1.951   4.125   2.086
 1547SOL    HW2 5541   1.941   4.267   2.167
 1548SOL     OW 5542   5.668   3.300   5.287
 1548SOL    HW1 5543   5.701   3.207   5.301
 1548SOL    HW2 5544   5.592   3.318   5.349
 1549SOL     OW 5545   3.925   1.724   1.766
 1549SOL    HW1 5546   3.987   1.770   1.831
 1549SOL    HW2 5547   3.832   1.727   1.802
 1550SOL     OW 5548   2.905   3.579   0.490
 1550SOL    HW1 5549   2.876   3.633   0.411
 1550SOL    HW2 5550   2.827   3.561   0.548
 1551SOL     OW 5551   2.085   4.307   6.082
 1551SOL    HW1 5552   2.057   4.326   5.988
 1551SOL    HW2 5553   2.077   4.209   6.101
 1552SOL     OW 5554   1.290   6.127   0.190
 1552SOL    HW1 5555   1.262   6.053   0.251
 1552SOL    HW2 5556   1.352   6.092   0.120
 1553SOL     OW 5557   6.917   1.942   6.443
 1553SOL    HW1 5558   6.894   2.030   6.485
 1553SOL    HW2 5559   7.016   1.936   6.430
 1554SOL     OW 5560   3.964   2.078   3.001
 1554SOL    HW1 5561   3.915   2.098   2.916
 1554SOL    HW2 5562   4.049   2.030   2.979
 1555SOL     OW 5563   5.115   2.579   6.928
 1555SOL    HW1 5564   5.057   2.643   6.978
 1555SOL    HW2 5565   5.066   2.544   6.849
 1556SOL     OW 5566   3.048   1.964   0.244
 1556SOL    HW1 5567   2.994   1.895   0.195
 1556SOL    HW2 5568   3.123   1.994   0.185
 1557SOL     OW 5569   2.224   2.096   5.416
 1557SOL    HW1 5570   2.310   2.071   5.371
 1557SOL    HW2 5571   2.176   2.013   5.444
 1558SOL     OW 5572   5.656   0.352   4.945
 1558SOL    HW1 5573   5.727   0.284   4.929
 1558SOL    HW2 5574   5.698   0.436   4.981
 1559SOL     OW 5575   1.289   2.547   0.162
 1559SOL    HW1 5576   1.339   2.600   0.093
 1559SOL    HW2 5577   1.236   2.475   0.117
 1560SOL     OW 5578   0.152   1.202   5.528
 1560SOL    HW1 5579   0.131   1.169   5.435
 1560SOL    HW2 5580   0.218   1.277   5.522
 1561SOL     OW 5581   6.296   6.582   3.959
 1561SOL    HW1 5582   6.273   6.618   4.049
 1561SOL    HW2 5583   6.391   6.605   3.937
 1562SOL     OW 5584   4.089   5.874   2.814
 1562SOL    HW1 5585   4.108   5.777   2.830
 1562SOL    HW2 5586   4.170   5.918   2.777
 1563SOL     OW 5587   2.037   0.148   5.555
 1563SOL    HW1 5588   1.947   0.142   5.598
 1563SOL    HW2 5589   2.070   0.243   5.560
 1564SOL     OW 5590   1.200   2.807   3.521
 1564SOL    HW1 5591   1.178   2.710   3.508
 1564SOL    HW2 5592   1.179   2.857   3.437
 1565SOL     OW 5593   4.404   4.714   3.787
 1565SOL    HW1 5594   4.464   4.654   3.735
 1565SOL    HW2 5595   4.439   4.726   3.880
 1566SOL     OW 5596   6.064   4.796   3.101
 1566SOL    HW1 5597   6.027   4.742   3.025
 1566SOL    HW2 5598   6.001   4.870   3.123
 1567SOL     OW 5599   6.271   5.962   0.913
 1567SOL    HW1 5600   6.306   6.056   0.909
 1567SOL    HW2 5601   6.204   5.949   0.840
 1568SOL     OW 5602   1.545   6.447   7.011
 1568SOL    HW1 5603   1.607   6.492   0.059
 1568SOL    HW2 5604   1.522   6.511   6.938
 1569SOL     OW 5605   4.722   6.294   3.435
 1569SOL    HW1 5606   4.746   6.294   3.338
 1569SOL    HW2 5607   4.697   6.201   3.463
 1570SOL     OW 5608   1.926   0.222   0.965
 1570SOL    HW1 5609   1.886   0.301   1.009
 1570SOL    HW2 5610   1.890   0.138   1.006
 1571SOL     OW 5611   5.154   2.491   1.316
 1571SOL    HW1 5612   5.084   2.558   1.290
 1571SOL    HW2 5613   5.197   2.454   1.233
 1572SOL     OW 5614   0.755   6.798   0.932
 1572SOL    HW1 5615   0.692   6.822   1.006
 1572SOL    HW2 5616   0.767   6.699   0.930
 1573SOL     OW 5617   5.167   2.751   2.105
 1573SOL    HW1 5618   5.109   2.802   2.043
 1573SOL    HW2 5619   5.222   2.815   2.160
 1574SOL     OW 5620   6.144   1.291   1.670
 1574SOL    HW1 5621   6.152   1.262   1.574
 1574SOL    HW2 5622   6.197   1.229   1.728
 1575SOL     OW 5623   3.703   1.267   0.459
 1575SOL    HW1 5624   3.795   1.228   0.458
 1575SOL    HW2 5625   3.708   1.365   0.478
 1576SOL     OW 5626   1.015   6.826   3.720
 1576SOL    HW1 5627   1.087   6.760   3.697
 1576SOL    HW2 5628   1.057   6.908   3.758
 1577SOL     OW 5629   3.106   1.646   4.491
 1577SOL    HW1 5630   3.030   1.581   4.501
 1577SOL    HW2 5631   3.115   1.672   4.395
 1578SOL     OW 5632   6.455   3.160   5.928
 1578SOL    HW1 5633   6.485   3.116   6.013
 1578SOL    HW2 5634   6.468   3.259   5.935
 1579SOL     OW 5635   0.278   1.474   2.980
 1579SOL    HW1 5636   0.264   1.378   3.004
 1579SOL    HW2 5637   0.251   1.489   2.885
 1580SOL     OW 5638   2.920   3.978   5.315
 1580SOL    HW1 5639   2.945   4.073   5.294
 1580SOL    HW2 5640   2.821   3.967   5.306
 1581SOL     OW 5641   0.314   3.958   4.876
 1581SOL    HW1 5642   0.376   3.906   4.817
 1581SOL    HW2 5643   0.365   4.001   4.950
 1582SOL     OW 5644   1.212   0.078   4.452
 1582SOL    HW1 5645   1.241   6.999   4.452
 1582SOL    HW2 5646   1.252   0.125   4.531
 1583SOL     OW 5647   1.167   4.623   3.298
 1583SOL    HW1 5648   1.140   4.527   3.306
 1583SOL    HW2 5649   1.175   4.663   3.389
 1584SOL     OW 5650   1.505   6.587   5.066
 1584SOL    HW1 5651   1.529   6.679   5.037
 1584SOL    HW2 5652   1.426   6.555   5.015
 1585SOL     OW 5653   5.833   1.979   3.420
 1585SOL    HW1 5654   5.753   1.938   3.465
 1585SOL    HW2 5655   5.880   1.909   3.367
 1586SOL     OW 5656   3.581   4.697   1.363
 1586SOL    HW1 5657   3.580   4.796   1.355
 1586SOL    HW2 5658   3.612   4.670   1.454
 1587SOL     OW 5659   2.670   6.394   6.427
 1587SOL    HW1 5660   2.683   6.415   6.524
 1587SOL    HW2 5661   2.596   6.327   6.417
 1588SOL     OW 5662   5.181   1.578   3.325
 1588SOL    HW1 5663   5.124   1.618   3.397
 1588SOL    HW2 5664   5.125   1.561   3.244
 1589SOL     OW 5665   5.854   3.700   1.988
 1589SOL    HW1 5666   5.813   3.785   1.955
 1589SOL    HW2 5667   5.788   3.653   2.048
 1590SOL     OW 5668   2.618   6.099   6.638
 1590SOL    HW1 5669   2.632   6.040   6.717
 1590SOL    HW2 5670   2.651   6.191   6.658
 1591SOL     OW 5671   0.148   5.352   2.550
 1591SOL    HW1 5672   0.138   5.342   2.649
 1591SOL    HW2 5673   0.059   5.373   2.509
 1592SOL     OW 5674   2.489   4.120   0.842
 1592SOL    HW1 5675   2.450   4.031   0.866
 1592SOL    HW2 5676   2.440   4.192   0.892
 1593SOL     OW 5677   0.970   6.151   4.129
 1593SOL    HW1 5678   0.952   6.156   4.228
 1593SOL    HW2 5679   1.014   6.064   4.108
 1594SOL     OW 5680   6.476   6.240   2.575
 1594SOL    HW1 5681   6.480   6.180   2.496
 1594SOL    HW2 5682   6.564   6.240   2.623
 1595SOL     OW 5683   1.490   5.211   7.012
 1595SOL    HW1 5684   1.497   5.243   6.918
 1595SOL    HW2 5685   1.556   5.260   0.052
 1596SOL     OW 5686   0.671   2.889   4.514
 1596SOL    HW1 5687   0.722   2.956   4.460
 1596SOL    HW2 5688   0.718   2.874   4.601
 1597SOL     OW 5689   2.123   6.525   6.648
 1597SOL    HW1 5690   2.064   6.452   6.611
 1597SOL    HW2 5691   2.147   6.504   6.742
 1598SOL     OW 5692   0.734   3.698   6.856
 1598SOL    HW1 5693   0.831   3.679   6.840
 1598SOL    HW2 5694   0.715   3.696   6.955
 1599SOL     OW 5695   4.602   4.194   6.085
 1599SOL    HW1 5696   4.604   4.128   6.009
 1599SOL    HW2 5697   4.509   4.201   6.120
 1600SOL     OW 5698   4.988   1.795   4.906
 1600SOL    HW1 5699   5.050   1.718   4.891
 1600SOL    HW2 5700   4.940   1.783   4.993
 1601SOL     OW 5701   0.094   4.787   4.352
 1601SOL    HW1 5702   0.008   4.796   4.402
 1601SOL    HW2 5703   0.089   4.837   4.266
 1602SOL     OW 5704   2.213   5.197   4.261
 1602SOL    HW1 5705   2.163   5.214   4.346
 1602SOL    HW2 5706   2.276   5.272   4.243
 1603SOL     OW 5707   6.587   5.899   2.758
 1603SOL    HW1 5708   6.503   5.868   2.802
 1603SOL    HW2 5709   6.646   5.943   2.826
 1604SOL     OW 5710   6.469   4.316   0.255
 1604SOL    HW1 5711   6.460   4.229   0.304
 1604SOL    HW2 5712   6.453   4.302   0.158
 1605SOL     OW 5713   6.239   6.443   2.381
 1605SOL    HW1 5714   6.323   6.457   2.328
 1605SOL    HW2 5715   6.226   6.346   2.399
 1606SOL     OW 5716   3.348   0.447   5.192
 1606SOL    HW1 5717   3.296   0.525   5.158
 1606SOL    HW2 5718   3.441   0.450   5.154
 1607SOL     OW 5719   3.924   2.299   0.499
 1607SOL    HW1 5720   3.923   2.391   0.460
 1607SOL    HW2 5721   3.964   2.301   0.590
 1608SOL     OW 5722   1.234   0.257   4.671
 1608SOL    HW1 5723   1.238   0.348   4.628
 1608SOL    HW2 5724   1.213   0.268   4.768
 1609SOL     OW 5725   4.618   0.147   0.433
 1609SOL    HW1 5726   4.608   0.089   0.514
 1609SOL    HW2 5727   4.707   0.192   0.434
 1610SOL     OW 5728   5.816   4.284   5.864
 1610SOL    HW1 5729   5.793   4.215   5.795
 1610SOL    HW2 5730   5.732   4.328   5.895
 1611SOL     OW 5731   3.134   3.573   1.870
 1611SOL    HW1 5732   3.134   3.652   1.808
 1611SOL    HW2 5733   3.208   3.511   1.845
 1612SOL     OW 5734   2.593   1.258   4.904
 1612SOL    HW1 5735   2.555   1.330   4.963
 1612SOL    HW2 5736   2.658   1.299   4.840
 1613SOL     OW 5737   2.045   5.831   1.446
 1613SOL    HW1 5738   2.130   5.793   1.408
 1613SOL    HW2 5739   1.975   5.760   1.449
 1614SOL     OW 5740   6.256   3.724   0.342
 1614SOL    HW1 5741   6.323   3.690   0.276
 1614SOL    HW2 5742   6.188   3.653   0.360
 1615SOL     OW 5743   6.380   5.217   0.671
 1615SOL    HW1 5744   6.478   5.228   0.656
 1615SOL    HW2 5745   6.355   5.260   0.758
 1616SOL     OW 5746   3.559   1.735   4.631
 1616SOL    HW1 5747   3.618   1.752   4.709
 1616SOL    HW2 5748   3.471   1.780   4.645
 1617SOL     OW 5749   6.056   0.275   1.859
 1617SOL    HW1 5750   5.987   0.348   1.859
 1617SOL    HW2 5751   6.043   0.217   1.779
 1618SOL     OW 5752   1.082   3.463   1.508
 1618SOL    HW1 5753   1.079   3.395   1.581
 1618SOL    HW2 5754   0.989   3.479   1.474
 1619SOL     OW 5755   0.893   2.426   3.015
 1619SOL    HW1 5756   0.866   2.330   3.023
 1619SOL    HW2 5757   0.993   2.432   3.009
 1620SOL     OW 5758   2.600   5.439   1.088
 1620SOL    HW1 5759   2.604   5.464   0.992
 1620SOL    HW2 5760   2.660   5.498   1.141
 1621SOL     OW 5761   0.930   1.127   0.167
 1621SOL    HW1 5762   0.887   1.195   0.227
 1621SOL    HW2 5763   0.939   1.166   0.075
 1622SOL     OW 5764   0.576   2.387   4.996
 1622SOL    HW1 5765   0.556   2.470   5.047
 1622SOL    HW2 5766   0.649   2.404   4.930
 1623SOL     OW 5767   2.421   3.371   5.288
 1623SOL    HW1 5768   2.507   3.410   5.255
 1623SOL    HW2 5769   2.422   3.368   5.388
 1624SOL     OW 5770   2.946   1.217   5.203
 1624SOL    HW1 5771   2.968   1.248   5.110
 1624SOL    HW2 5772   2.898   1.129   5.198
 1625SOL     OW 5773   1.512   5.192   1.616
 1625SOL    HW1 5774   1.564   5.144   1.687
 1625SOL    HW2 5775   1.436   5.242   1.658
 1626SOL     OW 5776   3.467   2.208   6.657
 1626SOL    HW1 5777   3.438   2.164   6.572
 1626SOL    HW2 5778   3.407   2.179   6.732
 1627SOL     OW 5779   6.532   2.630   3.683
 1627SOL    HW1 5780   6.616   2.685   3.684
 1627SOL    HW2 5781   6.534   2.566   3.760
 1628SOL     OW 5782   4.362   4.956   6.961
 1628SOL    HW1 5783   4.314   4.984   6.878
 1628SOL    HW2 5784   4.441   5.016   6.975
 1629SOL     OW 5785   2.929   1.480   4.036
 1629SOL    HW1 5786   2.908   1.472   3.938
 1629SOL    HW2 5787   3.018   1.439   4.055
 1630SOL     OW 5788   1.265   6.449   5.757
 1630SOL    HW1 5789   1.307   6.513   5.693
 1630SOL    HW2 5790   1.316   6.449   5.843
 1631SOL     OW 5791   0.468   1.729   6.292
 1631SOL    HW1 5792   0.417   1.803   6.249
 1631SOL    HW2 5793   0.461   1.737   6.392
 1632SOL     OW 5794   0.156   1.583   0.350
 1632SOL    HW1 5795   0.063   1.573   0.385
 1632SOL    HW2 5796   0.222   1.556   0.420
 1633SOL     OW 5797   4.862   2.420   4.000
 1633SOL    HW1 5798   4.876   2.326   3.968
 1633SOL    HW2 5799   4.773   2.453   3.971
 1634SOL     OW 5800   3.954   4.485   6.129
 1634SOL    HW1 5801   3.958   4.487   6.229
 1634SOL    HW2 5802   3.866   4.522   6.098
 1635SOL     OW 5803   6.745   5.566   5.698
 1635SOL    HW1 5804   6.836   5.540   5.730
 1635SOL    HW2 5805   6.728   5.523   5.609
 1636SOL     OW 5806   2.393   4.276   1.393
 1636SOL    HW1 5807   2.304   4.317   1.375
 1636SOL    HW2 5808   2.427   4.231   1.311
 1637SOL     OW 5809   0.266   0.525   2.902
 1637SOL    HW1 5810   0.293   0.461   2.830
 1637SOL    HW2 5811   0.340   0.533   2.968
 1638SOL     OW 5812   0.316   4.413   3.708
 1638SOL    HW1 5813   0.367   4.328   3.696
 1638SOL    HW2 5814   0.380   4.489   3.718
 1639SOL     OW 5815   4.067   6.891   3.199
 1639SOL    HW1 5816   4.025   6.800   3.203
 1639SOL    HW2 5817   4.159   6.884   3.159
 1640SOL     OW 5818   5.877   1.291   0.974
 1640SOL    HW1 5819   5.947   1.231   0.936
 1640SOL    HW2 5820   5.910   1.385   0.973
 1641SOL     OW 5821   5.491   2.567   4.183
 1641SOL    HW1 5822   5.571   2.507   4.176
 1641SOL    HW2 5823   5.409   2.512   4.199
 1642SOL     OW 5824   5.915   3.295   6.889
 1642SOL    HW1 5825   5.943   3.375   6.836
 1642SOL    HW2 5826   5.817   3.279   6.875
 1643SOL     OW 5827   3.038   4.828   3.948
 1643SOL    HW1 5828   3.135   4.839   3.971
 1643SOL    HW2 5829   3.029   4.763   3.873
 1644SOL     OW 5830   0.593   3.100   1.183
 1644SOL    HW1 5831   0.547   3.112   1.095
 1644SOL    HW2 5832   0.667   3.167   1.191
 1645SOL     OW 5833   2.829   6.405   5.542
 1645SOL    HW1 5834   2.831   6.340   5.467
 1645SOL    HW2 5835   2.757   6.472   5.527
 1646SOL     OW 5836   2.120   6.888   0.825
 1646SOL    HW1 5837   2.067   6.804   0.835
 1646SOL    HW2 5838   2.189   6.875   0.754
 1647SOL     OW 5839   6.031   2.627   4.605
 1647SOL    HW1 5840   6.082   2.561   4.550
 1647SOL    HW2 5841   5.968   2.678   4.546
 1648SOL     OW 5842   6.158   5.841   1.155
 1648SOL    HW1 5843   6.185   5.745   1.158
 1648SOL    HW2 5844   6.181   5.879   1.066
 1649SOL     OW 5845   4.187   6.955   4.094
 1649SOL    HW1 5846   4.121   6.981   4.023
 1649SOL    HW2 5847   4.280   6.965   4.058
 1650SOL     OW 5848   1.721   0.070   4.973
 1650SOL    HW1 5849   1.682   0.109   4.890
 1650SOL    HW2 5850   1.687   0.121   5.053
 1651SOL     OW 5851   0.625   0.871   1.959
 1651SOL    HW1 5852   0.543   0.916   1.996
 1651SOL    HW2 5853   0.656   0.921   1.879
 1652SOL     OW 5854   1.934   3.279   1.590
 1652SOL    HW1 5855   1.958   3.365   1.634
 1652SOL    HW2 5856   1.858   3.237   1.640
 1653SOL     OW 5857   0.631   6.962   1.204
 1653SOL    HW1 5858   0.541   6.935   1.168
 1653SOL    HW2 5859   0.655   6.902   1.281
 1654SOL     OW 5860   6.288   2.990   2.148
 1654SOL    HW1 5861   6.338   3.066   2.105
 1654SOL    HW2 5862   6.297   2.908   2.091
 1655SOL     OW 5863   6.002   2.654   4.877
 1655SOL    HW1 5864   5.999   2.751   4.901
 1655SOL    HW2 5865   6.029   2.644   4.781
 1656SOL     OW 5866   1.829   4.547   2.566
 1656SOL    HW1 5867   1.784   4.468   2.524
 1656SOL    HW2 5868   1.838   4.620   2.498
 1657SOL     OW 5869   6.995   0.825   4.423
 1657SOL    HW1 5870   6.934   0.848   4.499
 1657SOL    HW2 5871   6.975   0.733   4.390
 1658SOL     OW 5872   0.920   0.233   2.051
 1658SOL    HW1 5873   0.931   0.167   1.977
 1658SOL    HW2 5874   0.851   0.199   2.116
 1659SOL     OW 5875   4.101   1.083   5.851
 1659SOL    HW1 5876   4.191   1.061   5.889
 1659SOL    HW2 5877   4.039   1.109   5.925
 1660SOL     OW 5878   1.136   4.856   3.975
 1660SOL    HW1 5879   1.112   4.952   3.990
 1660SOL    HW2 5880   1.186   4.822   4.054
 1661SOL     OW 5881   3.074   1.317   1.876
 1661SOL    HW1 5882   3.093   1.308   1.974
 1661SOL    HW2 5883   3.151   1.363   1.831
 1662SOL     OW 5884   6.516   1.048   4.306
 1662SOL    HW1 5885   6.528   1.094   4.218
 1662SOL    HW2 5886   6.508   0.950   4.291
 1663SOL     OW 5887   2.954   0.635   3.071
 1663SOL    HW1 5888   3.012   0.612   2.993
 1663SOL    HW2 5889   3.010   0.674   3.144
 1664SOL     OW 5890   2.282   0.125   3.673
 1664SOL    HW1 5891   2.323   0.189   3.738
 1664SOL    HW2 5892   2.212   0.072   3.719
 1665SOL     OW 5893   0.226   1.302   2.724
 1665SOL    HW1 5894   0.288   1.258   2.789
 1665SOL    HW2 5895   0.196   1.236   2.656
 1666SOL     OW 5896   5.245   3.262   0.518
 1666SOL    HW1 5897   5.148   3.241   0.533
 1666SOL    HW2 5898   5.293   3.180   0.489
 1667SOL     OW 5899   6.046   6.843   1.281
 1667SOL    HW1 5900   6.037   6.747   1.307
 1667SOL    HW2 5901   6.003   6.858   1.193
 1668SOL     OW 5902   5.200   5.785   5.404
 1668SOL    HW1 5903   5.293   5.790   5.369
 1668SOL    HW2 5904   5.144   5.729   5.342
 1669SOL     OW 5905   6.305   6.455   6.879
 1669SOL    HW1 5906   6.324   6.362   6.910
 1669SOL    HW2 5907   6.336   6.521   6.948
 1670SOL     OW 5908   6.985   4.986   6.519
 1670SOL    HW1 5909   6.905   4.950   6.470
 1670SOL    HW2 5910   6.959   5.066   6.572
 1671SOL     OW 5911   4.567   2.730   1.014
 1671SOL    HW1 5912   4.645   2.702   0.957
 1671SOL    HW2 5913   4.486   2.679   0.986
 1672SOL     OW 5914   2.084   3.933   2.021
 1672SOL    HW1 5915   2.102   3.891   2.110
 1672SOL    HW2 5916   1.995   3.903   1.987
 1673SOL     OW 5917   6.729   2.030   4.901
 1673SOL    HW1 5918   6.820   2.046   4.939
 1673SOL    HW2 5919   6.707   1.932   4.906
 1674SOL     OW 5920   0.503   4.116   2.275
 1674SOL    HW1 5921   0.510   4.038   2.338
 1674SOL    HW2 5922   0.563   4.190   2.307
 1675SOL     OW 5923   4.471   0.505   5.798
 1675SOL    HW1 5924   4.522   0.419   5.787
 1675SOL    HW2 5925   4.388   0.501   5.744
 1676SOL     OW 5926   3.218   1.028   2.386
 1676SOL    HW1 5927   3.163   1.076   2.454
 1676SOL    HW2 5928   3.214   0.930   2.403
 1677SOL     OW 5929   4.107   3.101   5.324
 1677SOL    HW1 5930   4.083   3.035   5.254
 1677SOL    HW2 5931   4.025   3.130   5.373
 1678SOL     OW 5932   4.735   4.598   5.206
 1678SOL    HW1 5933   4.735   4.506   5.167
 1678SOL    HW2 5934   4.788   4.598   5.291
 1679SOL     OW 5935   2.102   3.220   4.918
 1679SOL    HW1 5936   2.081   3.141   4.860
 1679SOL    HW2 5937   2.169   3.193   4.987
 1680SOL     OW 5938   0.690   2.334   4.283
 1680SOL    HW1 5939   0.767   2.308   4.341
 1680SOL    HW2 5940   0.718   2.404   4.218
 1681SOL     OW 5941   6.475   5.935   1.539
 1681SOL    HW1 5942   6.391   5.916   1.590
 1681SOL    HW2 5943   6.471   6.029   1.503
 1682SOL     OW 5944   0.023   2.354   4.894
 1682SOL    HW1 5945   0.113   2.312   4.888
 1682SOL    HW2 5946   0.032   2.454   4.894
 1683SOL     OW 5947   4.138   5.728   0.789
 1683SOL    HW1 5948   4.217   5.689   0.742
 1683SOL    HW2 5949   4.076   5.655   0.816
 1684SOL     OW 5950   1.050   6.091   2.777
 1684SOL    HW1 5951   1.083   6.019   2.839
 1684SOL    HW2 5952   1.027   6.050   2.689
 1685SOL     OW 5953   2.639   1.111   6.160
 1685SOL    HW1 5954   2.579   1.109   6.080
 1685SOL    HW2 5955   2.635   1.022   6.206
 1686SOL     OW 5956   1.864   4.652   5.309
 1686SOL    HW1 5957   1.848   4.706   5.391
 1686SOL    HW2 5958   1.930   4.579   5.329
 1687SOL     OW 5959   2.511   2.914   1.264
 1687SOL    HW1 5960   2.585   2.935   1.199
 1687SOL    HW2 5961   2.547   2.859   1.339
 1688SOL     OW 5962   1.760   2.455   3.769
 1688SOL    HW1 5963   1.768   2.358   3.792
 1688SOL    HW2 5964   1.674   2.471   3.720
 1689SOL     OW 5965   4.487   0.652   1.872
 1689SOL    HW1 5966   4.541   0.585   1.820
 1689SOL    HW2 5967   4.509   0.744   1.840
 1690SOL     OW 5968   1.144   3.409   3.303
 1690SOL    HW1 5969   1.238   3.393   3.274
 1690SOL    HW2 5970   1.131   3.375   3.396
 1691SOL     OW 5971   5.271   3.763   3.474
 1691SOL    HW1 5972   5.343   3.791   3.411
 1691SOL    HW2 5973   5.307   3.693   3.536
 1692SOL     OW 5974   6.079   0.462   1.539
 1692SOL    HW1 5975   6.091   0.547   1.487
 1692SOL    HW2 5976   6.065   0.484   1.636
 1693SOL     OW 5977   0.322   2.094   2.793
 1693SOL    HW1 5978   0.313   1.996   2.809
 1693SOL    HW2 5979   0.359   2.110   2.701
 1694SOL     OW 5980   5.121   0.474   3.855
 1694SOL    HW1 5981   5.181   0.503   3.781
 1694SOL    HW2 5982   5.039   0.531   3.856
 1695SOL     OW 5983   2.593   1.370   5.804
 1695SOL    HW1 5984   2.631   1.442   5.862
 1695SOL    HW2 5985   2.538   1.410   5.732
 1696SOL     OW 5986   5.002   4.749   0.672
 1696SOL    HW1 5987   4.921   4.774   0.726
 1696SOL    HW2 5988   4.975   4.732   0.577
 1697SOL     OW 5989   5.412   6.004   2.086
 1697SOL    HW1 5990   5.436   5.933   2.019
 1697SOL    HW2 5991   5.490   6.065   2.098
 1698SOL     OW 5992   4.807   0.849   0.887
 1698SOL    HW1 5993   4.763   0.819   0.972
 1698SOL    HW2 5994   4.856   0.772   0.846
 1699SOL     OW 5995   2.914   1.478   1.318
 1699SOL    HW1 5996   2.996   1.500   1.371
 1699SOL    HW2 5997   2.852   1.556   1.318
 1700SOL     OW 5998   6.570   2.257   3.436
 1700SOL    HW1 5999   6.632   2.332   3.410
 1700SOL    HW2 6000   6.537   2.271   3.529
 1701SOL     OW 6001   5.411   3.332   5.459
 1701SOL    HW1 6002   5.428   3.284   5.545
 1701SOL    HW2 6003   5.313   3.329   5.439
 1702SOL     OW 6004   0.072   3.097   0.821
 1702SOL    HW1 6005   0.140   3.155   0.776
 1702SOL    HW2 6006   0.117   3.013   0.854
 1703SOL     OW 6007   3.840   3.501   3.138
 1703SOL    HW1 6008   3.823   3.430   3.070
 1703SOL    HW2 6009   3.858   3.459   3.227
 1704SOL     OW 6010   0.688   1.177   2.073
 1704SOL    HW1 6011   0.657   1.096   2.024
 1704SOL    HW2 6012   0.705   1.251   2.007
 1705SOL     OW 6013   3.587   2.154   1.659
 1705SOL    HW1 6014   3.567   2.227   1.724
 1705SOL    HW2 6015   3.672   2.108   1.685
 1706SOL     OW 6016   4.710   0.455   1.436
 1706SOL    HW1 6017   4.711   0.554   1.423
 1706SOL    HW2 6018   4.749   0.410   1.356
 1707SOL     OW 6019   4.741   2.032   3.168
 1707SOL    HW1 6020   4.822   2.090   3.182
 1707SOL    HW2 6021   4.770   1.941   3.141
 1708SOL     OW 6022   4.568   5.274   2.214
 1708SOL    HW1 6023   4.538   5.234   2.301
 1708SOL    HW2 6024   4.593   5.201   2.151
 1709SOL     OW 6025   2.647   5.831   1.708
 1709SOL    HW1 6026   2.745   5.811   1.707
 1709SOL    HW2 6027   2.596   5.745   1.707
 1710SOL     OW 6028   5.692   4.575   3.693
 1710SOL    HW1 6029   5.639   4.490   3.698
 1710SOL    HW2 6030   5.682   4.616   3.602
 1711SOL     OW 6031   1.334   4.353   4.668
 1711SOL    HW1 6032   1.361   4.449   4.662
 1711SOL    HW2 6033   1.381   4.301   4.597
 1712SOL     OW 6034   0.948   2.651   6.530
 1712SOL    HW1 6035   0.966   2.748   6.512
 1712SOL    HW2 6036   0.926   2.604   6.444
 1713SOL     OW 6037   3.654   2.619   1.274
 1713SOL    HW1 6038   3.751   2.641   1.263
 1713SOL    HW2 6039   3.644   2.521   1.290
 1714SOL     OW 6040   4.682   1.707   5.840
 1714SOL    HW1 6041   4.584   1.714   5.820
 1714SOL    HW2 6042   4.719   1.797   5.860
 1715SOL     OW 6043   6.662   3.941   2.321
 1715SOL    HW1 6044   6.719   3.865   2.351
 1715SOL    HW2 6045   6.572   3.935   2.365
 1716SOL     OW 6046   4.779   6.879   2.343
 1716SOL    HW1 6047   4.770   6.940   2.422
 1716SOL    HW2 6048   4.689   6.845   2.317
 1717SOL     OW 6049   1.992   0.039   6.299
 1717SOL    HW1 6050   1.996   6.957   6.281
 1717SOL    HW2 6051   2.056   0.086   6.238
 1718SOL     OW 6052   2.052   1.932   1.504
 1718SOL    HW1 6053   2.133   1.955   1.450
 1718SOL    HW2 6054   2.072   1.945   1.601
 1719SOL     OW 6055   2.287   4.347   1.082
 1719SOL    HW1 6056   2.321   4.254   1.100
 1719SOL    HW2 6057   2.233   4.378   1.159
 1720SOL     OW 6058   6.697   1.411   1.060
 1720SOL    HW1 6059   6.746   1.388   0.977
 1720SOL    HW2 6060   6.679   1.328   1.113
 1721SOL     OW 6061   0.882   6.568   3.084
 1721SOL    HW1 6062   0.913   6.586   3.178
 1721SOL    HW2 6063   0.958   6.531   3.031
 1722SOL     OW 6064   4.702   1.781   3.772
 1722SOL    HW1 6065   4.667   1.687   3.775
 1722SOL    HW2 6066   4.632   1.843   3.806
 1723SOL     OW 6067   6.513   2.719   2.770
 1723SOL    HW1 6068   6.436   2.655   2.766
 1723SOL    HW2 6069   6.554   2.727   2.680
 1724SOL     OW 6070   6.053   2.030   0.866
 1724SOL    HW1 6071   5.975   1.978   0.832
 1724SOL    HW2 6072   6.125   1.966   0.895
 1725SOL     OW 6073   2.701   4.980   0.025
 1725SOL    HW1 6074   2.719   4.966   0.122
 1725SOL    HW2 6075   2.782   4.952   6.989
 1726SOL     OW 6076   5.603   3.944   5.385
 1726SOL    HW1 6077   5.529   3.933   5.319
 1726SOL    HW2 6078   5.615   3.859   5.436
 1727SOL     OW 6079   3.619   2.896   4.534
 1727SOL    HW1 6080   3.642   2.914   4.629
 1727SOL    HW2 6081   3.578   2.978   4.493
 1728SOL     OW 6082   6.171   5.488   4.634
 1728SOL    HW1 6083   6.172   5.565   4.698
 1728SOL    HW2 6084   6.076   5.463   4.614
 1729SOL     OW 6085   2.094   4.086   3.492
 1729SOL    HW1 6086   2.140   4.062   3.406
 1729SOL    HW2 6087   2.003   4.122   3.472
 1730SOL     OW 6088   6.246   0.051   5.181
 1730SOL    HW1 6089   6.228   0.058   5.279
 1730SOL    HW2 6090   6.173   7.013   5.138
 1731SOL     OW 6091   0.620   5.248   1.990
 1731SOL    HW1 6092   0.663   5.324   2.038
 1731SOL    HW2 6093   0.527   5.273   1.962
 1732SOL     OW 6094   2.216   4.255   5.637
 1732SOL    HW1 6095   2.281   4.329   5.622
 1732SOL    HW2 6096   2.187   4.217   5.549
 1733SOL     OW 6097   1.326   3.768   2.463
 1733SOL    HW1 6098   1.297   3.858   2.498
 1733SOL    HW2 6099   1.300   3.697   2.528
 1734SOL     OW 6100   4.880   3.220   1.871
 1734SOL    HW1 6101   4.922   3.208   1.781
 1734SOL    HW2 6102   4.848   3.131   1.904
 1735SOL     OW 6103   6.097   5.910   1.498
 1735SOL    HW1 6104   6.091   6.001   1.456
 1735SOL    HW2 6105   6.173   5.860   1.458
 1736SOL     OW 6106   3.922   2.221   1.489
 1736SOL    HW1 6107   3.852   2.280   1.528
 1736SOL    HW2 6108   3.947   2.151   1.556
 1737SOL     OW 6109   3.142   1.276   4.361
 1737SOL    HW1 6110   3.240   1.264   4.377
 1737SOL    HW2 6111   3.102   1.191   4.326
 1738SOL     OW 6112   2.192   1.438   3.696
 1738SOL    HW1 6113   2.169   1.523   3.742
 1738SOL    HW2 6114   2.212   1.457   3.600
 1739SOL     OW 6115   5.279   2.420   5.627
 1739SOL    HW1 6116   5.363   2.368   5.613
 1739SOL    HW2 6117   5.300   2.518   5.624
 1740SOL     OW 6118   0.536   2.075   6.534
 1740SOL    HW1 6119   0.557   2.020   6.453
 1740SOL    HW2 6120   0.545   2.172   6.511
 1741SOL     OW 6121   2.292   0.725   4.020
 1741SOL    HW1 6122   2.279   0.822   4.040
 1741SOL    HW2 6123   2.381   0.712   3.976
 1742SOL     OW 6124   4.497   6.010   5.835
 1742SOL    HW1 6125   4.429   5.968   5.896
 1742SOL    HW2 6126   4.452   6.049   5.756
 1743SOL     OW 6127   2.235   1.955   2.388
 1743SOL    HW1 6128   2.303   1.986   2.322
 1743SOL    HW2 6129   2.184   1.878   2.349
 1744SOL     OW 6130   0.565   0.448   1.441
 1744SOL    HW1 6131   0.493   0.384   1.416
 1744SOL    HW2 6132   0.534   0.504   1.518
 1745SOL     OW 6133   6.648   0.482   3.936
 1745SOL    HW1 6134   6.612   0.419   3.867
 1745SOL    HW2 6135   6.741   0.453   3.960
 1746SOL     OW 6136   2.262   5.182   5.316
 1746SOL    HW1 6137   2.228   5.158   5.225
 1746SOL    HW2 6138   2.362   5.190   5.313
 1747SOL     OW 6139   5.707   1.250   3.100
 1747SOL    HW1 6140   5.609   1.229   3.101
 1747SOL    HW2 6141   5.743   1.236   3.007
 1748SOL     OW 6142   0.583   0.985   3.616
 1748SOL    HW1 6143   0.568   1.077   3.652
 1748SOL    HW2 6144   0.542   0.978   3.525
 1749SOL     OW 6145   2.850   6.886   5.404
 1749SOL    HW1 6146   2.892   6.825   5.472
 1749SOL    HW2 6147   2.792   6.953   5.451
 1750SOL     OW 6148   6.643   0.048   3.408
 1750SOL    HW1 6149   6.621   0.029   3.312
 1750SOL    HW2 6150   6.559   0.071   3.457
 1751SOL     OW 6151   3.876   6.318   4.892
 1751SOL    HW1 6152   3.851   6.227   4.860
 1751SOL    HW2 6153   3.807   6.351   4.957
 1752SOL     OW 6154   7.010   2.173   2.530
 1752SOL    HW1 6155   6.955   2.089   2.530
 1752SOL    HW2 6156   6.950   2.251   2.512
 1753SOL     OW 6157   7.002   2.381   1.109
 1753SOL    HW1 6158   6.995   2.292   1.063
 1753SOL    HW2 6159   6.939   2.446   1.066
 1754SOL     OW 6160   3.449   3.402   1.283
 1754SOL    HW1 6161   3.515   3.443   1.221
 1754SOL    HW2 6162   3.498   3.360   1.360
 1755SOL     OW 6163   5.899   5.705   2.690
 1755SOL    HW1 6164   5.875   5.608   2.683
 1755SOL    HW2 6165   5.875   5.751   2.605
 1756SOL     OW 6166   4.018   4.187   6.325
 1756SOL    HW1 6167   4.021   4.271   6.380
 1756SOL    HW2 6168   4.003   4.211   6.229
 1757SOL     OW 6169   2.659   5.177   4.860
 1757SOL    HW1 6170   2.687   5.255   4.805
 1757SOL    HW2 6171   2.561   5.184   4.879
 1758SOL     OW 6172   2.911   0.553   3.899
 1758SOL    HW1 6173   2.970   0.632   3.882
 1758SOL    HW2 6174   2.863   0.530   3.814
 1759SOL     OW 6175   1.019   4.757   5.737
 1759SOL    HW1 6176   0.968   4.821   5.680
 1759SOL    HW2 6177   1.114   4.753   5.706
 1760SOL     OW 6178   5.999   1.976   1.689
 1760SOL    HW1 6179   5.958   1.961   1.599
 1760SOL    HW2 6180   5.933   2.020   1.749
 1761SOL     OW 6181   0.117   0.733   0.703
 1761SOL    HW1 6182   0.187   0.774   0.762
 1761SOL    HW2 6183   0.043   0.696   0.760
 1762SOL     OW 6184   6.670   1.728   4.945
 1762SOL    HW1 6185   6.728   1.747   5.024
 1762SOL    HW2 6186   6.724   1.682   4.874
 1763SOL     OW 6187   2.077   3.650   4.006
 1763SOL    HW1 6188   2.052   3.553   3.997
 1763SOL    HW2 6189   2.035   3.688   4.088
 1764SOL     OW 6190   2.193   3.928   2.701
 1764SOL    HW1 6191   2.099   3.929   2.735
 1764SOL    HW2 6192   2.197   3.880   2.614
 1765SOL     OW 6193   3.857   1.977   6.773
 1765SOL    HW1 6194   3.956   1.991   6.768
 1765SOL    HW2 6195   3.813   2.028   6.699
 1766SOL     OW 6196   5.336   3.407   3.426
 1766SOL    HW1 6197   5.285   3.321   3.437
 1766SOL    HW2 6198   5.299   3.457   3.347
 1767SOL     OW 6199   6.524   3.906   3.018
 1767SOL    HW1 6200   6.610   3.855   3.014
 1767SOL    HW2 6201   6.479   3.888   3.106
 1768SOL     OW 6202   3.425   1.239   4.430
 1768SOL    HW1 6203   3.417   1.328   4.475
 1768SOL    HW2 6204   3.520   1.220   4.409
 1769SOL     OW 6205   4.193   2.184   5.041
 1769SOL    HW1 6206   4.161   2.276   5.067
 1769SOL    HW2 6207   4.132   2.115   5.081
 1770SOL     OW 6208   0.172   5.185   4.723
 1770SOL    HW1 6209   0.110   5.257   4.753
 1770SOL    HW2 6210   0.167   5.176   4.624
 1771SOL     OW 6211   2.321   5.300   6.773
 1771SOL    HW1 6212   2.350   5.368   6.840
 1771SOL    HW2 6213   2.375   5.309   6.690
 1772SOL     OW 6214   2.935   6.571   3.446
 1772SOL    HW1 6215   2.974   6.653   3.489
 1772SOL    HW2 6216   2.871   6.528   3.509
 1773SOL     OW 6217   2.792   4.839   6.284
 1773SOL    HW1 6218   2.803   4.863   6.381
 1773SOL    HW2 6219   2.697   4.853   6.257
 1774SOL     OW 6220   4.403   0.123   1.932
 1774SOL    HW1 6221   4.320   0.128   1.987
 1774SOL    HW2 6222   4.403   0.197   1.865
 1775SOL     OW 6223   1.222   4.430   3.882
 1775SOL    HW1 6224   1.145   4.494   3.885
 1775SOL    HW2 6225   1.209   4.365   3.807
 1776SOL     OW 6226   3.571   0.503   4.439
 1776SOL    HW1 6227   3.577   0.557   4.355
 1776SOL    HW2 6228   3.654   0.516   4.493
 1777SOL     OW 6229   3.326   4.917   6.012
 1777SOL    HW1 6230   3.255   4.902   5.943
 1777SOL    HW2 6231   3.348   5.014   6.017
 1778SOL     OW 6232   4.934   2.787   5.847
 1778SOL    HW1 6233   4.939   2.886   5.841
 1778SOL    HW2 6234   4.911   2.750   5.756
 1779SOL     OW 6235   4.408   0.925   4.817
 1779SOL    HW1 6236   4.366   1.006   4.857
 1779SOL    HW2 6237   4.508   0.936   4.817
 1780SOL     OW 6238   2.457   3.306   6.039
 1780SOL    HW1 6239   2.407   3.233   5.993
 1780SOL    HW2 6240   2.423   3.395   6.010
 1781SOL     OW 6241   4.328   5.834   4.106
 1781SOL    HW1 6242   4.320   5.883   4.193
 1781SOL    HW2 6243   4.282   5.745   4.114
 1782SOL     OW 6244   2.737   2.182   2.592
 1782SOL    HW1 6245   2.764   2.230   2.509
 1782SOL    HW2 6246   2.795   2.213   2.668
 1783SOL     OW 6247   1.241   4.096   6.556
 1783SOL    HW1 6248   1.222   4.194   6.559
 1783SOL    HW2 6249   1.166   4.050   6.508
 1784SOL     OW 6250   3.485   1.203   4.813
 1784SOL    HW1 6251   3.537   1.138   4.758
 1784SOL    HW2 6252   3.470   1.287   4.760
 1785SOL     OW 6253   6.098   5.456   3.896
 1785SOL    HW1 6254   6.028   5.505   3.844
 1785SOL    HW2 6255   6.124   5.511   3.976
 1786SOL     OW 6256   1.348   2.642   1.329
 1786SOL    HW1 6257   1.304   2.729   1.351
 1786SOL    HW2 6258   1.278   2.576   1.302
 1787SOL     OW 6259   2.571   0.751   4.743
 1787SOL    HW1 6260   2.655   0.713   4.704
 1787SOL    HW2 6261   2.528   0.812   4.676
 1788SOL     OW 6262   3.427   2.713   0.098
 1788SOL    HW1 6263   3.406   2.625   0.140
 1788SOL    HW2 6264   3.488   2.700   0.021
 1789SOL     OW 6265   6.043   1.513   2.658
 1789SOL    HW1 6266   6.020   1.507   2.561
 1789SOL    HW2 6267   5.960   1.504   2.712
 1790SOL     OW 6268   4.206   6.506   3.932
 1790SOL    HW1 6269   4.270   6.536   4.002
 1790SOL    HW2 6270   4.113   6.512   3.968
 1791SOL     OW 6271   6.819   1.399   3.952
 1791SOL    HW1 6272   6.902   1.353   3.984
 1791SOL    HW2 6273   6.842   1.491   3.921
 1792SOL     OW 6274   0.255   2.388   4.078
 1792SOL    HW1 6275   0.354   2.383   4.065
 1792SOL    HW2 6276   0.234   2.379   4.176
 1793SOL     OW 6277   0.208   0.024   3.638
 1793SOL    HW1 6278   0.218   6.970   3.568
 1793SOL    HW2 6279   0.190   0.112   3.594
 1794SOL     OW 6280   5.980   5.990   6.036
 1794SOL    HW1 6281   6.075   5.993   6.068
 1794SOL    HW2 6282   5.919   5.979   6.114
 1795SOL     OW 6283   6.966   2.890   2.138
 1795SOL    HW1 6284   7.001   2.887   2.232
 1795SOL    HW2 6285   6.966   2.797   2.100
 1796SOL     OW 6286   2.733   0.635   4.349
 1796SOL    HW1 6287   2.806   0.703   4.356
 1796SOL    HW2 6288   2.694   0.636   4.257
 1797SOL     OW 6289   1.097   0.664   6.591
 1797SOL    HW1 6290   1.161   0.714   6.649
 1797SOL    HW2 6291   1.109   0.565   6.605
 1798SOL     OW 6292   5.201   2.130   4.437
 1798SOL    HW1 6293   5.290   2.138   4.393
 1798SOL    HW2 6294   5.131   2.176   4.381
 1799SOL     OW 6295   6.340   1.944   6.113
 1799SOL    HW1 6296   6.387   1.886   6.180
 1799SOL    HW2 6297   6.403   2.012   6.078
 1800SOL     OW 6298   4.222   4.895   2.612
 1800SOL    HW1 6299   4.269   4.976   2.647
 1800SOL    HW2 6300   4.233   4.890   2.513
 1801SOL     OW 6301   0.337   0.676   2.195
 1801SOL    HW1 6302   0.420   0.627   2.169
 1801SOL    HW2 6303   0.301   0.725   2.116
 1802SOL     OW 6304   5.323   5.302   2.277
 1802SOL    HW1 6305   5.312   5.401   2.282
 1802SOL    HW2 6306   5.387   5.272   2.348
 1803SOL     OW 6307   6.940   5.988   6.945
 1803SOL    HW1 6308   6.993   6.059   6.991
 1803SOL    HW2 6309   7.002   5.916   6.914
 1804SOL     OW 6310   2.270   4.017   5.773
 1804SOL    HW1 6311   2.232   4.099   5.730
 1804SOL    HW2 6312   2.347   3.984   5.719
 1805SOL     OW 6313   6.576   3.663   5.470
 1805SOL    HW1 6314   6.503   3.725   5.498
 1805SOL    HW2 6315   6.603   3.606   5.548
 1806SOL     OW 6316   1.010   1.379   0.426
 1806SOL    HW1 6317   0.934   1.401   0.365
 1806SOL    HW2 6318   1.028   1.281   0.424
 1807SOL     OW 6319   5.087   2.607   5.985
 1807SOL    HW1 6320   5.046   2.571   6.068
 1807SOL    HW2 6321   5.028   2.677   5.946
 1808SOL     OW 6322   0.391   3.391   5.514
 1808SOL    HW1 6323   0.300   3.414   5.479
 1808SOL    HW2 6324   0.415   3.452   5.589
 1809SOL     OW 6325   2.104   3.262   4.500
 1809SOL    HW1 6326   2.137   3.306   4.416
 1809SOL    HW2 6327   2.133   3.166   4.500
 1810SOL     OW 6328   3.034   0.663   4.510
 1810SOL    HW1 6329   3.002   0.739   4.454
 1810SOL    HW2 6330   3.123   0.685   4.549
 1811SOL     OW 6331   4.528   4.539   3.573
 1811SOL    HW1 6332   4.567   4.497   3.654
 1811SOL    HW2 6333   4.533   4.475   3.497
 1812SOL     OW 6334   4.153   6.474   6.015
 1812SOL    HW1 6335   4.075   6.490   6.076
 1812SOL    HW2 6336   4.209   6.557   6.011
 1813SOL     OW 6337   5.425   5.059   0.385
 1813SOL    HW1 6338   5.408   5.138   0.444
 1813SOL    HW2 6339   5.347   4.997   0.388
 1814SOL     OW 6340   6.577   1.214   0.266
 1814SOL    HW1 6341   6.674   1.236   0.264
 1814SOL    HW2 6342   6.565   1.125   0.311
 1815SOL     OW 6343   5.926   2.470   1.891
 1815SOL    HW1 6344   5.875   2.433   1.814
 1815SOL    HW2 6345   6.022   2.445   1.883
 1816SOL     OW 6346   2.347   3.942   0.478
 1816SOL    HW1 6347   2.364   4.011   0.407
 1816SOL    HW2 6348   2.435   3.907   0.511
 1817SOL     OW 6349   3.143   6.638   3.029
 1817SOL    HW1 6350   3.051   6.629   3.067
 1817SOL    HW2 6351   3.147   6.720   2.971
 1818SOL     OW 6352   1.786   6.460   1.877
 1818SOL    HW1 6353   1.731   6.441   1.796
 1818SOL    HW2 6354   1.783   6.382   1.938
 1819SOL     OW 6355   0.125   5.239   1.602
 1819SOL    HW1 6356   0.137   5.155   1.654
 1819SOL    HW2 6357   0.121   5.218   1.504
 1820SOL     OW 6358   4.690   0.873   2.289
 1820SOL    HW1 6359   4.662   0.778   2.275
 1820SOL    HW2 6360   4.629   0.934   2.239
 1821SOL     OW 6361   2.371   0.758   1.381
 1821SOL    HW1 6362   2.351   0.829   1.448
 1821SOL    HW2 6363   2.288   0.703   1.365
 1822SOL     OW 6364   1.722   2.765   1.637
 1822SOL    HW1 6365   1.624   2.769   1.620
 1822SOL    HW2 6366   1.762   2.692   1.582
 1823SOL     OW 6367   2.623   5.495   3.702
 1823SOL    HW1 6368   2.647   5.496   3.604
 1823SOL    HW2 6369   2.695   5.542   3.754
 1824SOL     OW 6370   3.625   3.336   1.521
 1824SOL    HW1 6371   3.709   3.391   1.515
 1824SOL    HW2 6372   3.648   3.239   1.507
 1825SOL     OW 6373   1.232   1.621   3.908
 1825SOL    HW1 6374   1.290   1.700   3.888
 1825SOL    HW2 6375   1.148   1.627   3.854
 1826SOL     OW 6376   3.406   0.185   0.822
 1826SOL    HW1 6377   3.346   0.206   0.899
 1826SOL    HW2 6378   3.351   0.151   0.745
 1827SOL     OW 6379   7.010   6.237   1.947
 1827SOL    HW1 6380   0.029   6.286   1.867
 1827SOL    HW2 6381   7.016   6.139   1.931
 1828SOL     OW 6382   1.181   2.524   0.933
 1828SOL    HW1 6383   1.175   2.435   0.977
 1828SOL    HW2 6384   1.270   2.533   0.888
 1829SOL     OW 6385   2.934   0.597   3.453
 1829SOL    HW1 6386   3.001   0.544   3.400
 1829SOL    HW2 6387   2.971   0.688   3.472
 1830SOL     OW 6388   5.747   6.168   3.935
 1830SOL    HW1 6389   5.797   6.087   3.966
 1830SOL    HW2 6390   5.703   6.212   4.013
 1831SOL     OW 6391   5.970   0.583   2.133
 1831SOL    HW1 6392   5.909   0.570   2.212
 1831SOL    HW2 6393   6.052   0.528   2.145
 1832SOL     OW 6394   4.971   1.414   1.168
 1832SOL    HW1 6395   5.064   1.448   1.182
 1832SOL    HW2 6396   4.925   1.472   1.101
 1833SOL     OW 6397   5.316   0.494   6.431
 1833SOL    HW1 6398   5.402   0.516   6.386
 1833SOL    HW2 6399   5.331   0.420   6.497
 1834SOL     OW 6400   2.714   4.218   0.151
 1834SOL    HW1 6401   2.716   4.235   0.052
 1834SOL    HW2 6402   2.804   4.191   0.182
 1835SOL     OW 6403   0.182   3.919   2.240
 1835SOL    HW1 6404   0.214   3.825   2.230
 1835SOL    HW2 6405   0.116   3.924   2.316
 1836SOL     OW 6406   5.046   2.371   0.859
 1836SOL    HW1 6407   4.975   2.414   0.803
 1836SOL    HW2 6408   5.128   2.428   0.859
 1837SOL     OW 6409   1.253   1.645   4.755
 1837SOL    HW1 6410   1.315   1.576   4.793
 1837SOL    HW2 6411   1.297   1.735   4.760
 1838SOL     OW 6412   6.934   1.289   4.339
 1838SOL    HW1 6413   6.858   1.310   4.277
 1838SOL    HW2 6414   6.974   1.200   4.314
 1839SOL     OW 6415   5.394   2.686   5.338
 1839SOL    HW1 6416   5.298   2.680   5.367
 1839SOL    HW2 6417   5.401   2.664   5.241
 1840SOL     OW 6418   3.346   5.935   1.628
 1840SOL    HW1 6419   3.312   5.875   1.700
 1840SOL    HW2 6420   3.270   5.961   1.568
 1841SOL     OW 6421   2.310   1.033   3.664
 1841SOL    HW1 6422   2.354   1.103   3.608
 1841SOL    HW2 6423   2.282   1.072   3.752
 1842SOL     OW 6424   1.533   5.609   0.448
 1842SOL    HW1 6425   1.608   5.564   0.497
 1842SOL    HW2 6426   1.534   5.580   0.352
 1843SOL     OW 6427   6.675   2.307   3.801
 1843SOL    HW1 6428   6.702   2.211   3.793
 1843SOL    HW2 6429   6.747   2.365   3.763
 1844SOL     OW 6430   3.391   0.300   5.437
 1844SOL    HW1 6431   3.353   0.355   5.363
 1844SOL    HW2 6432   3.473   0.253   5.405
 1845SOL     OW 6433   2.355   0.113   5.191
 1845SOL    HW1 6434   2.383   0.208   5.204
 1845SOL    HW2 6435   2.280   0.109   5.125
 1846SOL     OW 6436   4.203   2.065   1.165
 1846SOL    HW1 6437   4.214   1.978   1.213
 1846SOL    HW2 6438   4.143   2.125   1.218
 1847SOL     OW 6439   1.564   1.019   6.220
 1847SOL    HW1 6440   1.506   1.028   6.301
 1847SOL    HW2 6441   1.510   0.985   6.143
 1848SOL     OW 6442   0.955   6.992   2.940
 1848SOL    HW1 6443   0.897   6.920   2.902
 1848SOL    HW2 6444   1.050   6.961   2.943
 1849SOL     OW 6445   3.801   2.558   0.731
 1849SOL    HW1 6446   3.848   2.557   0.643
 1849SOL    HW2 6447   3.787   2.464   0.762
 1850SOL     OW 6448   1.158   2.906   2.054
 1850SOL    HW1 6449   1.224   2.927   1.981
 1850SOL    HW2 6450   1.131   2.810   2.047
 1851SOL     OW 6451   0.010   3.098   1.089
 1851SOL    HW1 6452   0.025   3.126   0.994
 1851SOL    HW2 6453   0.073   3.024   1.112
 1852SOL     OW 6454   6.191   3.847   2.426
 1852SOL    HW1 6455   6.152   3.772   2.372
 1852SOL    HW2 6456   6.134   3.862   2.507
 1853SOL     OW 6457   0.169   2.923   2.970
 1853SOL    HW1 6458   0.189   2.869   2.888
 1853SOL    HW2 6459   0.223   3.007   2.968
 1854SOL     OW 6460   2.719   5.876   3.395
 1854SOL    HW1 6461   2.667   5.952   3.357
 1854SOL    HW2 6462   2.675   5.844   3.479
 1855SOL     OW 6463   5.799   3.279   5.984
 1855SOL    HW1 6464   5.866   3.231   5.926
 1855SOL    HW2 6465   5.793   3.233   6.072
 1856SOL     OW 6466   6.037   3.902   5.647
 1856SOL    HW1 6467   6.009   3.870   5.556
 1856SOL    HW2 6468   6.109   3.971   5.638
 1857SOL     OW 6469   4.240   1.132   5.396
 1857SOL    HW1 6470   4.179   1.208   5.415
 1857SOL    HW2 6471   4.264   1.086   5.482
 1858SOL     OW 6472   6.443   3.556   3.895
 1858SOL    HW1 6473   6.527   3.611   3.901
 1858SOL    HW2 6474   6.463   3.462   3.923
 1859SOL     OW 6475   4.776   1.783   3.040
 1859SOL    HW1 6476   4.874   1.784   3.017
 1859SOL    HW2 6477   4.730   1.711   2.989
 1860SOL     OW 6478   6.405   0.356   4.868
 1860SOL    HW1 6479   6.493   0.329   4.829
 1860SOL    HW2 6480   6.337   0.284   4.853
 1861SOL     OW 6481   5.866   0.462   1.896
 1861SOL    HW1 6482   5.768   0.449   1.882
 1861SOL    HW2 6483   5.883   0.489   1.991
 1862SOL     OW 6484   2.507   0.658   6.017
 1862SOL    HW1 6485   2.475   0.720   5.946
 1862SOL    HW2 6486   2.550   0.710   6.090
 1863SOL     OW 6487   1.423   2.102   2.128
 1863SOL    HW1 6488   1.346   2.084   2.189
 1863SOL    HW2 6489   1.440   2.022   2.071
 1864SOL     OW 6490   0.852   6.886   5.329
 1864SOL    HW1 6491   0.760   6.846   5.333
 1864SOL    HW2 6492   0.906   6.837   5.261
 1865SOL     OW 6493   3.508   6.698   6.331
 1865SOL    HW1 6494   3.500   6.781   6.386
 1865SOL    HW2 6495   3.420   6.680   6.285
 1866SOL     OW 6496   4.204   5.044   3.271
 1866SOL    HW1 6497   4.123   5.025   3.326
 1866SOL    HW2 6498   4.262   5.110   3.318
 1867SOL     OW 6499   0.216   4.228   6.969
 1867SOL    HW1 6500   0.219   4.132   6.995
 1867SOL    HW2 6501   0.292   4.249   6.908
 1868SOL     OW 6502   4.848   4.165   7.004
 1868SOL    HW1 6503   4.797   4.234   6.952
 1868SOL    HW2 6504   4.793   4.082   7.011
 1869SOL     OW 6505   6.467   2.834   5.670
 1869SOL    HW1 6506   6.531   2.908   5.652
 1869SOL    HW2 6507   6.373   2.866   5.656
 1870SOL     OW 6508   1.714   2.919   5.503
 1870SOL    HW1 6509   1.697   2.821   5.506
 1870SOL    HW2 6510   1.761   2.948   5.587
 1871SOL     OW 6511   0.371   0.624   0.390
 1871SOL    HW1 6512   0.297   0.562   0.418
 1871SOL    HW2 6513   0.450   0.610   0.450
 1872SOL     OW 6514   3.960   1.597   6.138
 1872SOL    HW1 6515   3.980   1.554   6.050
 1872SOL    HW2 6516   3.880   1.554   6.178
 1873SOL     OW 6517   5.352   1.662   5.733
 1873SOL    HW1 6518   5.443   1.622   5.736
 1873SOL    HW2 6519   5.303   1.640   5.818
 1874SOL     OW 6520   3.213   1.622   0.437
 1874SOL    HW1 6521   3.139   1.567   0.400
 1874SOL    HW2 6522   3.260   1.669   0.362
 1875SOL     OW 6523   0.083   0.822   0.140
 1875SOL    HW1 6524   0.102   0.725   0.129
 1875SOL    HW2 6525   0.150   0.862   0.203
 1876SOL     OW 6526   3.932   6.521   6.176
 1876SOL    HW1 6527   3.887   6.435   6.200
 1876SOL    HW2 6528   3.915   6.588   6.248
 1877SOL     OW 6529   0.323   0.043   2.346
 1877SOL    HW1 6530   0.414   0.003   2.334
 1877SOL    HW2 6531   0.273   0.039   2.259
 1878SOL     OW 6532   6.773   2.431   3.407
 1878SOL    HW1 6533   6.823   2.344   3.402
 1878SOL    HW2 6534   6.812   2.487   3.480
 1879SOL     OW 6535   1.442   4.569   3.771
 1879SOL    HW1 6536   1.359   4.518   3.797
 1879SOL    HW2 6537   1.489   4.600   3.853
 1880SOL     OW 6538   6.343   1.530   4.459
 1880SOL    HW1 6539   6.425   1.484   4.493
 1880SOL    HW2 6540   6.368   1.590   4.383
 1881SOL     OW 6541   5.879   2.446   2.951
 1881SOL    HW1 6542   5.834   2.357   2.939
 1881SOL    HW2 6543   5.818   2.519   2.919
 1882SOL     OW 6544   0.698   3.451   6.332
 1882SOL    HW1 6545   0.657   3.471   6.243
 1882SOL    HW2 6546   0.627   3.423   6.396
 1883SOL     OW 6547   0.742   2.088   3.954
 1883SOL    HW1 6548   0.780   2.090   4.047
 1883SOL    HW2 6549   0.783   2.160   3.900
 1884SOL     OW 6550   6.528   3.253   0.601
 1884SOL    HW1 6551   6.585   3.196   0.542
 1884SOL    HW2 6552   6.466   3.308   0.545
 1885SOL     OW 6553   1.693   2.282   6.554
 1885SOL    HW1 6554   1.777   2.229   6.550
 1885SOL    HW2 6555   1.619   2.225   6.588
 1886SOL     OW 6556   2.011   0.848   1.308
 1886SOL    HW1 6557   2.037   0.922   1.370
 1886SOL    HW2 6558   2.065   0.766   1.329
 1887SOL     OW 6559   1.345   5.665   5.125
 1887SOL    HW1 6560   1.309   5.679   5.033
 1887SOL    HW2 6561   1.297   5.724   5.190
 1888SOL     OW 6562   2.448   1.870   0.009
 1888SOL    HW1 6563   2.359   1.873   6.981
 1888SOL    HW2 6564   2.463   1.779   0.049
 1889SOL     OW 6565   0.484   2.963   5.947
 1889SOL    HW1 6566   0.434   2.944   5.863
 1889SOL    HW2 6567   0.582   2.968   5.927
 1890SOL     OW 6568   1.821   6.353   4.395
 1890SOL    HW1 6569   1.901   6.366   4.336
 1890SOL    HW2 6570   1.830   6.267   4.445
 1891SOL     OW 6571   5.276   2.033   1.895
 1891SOL    HW1 6572   5.325   2.116   1.920
 1891SOL    HW2 6573   5.304   1.958   1.955
 1892SOL     OW 6574   2.586   0.763   2.644
 1892SOL    HW1 6575   2.558   0.798   2.734
 1892SOL    HW2 6576   2.506   0.752   2.586
 1893SOL     OW 6577   3.546   3.024   6.923
 1893SOL    HW1 6578   3.455   2.986   6.938
 1893SOL    HW2 6579   3.562   3.035   6.824
 1894SOL     OW 6580   3.631   4.044   3.821
 1894SOL    HW1 6581   3.606   4.116   3.886
 1894SOL    HW2 6582   3.548   4.009   3.777
 1895SOL     OW 6583   4.812   0.622   1.901
 1895SOL    HW1 6584   4.744   0.692   1.922
 1895SOL    HW2 6585   4.874   0.612   1.978
 1896SOL     OW 6586   5.625   0.179   1.235
 1896SOL    HW1 6587   5.689   0.106   1.210
 1896SOL    HW2 6588   5.533   0.139   1.246
 1897SOL     OW 6589   2.200   5.277   1.524
 1897SOL    HW1 6590   2.295   5.254   1.544
 1897SOL    HW2 6591   2.159   5.204   1.469
 1898SOL     OW 6592   2.203   5.685   3.367
 1898SOL    HW1 6593   2.267   5.635   3.309
 1898SOL    HW2 6594   2.163   5.761   3.315
 1899SOL     OW 6595   0.817   0.689   2.160
 1899SOL    HW1 6596   0.852   0.728   2.075
 1899SOL    HW2 6597   0.888   0.632   2.202
 1900SOL     OW 6598   1.576   0.396   6.298
 1900SOL    HW1 6599   1.500   0.335   6.276
 1900SOL    HW2 6600   1.659   0.366   6.250
 1901SOL     OW 6601   1.779   2.054   1.237
 1901SOL    HW1 6602   1.829   2.134   1.271
 1901SOL    HW2 6603   1.682   2.075   1.232
 1902SOL     OW 6604   1.928   1.699   4.914
 1902SOL    HW1 6605   1.942   1.650   4.828
 1902SOL    HW2 6606   1.830   1.708   4.932
 1903SOL     OW 6607   6.919   3.284   2.322
 1903SOL    HW1 6608   6.890   3.223   2.248
 1903SOL    HW2 6609   6.996   3.340   2.291
 1904SOL     OW 6610   5.439   5.392   3.815
 1904SOL    HW1 6611   5.349   5.375   3.854
 1904SOL    HW2 6612   5.447   5.490   3.793
 1905SOL     OW 6613   1.166   0.208   3.685
 1905SOL    HW1 6614   1.229   0.178   3.613
 1905SOL    HW2 6615   1.161   0.137   3.755
 1906SOL     OW 6616   2.769   6.988   4.826
 1906SOL    HW1 6617   2.693   6.999   4.891
 1906SOL    HW2 6618   2.836   0.044   4.841
 1907SOL     OW 6619   3.676   1.032   1.559
 1907SOL    HW1 6620   3.609   1.056   1.629
 1907SOL    HW2 6621   3.714   1.116   1.518
 1908SOL     OW 6622   3.753   6.714   5.691
 1908SOL    HW1 6623   3.831   6.664   5.729
 1908SOL    HW2 6624   3.772   6.740   5.597
 1909SOL     OW 6625   0.015   3.665   2.503
 1909SOL    HW1 6626   0.059   3.633   2.588
 1909SOL    HW2 6627   0.064   3.627   2.425
 1910SOL     OW 6628   0.230   4.528   6.904
 1910SOL    HW1 6629   0.210   4.434   6.876
 1910SOL    HW2 6630   0.316   4.558   6.862
 1911SOL     OW 6631   6.779   3.745   4.814
 1911SOL    HW1 6632   6.870   3.781   4.834
 1911SOL    HW2 6633   6.772   3.652   4.851
 1912SOL     OW 6634   3.696   5.831   0.433
 1912SOL    HW1 6635   3.792   5.803   0.436
 1912SOL    HW2 6636   3.670   5.851   0.339
 1913SOL     OW 6637   2.867   6.362   4.778
 1913SOL    HW1 6638   2.932   6.438   4.777
 1913SOL    HW2 6639   2.873   6.314   4.866
 1914SOL     OW 6640   3.901   2.786   6.063
 1914SOL    HW1 6641   3.942   2.844   5.992
 1914SOL    HW2 6642   3.803   2.803   6.069
 1915SOL     OW 6643   3.294   2.111   4.946
 1915SOL    HW1 6644   3.223   2.168   4.988
 1915SOL    HW2 6645   3.348   2.067   5.017
 1916SOL     OW 6646   3.877   5.524   1.270
 1916SOL    HW1 6647   3.816   5.470   1.328
 1916SOL    HW2 6648   3.962   5.474   1.256
 1917SOL     OW 6649   2.313   3.077   6.514
 1917SOL    HW1 6650   2.244   3.016   6.552
 1917SOL    HW2 6651   2.374   3.024   6.455
 1918SOL     OW 6652   1.090   1.069   5.302
 1918SOL    HW1 6653   1.092   1.155   5.353
 1918SOL    HW2 6654   1.032   1.080   5.221
 1919SOL     OW 6655   1.786   0.966   1.879
 1919SOL    HW1 6656   1.730   0.890   1.910
 1919SOL    HW2 6657   1.734   1.022   1.814
 1920SOL     OW 6658   0.286   4.056   2.824
 1920SOL    HW1 6659   0.244   3.994   2.757
 1920SOL    HW2 6660   0.376   4.021   2.850
 1921SOL     OW 6661   1.291   3.279   6.207
 1921SOL    HW1 6662   1.323   3.280   6.112
 1921SOL    HW2 6663   1.368   3.299   6.268
 1922SOL     OW 6664   2.473   3.431   1.244
 1922SOL    HW1 6665   2.539   3.433   1.319
 1922SOL    HW2 6666   2.423   3.345   1.245
 1923SOL     OW 6667   4.219   1.002   5.618
 1923SOL    HW1 6668   4.153   1.026   5.690
 1923SOL    HW2 6669   4.171   0.961   5.541
 1924SOL     OW 6670   5.063   6.572   0.303
 1924SOL    HW1 6671   5.107   6.622   0.377
 1924SOL    HW2 6672   5.130   6.515   0.256
 1925SOL     OW 6673   2.010   4.856   0.863
 1925SOL    HW1 6674   1.946   4.823   0.794
 1925SOL    HW2 6675   1.978   4.942   0.901
 1926SOL     OW 6676   2.470   6.683   2.961
 1926SOL    HW1 6677   2.430   6.592   2.944
 1926SOL    HW2 6678   2.396   6.747   2.982
 1927SOL     OW 6679   2.542   4.521   0.419
 1927SOL    HW1 6680   2.600   4.576   0.359
 1927SOL    HW2 6681   2.593   4.441   0.450
 1928SOL     OW 6682   5.994   3.806   4.889
 1928SOL    HW1 6683   5.962   3.735   4.827
 1928SOL    HW2 6684   6.090   3.789   4.914
 1929SOL     OW 6685   2.452   0.040   1.200
 1929SOL    HW1 6686   2.538   7.014   1.173
 1929SOL    HW2 6687   2.376   7.010   1.157
 1930SOL     OW 6688   4.431   3.677   6.644
 1930SOL    HW1 6689   4.360   3.696   6.713
 1930SOL    HW2 6690   4.487   3.601   6.675
 1931SOL     OW 6691   1.050   2.349   1.623
 1931SOL    HW1 6692   1.075   2.442   1.649
 1931SOL    HW2 6693   1.126   2.307   1.572
 1932SOL     OW 6694   4.819   2.261   2.937
 1932SOL    HW1 6695   4.870   2.342   2.907
 1932SOL    HW2 6696   4.818   2.194   2.863
 1933SOL     OW 6697   1.355   3.395   0.687
 1933SOL    HW1 6698   1.318   3.385   0.780
 1933SOL    HW2 6699   1.279   3.399   0.622
 1934SOL     OW 6700   6.665   0.227   5.227
 1934SOL    HW1 6701   6.652   0.231   5.326
 1934SOL    HW2 6702   6.625   0.308   5.185
 1935SOL     OW 6703   4.877   5.334   3.604
 1935SOL    HW1 6704   4.945   5.361   3.536
 1935SOL    HW2 6705   4.808   5.275   3.561
 1936SOL     OW 6706   5.241   4.464   3.968
 1936SOL    HW1 6707   5.213   4.404   4.043
 1936SOL    HW2 6708   5.281   4.409   3.895
 1937SOL     OW 6709   4.190   6.137   0.416
 1937SOL    HW1 6710   4.160   6.210   0.354
 1937SOL    HW2 6711   4.209   6.054   0.364
 1938SOL     OW 6712   1.362   1.738   2.283
 1938SOL    HW1 6713   1.353   1.835   2.303
 1938SOL    HW2 6714   1.274   1.703   2.250
 1939SOL     OW 6715   0.151   6.832   4.063
 1939SOL    HW1 6716   0.096   6.819   3.980
 1939SOL    HW2 6717   0.247   6.811   4.043
 1940SOL     OW 6718   5.783   5.393   0.894
 1940SOL    HW1 6719   5.774   5.451   0.813
 1940SOL    HW2 6720   5.692   5.363   0.923
 1941SOL     OW 6721   1.531   2.800   4.241
 1941SOL    HW1 6722   1.570   2.892   4.244
 1941SOL    HW2 6723   1.598   2.734   4.272
 1942SOL     OW 6724   5.423   2.408   1.538
 1942SOL    HW1 6725   5.329   2.433   1.515
 1942SOL    HW2 6726   5.432   2.309   1.539
 1943SOL     OW 6727   1.921   6.799   3.185
 1943SOL    HW1 6728   1.926   6.723   3.120
 1943SOL    HW2 6729   1.998   6.793   3.249
 1944SOL     OW 6730   6.418   3.731   0.061
 1944SOL    HW1 6731   6.515   3.739   0.039
 1944SOL    HW2 6732   6.390   3.635   0.051
 1945SOL     OW 6733   4.298   5.382   6.850
 1945SOL    HW1 6734   4.249   5.444   6.790
 1945SOL    HW2 6735   4.284   5.409   6.945
 1946SOL     OW 6736   5.810   6.471   1.000
 1946SOL    HW1 6737   5.790   6.373   1.009
 1946SOL    HW2 6738   5.887   6.495   1.060
 1947SOL     OW 6739   5.548   6.412   4.700
 1947SOL    HW1 6740   5.500   6.499   4.691
 1947SOL    HW2 6741   5.646   6.427   4.693
 1948SOL     OW 6742   6.611   4.869   2.765
 1948SOL    HW1 6743   6.522   4.886   2.723
 1948SOL    HW2 6744   6.599   4.859   2.864
 1949SOL     OW 6745   3.717   3.395   6.544
 1949SOL    HW1 6746   3.687   3.353   6.459
 1949SOL    HW2 6747   3.778   3.472   6.524
 1950SOL     OW 6748   3.570   3.056   1.793
 1950SOL    HW1 6749   3.550   2.968   1.836
 1950SOL    HW2 6750   3.583   3.043   1.695
 1951SOL     OW 6751   6.572   4.310   6.747
 1951SOL    HW1 6752   6.651   4.284   6.692
 1951SOL    HW2 6753   6.500   4.346   6.688
 1952SOL     OW 6754   4.657   4.335   1.216
 1952SOL    HW1 6755   4.678   4.266   1.146
 1952SOL    HW2 6756   4.732   4.340   1.282
 1953SOL     OW 6757   6.289   1.378   5.732
 1953SOL    HW1 6758   6.280   1.375   5.831
 1953SOL    HW2 6759   6.303   1.285   5.697
 1954SOL     OW 6760   6.179   0.229   1.211
 1954SOL    HW1 6761   6.260   0.192   1.257
 1954SOL    HW2 6762   6.102   0.231   1.275
 1955SOL     OW 6763   0.617   0.343   3.128
 1955SOL    HW1 6764   0.649   0.328   3.221
 1955SOL    HW2 6765   0.568   0.430   3.123
 1956SOL     OW 6766   5.173   6.858   1.709
 1956SOL    HW1 6767   5.116   6.888   1.633
 1956SOL    HW2 6768   5.265   6.839   1.676
 1957SOL     OW 6769   5.019   4.775   4.021
 1957SOL    HW1 6770   5.101   4.777   4.079
 1957SOL    HW2 6771   4.993   4.868   3.997
 1958SOL     OW 6772   4.886   1.501   1.595
 1958SOL    HW1 6773   4.919   1.538   1.681
 1958SOL    HW2 6774   4.851   1.576   1.538
 1959SOL     OW 6775   1.161   0.012   3.880
 1959SOL    HW1 6776   1.261   0.013   3.875
 1959SOL    HW2 6777   1.133   7.002   3.972
 1960SOL     OW 6778   0.204   3.886   2.626
 1960SOL    HW1 6779   0.238   3.792   2.625
 1960SOL    HW2 6780   0.152   3.904   2.542
 1961SOL     OW 6781   6.569   4.113   4.416
 1961SOL    HW1 6782   6.655   4.162   4.434
 1961SOL    HW2 6783   6.566   4.030   4.471
 1962SOL     OW 6784   1.454   6.552   2.352
 1962SOL    HW1 6785   1.366   6.510   2.329
 1962SOL    HW2 6786   1.487   6.605   2.274
 1963SOL     OW 6787   1.274   1.373   2.101
 1963SOL    HW1 6788   1.350   1.400   2.160
 1963SOL    HW2 6789   1.287   1.409   2.009
 1964SOL     OW 6790   4.447   4.441   1.560
 1964SOL    HW1 6791   4.425   4.368   1.495
 1964SOL    HW2 6792   4.363   4.477   1.599
 1965SOL     OW 6793   2.040   2.559   4.592
 1965SOL    HW1 6794   2.042   2.659   4.587
 1965SOL    HW2 6795   2.062   2.531   4.685
 1966SOL     OW 6796   0.451   6.100   1.320
 1966SOL    HW1 6797   0.478   6.145   1.405
 1966SOL    HW2 6798   0.517   6.123   1.248
 1967SOL     OW 6799   5.731   2.898   3.927
 1967SOL    HW1 6800   5.662   2.868   3.993
 1967SOL    HW2 6801   5.696   2.883   3.835
 1968SOL     OW 6802   2.098   0.420   5.502
 1968SOL    HW1 6803   2.062   0.452   5.415
 1968SOL    HW2 6804   2.198   0.415   5.497
 1969SOL     OW 6805   2.962   1.556   0.831
 1969SOL    HW1 6806   2.870   1.588   0.809
 1969SOL    HW2 6807   2.977   1.561   0.930
 1970SOL     OW 6808   1.235   6.974   5.513
 1970SOL    HW1 6809   1.223   6.966   5.414
 1970SOL    HW2 6810   1.166   6.919   5.559
 1971SOL     OW 6811   0.288   0.824   5.381
 1971SOL    HW1 6812   0.193   0.804   5.360
 1971SOL    HW2 6813   0.292   0.886   5.460
 1972SOL     OW 6814   5.713   2.209   1.040
 1972SOL    HW1 6815   5.780   2.280   1.059
 1972SOL    HW2 6816   5.662   2.188   1.124
 1973SOL     OW 6817   2.778   4.113   0.895
 1973SOL    HW1 6818   2.685   4.098   0.861
 1973SOL    HW2 6819   2.836   4.038   0.865
 1974SOL     OW 6820   5.238   0.303   4.845
 1974SOL    HW1 6821   5.338   0.313   4.852
 1974SOL    HW2 6822   5.204   0.360   4.770
 1975SOL     OW 6823   1.744   2.035   4.023
 1975SOL    HW1 6824   1.729   1.937   4.008
 1975SOL    HW2 6825   1.736   2.056   4.120
 1976SOL     OW 6826   5.974   6.396   0.706
 1976SOL    HW1 6827   5.999   6.300   0.719
 1976SOL    HW2 6828   6.054   6.453   0.725
 1977SOL     OW 6829   1.815   3.450   5.264
 1977SOL    HW1 6830   1.748   3.376   5.264
 1977SOL    HW2 6831   1.874   3.441   5.184
 1978SOL     OW 6832   1.952   6.213   2.894
 1978SOL    HW1 6833   2.044   6.187   2.866
 1978SOL    HW2 6834   1.916   6.144   2.957
 1979SOL     OW 6835   5.152   4.891   0.113
 1979SOL    HW1 6836   5.224   4.959   0.117
 1979SOL    HW2 6837   5.192   4.799   0.115
 1980SOL     OW 6838   4.039   0.061   3.905
 1980SOL    HW1 6839   3.989   6.994   3.883
 1980SOL    HW2 6840   4.059   0.110   3.820
 1981SOL     OW 6841   5.573   3.217   2.415
 1981SOL    HW1 6842   5.503   3.211   2.344
 1981SOL    HW2 6843   5.570   3.307   2.458
 1982SOL     OW 6844   6.624   4.164   3.590
 1982SOL    HW1 6845   6.535   4.144   3.630
 1982SOL    HW2 6846   6.614   4.232   3.517
 1983SOL     OW 6847   1.817   0.320   1.482
 1983SOL    HW1 6848   1.782   0.243   1.534
 1983SOL    HW2 6849   1.746   0.354   1.420
 1984SOL     OW 6850   4.576   2.455   4.920
 1984SOL    HW1 6851   4.555   2.548   4.892
 1984SOL    HW2 6852   4.501   2.394   4.892
 1985SOL     OW 6853   6.959   6.065   2.768
 1985SOL    HW1 6854   7.007   6.145   2.805
 1985SOL    HW2 6855   0.002   5.985   2.774
 1986SOL     OW 6856   3.327   1.332   6.226
 1986SOL    HW1 6857   3.255   1.325   6.158
 1986SOL    HW2 6858   3.287   1.352   6.316
 1987SOL     OW 6859   2.353   1.684   3.178
 1987SOL    HW1 6860   2.329   1.779   3.198
 1987SOL    HW2 6861   2.412   1.649   3.251
 1988SOL     OW 6862   6.930   3.172   0.629
 1988SOL    HW1 6863   6.985   3.122   0.695
 1988SOL    HW2 6864   6.853   3.217   0.675
 1989SOL     OW 6865   2.049   5.496   5.390
 1989SOL    HW1 6866   2.066   5.405   5.429
 1989SOL    HW2 6867   1.956   5.500   5.353
 1990SOL     OW 6868   3.962   5.787   0.539
 1990SOL    HW1 6869   4.016   5.845   0.600
 1990SOL    HW2 6870   3.937   5.703   0.587
 1991SOL     OW 6871   2.223   6.326   0.309
 1991SOL    HW1 6872   2.251   6.326   0.405
 1991SOL    HW2 6873   2.141   6.270   0.298
 1992SOL     OW 6874   0.259   0.885   0.364
 1992SOL    HW1 6875   0.283   0.790   0.346
 1992SOL    HW2 6876   0.341   0.943   0.356
 1993SOL     OW 6877   3.384   1.705   5.914
 1993SOL    HW1 6878   3.354   1.751   5.997
 1993SOL    HW2 6879   3.442   1.627   5.937
 1994SOL     OW 6880   6.503   2.461   0.758
 1994SOL    HW1 6881   6.493   2.396   0.682
 1994SOL    HW2 6882   6.422   2.456   0.817
 1995SOL     OW 6883   5.467   3.126   3.680
 1995SOL    HW1 6884   5.552   3.177   3.671
 1995SOL    HW2 6885   5.476   3.039   3.632
 1996SOL     OW 6886   2.524   1.832   0.915
 1996SOL    HW1 6887   2.599   1.854   0.853
 1996SOL    HW2 6888   2.537   1.740   0.951
 1997SOL     OW 6889   3.970   1.818   4.122
 1997SOL    HW1 6890   4.010   1.751   4.184
 1997SOL    HW2 6891   4.042   1.873   4.081
 1998SOL     OW 6892   1.134   3.360   0.518
 1998SOL    HW1 6893   1.101   3.426   0.450
 1998SOL    HW2 6894   1.090   3.271   0.502
 1999SOL     OW 6895   1.462   0.032   5.932
 1999SOL    HW1 6896   1.524   0.095   5.979
 1999SOL    HW2 6897   1.433   0.073   5.845
 2000SOL     OW 6898   3.869   2.758   5.731
 2000SOL    HW1 6899   3.783   2.716   5.700
 2000SOL    HW2 6900   3.943   2.733   5.668
 2001SOL     OW 6901   2.006   1.374   0.960
 2001SOL    HW1 6902   1.975   1.293   0.910
 2001SOL    HW2 6903   2.067   1.427   0.902
 2002SOL     OW 6904   0.118   5.034   0.417
 2002SOL    HW1 6905   0.197   5.051   0.476
 2002SOL    HW2 6906   0.078   4.945   0.440
 2003SOL     OW 6907   6.440   4.745   2.355
 2003SOL    HW1 6908   6.421   4.722   2.451
 2003SOL    HW2 6909   6.534   4.778   2.347
 2004SOL     OW 6910   5.231   0.939   4.295
 2004SOL    HW1 6911   5.208   1.036   4.300
 2004SOL    HW2 6912   5.212   0.896   4.383
 2005SOL     OW 6913   7.014   4.794   0.495
 2005SOL    HW1 6914   0.064   4.723   0.475
 2005SOL    HW2 6915   6.997   4.797   0.593
 2006SOL     OW 6916   5.528   0.082   3.762
 2006SOL    HW1 6917   5.526   0.083   3.862
 2006SOL    HW2 6918   5.594   0.150   3.730
 2007SOL     OW 6919   4.900   4.862   1.169
 2007SOL    HW1 6920   4.919   4.950   1.212
 2007SOL    HW2 6921   4.958   4.792   1.210
 2008SOL     OW 6922   2.116   3.730   3.346
 2008SOL    HW1 6923   2.119   3.631   3.357
 2008SOL    HW2 6924   2.155   3.774   3.427
 2009SOL     OW 6925   4.713   6.722   2.808
 2009SOL    HW1 6926   4.757   6.810   2.824
 2009SOL    HW2 6927   4.703   6.707   2.710
 2010SOL     OW 6928   2.373   1.493   1.503
 2010SOL    HW1 6929   2.298   1.559   1.496
 2010SOL    HW2 6930   2.448   1.534   1.554
 2011SOL     OW 6931   0.835   0.750   4.720
 2011SOL    HW1 6932   0.881   0.677   4.771
 2011SOL    HW2 6933   0.871   0.752   4.627
 2012SOL     OW 6934   1.589   3.859   2.501
 2012SOL    HW1 6935   1.548   3.929   2.443
 2012SOL    HW2 6936   1.521   3.789   2.523
 2013SOL     OW 6937   5.513   3.213   4.074
 2013SOL    HW1 6938   5.511   3.120   4.038
 2013SOL    HW2 6939   5.585   3.220   4.143
 2014SOL     OW 6940   2.848   0.261   3.453
 2014SOL    HW1 6941   2.925   0.288   3.510
 2014SOL    HW2 6942   2.873   0.272   3.357
 2015SOL     OW 6943   2.595   7.003   0.938
 2015SOL    HW1 6944   2.563   6.944   0.864
 2015SOL    HW2 6945   2.572   0.081   0.916
 2016SOL     OW 6946   1.637   5.531   5.740
 2016SOL    HW1 6947   1.623   5.495   5.832
 2016SOL    HW2 6948   1.577   5.610   5.725
 2017SOL     OW 6949   3.912   0.217   3.048
 2017SOL    HW1 6950   3.820   0.212   3.089
 2017SOL    HW2 6951   3.936   0.129   3.009
 2018SOL     OW 6952   6.312   2.926   3.843
 2018SOL    HW1 6953   6.359   2.841   3.819
 2018SOL    HW2 6954   6.351   3.001   3.789
 2019SOL     OW 6955   5.505   3.944   6.418
 2019SOL    HW1 6956   5.535   3.901   6.333
 2019SOL    HW2 6957   5.405   3.945   6.421
 2020SOL     OW 6958   2.122   0.199   6.131
 2020SOL    HW1 6959   2.107   0.248   6.046
 2020SOL    HW2 6960   2.219   0.204   6.156
 2021SOL     OW 6961   6.597   6.416   4.764
 2021SOL    HW1 6962   6.675   6.355   4.752
 2021SOL    HW2 6963   6.621   6.507   4.730
 2022SOL     OW 6964   1.412   4.571   4.178
 2022SOL    HW1 6965   1.448   4.509   4.109
 2022SOL    HW2 6966   1.462   4.558   4.263
 2023SOL     OW 6967   0.699   0.734   6.621
 2023SOL    HW1 6968   0.645   0.660   6.662
 2023SOL    HW2 6969   0.730   0.797   6.692
 2024SOL     OW 6970   6.958   5.657   3.825
 2024SOL    HW1 6971   6.926   5.688   3.735
 2024SOL    HW2 6972   7.015   5.728   3.866
 2025SOL     OW 6973   4.083   0.932   3.964
 2025SOL    HW1 6974   3.995   0.973   3.939
 2025SOL    HW2 6975   4.100   0.949   4.061
 2026SOL     OW 6976   6.491   2.545   6.765
 2026SOL    HW1 6977   6.576   2.556   6.816
 2026SOL    HW2 6978   6.413   2.552   6.828
 2027SOL     OW 6979   1.103   0.084   1.316
 2027SOL    HW1 6980   1.191   0.102   1.360
 2027SOL    HW2 6981   1.031   0.135   1.363
 2028SOL     OW 6982   3.506   5.544   4.320
 2028SOL    HW1 6983   3.545   5.540   4.228
 2028SOL    HW2 6984   3.579   5.561   4.387
 2029SOL     OW 6985   6.530   2.310   6.983
 2029SOL    HW1 6986   6.487   2.354   0.045
 2029SOL    HW2 6987   6.467   2.309   6.906
 2030SOL     OW 6988   2.985   0.258   3.195
 2030SOL    HW1 6989   3.061   0.317   3.170
 2030SOL    HW2 6990   2.920   0.253   3.119
 2031SOL     OW 6991   6.753   6.106   2.215
 2031SOL    HW1 6992   6.824   6.036   2.204
 2031SOL    HW2 6993   6.791   6.186   2.261
 2032SOL     OW 6994   3.632   1.486   1.247
 2032SOL    HW1 6995   3.652   1.495   1.345
 2032SOL    HW2 6996   3.591   1.570   1.213
 2033SOL     OW 6997   2.531   1.306   0.496
 2033SOL    HW1 6998   2.553   1.232   0.560
 2033SOL    HW2 6999   2.438   1.294   0.461
 2034SOL     OW 7000   2.441   5.364   5.585
 2034SOL    HW1 7001   2.492   5.422   5.649
 2034SOL    HW2 7002   2.386   5.298   5.636
 2035SOL     OW 7003   6.313   6.183   3.296
 2035SOL    HW1 7004   6.225   6.189   3.343
 2035SOL    HW2 7005   6.387   6.187   3.364
 2036SOL     OW 7006   1.219   3.307   2.639
 2036SOL    HW1 7007   1.193   3.386   2.582
 2036SOL    HW2 7008   1.138   3.267   2.680
 2037SOL     OW 7009   6.368   2.986   6.478
 2037SOL    HW1 7010   6.394   2.966   6.384
 2037SOL    HW2 7011   6.315   2.910   6.515
 2038SOL     OW 7012   2.409   1.573   0.423
 2038SOL    HW1 7013   2.425   1.474   0.424
 2038SOL    HW2 7014   2.405   1.607   0.517
 2039SOL     OW 7015   0.028   6.506   3.393
 2039SOL    HW1 7016   6.976   6.467   3.332
 2039SOL    HW2 7017   0.120   6.487   3.356
 2040SOL     OW 7018   2.082   1.978   0.000
 2040SOL    HW1 7019   2.013   2.032   6.969
 2040SOL    HW2 7020   2.073   1.991   0.099
 2041SOL     OW 7021   1.195   0.288   4.956
 2041SOL    HW1 7022   1.272   0.231   4.986
 2041SOL    HW2 7023   1.142   0.318   5.035
 2042SOL     OW 7024   5.334   6.914   6.113
 2042SOL    HW1 7025   5.355   6.817   6.110
 2042SOL    HW2 7026   5.270   6.937   6.039
 2043SOL     OW 7027   6.288   2.630   3.016
 2043SOL    HW1 7028   6.228   2.574   3.074
 2043SOL    HW2 7029   6.301   2.585   2.928
 2044SOL     OW 7030   6.111   0.110   0.991
 2044SOL    HW1 7031   6.065   0.025   1.017
 2044SOL    HW2 7032   6.150   0.153   1.073
 2045SOL     OW 7033   1.138   4.779   4.721
 2045SOL    HW1 7034   1.080   4.815   4.794
 2045SOL    HW2 7035   1.083   4.722   4.660
 2046SOL     OW 7036   6.411   2.023   5.179
 2046SOL    HW1 7037   6.401   1.933   5.137
 2046SOL    HW2 7038   6.333   2.040   5.240
 2047SOL     OW 7039   6.589   2.717   0.672
 2047SOL    HW1 7040   6.518   2.787   0.666
 2047SOL    HW2 7041   6.561   2.646   0.737
 2048SOL     OW 7042   0.497   0.488   5.055
 2048SOL    HW1 7043   0.458   0.506   5.145
 2048SOL    HW2 7044   0.461   0.402   5.020
 2049SOL     OW 7045   5.633   1.757   4.152
 2049SOL    HW1 7046   5.542   1.796   4.162
 2049SOL    HW2 7047   5.628   1.658   4.163
 2050SOL     OW 7048   6.798   2.285   4.412
 2050SOL    HW1 7049   6.818   2.199   4.458
 2050SOL    HW2 7050   6.703   2.286   4.381
 2051SOL     OW 7051   1.901   6.344   6.585
 2051SOL    HW1 7052   1.869   6.354   6.679
 2051SOL    HW2 7053   1.828   6.304   6.530
 2052SOL     OW 7054   1.342   2.792   1.061
 2052SOL    HW1 7055   1.364   2.700   1.028
 2052SOL    HW2 7056   1.329   2.789   1.160
 2053SOL     OW 7057   0.690   5.426   5.077
 2053SOL    HW1 7058   0.644   5.496   5.133
 2053SOL    HW2 7059   0.645   5.421   4.988
 2054SOL     OW 7060   2.980   3.865   3.207
 2054SOL    HW1 7061   3.009   3.769   3.205
 2054SOL    HW2 7062   2.941   3.890   3.119
 2055SOL     OW 7063   6.196   2.958   4.952
 2055SOL    HW1 7064   6.103   2.933   4.924
 2055SOL    HW2 7065   6.199   2.969   5.051
 2056SOL     OW 7066   4.065   4.840   2.157
 2056SOL    HW1 7067   4.005   4.857   2.078
 2056SOL    HW2 7068   4.013   4.792   2.228
 2057SOL     OW 7069   5.017   3.683   5.637
 2057SOL    HW1 7070   5.060   3.768   5.668
 2057SOL    HW2 7071   4.979   3.634   5.716
 2058SOL     OW 7072   0.084   6.457   2.557
 2058SOL    HW1 7073   0.125   6.370   2.583
 2058SOL    HW2 7074   0.147   6.508   2.499
 2059SOL     OW 7075   2.426   6.439   6.834
 2059SOL    HW1 7076   2.328   6.436   6.855
 2059SOL    HW2 7077   2.476   6.395   6.908
 2060SOL     OW 7078   0.450   3.959   1.745
 2060SOL    HW1 7079   0.361   4.003   1.736
 2060SOL    HW2 7080   0.499   3.964   1.658
 2061SOL     OW 7081   2.167   2.262   2.741
 2061SOL    HW1 7082   2.104   2.339   2.740
 2061SOL    HW2 7083   2.236   2.273   2.670
 2062SOL     OW 7084   0.288   6.070   5.427
 2062SOL    HW1 7085   0.256   6.144   5.369
 2062SOL    HW2 7086   0.210   6.022   5.467
 2063SOL     OW 7087   1.268   6.091   5.115
 2063SOL    HW1 7088   1.263   6.184   5.079
 2063SOL    HW2 7089   1.185   6.071   5.166
 2064SOL     OW 7090   0.132   2.627   4.924
 2064SOL    HW1 7091   0.096   2.712   4.962
 2064SOL    HW2 7092   0.171   2.571   4.997
 2065SOL     OW 7093   6.052   3.259   6.177
 2065SOL    HW1 7094   5.988   3.334   6.187
 2065SOL    HW2 7095   6.143   3.287   6.210
 2066SOL     OW 7096   6.216   4.052   5.485
 2066SOL    HW1 7097   6.212   4.146   5.519
 2066SOL    HW2 7098   6.261   4.051   5.395
 2067SOL     OW 7099   6.608   5.240   0.900
 2067SOL    HW1 7100   6.527   5.221   0.956
 2067SOL    HW2 7101   6.626   5.338   0.901
 2068SOL     OW 7102   3.944   0.413   4.389
 2068SOL    HW1 7103   3.995   0.478   4.334
 2068SOL    HW2 7104   4.005   0.342   4.423
 2069SOL     OW 7105   0.433   2.468   4.325
 2069SOL    HW1 7106   0.474   2.515   4.247
 2069SOL    HW2 7107   0.504   2.416   4.373
 2070SOL     OW 7108   1.174   2.444   1.260
 2070SOL    HW1 7109   1.174   2.362   1.203
 2070SOL    HW2 7110   1.114   2.513   1.219
 2071SOL     OW 7111   6.344   0.931   6.070
 2071SOL    HW1 7112   6.244   0.929   6.071
 2071SOL    HW2 7113   6.376   1.012   6.021
 2072SOL     OW 7114   4.629   5.252   4.769
 2072SOL    HW1 7115   4.708   5.200   4.802
 2072SOL    HW2 7116   4.641   5.272   4.672
 2073SOL     OW 7117   3.738   6.195   5.486
 2073SOL    HW1 7118   3.664   6.255   5.457
 2073SOL    HW2 7119   3.822   6.248   5.496
 2074SOL     OW 7120   2.495   2.348   6.924
 2074SOL    HW1 7121   2.571   2.404   6.956
 2074SOL    HW2 7122   2.483   2.270   6.985
 2075SOL     OW 7123   6.561   2.367   2.596
 2075SOL    HW1 7124   6.559   2.465   2.614
 2075SOL    HW2 7125   6.545   2.317   2.681
 2076SOL     OW 7126   5.591   6.954   5.992
 2076SOL    HW1 7127   5.506   6.937   6.041
 2076SOL    HW2 7128   5.667   6.913   6.042
 2077SOL     OW 7129   6.531   2.315   1.891
 2077SOL    HW1 7130   6.476   2.277   1.964
 2077SOL    HW2 7131   6.621   2.342   1.927
 2078SOL     OW 7132   1.976   5.038   6.619
 2078SOL    HW1 7133   1.930   5.126   6.635
 2078SOL    HW2 7134   2.075   5.053   6.614
 2079SOL     OW 7135   6.964   0.891   3.141
 2079SOL    HW1 7136   0.019   0.869   3.075
 2079SOL    HW2 7137   6.900   0.957   3.101
 2080SOL     OW 7138   3.054   1.346   4.678
 2080SOL    HW1 7139   2.992   1.380   4.607
 2080SOL    HW2 7140   3.143   1.324   4.636
 2081SOL     OW 7141   1.144   6.273   4.428
 2081SOL    HW1 7142   1.053   6.293   4.391
 2081SOL    HW2 7143   1.158   6.174   4.432
 2082SOL     OW 7144   0.664   6.431   2.998
 2082SOL    HW1 7145   0.749   6.474   3.029
 2082SOL    HW2 7146   0.676   6.396   2.905
 2083SOL     OW 7147   1.490   6.035   4.684
 2083SOL    HW1 7148   1.427   6.032   4.762
 2083SOL    HW2 7149   1.468   6.113   4.626
 2084SOL     OW 7150   0.905   3.229   1.845
 2084SOL    HW1 7151   0.819   3.256   1.803
 2084SOL    HW2 7152   0.965   3.309   1.853
 2085SOL     OW 7153   4.540   6.588   0.933
 2085SOL    HW1 7154   4.637   6.574   0.912
 2085SOL    HW2 7155   4.522   6.686   0.941
 2086SOL     OW 7156   3.622   6.206   0.159
 2086SOL    HW1 7157   3.665   6.231   0.246
 2086SOL    HW2 7158   3.683   6.231   0.083
 2087SOL     OW 7159   4.538   2.127   0.535
 2087SOL    HW1 7160   4.578   2.060   0.473
 2087SOL    HW2 7161   4.488   2.196   0.482
 2088SOL     OW 7162   1.357   5.944   6.105
 2088SOL    HW1 7163   1.354   5.944   6.005
 2088SOL    HW2 7164   1.288   5.881   6.140
 2089SOL     OW 7165   4.477   2.549   5.240
 2089SOL    HW1 7166   4.509   2.517   5.151
 2089SOL    HW2 7167   4.517   2.493   5.312
 2090SOL     OW 7168   4.672   2.981   5.279
 2090SOL    HW1 7169   4.757   3.032   5.262
 2090SOL    HW2 7170   4.597   3.046   5.294
 2091SOL     OW 7171   6.700   6.186   0.604
 2091SOL    HW1 7172   6.695   6.180   0.504
 2091SOL    HW2 7173   6.729   6.098   0.641
 2092SOL     OW 7174   5.421   4.159   1.122
 2092SOL    HW1 7175   5.327   4.135   1.143
 2092SOL    HW2 7176   5.462   4.088   1.065
 2093SOL     OW 7177   3.686   1.787   1.945
 2093SOL    HW1 7178   3.623   1.848   1.994
 2093SOL    HW2 7179   3.668   1.693   1.973
 2094SOL     OW 7180   5.430   1.994   0.960
 2094SOL    HW1 7181   5.408   1.989   1.058
 2094SOL    HW2 7182   5.402   2.083   0.924
 2095SOL     OW 7183   6.044   6.772   3.601
 2095SOL    HW1 7184   6.050   6.703   3.529
 2095SOL    HW2 7185   6.133   6.781   3.646
 2096SOL     OW 7186   4.566   5.156   3.063
 2096SOL    HW1 7187   4.594   5.070   3.106
 2096SOL    HW2 7188   4.571   5.147   2.963
 2097SOL     OW 7189   2.961   3.171   0.075
 2097SOL    HW1 7190   2.997   3.128   0.158
 2097SOL    HW2 7191   3.000   3.263   0.065
 2098SOL     OW 7192   3.998   6.008   3.061
 2098SOL    HW1 7193   4.004   6.002   2.961
 2098SOL    HW2 7194   4.073   5.957   3.102
 2099SOL     OW 7195   4.264   1.674   6.526
 2099SOL    HW1 7196   4.220   1.599   6.576
 2099SOL    HW2 7197   4.218   1.687   6.438
 2100SOL     OW 7198   4.635   1.593   0.050
 2100SOL    HW1 7199   4.647   1.620   6.971
 2100SOL    HW2 7200   4.706   1.636   0.106
 2101SOL     OW 7201   0.007   6.242   1.281
 2101SOL    HW1 7202   7.010   6.147   1.310
 2101SOL    HW2 7203   6.935   6.288   1.274
 2102SOL     OW 7204   4.987   3.265   1.535
 2102SOL    HW1 7205   4.902   3.315   1.549
 2102SOL    HW2 7206   5.065   3.320   1.564
 2103SOL     OW 7207   4.148   3.677   0.664
 2103SOL    HW1 7208   4.072   3.652   0.725
 2103SOL    HW2 7209   4.224   3.714   0.718
 2104SOL     OW 7210   1.597   5.019   1.784
 2104SOL    HW1 7211   1.525   4.954   1.760
 2104SOL    HW2 7212   1.606   5.024   1.883
 2105SOL     OW 7213   3.866   4.562   6.676
 2105SOL    HW1 7214   3.927   4.641   6.669
 2105SOL    HW2 7215   3.772   4.594   6.684
 2106SOL     OW 7216   5.258   3.863   0.849
 2106SOL    HW1 7217   5.243   3.933   0.919
 2106SOL    HW2 7218   5.306   3.786   0.889
 2107SOL     OW 7219   6.097   2.428   5.447
 2107SOL    HW1 7220   6.162   2.500   5.471
 2107SOL    HW2 7221   6.004   2.460   5.465
 2108SOL     OW 7222   5.868   5.816   4.881
 2108SOL    HW1 7223   5.785   5.773   4.845
 2108SOL    HW2 7224   5.861   5.824   4.980
 2109SOL     OW 7225   3.156   5.932   2.010
 2109SOL    HW1 7226   3.254   5.934   1.990
 2109SOL    HW2 7227   3.127   6.023   2.041
 2110SOL     OW 7228   3.698   0.460   5.842
 2110SOL    HW1 7229   3.659   0.369   5.827
 2110SOL    HW2 7230   3.767   0.455   5.914
 2111SOL     OW 7231   1.845   2.332   5.259
 2111SOL    HW1 7232   1.880   2.419   5.296
 2111SOL    HW2 7233   1.746   2.326   5.277
 2112SOL     OW 7234   5.507   2.234   6.996
 2112SOL    HW1 7235   5.450   2.304   6.953
 2112SOL    HW2 7236   5.451   2.152   7.014
 2113SOL     OW 7237   2.376   6.952   4.858
 2113SOL    HW1 7238   2.328   6.864   4.861
 2113SOL    HW2 7239   2.457   6.947   4.917
 2114SOL     OW 7240   2.180   3.079   0.063
 2114SOL    HW1 7241   2.206   3.052   6.987
 2114SOL    HW2 7242   2.084   3.104   0.065
 2115SOL     OW 7243   1.407   4.863   1.701
 2115SOL    HW1 7244   1.347   4.908   1.634
 2115SOL    HW2 7245   1.404   4.764   1.687
 2116SOL     OW 7246   1.275   2.899   1.408
 2116SOL    HW1 7247   1.277   2.998   1.389
 2116SOL    HW2 7248   1.185   2.873   1.443
 2117SOL     OW 7249   5.162   3.430   1.632
 2117SOL    HW1 7250   5.183   3.526   1.615
 2117SOL    HW2 7251   5.169   3.411   1.729
 2118SOL     OW 7252   6.147   3.821   2.728
 2118SOL    HW1 7253   6.224   3.846   2.787
 2118SOL    HW2 7254   6.134   3.721   2.731
 2119SOL     OW 7255   1.747   1.420   1.008
 2119SOL    HW1 7256   1.714   1.335   1.048
 2119SOL    HW2 7257   1.846   1.415   0.997
 2120SOL     OW 7258   6.850   2.538   2.608
 2120SOL    HW1 7259   6.843   2.506   2.702
 2120SOL    HW2 7260   6.853   2.459   2.546
 2121SOL     OW 7261   1.939   2.725   6.531
 2121SOL    HW1 7262   1.884   2.644   6.552
 2121SOL    HW2 7263   1.926   2.750   6.435
 2122SOL     OW 7264   6.235   6.536   5.950
 2122SOL    HW1 7265   6.305   6.506   6.016
 2122SOL    HW2 7266   6.276   6.602   5.887
 2123SOL     OW 7267   5.986   6.231   2.456
 2123SOL    HW1 7268   5.949   6.300   2.519
 2123SOL    HW2 7269   6.068   6.189   2.496
 2124SOL     OW 7270   3.165   1.677   6.642
 2124SOL    HW1 7271   3.228   1.695   6.717
 2124SOL    HW2 7272   3.088   1.623   6.676
 2125SOL     OW 7273   0.971   5.979   2.221
 2125SOL    HW1 7274   0.899   5.916   2.192
 2125SOL    HW2 7275   1.057   5.929   2.231
 2126SOL     OW 7276   4.115   2.487   6.243
 2126SOL    HW1 7277   4.131   2.529   6.154
 2126SOL    HW2 7278   4.026   2.517   6.279
 2127SOL     OW 7279   0.619   1.810   5.516
 2127SOL    HW1 7280   0.668   1.778   5.435
 2127SOL    HW2 7281   0.525   1.774   5.514
 2128SOL     OW 7282   6.328   2.634   0.937
 2128SOL    HW1 7283   6.238   2.678   0.945
 2128SOL    HW2 7284   6.395   2.685   0.991
 2129SOL     OW 7285   4.871   4.382   4.138
 2129SOL    HW1 7286   4.828   4.467   4.169
 2129SOL    HW2 7287   4.969   4.385   4.157
 2130SOL     OW 7288   2.285   1.511   1.068
 2130SOL    HW1 7289   2.220   1.584   1.092
 2130SOL    HW2 7290   2.250   1.460   0.989
 2131SOL     OW 7291   5.094   1.923   0.498
 2131SOL    HW1 7292   5.118   1.924   0.401
 2131SOL    HW2 7293   5.149   1.991   0.547
 2132SOL     OW 7294   3.348   1.595   6.901
 2132SOL    HW1 7295   3.303   1.600   6.991
 2132SOL    HW2 7296   3.413   1.670   6.892
 2133SOL     OW 7297   3.131   2.239   0.946
 2133SOL    HW1 7298   3.116   2.173   0.873
 2133SOL    HW2 7299   3.119   2.332   0.910
 2134SOL     OW 7300   1.045   1.207   4.741
 2134SOL    HW1 7301   0.969   1.166   4.690
 2134SOL    HW2 7302   1.014   1.292   4.784
 2135SOL     OW 7303   6.992   1.566   4.320
 2135SOL    HW1 7304   7.008   1.468   4.302
 2135SOL    HW2 7305   6.898   1.589   4.295
 2136SOL     OW 7306   1.203   3.888   4.361
 2136SOL    HW1 7307   1.162   3.891   4.452
 2136SOL    HW2 7308   1.294   3.846   4.367
 2137SOL     OW 7309   0.517   6.703   4.444
 2137SOL    HW1 7310   0.439   6.762   4.463
 2137SOL    HW2 7311   0.602   6.755   4.454
 2138SOL     OW 7312   5.689   3.084   1.669
 2138SOL    HW1 7313   5.742   3.132   1.600
 2138SOL    HW2 7314   5.711   2.986   1.666
 2139SOL     OW 7315   4.344   1.333   3.226
 2139SOL    HW1 7316   4.345   1.311   3.324
 2139SOL    HW2 7317   4.310   1.426   3.213
 2140SOL     OW 7318   2.965   6.351   2.953
 2140SOL    HW1 7319   2.928   6.441   2.931
 2140SOL    HW2 7320   3.023   6.319   2.878
 2141SOL     OW 7321   6.444   3.120   1.972
 2141SOL    HW1 7322   6.412   3.100   1.879
 2141SOL    HW2 7323   6.541   3.145   1.969
 2142SOL     OW 7324   1.416   2.359   3.079
 2142SOL    HW1 7325   1.453   2.423   3.146
 2142SOL    HW2 7326   1.490   2.326   3.020
 2143SOL     OW 7327   3.528   5.594   0.907
 2143SOL    HW1 7328   3.556   5.659   0.978
 2143SOL    HW2 7329   3.566   5.623   0.819
 2144SOL     OW 7330   2.240   0.476   2.972
 2144SOL    HW1 7331   2.248   0.382   3.006
 2144SOL    HW2 7332   2.244   0.540   3.049
 2145SOL     OW 7333   3.726   5.448   4.460
 2145SOL    HW1 7334   3.716   5.349   4.455
 2145SOL    HW2 7335   3.822   5.471   4.473
 2146SOL     OW 7336   3.203   3.859   2.829
 2146SOL    HW1 7337   3.105   3.837   2.831
 2146SOL    HW2 7338   3.250   3.808   2.901
 2147SOL     OW 7339   0.126   1.436   0.092
 2147SOL    HW1 7340   0.126   1.511   0.158
 2147SOL    HW2 7341   0.114   1.349   0.140
 2148SOL     OW 7342   4.980   3.336   4.306
 2148SOL    HW1 7343   4.946   3.378   4.390
 2148SOL    HW2 7344   5.071   3.297   4.322
 2149SOL     OW 7345   4.271   0.261   1.134
 2149SOL    HW1 7346   4.207   0.191   1.164
 2149SOL    HW2 7347   4.303   0.312   1.214
 2150SOL     OW 7348   3.025   2.149   2.234
 2150SOL    HW1 7349   3.089   2.209   2.283
 2150SOL    HW2 7350   2.959   2.205   2.185
 2151SOL     OW 7351   2.893   1.897   4.446
 2151SOL    HW1 7352   2.818   1.958   4.471
 2151SOL    HW2 7353   2.932   1.856   4.529
 2152SOL     OW 7354   4.508   6.161   1.799
 2152SOL    HW1 7355   4.557   6.237   1.842
 2152SOL    HW2 7356   4.475   6.099   1.870
 2153SOL     OW 7357   4.005   0.765   3.490
 2153SOL    HW1 7358   4.023   0.763   3.588
 2153SOL    HW2 7359   3.991   0.859   3.460
 2154SOL     OW 7360   3.421   6.073   4.941
 2154SOL    HW1 7361   3.455   6.141   4.875
 2154SOL    HW2 7362   3.474   6.079   5.025
 2155SOL     OW 7363   1.767   5.088   0.123
 2155SOL    HW1 7364   1.731   4.998   0.147
 2155SOL    HW2 7365   1.792   5.089   0.026
 2156SOL     OW 7366   2.801   0.275   1.536
 2156SOL    HW1 7367   2.801   0.327   1.451
 2156SOL    HW2 7368   2.722   0.215   1.538
 2157SOL     OW 7369   6.446   0.756   4.228
 2157SOL    HW1 7370   6.506   0.696   4.281
 2157SOL    HW2 7371   6.416   0.709   4.146
 2158SOL     OW 7372   3.758   6.434   0.357
 2158SOL    HW1 7373   3.722   6.524   0.334
 2158SOL    HW2 7374   3.712   6.399   0.438
 2159SOL     OW 7375   1.471   5.749   5.661
 2159SOL    HW1 7376   1.377   5.722   5.682
 2159SOL    HW2 7377   1.474   5.788   5.569
 2160SOL     OW 7378   4.269   3.824   1.517
 2160SOL    HW1 7379   4.185   3.773   1.536
 2160SOL    HW2 7380   4.293   3.879   1.596
 2161SOL     OW 7381   4.940   3.431   3.511
 2161SOL    HW1 7382   4.935   3.389   3.602
 2161SOL    HW2 7383   5.005   3.507   3.514
 2162SOL     OW 7384   2.260   0.566   0.413
 2162SOL    HW1 7385   2.336   0.527   0.466
 2162SOL    HW2 7386   2.267   0.666   0.413
 2163SOL     OW 7387   0.209   5.570   6.784
 2163SOL    HW1 7388   0.271   5.512   6.731
 2163SOL    HW2 7389   0.115   5.537   6.772
 2164SOL     OW 7390   1.944   1.306   6.549
 2164SOL    HW1 7391   1.921   1.403   6.548
 2164SOL    HW2 7392   1.903   1.263   6.630
 2165SOL     OW 7393   1.599   1.549   2.975
 2165SOL    HW1 7394   1.696   1.526   2.964
 2165SOL    HW2 7395   1.578   1.559   3.072
 2166SOL     OW 7396   2.106   2.413   5.770
 2166SOL    HW1 7397   2.074   2.364   5.689
 2166SOL    HW2 7398   2.155   2.351   5.830
 2167SOL     OW 7399   2.724   0.126   2.386
 2167SOL    HW1 7400   2.743   0.209   2.437
 2167SOL    HW2 7401   2.677   0.060   2.444
 2168SOL     OW 7402   6.260   2.270   5.009
 2168SOL    HW1 7403   6.183   2.329   4.985
 2168SOL    HW2 7404   6.341   2.300   4.960
 2169SOL     OW 7405   5.316   1.943   6.271
 2169SOL    HW1 7406   5.381   2.008   6.310
 2169SOL    HW2 7407   5.363   1.856   6.255
 2170SOL     OW 7408   5.614   4.808   5.004
 2170SOL    HW1 7409   5.563   4.791   4.919
 2170SOL    HW2 7410   5.555   4.787   5.082
 2171SOL     OW 7411   6.475   3.028   0.321
 2171SOL    HW1 7412   6.521   3.067   0.241
 2171SOL    HW2 7413   6.542   3.008   0.392
 2172SOL     OW 7414   3.233   1.440   0.673
 2172SOL    HW1 7415   3.284   1.481   0.748
 2172SOL    HW2 7416   3.246   1.495   0.590
 2173SOL     OW 7417   3.711   0.191   5.587
 2173SOL    HW1 7418   3.661   0.185   5.501
 2173SOL    HW2 7419   3.648   0.216   5.661
 2174SOL     OW 7420   6.368   5.013   5.846
 2174SOL    HW1 7421   6.349   4.959   5.765
 2174SOL    HW2 7422   6.319   5.100   5.841
 2175SOL     OW 7423   3.125   1.886   2.934
 2175SOL    HW1 7424   3.126   1.969   2.878
 2175SOL    HW2 7425   3.118   1.911   3.030
 2176SOL     OW 7426   1.004   2.073   2.086
 2176SOL    HW1 7427   0.960   2.115   2.007
 2176SOL    HW2 7428   0.964   1.984   2.104
 2177SOL     OW 7429   6.774   0.455   2.002
 2177SOL    HW1 7430   6.820   0.526   2.055
 2177SOL    HW2 7431   6.675   0.465   2.012
 2178SOL     OW 7432   0.977   4.126   0.202
 2178SOL    HW1 7433   1.071   4.095   0.214
 2178SOL    HW2 7434   0.934   4.136   0.292
 2179SOL     OW 7435   2.062   5.680   4.349
 2179SOL    HW1 7436   2.057   5.739   4.269
 2179SOL    HW2 7437   2.032   5.731   4.430
 2180SOL     OW 7438   2.849   3.413   2.265
 2180SOL    HW1 7439   2.845   3.426   2.166
 2180SOL    HW2 7440   2.757   3.392   2.299
 2181SOL     OW 7441   4.533   4.046   5.847
 2181SOL    HW1 7442   4.475   3.968   5.870
 2181SOL    HW2 7443   4.575   4.031   5.757
 2182SOL     OW 7444   6.909   3.623   6.332
 2182SOL    HW1 7445   6.901   3.564   6.412
 2182SOL    HW2 7446   6.989   3.594   6.278
 2183SOL     OW 7447   3.155   2.854   0.800
 2183SOL    HW1 7448   3.205   2.865   0.714
 2183SOL    HW2 7449   3.208   2.894   0.875
 2184SOL     OW 7450   3.435   0.055   5.981
 2184SOL    HW1 7451   3.475   7.003   5.919
 2184SOL    HW2 7452   3.368   0.012   6.040
 2185SOL     OW 7453   2.182   1.678   1.435
 2185SOL    HW1 7454   2.154   1.769   1.467
 2185SOL    HW2 7455   2.149   1.665   1.341
 2186SOL     OW 7456   6.739   4.595   2.406
 2186SOL    HW1 7457   6.780   4.680   2.373
 2186SOL    HW2 7458   6.805   4.545   2.461
 2187SOL     OW 7459   0.385   1.073   1.898
 2187SOL    HW1 7460   0.368   1.155   1.953
 2187SOL    HW2 7461   0.394   1.099   1.802
 2188SOL     OW 7462   4.763   5.785   4.058
 2188SOL    HW1 7463   4.752   5.687   4.043
 2188SOL    HW2 7464   4.811   5.800   4.145
 2189SOL     OW 7465   1.609   0.131   6.495
 2189SOL    HW1 7466   1.643   0.225   6.504
 2189SOL    HW2 7467   1.548   0.111   6.572
 2190SOL     OW 7468   6.056   2.715   1.383
 2190SOL    HW1 7469   6.037   2.643   1.450
 2190SOL    HW2 7470   6.142   2.760   1.407
 2191SOL     OW 7471   3.520   2.107   5.941
 2191SOL    HW1 7472   3.527   2.043   6.017
 2191SOL    HW2 7473   3.528   2.056   5.855
 2192SOL     OW 7474   4.447   6.555   5.069
 2192SOL    HW1 7475   4.508   6.532   5.144
 2192SOL    HW2 7476   4.442   6.479   5.005
 2193SOL     OW 7477   6.776   5.288   6.260
 2193SOL    HW1 7478   6.832   5.268   6.340
 2193SOL    HW2 7479   6.688   5.242   6.268
 2194SOL     OW 7480   1.853   5.881   0.480
 2194SOL    HW1 7481   1.876   5.968   0.524
 2194SOL    HW2 7482   1.791   5.898   0.404
 2195SOL     OW 7483   6.800   6.616   1.806
 2195SOL    HW1 7484   6.812   6.575   1.896
 2195SOL    HW2 7485   6.727   6.569   1.757
 2196SOL     OW 7486   2.191   0.700   5.691
 2196SOL    HW1 7487   2.276   0.653   5.666
 2196SOL    HW2 7488   2.167   0.766   5.619
 2197SOL     OW 7489   4.779   4.243   1.602
 2197SOL    HW1 7490   4.717   4.219   1.677
 2197SOL    HW2 7491   4.810   4.159   1.557
 2198SOL     OW 7492   0.024   2.885   6.950
 2198SOL    HW1 7493   0.106   2.923   6.908
 2198SOL    HW2 7494   0.029   2.785   6.950
 2199SOL     OW 7495   5.394   0.028   1.174
 2199SOL    HW1 7496   5.430   6.994   1.252
 2199SOL    HW2 7497   5.393   6.986   1.093
 2200SOL     OW 7498   4.256   0.628   4.519
 2200SOL    HW1 7499   4.215   0.635   4.428
 2200SOL    HW2 7500   4.189   0.656   4.588
 2201SOL     OW 7501   5.647   3.969   2.362
 2201SOL    HW1 7502   5.724   3.916   2.398
 2201SOL    HW2 7503   5.569   3.907   2.347
 2202SOL     OW 7504   3.246   5.219   4.275
 2202SOL    HW1 7505   3.206   5.299   4.319
 2202SOL    HW2 7506   3.248   5.143   4.340
 2203SOL     OW 7507   3.139   2.092   2.757
 2203SOL    HW1 7508   3.237   2.114   2.755
 2203SOL    HW2 7509   3.110   2.061   2.667
 2204SOL     OW 7510   4.141   0.928   6.625
 2204SOL    HW1 7511   4.165   1.012   6.577
 2204SOL    HW2 7512   4.203   0.855   6.596
 2205SOL     OW 7513   1.491   0.684   6.797
 2205SOL    HW1 7514   1.474   0.590   6.828
 2205SOL    HW2 7515   1.572   0.720   6.843
 2206SOL     OW 7516   2.893   3.911   5.736
 2206SOL    HW1 7517   2.957   3.892   5.661
 2206SOL    HW2 7518   2.941   3.900   5.823
 2207SOL     OW 7519   1.094   4.452   6.092
 2207SOL    HW1 7520   1.102   4.543   6.133
 2207SOL    HW2 7521   1.028   4.398   6.144
 2208SOL     OW 7522   1.570   4.611   2.038
 2208SOL    HW1 7523   1.570   4.605   2.137
 2208SOL    HW2 7524   1.480   4.641   2.006
 2209SOL     OW 7525   1.423   5.952   5.819
 2209SOL    HW1 7526   1.446   5.870   5.765
 2209SOL    HW2 7527   1.502   6.012   5.823
 2210SOL     OW 7528   1.259   4.999   2.720
 2210SOL    HW1 7529   1.213   4.983   2.807
 2210SOL    HW2 7530   1.219   5.078   2.675
 2211SOL     OW 7531   5.712   1.650   5.276
 2211SOL    HW1 7532   5.639   1.590   5.242
 2211SOL    HW2 7533   5.734   1.624   5.370
 2212SOL     OW 7534   0.274   6.336   6.435
 2212SOL    HW1 7535   0.370   6.335   6.465
 2212SOL    HW2 7536   0.239   6.430   6.439
 2213SOL     OW 7537   4.619   2.689   4.518
 2213SOL    HW1 7538   4.529   2.649   4.531
 2213SOL    HW2 7539   4.681   2.621   4.481
 2214SOL     OW 7540   4.483   0.856   5.266
 2214SOL    HW1 7541   4.544   0.797   5.214
 2214SOL    HW2 7542   4.526   0.945   5.280
 2215SOL     OW 7543   6.874   1.234   5.536
 2215SOL    HW1 7544   6.842   1.140   5.522
 2215SOL    HW2 7545   6.973   1.234   5.549
 2216SOL     OW 7546   1.835   0.277   0.242
 2216SOL    HW1 7547   1.880   0.359   0.277
 2216SOL    HW2 7548   1.754   0.257   0.297
 2217SOL     OW 7549   3.851   6.969   1.075
 2217SOL    HW1 7550   3.779   6.991   1.008
 2217SOL    HW2 7551   3.917   6.907   1.033
 2218SOL     OW 7552   0.846   6.755   6.930
 2218SOL    HW1 7553   0.927   6.697   6.942
 2218SOL    HW2 7554   0.809   6.742   6.838
 2219SOL     OW 7555   1.717   3.596   2.944
 2219SOL    HW1 7556   1.694   3.499   2.936
 2219SOL    HW2 7557   1.727   3.635   2.852
 2220SOL     OW 7558   0.352   1.355   4.176
 2220SOL    HW1 7559   0.382   1.448   4.200
 2220SOL    HW2 7560   0.333   1.304   4.259
 2221SOL     OW 7561   6.373   1.975   0.810
 2221SOL    HW1 7562   6.343   2.070   0.816
 2221SOL    HW2 7563   6.329   1.921   0.882
 2222SOL     OW 7564   4.278   0.905   1.054
 2222SOL    HW1 7565   4.213   0.940   1.122
 2222SOL    HW2 7566   4.242   0.821   1.014
 2223SOL     OW 7567   5.698   5.037   3.808
 2223SOL    HW1 7568   5.742   5.026   3.719
 2223SOL    HW2 7569   5.754   4.993   3.878
 2224SOL     OW 7570   1.847   4.604   1.011
 2224SOL    HW1 7571   1.794   4.655   0.943
 2224SOL    HW2 7572   1.882   4.667   1.080
 2225SOL     OW 7573   5.909   5.035   2.677
 2225SOL    HW1 7574   5.923   5.002   2.584
 2225SOL    HW2 7575   5.964   5.118   2.691
 2226SOL     OW 7576   3.670   3.522   1.069
 2226SOL    HW1 7577   3.764   3.533   1.100
 2226SOL    HW2 7578   3.654   3.427   1.043
 2227SOL     OW 7579   6.022   4.239   6.230
 2227SOL    HW1 7580   5.957   4.168   6.259
 2227SOL    HW2 7581   5.975   4.309   6.177
 2228SOL     OW 7582   3.160   5.626   0.242
 2228SOL    HW1 7583   3.156   5.644   0.341
 2228SOL    HW2 7584   3.254   5.635   0.210
 2229SOL     OW 7585   4.349   1.637   3.955
 2229SOL    HW1 7586   4.249   1.636   3.957
 2229SOL    HW2 7587   4.381   1.732   3.951
 2230SOL     OW 7588   1.282   5.499   4.134
 2230SOL    HW1 7589   1.215   5.461   4.198
 2230SOL    HW2 7590   1.374   5.468   4.159
 2231SOL     OW 7591   1.725   1.813   2.547
 2231SOL    HW1 7592   1.752   1.909   2.552
 2231SOL    HW2 7593   1.707   1.789   2.451
 2232SOL     OW 7594   0.434   3.457   3.738
 2232SOL    HW1 7595   0.397   3.409   3.818
 2232SOL    HW2 7596   0.359   3.500   3.688
 2233SOL     OW 7597   3.950   5.124   6.658
 2233SOL    HW1 7598   3.961   5.217   6.623
 2233SOL    HW2 7599   3.940   5.060   6.582
 2234SOL     OW 7600   3.810   2.310   0.840
 2234SOL    HW1 7601   3.826   2.310   0.939
 2234SOL    HW2 7602   3.793   2.217   0.809
 2235SOL     OW 7603   1.189   0.524   6.855
 2235SOL    HW1 7604   1.225   0.617   6.859
 2235SOL    HW2 7605   1.197   0.490   6.761
 2236SOL     OW 7606   0.961   4.463   0.618
 2236SOL    HW1 7607   0.876   4.513   0.635
 2236SOL    HW2 7608   1.033   4.528   0.594
 2237SOL     OW 7609   6.631   3.577   4.197
 2237SOL    HW1 7610   6.688   3.509   4.151
 2237SOL    HW2 7611   6.586   3.535   4.276
 2238SOL     OW 7612   0.106   5.338   2.164
 2238SOL    HW1 7613   0.040   5.274   2.126
 2238SOL    HW2 7614   0.062   5.427   2.177
 2239SOL     OW 7615   4.131   4.826   4.205
 2239SOL    HW1 7616   4.048   4.861   4.249
 2239SOL    HW2 7617   4.197   4.799   4.275
 2240SOL     OW 7618   6.217   5.166   3.261
 2240SOL    HW1 7619   6.261   5.205   3.342
 2240SOL    HW2 7620   6.128   5.128   3.286
 2241SOL     OW 7621   6.821   6.462   2.615
 2241SOL    HW1 7622   6.790   6.392   2.680
 2241SOL    HW2 7623   6.921   6.469   2.620
 2242SOL     OW 7624   5.505   1.534   3.063
 2242SOL    HW1 7625   5.566   1.497   3.132
 2242SOL    HW2 7626   5.534   1.626   3.038
 2243SOL     OW 7627   2.486   6.348   5.301
 2243SOL    HW1 7628   2.503   6.256   5.334
 2243SOL    HW2 7629   2.503   6.414   5.374
 2244SOL     OW 7630   4.006   0.662   3.232
 2244SOL    HW1 7631   3.937   0.710   3.176
 2244SOL    HW2 7632   3.990   0.684   3.329
 2245SOL     OW 7633   0.167   2.073   2.104
 2245SOL    HW1 7634   0.200   2.166   2.122
 2245SOL    HW2 7635   0.235   2.006   2.134
 2246SOL     OW 7636   1.648   2.642   5.462
 2246SOL    HW1 7637   1.733   2.590   5.458
 2246SOL    HW2 7638   1.610   2.652   5.370
 2247SOL     OW 7639   2.670   2.099   5.603
 2247SOL    HW1 7640   2.741   2.164   5.632
 2247SOL    HW2 7641   2.587   2.149   5.580
 2248SOL     OW 7642   5.233   3.876   5.509
 2248SOL    HW1 7643   5.275   3.802   5.562
 2248SOL    HW2 7644   5.166   3.924   5.567
 2249SOL     OW 7645   5.695   6.480   3.138
 2249SOL    HW1 7646   5.624   6.539   3.100
 2249SOL    HW2 7647   5.770   6.470   3.072
 2250SOL     OW 7648   5.147   3.918   1.555
 2250SOL    HW1 7649   5.072   3.963   1.604
 2250SOL    HW2 7650   5.197   3.986   1.502
 2251SOL     OW 7651   5.989   1.258   0.340
 2251SOL    HW1 7652   6.078   1.212   0.342
 2251SOL    HW2 7653   5.986   1.328   0.411
 2252SOL     OW 7654   6.134   3.289   5.363
 2252SOL    HW1 7655   6.226   3.300   5.400
 2252SOL    HW2 7656   6.101   3.196   5.384
 2253SOL     OW 7657   1.689   2.946   6.437
 2253SOL    HW1 7658   1.755   2.916   6.368
 2253SOL    HW2 7659   1.648   2.866   6.481
 2254SOL     OW 7660   2.295   3.146   5.870
 2254SOL    HW1 7661   2.231   3.096   5.928
 2254SOL    HW2 7662   2.244   3.212   5.814
 2255SOL     OW 7663   6.007   2.463   1.479
 2255SOL    HW1 7664   6.063   2.449   1.397
 2255SOL    HW2 7665   5.937   2.392   1.484
 2256SOL     OW 7666   3.767   5.202   1.915
 2256SOL    HW1 7667   3.719   5.126   1.958
 2256SOL    HW2 7668   3.786   5.180   1.820
 2257SOL     OW 7669   1.459   3.329   4.422
 2257SOL    HW1 7670   1.529   3.259   4.435
 2257SOL    HW2 7671   1.503   3.417   4.405
 2258SOL     OW 7672   1.551   5.189   4.377
 2258SOL    HW1 7673   1.582   5.102   4.416
 2258SOL    HW2 7674   1.461   5.212   4.414
 2259SOL     OW 7675   5.236   4.009   6.417
 2259SOL    HW1 7676   5.248   4.071   6.340
 2259SOL    HW2 7677   5.189   3.925   6.387
 2260SOL     OW 7678   4.311   4.604   2.951
 2260SOL    HW1 7679   4.376   4.674   2.980
 2260SOL    HW2 7680   4.305   4.603   2.852
 2261SOL     OW 7681   5.542   6.166   1.019
 2261SOL    HW1 7682   5.471   6.228   1.054
 2261SOL    HW2 7683   5.629   6.188   1.064
 2262SOL     OW 7684   5.405   2.374   3.490
 2262SOL    HW1 7685   5.325   2.384   3.549
 2262SOL    HW2 7686   5.485   2.415   3.535
 2263SOL     OW 7687   2.146   6.322   5.884
 2263SOL    HW1 7688   2.105   6.413   5.897
 2263SOL    HW2 7689   2.234   6.331   5.840
 2264SOL     OW 7690   2.953   3.622   2.554
 2264SOL    HW1 7691   3.035   3.565   2.557
 2264SOL    HW2 7692   2.970   3.700   2.494
 2265SOL     OW 7693   0.314   1.092   3.415
 2265SOL    HW1 7694   0.324   1.123   3.320
 2265SOL    HW2 7695   0.258   1.009   3.417
 2266SOL     OW 7696   6.883   1.219   0.814
 2266SOL    HW1 7697   6.855   1.134   0.769
 2266SOL    HW2 7698   6.929   1.278   0.748
 2267SOL     OW 7699   5.426   2.606   5.071
 2267SOL    HW1 7700   5.478   2.670   5.014
 2267SOL    HW2 7701   5.416   2.519   5.023
 2268SOL     OW 7702   6.362   5.715   0.418
 2268SOL    HW1 7703   6.349   5.657   0.498
 2268SOL    HW2 7704   6.455   5.702   0.382
 2269SOL     OW 7705   5.929   5.247   5.306
 2269SOL    HW1 7706   5.849   5.210   5.354
 2269SOL    HW2 7707   5.922   5.223   5.209
 2270SOL     OW 7708   3.575   3.696   1.255
 2270SOL    HW1 7709   3.610   3.647   1.175
 2270SOL    HW2 7710   3.589   3.794   1.243
 2271SOL     OW 7711   6.039   4.485   1.467
 2271SOL    HW1 7712   6.004   4.450   1.380
 2271SOL    HW2 7713   6.039   4.585   1.466
 2272SOL     OW 7714   5.718   2.193   4.634
 2272SOL    HW1 7715   5.623   2.219   4.652
 2272SOL    HW2 7716   5.777   2.274   4.640
 2273SOL     OW 7717   1.708   1.889   3.415
 2273SOL    HW1 7718   1.767   1.834   3.356
 2273SOL    HW2 7719   1.712   1.985   3.387
 2274SOL     OW 7720   1.717   4.176   4.570
 2274SOL    HW1 7721   1.806   4.166   4.526
 2274SOL    HW2 7722   1.661   4.095   4.553
 2275SOL     OW 7723   5.137   6.573   4.393
 2275SOL    HW1 7724   5.097   6.570   4.484
 2275SOL    HW2 7725   5.070   6.611   4.329
 2276SOL     OW 7726   3.699   5.261   1.128
 2276SOL    HW1 7727   3.747   5.332   1.075
 2276SOL    HW2 7728   3.629   5.219   1.071
 2277SOL     OW 7729   3.325   3.274   4.746
 2277SOL    HW1 7730   3.382   3.191   4.751
 2277SOL    HW2 7731   3.288   3.294   4.836
 2278SOL     OW 7732   4.498   6.235   3.200
 2278SOL    HW1 7733   4.418   6.239   3.141
 2278SOL    HW2 7734   4.499   6.148   3.250
 2279SOL     OW 7735   5.501   4.365   4.261
 2279SOL    HW1 7736   5.596   4.334   4.262
 2279SOL    HW2 7737   5.449   4.308   4.196
 2280SOL     OW 7738   6.924   6.251   5.024
 2280SOL    HW1 7739   0.001   6.219   5.036
 2280SOL    HW2 7740   6.874   6.186   4.966
 2281SOL     OW 7741   3.725   1.787   1.433
 2281SOL    HW1 7742   3.811   1.835   1.446
 2281SOL    HW2 7743   3.739   1.689   1.443
 2282SOL     OW 7744   5.151   5.982   4.685
 2282SOL    HW1 7745   5.157   5.922   4.606
 2282SOL    HW2 7746   5.225   6.049   4.681
 2283SOL     OW 7747   6.745   3.353   2.496
 2283SOL    HW1 7748   6.812   3.332   2.425
 2283SOL    HW2 7749   6.787   3.340   2.586
 2284SOL     OW 7750   2.656   2.202   1.737
 2284SOL    HW1 7751   2.692   2.295   1.735
 2284SOL    HW2 7752   2.696   2.153   1.815
 2285SOL     OW 7753   1.410   3.696   0.815
 2285SOL    HW1 7754   1.496   3.698   0.763
 2285SOL    HW2 7755   1.378   3.602   0.822
 2286SOL     OW 7756   0.006   5.860   5.212
 2286SOL    HW1 7757   6.936   5.825   5.246
 2286SOL    HW2 7758   0.081   5.802   5.245
 2287SOL     OW 7759   2.050   2.885   1.309
 2287SOL    HW1 7760   2.045   2.888   1.409
 2287SOL    HW2 7761   2.072   2.792   1.279
 2288SOL     OW 7762   1.017   5.596   3.448
 2288SOL    HW1 7763   1.112   5.607   3.420
 2288SOL    HW2 7764   0.958   5.648   3.386
 2289SOL     OW 7765   5.214   2.076   1.587
 2289SOL    HW1 7766   5.180   2.039   1.674
 2289SOL    HW2 7767   5.167   2.162   1.567
 2290SOL     OW 7768   2.972   3.185   2.779
 2290SOL    HW1 7769   3.001   3.186   2.684
 2290SOL    HW2 7770   3.028   3.120   2.830
 2291SOL     OW 7771   2.109   1.963   1.912
 2291SOL    HW1 7772   2.129   2.020   1.992
 2291SOL    HW2 7773   2.092   2.021   1.833
 2292SOL     OW 7774   5.197   3.413   3.690
 2292SOL    HW1 7775   5.218   3.395   3.594
 2292SOL    HW2 7776   5.190   3.326   3.739
 2293SOL     OW 7777   5.429   1.178   0.801
 2293SOL    HW1 7778   5.342   1.129   0.794
 2293SOL    HW2 7779   5.475   1.177   0.712
 2294SOL     OW 7780   3.222   1.741   5.686
 2294SOL    HW1 7781   3.289   1.751   5.613
 2294SOL    HW2 7782   3.266   1.755   5.775
 2295SOL     OW 7783   6.923   1.177   1.514
 2295SOL    HW1 7784   6.915   1.272   1.484
 2295SOL    HW2 7785   6.970   1.173   1.602
 2296SOL     OW 7786   2.349   4.955   3.065
 2296SOL    HW1 7787   2.435   4.946   3.115
 2296SOL    HW2 7788   2.273   4.926   3.124
 2297SOL     OW 7789   4.947   4.725   5.687
 2297SOL    HW1 7790   4.981   4.717   5.594
 2297SOL    HW2 7791   4.847   4.725   5.687
 2298SOL     OW 7792   3.902   3.975   3.238
 2298SOL    HW1 7793   3.824   3.912   3.225
 2298SOL    HW2 7794   3.868   4.069   3.245
 2299SOL     OW 7795   4.927   3.749   4.763
 2299SOL    HW1 7796   4.861   3.761   4.690
 2299SOL    HW2 7797   4.909   3.663   4.811
 2300SOL     OW 7798   3.151   6.725   3.577
 2300SOL    HW1 7799   3.140   6.625   3.572
 2300SOL    HW2 7800   3.179   6.760   3.488
 2301SOL     OW 7801   3.647   2.905   4.210
 2301SOL    HW1 7802   3.654   2.840   4.286
 2301SOL    HW2 7803   3.738   2.937   4.186
 2302SOL     OW 7804   4.266   0.596   0.315
 2302SOL    HW1 7805   4.181   0.549   0.293
 2302SOL    HW2 7806   4.247   0.668   0.382
 2303SOL     OW 7807   2.141   2.656   1.191
 2303SOL    HW1 7808   2.237   2.645   1.218
 2303SOL    HW2 7809   2.109   2.570   1.150
 2304SOL     OW 7810   6.660   6.004   4.165
 2304SOL    HW1 7811   6.596   6.006   4.089
 2304SOL    HW2 7812   6.753   5.995   4.129
 2305SOL     OW 7813   1.829   0.964   3.447
 2305SOL    HW1 7814   1.926   0.955   3.423
 2305SOL    HW2 7815   1.806   1.061   3.455
 2306SOL     OW 7816   1.429   5.228   2.395
 2306SOL    HW1 7817   1.527   5.222   2.373
 2306SOL    HW2 7818   1.392   5.135   2.405
 2307SOL     OW 7819   1.270   2.680   5.234
 2307SOL    HW1 7820   1.218   2.634   5.307
 2307SOL    HW2 7821   1.228   2.660   5.146
 2308SOL     OW 7822   2.277   5.158   0.740
 2308SOL    HW1 7823   2.329   5.183   0.658
 2308SOL    HW2 7824   2.243   5.064   0.729
 2309SOL     OW 7825   1.707   0.679   4.165
 2309SOL    HW1 7826   1.769   0.656   4.241
 2309SOL    HW2 7827   1.753   0.742   4.103
 2310SOL     OW 7828   5.284   6.605   2.574
 2310SOL    HW1 7829   5.247   6.684   2.525
 2310SOL    HW2 7830   5.211   6.538   2.589
 2311SOL     OW 7831   2.022   6.174   0.320
 2311SOL    HW1 7832   2.016   6.075   0.333
 2311SOL    HW2 7833   1.963   6.220   0.387
 2312SOL     OW 7834   4.010   5.555   3.252
 2312SOL    HW1 7835   3.981   5.520   3.340
 2312SOL    HW2 7836   3.982   5.492   3.179
 2313SOL     OW 7837   4.975   5.173   2.499
 2313SOL    HW1 7838   4.974   5.130   2.589
 2313SOL    HW2 7839   4.920   5.118   2.435
 2314SOL     OW 7840   3.495   5.993   3.530
 2314SOL    HW1 7841   3.568   6.061   3.533
 2314SOL    HW2 7842   3.406   6.038   3.530
 2315SOL     OW 7843   4.907   3.378   6.643
 2315SOL    HW1 7844   5.005   3.396   6.646
 2315SOL    HW2 7845   4.866   3.398   6.732
 2316SOL     OW 7846   4.771   2.853   3.429
 2316SOL    HW1 7847   4.732   2.777   3.481
 2316SOL    HW2 7848   4.744   2.940   3.471
 2317SOL     OW 7849   1.144   4.747   2.582
 2317SOL    HW1 7850   1.115   4.821   2.643
 2317SOL    HW2 7851   1.227   4.705   2.618
 2318SOL     OW 7852   0.840   2.302   3.394
 2318SOL    HW1 7853   0.890   2.379   3.354
 2318SOL    HW2 7854   0.761   2.337   3.444
 2319SOL     OW 7855   2.163   4.132   4.853
 2319SOL    HW1 7856   2.222   4.082   4.916
 2319SOL    HW2 7857   2.067   4.112   4.873
 2320SOL     OW 7858   0.404   2.391   4.615
 2320SOL    HW1 7859   0.481   2.447   4.647
 2320SOL    HW2 7860   0.357   2.350   4.694
 2321SOL     OW 7861   3.569   0.407   5.022
 2321SOL    HW1 7862   3.656   0.365   5.046
 2321SOL    HW2 7863   3.585   0.483   4.958
 2322SOL     OW 7864   1.350   1.963   5.728
 2322SOL    HW1 7865   1.447   1.962   5.755
 2322SOL    HW2 7866   1.297   1.910   5.794
 2323SOL     OW 7867   3.890   5.909   3.455
 2323SOL    HW1 7868   3.961   5.977   3.437
 2323SOL    HW2 7869   3.848   5.880   3.369
 2324SOL     OW 7870   0.812   6.177   2.294
 2324SOL    HW1 7871   0.850   6.226   2.372
 2324SOL    HW2 7872   0.870   6.098   2.272
 2325SOL     OW 7873   0.932   3.751   1.587
 2325SOL    HW1 7874   0.959   3.792   1.674
 2325SOL    HW2 7875   1.011   3.745   1.526
 2326SOL     OW 7876   1.846   3.914   6.600
 2326SOL    HW1 7877   1.849   3.838   6.665
 2326SOL    HW2 7878   1.801   3.992   6.643
 2327SOL     OW 7879   4.835   3.075   4.311
 2327SOL    HW1 7880   4.872   3.164   4.287
 2327SOL    HW2 7881   4.813   3.023   4.228
 2328SOL     OW 7882   4.961   1.097   3.082
 2328SOL    HW1 7883   4.910   1.030   3.136
 2328SOL    HW2 7884   4.968   1.064   2.988
 2329SOL     OW 7885   1.093   5.466   4.355
 2329SOL    HW1 7886   1.001   5.427   4.352
 2329SOL    HW2 7887   1.154   5.404   4.405
 2330SOL     OW 7888   0.067   5.210   1.257
 2330SOL    HW1 7889   7.014   5.146   1.223
 2330SOL    HW2 7890   0.049   5.301   1.221
 2331SOL     OW 7891   0.087   4.356   5.329
 2331SOL    HW1 7892   7.015   4.377   5.287
 2331SOL    HW2 7893   0.159   4.366   5.260
 2332SOL     OW 7894   5.213   3.023   5.885
 2332SOL    HW1 7895   5.152   2.944   5.885
 2332SOL    HW2 7896   5.165   3.102   5.924
 2333SOL     OW 7897   0.953   4.776   2.877
 2333SOL    HW1 7898   0.894   4.809   2.803
 2333SOL    HW2 7899   1.008   4.851   2.912
 2334SOL     OW 7900   3.178   6.684   0.184
 2334SOL    HW1 7901   3.235   6.755   0.224
 2334SOL    HW2 7902   3.210   6.594   0.214
 2335SOL     OW 7903   6.288   0.793   3.230
 2335SOL    HW1 7904   6.228   0.859   3.275
 2335SOL    HW2 7905   6.366   0.842   3.190
 2336SOL     OW 7906   4.862   1.198   5.365
 2336SOL    HW1 7907   4.956   1.185   5.331
 2336SOL    HW2 7908   4.849   1.142   5.447
 2337SOL     OW 7909   5.667   0.775   3.433
 2337SOL    HW1 7910   5.606   0.705   3.398
 2337SOL    HW2 7911   5.703   0.829   3.356
 2338SOL     OW 7912   0.166   6.685   0.080
 2338SOL    HW1 7913   0.093   6.617   0.080
 2338SOL    HW2 7914   0.254   6.639   0.073
 2339SOL     OW 7915   3.253   3.489   6.071
 2339SOL    HW1 7916   3.345   3.527   6.061
 2339SOL    HW2 7917   3.251   3.426   6.148
 2340SOL     OW 7918   3.828   6.166   5.158
 2340SOL    HW1 7919   3.816   6.161   5.257
 2340SOL    HW2 7920   3.889   6.093   5.128
 2341SOL     OW 7921   5.483   4.756   0.742
 2341SOL    HW1 7922   5.524   4.745   0.833
 2341SOL    HW2 7923   5.536   4.705   0.675
 2342SOL     OW 7924   0.231   6.468   5.775
 2342SOL    HW1 7925   0.161   6.400   5.796
 2342SOL    HW2 7926   0.192   6.560   5.785
 2343SOL     OW 7927   0.761   6.526   0.889
 2343SOL    HW1 7928   0.722   6.491   0.804
 2343SOL    HW2 7929   0.812   6.454   0.935
 2344SOL     OW 7930   2.715   1.863   2.875
 2344SOL    HW1 7931   2.770   1.843   2.957
 2344SOL    HW2 7932   2.647   1.791   2.862
 2345SOL     OW 7933   1.255   0.473   4.520
 2345SOL    HW1 7934   1.268   0.459   4.422
 2345SOL    HW2 7935   1.253   0.571   4.540
 2346SOL     OW 7936   4.335   3.018   5.433
 2346SOL    HW1 7937   4.390   3.062   5.504
 2346SOL    HW2 7938   4.254   3.074   5.415
 2347SOL     OW 7939   1.664   3.753   2.119
 2347SOL    HW1 7940   1.580   3.738   2.171
 2347SOL    HW2 7941   1.727   3.809   2.173
 2348SOL     OW 7942   2.251   6.535   3.341
 2348SOL    HW1 7943   2.298   6.477   3.273
 2348SOL    HW2 7944   2.226   6.479   3.420
 2349SOL     OW 7945   6.926   6.497   5.739
 2349SOL    HW1 7946   6.970   6.430   5.800
 2349SOL    HW2 7947   6.964   6.588   5.758
 2350SOL     OW 7948   3.174   0.697   5.177
 2350SOL    HW1 7949   3.209   0.766   5.240
 2350SOL    HW2 7950   3.077   0.682   5.195
 2351SOL     OW 7951   2.503   5.132   3.578
 2351SOL    HW1 7952   2.464   5.219   3.608
 2351SOL    HW2 7953   2.603   5.141   3.571
 2352SOL     OW 7954   6.555   4.236   3.262
 2352SOL    HW1 7955   6.480   4.206   3.202
 2352SOL    HW2 7956   6.516   4.276   3.345
 2353SOL     OW 7957   2.471   3.898   5.647
 2353SOL    HW1 7958   2.432   3.867   5.561
 2353SOL    HW2 7959   2.550   3.957   5.628
 2354SOL     OW 7960   3.709   2.451   0.080
 2354SOL    HW1 7961   3.632   2.479   0.139
 2354SOL    HW2 7962   3.779   2.522   0.082
 2355SOL     OW 7963   0.392   6.914   1.072
 2355SOL    HW1 7964   0.305   6.920   1.122
 2355SOL    HW2 7965   0.380   6.858   0.991
 2356SOL     OW 7966   2.612   5.195   2.024
 2356SOL    HW1 7967   2.520   5.232   2.039
 2356SOL    HW2 7968   2.680   5.258   2.060
 2357SOL     OW 7969   5.108   4.890   3.452
 2357SOL    HW1 7970   5.152   4.806   3.419
 2357SOL    HW2 7971   5.128   4.965   3.389
 2358SOL     OW 7972   2.835   6.963   4.014
 2358SOL    HW1 7973   2.892   7.009   4.082
 2358SOL    HW2 7974   2.791   6.884   4.056
 2359SOL     OW 7975   2.657   1.469   6.063
 2359SOL    HW1 7976   2.649   1.568   6.048
 2359SOL    HW2 7977   2.661   1.451   6.161
 2360SOL     OW 7978   3.723   4.385   0.170
 2360SOL    HW1 7979   3.801   4.430   0.215
 2360SOL    HW2 7980   3.675   4.452   0.113
 2361SOL     OW 7981   2.805   6.891   3.220
 2361SOL    HW1 7982   2.791   6.939   3.306
 2361SOL    HW2 7983   2.890   6.921   3.177
 2362SOL     OW 7984   4.383   5.855   4.805
 2362SOL    HW1 7985   4.427   5.819   4.887
 2362SOL    HW2 7986   4.311   5.920   4.831
 2363SOL     OW 7987   4.072   2.001   6.108
 2363SOL    HW1 7988   4.110   2.066   6.173
 2363SOL    HW2 7989   4.108   2.019   6.017
 2364SOL     OW 7990   5.256   1.511   2.031
 2364SOL    HW1 7991   5.199   1.564   2.093
 2364SOL    HW2 7992   5.293   1.431   2.079
 2365SOL     OW 7993   5.516   3.927   4.265
 2365SOL    HW1 7994   5.439   3.945   4.204
 2365SOL    HW2 7995   5.493   3.853   4.328
 2366SOL     OW 7996   1.684   4.005   5.466
 2366SOL    HW1 7997   1.660   3.923   5.413
 2366SOL    HW2 7998   1.609   4.071   5.459
 2367SOL     OW 7999   1.154   3.090   5.845
 2367SOL    HW1 8000   1.147   3.079   5.746
 2367SOL    HW2 8001   1.193   3.008   5.886
 2368SOL     OW 8002   4.502   1.347   4.382
 2368SOL    HW1 8003   4.527   1.432   4.334
 2368SOL    HW2 8004   4.583   1.290   4.392
 2369SOL     OW 8005   3.764   1.866   3.431
 2369SOL    HW1 8006   3.832   1.867   3.357
 2369SOL    HW2 8007   3.700   1.791   3.416
 2370SOL     OW 8008   4.952   2.752   0.668
 2370SOL    HW1 8009   5.038   2.803   0.666
 2370SOL    HW2 8010   4.969   2.658   0.697
 2371SOL     OW 8011   0.699   0.164   2.569
 2371SOL    HW1 8012   0.634   0.186   2.642
 2371SOL    HW2 8013   0.746   0.079   2.592
 2372SOL     OW 8014   6.475   0.827   6.341
 2372SOL    HW1 8015   6.538   0.902   6.362
 2372SOL    HW2 8016   6.443   0.836   6.247
 2373SOL     OW 8017   5.950   0.966   6.409
 2373SOL    HW1 8018   5.922   1.012   6.324
 2373SOL    HW2 8019   6.043   0.932   6.399
 2374SOL     OW 8020   5.706   5.588   3.376
 2374SOL    HW1 8021   5.631   5.595   3.442
 2374SOL    HW2 8022   5.670   5.565   3.286
 2375SOL     OW 8023   0.635   0.582   3.702
 2375SOL    HW1 8024   0.659   0.506   3.642
 2375SOL    HW2 8025   0.676   0.568   3.792
 2376SOL     OW 8026   6.939   2.091   3.604
 2376SOL    HW1 8027   7.015   2.027   3.596
 2376SOL    HW2 8028   6.885   2.070   3.685
 2377SOL     OW 8029   3.284   4.227   6.180
 2377SOL    HW1 8030   3.304   4.129   6.186
 2377SOL    HW2 8031   3.256   4.261   6.269
 2378SOL     OW 8032   5.904   1.848   0.291
 2378SOL    HW1 8033   5.847   1.930   0.285
 2378SOL    HW2 8034   5.984   1.867   0.349
 2379SOL     OW 8035   6.578   4.779   0.198
 2379SOL    HW1 8036   6.636   4.719   0.143
 2379SOL    HW2 8037   6.490   4.734   0.213
 2380SOL     OW 8038   6.267   2.391   5.269
 2380SOL    HW1 8039   6.218   2.374   5.183
 2380SOL    HW2 8040   6.201   2.402   5.343
 2381SOL     OW 8041   2.317   4.812   4.948
 2381SOL    HW1 8042   2.299   4.715   4.963
 2381SOL    HW2 8043   2.319   4.859   5.036
 2382SOL     OW 8044   1.658   5.718   2.378
 2382SOL    HW1 8045   1.726   5.699   2.307
 2382SOL    HW2 8046   1.690   5.794   2.435
 2383SOL     OW 8047   5.097   5.639   5.621
 2383SOL    HW1 8048   4.999   5.636   5.602
 2383SOL    HW2 8049   5.140   5.709   5.564
 2384SOL     OW 8050   0.406   1.821   1.852
 2384SOL    HW1 8051   0.336   1.892   1.845
 2384SOL    HW2 8052   0.376   1.740   1.802
 2385SOL     OW 8053   1.071   1.936   0.234
 2385SOL    HW1 8054   0.972   1.950   0.232
 2385SOL    HW2 8055   1.099   1.904   0.324
 2386SOL     OW 8056   3.169   5.151   4.821
 2386SOL    HW1 8057   3.155   5.064   4.773
 2386SOL    HW2 8058   3.265   5.177   4.815
 2387SOL     OW 8059   6.954   2.954   3.917
 2387SOL    HW1 8060   6.983   2.878   3.858
 2387SOL    HW2 8061   6.951   3.038   3.863
 2388SOL     OW 8062   0.348   1.688   5.970
 2388SOL    HW1 8063   0.320   1.595   5.992
 2388SOL    HW2 8064   0.373   1.736   6.054
 2389SOL     OW 8065   5.058   4.496   4.635
 2389SOL    HW1 8066   5.139   4.452   4.675
 2389SOL    HW2 8067   5.065   4.595   4.645
 2390SOL     OW 8068   3.953   3.467   5.401
 2390SOL    HW1 8069   4.012   3.400   5.357
 2390SOL    HW2 8070   3.946   3.447   5.498
 2391SOL     OW 8071   3.173   3.336   6.284
 2391SOL    HW1 8072   3.107   3.284   6.229
 2391SOL    HW2 8073   3.139   3.343   6.377
 2392SOL     OW 8074   3.679   4.457   5.648
 2392SOL    HW1 8075   3.589   4.493   5.675
 2392SOL    HW2 8076   3.744   4.533   5.641
 2393SOL     OW 8077   3.895   5.898   1.707
 2393SOL    HW1 8078   3.975   5.935   1.660
 2393SOL    HW2 8079   3.812   5.935   1.665
 2394SOL     OW 8080   0.098   4.369   3.907
 2394SOL    HW1 8081   0.122   4.336   3.998
 2394SOL    HW2 8082   0.179   4.404   3.861
 2395SOL     OW 8083   0.491   2.989   0.064
 2395SOL    HW1 8084   0.530   2.897   0.071
 2395SOL    HW2 8085   0.394   2.986   0.088
 2396SOL     OW 8086   5.514   0.664   7.005
 2396SOL    HW1 8087   5.421   0.658   6.968
 2396SOL    HW2 8088   5.566   0.732   6.954
 2397SOL     OW 8089   0.172   4.368   6.052
 2397SOL    HW1 8090   0.231   4.447   6.037
 2397SOL    HW2 8091   0.080   4.398   6.074
 2398SOL     OW 8092   2.700   5.469   4.408
 2398SOL    HW1 8093   2.711   5.370   4.410
 2398SOL    HW2 8094   2.751   5.510   4.484
 2399SOL     OW 8095   3.815   2.130   4.017
 2399SOL    HW1 8096   3.751   2.096   3.948
 2399SOL    HW2 8097   3.869   2.205   3.978
 2400SOL     OW 8098   1.627   3.529   0.389
 2400SOL    HW1 8099   1.705   3.592   0.389
 2400SOL    HW2 8100   1.626   3.477   0.473
 2401SOL     OW 8101   3.557   6.839   4.154
 2401SOL    HW1 8102   3.650   6.873   4.138
 2401SOL    HW2 8103   3.502   6.911   4.196
 2402SOL     OW 8104   0.409   2.432   3.223
 2402SOL    HW1 8105   0.458   2.462   3.142
 2402SOL    HW2 8106   0.327   2.489   3.235
 2403SOL     OW 8107   3.919   3.571   1.138
 2403SOL    HW1 8108   3.989   3.499   1.138
 2403SOL    HW2 8109   3.963   3.660   1.146
 2404SOL     OW 8110   6.013   1.428   1.373
 2404SOL    HW1 8111   5.939   1.366   1.347
 2404SOL    HW2 8112   5.977   1.521   1.384
 2405SOL     OW 8113   3.150   4.888   5.811
 2405SOL    HW1 8114   3.142   4.965   5.748
 2405SOL    HW2 8115   3.079   4.821   5.789
 2406SOL     OW 8116   2.456   0.324   3.827
 2406SOL    HW1 8117   2.513   0.288   3.754
 2406SOL    HW2 8118   2.494   0.296   3.916
 2407SOL     OW 8119   4.325   2.241   2.940
 2407SOL    HW1 8120   4.392   2.304   2.903
 2407SOL    HW2 8121   4.371   2.173   2.997
 2408SOL     OW 8122   2.795   5.510   2.529
 2408SOL    HW1 8123   2.759   5.576   2.595
 2408SOL    HW2 8124   2.719   5.462   2.486
 2409SOL     OW 8125   2.775   3.260   0.894
 2409SOL    HW1 8126   2.734   3.172   0.870
 2409SOL    HW2 8127   2.839   3.289   0.823
 2410SOL     OW 8128   6.521   3.435   5.911
 2410SOL    HW1 8129   6.594   3.465   5.973
 2410SOL    HW2 8130   6.433   3.469   5.945
 2411SOL     OW 8131   2.425   3.874   6.187
 2411SOL    HW1 8132   2.356   3.824   6.135
 2411SOL    HW2 8133   2.502   3.898   6.127
 2412SOL     OW 8134   2.659   3.055   0.146
 2412SOL    HW1 8135   2.750   3.095   0.135
 2412SOL    HW2 8136   2.590   3.125   0.127
 2413SOL     OW 8137   6.177   3.537   6.948
 2413SOL    HW1 8138   6.184   3.612   7.014
 2413SOL    HW2 8139   6.181   3.450   6.997
 2414SOL     OW 8140   5.379   1.879   3.920
 2414SOL    HW1 8141   5.291   1.871   3.874
 2414SOL    HW2 8142   5.418   1.970   3.903
 2415SOL     OW 8143   2.343   0.171   0.651
 2415SOL    HW1 8144   2.377   0.079   0.667
 2415SOL    HW2 8145   2.247   0.167   0.625
 2416SOL     OW 8146   0.871   3.381   3.233
 2416SOL    HW1 8147   0.870   3.454   3.302
 2416SOL    HW2 8148   0.962   3.339   3.231
 2417SOL     OW 8149   4.393   2.342   6.451
 2417SOL    HW1 8150   4.394   2.439   6.428
 2417SOL    HW2 8151   4.428   2.289   6.374
 2418SOL     OW 8152   3.512   4.034   5.604
 2418SOL    HW1 8153   3.486   3.973   5.529
 2418SOL    HW2 8154   3.432   4.055   5.660
 2419SOL     OW 8155   2.346   6.916   4.543
 2419SOL    HW1 8156   2.338   6.960   4.633
 2419SOL    HW2 8157   2.266   6.858   4.527
 2420SOL     OW 8158   3.494   5.534   1.700
 2420SOL    HW1 8159   3.521   5.622   1.659
 2420SOL    HW2 8160   3.427   5.490   1.641
 2421SOL     OW 8161   4.233   6.647   3.686
 2421SOL    HW1 8162   4.200   6.578   3.752
 2421SOL    HW2 8163   4.281   6.719   3.734
 2422SOL     OW 8164   4.090   6.770   1.028
 2422SOL    HW1 8165   4.109   6.718   0.944
 2422SOL    HW2 8166   4.176   6.796   1.072
 2423SOL     OW 8167   1.657   5.317   1.134
 2423SOL    HW1 8168   1.690   5.342   1.226
 2423SOL    HW2 8169   1.715   5.360   1.065
 2424SOL     OW 8170   5.876   6.478   6.605
 2424SOL    HW1 8171   5.903   6.382   6.602
 2424SOL    HW2 8172   5.907   6.519   6.691
 2425SOL     OW 8173   4.759   6.302   5.550
 2425SOL    HW1 8174   4.792   6.257   5.633
 2425SOL    HW2 8175   4.835   6.353   5.508
 2426SOL     OW 8176   0.951   5.285   4.866
 2426SOL    HW1 8177   0.871   5.244   4.909
 2426SOL    HW2 8178   0.958   5.381   4.893
 2427SOL     OW 8179   5.066   5.858   6.570
 2427SOL    HW1 8180   5.083   5.890   6.477
 2427SOL    HW2 8181   5.041   5.936   6.628
 2428SOL     OW 8182   7.003   0.799   2.652
 2428SOL    HW1 8183   0.034   0.883   2.674
 2428SOL    HW2 8184   6.934   0.816   2.583
 2429SOL     OW 8185   5.643   4.427   2.366
 2429SOL    HW1 8186   5.664   4.386   2.455
 2429SOL    HW2 8187   5.607   4.519   2.380
 2430SOL     OW 8188   5.872   2.082   0.557
 2430SOL    HW1 8189   5.927   1.999   0.562
 2430SOL    HW2 8190   5.825   2.097   0.644
 2431SOL     OW 8191   5.784   1.566   1.470
 2431SOL    HW1 8192   5.726   1.485   1.476
 2431SOL    HW2 8193   5.730   1.647   1.490
 2432SOL     OW 8194   3.416   6.202   1.321
 2432SOL    HW1 8195   3.516   6.212   1.320
 2432SOL    HW2 8196   3.373   6.292   1.316
 2433SOL     OW 8197   0.982   6.238   0.125
 2433SOL    HW1 8198   1.037   6.247   0.208
 2433SOL    HW2 8199   1.014   6.159   0.073
 2434SOL     OW 8200   4.802   1.853   2.171
 2434SOL    HW1 8201   4.717   1.864   2.119
 2434SOL    HW2 8202   4.880   1.866   2.111
 2435SOL     OW 8203   5.772   5.949   0.656
 2435SOL    HW1 8204   5.677   5.938   0.685
 2435SOL    HW2 8205   5.829   5.882   0.702
 2436SOL     OW 8206   1.505   1.019   1.258
 2436SOL    HW1 8207   1.431   0.954   1.278
 2436SOL    HW2 8208   1.592   0.982   1.290
 2437SOL     OW 8209   5.480   6.094   1.710
 2437SOL    HW1 8210   5.483   6.185   1.752
 2437SOL    HW2 8211   5.542   6.033   1.759
 2438SOL     OW 8212   4.301   1.550   4.686
 2438SOL    HW1 8213   4.248   1.634   4.698
 2438SOL    HW2 8214   4.358   1.535   4.767
 2439SOL     OW 8215   0.571   4.951   6.583
 2439SOL    HW1 8216   0.637   4.891   6.537
 2439SOL    HW2 8217   0.478   4.920   6.563
 2440SOL     OW 8218   4.500   6.676   5.495
 2440SOL    HW1 8219   4.518   6.606   5.564
 2440SOL    HW2 8220   4.402   6.694   5.489
 2441SOL     OW 8221   5.971   1.141   0.054
 2441SOL    HW1 8222   5.901   1.211   0.039
 2441SOL    HW2 8223   6.043   1.178   0.113
 2442SOL     OW 8224   5.905   4.515   3.039
 2442SOL    HW1 8225   5.904   4.450   2.963
 2442SOL    HW2 8226   5.937   4.470   3.122
 2443SOL     OW 8227   2.829   0.924   6.379
 2443SOL    HW1 8228   2.832   1.023   6.372
 2443SOL    HW2 8229   2.783   0.897   6.464
 2444SOL     OW 8230   4.032   4.684   0.012
 2444SOL    HW1 8231   4.007   4.772   6.989
 2444SOL    HW2 8232   4.125   4.660   7.001
 2445SOL     OW 8233   6.014   1.423   2.062
 2445SOL    HW1 8234   6.027   1.522   2.063
 2445SOL    HW2 8235   6.102   1.378   2.079
 2446SOL     OW 8236   1.110   2.965   3.304
 2446SOL    HW1 8237   1.096   3.056   3.265
 2446SOL    HW2 8238   1.028   2.909   3.291
 2447SOL     OW 8239   2.135   0.415   1.149
 2447SOL    HW1 8240   2.169   0.332   1.103
 2447SOL    HW2 8241   2.172   0.496   1.103
 2448SOL     OW 8242   6.022   1.915   4.209
 2448SOL    HW1 8243   6.114   1.947   4.228
 2448SOL    HW2 8244   5.991   1.857   4.285
 2449SOL     OW 8245   1.617   3.403   1.617
 2449SOL    HW1 8246   1.602   3.359   1.528
 2449SOL    HW2 8247   1.576   3.494   1.616
 2450SOL     OW 8248   2.496   5.315   6.560
 2450SOL    HW1 8249   2.521   5.228   6.604
 2450SOL    HW2 8250   2.467   5.298   6.466
 2451SOL     OW 8251   1.064   0.112   3.343
 2451SOL    HW1 8252   1.113   0.025   3.344
 2451SOL    HW2 8253   0.997   0.114   3.417
 2452SOL     OW 8254   3.024   1.986   3.818
 2452SOL    HW1 8255   3.021   1.886   3.828
 2452SOL    HW2 8256   3.118   2.015   3.800
 2453SOL     OW 8257   0.001   3.397   0.870
 2453SOL    HW1 8258   0.071   3.407   0.799
 2453SOL    HW2 8259   0.043   3.405   0.960
 2454SOL     OW 8260   2.576   6.349   0.024
 2454SOL    HW1 8261   2.606   6.395   0.108
 2454SOL    HW2 8262   2.655   6.313   6.993
 2455SOL     OW 8263   4.354   1.161   0.667
 2455SOL    HW1 8264   4.423   1.159   0.595
 2455SOL    HW2 8265   4.332   1.067   0.694
 2456SOL     OW 8266   0.482   2.703   6.865
 2456SOL    HW1 8267   0.532   2.703   6.952
 2456SOL    HW2 8268   0.541   2.667   6.793
 2457SOL     OW 8269   6.470   1.614   5.579
 2457SOL    HW1 8270   6.450   1.708   5.607
 2457SOL    HW2 8271   6.393   1.577   5.526
 2458SOL     OW 8272   1.216   6.629   3.682
 2458SOL    HW1 8273   1.310   6.652   3.658
 2458SOL    HW2 8274   1.174   6.574   3.610
 2459SOL     OW 8275   3.187   5.886   5.946
 2459SOL    HW1 8276   3.270   5.890   6.003
 2459SOL    HW2 8277   3.114   5.937   5.991
 2460SOL     OW 8278   1.269   1.316   0.568
 2460SOL    HW1 8279   1.278   1.277   0.477
 2460SOL    HW2 8280   1.270   1.416   0.561
 2461SOL     OW 8281   4.873   0.879   4.259
 2461SOL    HW1 8282   4.819   0.801   4.293
 2461SOL    HW2 8283   4.896   0.939   4.336
 2462SOL     OW 8284   2.456   5.026   6.893
 2462SOL    HW1 8285   2.410   5.107   6.930
 2462SOL    HW2 8286   2.521   4.991   6.960
 2463SOL     OW 8287   6.081   1.768   0.088
 2463SOL    HW1 8288   6.014   1.807   0.152
 2463SOL    HW2 8289   6.113   1.680   0.122
 2464SOL     OW 8290   1.744   3.193   3.099
 2464SOL    HW1 8291   1.708   3.222   3.187
 2464SOL    HW2 8292   1.823   3.134   3.113
 2465SOL     OW 8293   0.287   6.654   6.470
 2465SOL    HW1 8294   0.377   6.610   6.475
 2465SOL    HW2 8295   0.297   6.744   6.427
 2466SOL     OW 8296   1.931   1.358   2.750
 2466SOL    HW1 8297   1.856   1.305   2.710
 2466SOL    HW2 8298   1.918   1.455   2.729
 2467SOL     OW 8299   4.597   2.008   5.267
 2467SOL    HW1 8300   4.666   2.058   5.214
 2467SOL    HW2 8301   4.641   1.935   5.319
 2468SOL     OW 8302   4.326   6.785   1.140
 2468SOL    HW1 8303   4.386   6.864   1.129
 2468SOL    HW2 8304   4.341   6.744   1.230
 2469SOL     OW 8305   3.864   3.300   4.814
 2469SOL    HW1 8306   3.821   3.390   4.804
 2469SOL    HW2 8307   3.853   3.267   4.908
 2470SOL     OW 8308   4.098   4.701   5.525
 2470SOL    HW1 8309   4.096   4.623   5.463
 2470SOL    HW2 8310   4.177   4.693   5.586
 2471SOL     OW 8311   2.973   6.074   0.378
 2471SOL    HW1 8312   2.911   6.146   0.348
 2471SOL    HW2 8313   3.056   6.076   0.324
 2472SOL     OW 8314   4.666   2.316   3.143
 2472SOL    HW1 8315   4.722   2.280   3.068
 2472SOL    HW2 8316   4.659   2.248   3.215
 2473SOL     OW 8317   1.558   3.974   4.482
 2473SOL    HW1 8318   1.486   3.992   4.549
 2473SOL    HW2 8319   1.520   3.919   4.407
 2474SOL     OW 8320   0.607   6.177   0.888
 2474SOL    HW1 8321   0.565   6.169   0.798
 2474SOL    HW2 8322   0.671   6.101   0.902
 2475SOL     OW 8323   4.409   1.021   2.500
 2475SOL    HW1 8324   4.450   0.933   2.523
 2475SOL    HW2 8325   4.478   1.093   2.508
 2476SOL     OW 8326   5.328   0.414   1.940
 2476SOL    HW1 8327   5.280   0.483   1.885
 2476SOL    HW2 8328   5.262   0.366   1.997
 2477SOL     OW 8329   4.261   0.831   2.873
 2477SOL    HW1 8330   4.319   0.912   2.877
 2477SOL    HW2 8331   4.195   0.840   2.798
 2478SOL     OW 8332   6.270   1.620   1.537
 2478SOL    HW1 8333   6.339   1.692   1.548
 2478SOL    HW2 8334   6.315   1.532   1.527
 2479SOL     OW 8335   1.164   2.856   2.339
 2479SOL    HW1 8336   1.157   2.838   2.241
 2479SOL    HW2 8337   1.072   2.860   2.379
 2480SOL     OW 8338   4.603   3.925   0.813
 2480SOL    HW1 8339   4.553   3.890   0.733
 2480SOL    HW2 8340   4.674   3.860   0.839
 2481SOL     OW 8341   3.962   6.345   0.758
 2481SOL    HW1 8342   4.025   6.407   0.712
 2481SOL    HW2 8343   3.868   6.379   0.748
 2482SOL     OW 8344   5.400   3.503   5.834
 2482SOL    HW1 8345   5.481   3.544   5.877
 2482SOL    HW2 8346   5.418   3.407   5.814
 2483SOL     OW 8347   1.808   1.630   0.531
 2483SOL    HW1 8348   1.732   1.566   0.516
 2483SOL    HW2 8349   1.890   1.595   0.486
 2484SOL     OW 8350   3.907   0.228   6.860
 2484SOL    HW1 8351   3.956   0.295   6.916
 2484SOL    HW2 8352   3.869   0.274   6.780
 2485SOL     OW 8353   5.831   3.227   1.462
 2485SOL    HW1 8354   5.775   3.300   1.422
 2485SOL    HW2 8355   5.927   3.257   1.465
 2486SOL     OW 8356   1.583   4.967   5.083
 2486SOL    HW1 8357   1.510   4.925   5.029
 2486SOL    HW2 8358   1.657   4.996   5.022
 2487SOL     OW 8359   4.130   6.787   0.378
 2487SOL    HW1 8360   4.089   6.830   0.298
 2487SOL    HW2 8361   4.063   6.727   0.421
 2488SOL     OW 8362   1.553   4.252   1.733
 2488SOL    HW1 8363   1.577   4.254   1.830
 2488SOL    HW2 8364   1.539   4.345   1.700
 2489SOL     OW 8365   0.859   6.274   4.443
 2489SOL    HW1 8366   0.827   6.337   4.372
 2489SOL    HW2 8367   0.789   6.265   4.514
 2490SOL     OW 8368   6.801   5.200   1.136
 2490SOL    HW1 8369   6.722   5.193   1.076
 2490SOL    HW2 8370   6.849   5.113   1.139
 2491SOL     OW 8371   2.988   4.534   6.966
 2491SOL    HW1 8372   3.013   4.623   6.928
 2491SOL    HW2 8373   3.062   4.468   6.948
 2492SOL     OW 8374   4.816   3.695   0.831
 2492SOL    HW1 8375   4.744   3.666   0.894
 2492SOL    HW2 8376   4.852   3.615   0.782
 2493SOL     OW 8377   5.651   0.230   2.167
 2493SOL    HW1 8378   5.592   0.198   2.092
 2493SOL    HW2 8379   5.659   0.329   2.164
 2494SOL     OW 8380   5.721   4.717   2.989
 2494SOL    HW1 8381   5.749   4.743   2.897
 2494SOL    HW2 8382   5.788   4.652   3.026
 2495SOL     OW 8383   5.209   6.156   4.145
 2495SOL    HW1 8384   5.184   6.119   4.235
 2495SOL    HW2 8385   5.306   6.141   4.129
 2496SOL     OW 8386   0.211   2.161   6.551
 2496SOL    HW1 8387   0.306   2.161   6.520
 2496SOL    HW2 8388   0.172   2.253   6.541
 2497SOL     OW 8389   0.104   0.245   0.857
 2497SOL    HW1 8390   0.187   0.191   0.839
 2497SOL    HW2 8391   0.121   0.307   0.933
 2498SOL     OW 8392   2.913   2.157   4.884
 2498SOL    HW1 8393   2.967   2.135   4.803
 2498SOL    HW2 8394   2.974   2.184   4.958
 2499SOL     OW 8395   5.623   2.649   2.467
 2499SOL    HW1 8396   5.613   2.746   2.444
 2499SOL    HW2 8397   5.714   2.634   2.506
 2500SOL     OW 8398   4.060   4.290   6.629
 2500SOL    HW1 8399   4.118   4.211   6.610
 2500SOL    HW2 8400   3.972   4.278   6.584
 2501SOL     OW 8401   5.256   5.696   0.460
 2501SOL    HW1 8402   5.212   5.708   0.549
 2501SOL    HW2 8403   5.220   5.613   0.416
 2502SOL     OW 8404   1.155   0.417   3.441
 2502SOL    HW1 8405   1.137   0.329   3.396
 2502SOL    HW2 8406   1.076   0.442   3.497
 2503SOL     OW 8407   2.115   6.506   4.608
 2503SOL    HW1 8408   2.032   6.483   4.659
 2503SOL    HW2 8409   2.190   6.447   4.638
 2504SOL     OW 8410   3.622   5.446   4.764
 2504SOL    HW1 8411   3.662   5.467   4.674
 2504SOL    HW2 8412   3.535   5.494   4.774
 2505SOL     OW 8413   0.530   0.079   3.101
 2505SOL    HW1 8414   0.598   0.012   3.129
 2505SOL    HW2 8415   0.568   0.171   3.108
 2506SOL     OW 8416   6.005   3.781   5.884
 2506SOL    HW1 8417   6.011   3.828   5.796
 2506SOL    HW2 8418   5.942   3.830   5.943
 2507SOL     OW 8419   6.773   3.438   0.599
 2507SOL    HW1 8420   6.689   3.387   0.617
 2507SOL    HW2 8421   6.751   3.534   0.586
 2508SOL     OW 8422   2.990   1.466   3.517
 2508SOL    HW1 8423   3.056   1.535   3.545
 2508SOL    HW2 8424   2.942   1.497   3.435
 2509SOL     OW 8425   6.819   3.848   0.829
 2509SOL    HW1 8426   6.840   3.765   0.880
 2509SOL    HW2 8427   6.898   3.873   0.772
 2510SOL     OW 8428   3.209   5.444   1.207
 2510SOL    HW1 8429   3.204   5.542   1.188
 2510SOL    HW2 8430   3.128   5.398   1.170
 2511SOL     OW 8431   3.737   1.740   4.325
 2511SOL    HW1 8432   3.650   1.781   4.299
 2511SOL    HW2 8433   3.811   1.780   4.270
 2512SOL     OW 8434   4.915   3.382   5.554
 2512SOL    HW1 8435   4.882   3.349   5.465
 2512SOL    HW2 8436   4.838   3.391   5.617
 2513SOL     OW 8437   1.905   4.084   5.165
 2513SOL    HW1 8438   1.988   4.098   5.220
 2513SOL    HW2 8439   1.890   4.164   5.107
 2514SOL     OW 8440   0.120   3.509   4.887
 2514SOL    HW1 8441   0.059   3.508   4.808
 2514SOL    HW2 8442   0.093   3.582   4.950
 2515SOL     OW 8443   1.190   0.610   1.234
 2515SOL    HW1 8444   1.282   0.632   1.201
 2515SOL    HW2 8445   1.195   0.531   1.295
 2516SOL     OW 8446   5.989   1.864   2.537
 2516SOL    HW1 8447   5.963   1.949   2.581
 2516SOL    HW2 8448   6.069   1.878   2.479
 2517SOL     OW 8449   0.895   6.763   5.848
 2517SOL    HW1 8450   0.975   6.792   5.900
 2517SOL    HW2 8451   0.911   6.779   5.751
 2518SOL     OW 8452   1.663   4.599   6.876
 2518SOL    HW1 8453   1.728   4.624   6.947
 2518SOL    HW2 8454   1.712   4.572   6.793
 2519SOL     OW 8455   3.951   6.359   2.154
 2519SOL    HW1 8456   3.986   6.285   2.096
 2519SOL    HW2 8457   3.984   6.345   2.248
 2520SOL     OW 8458   2.775   1.495   0.499
 2520SOL    HW1 8459   2.702   1.428   0.510
 2520SOL    HW2 8460   2.736   1.582   0.467
 2521SOL     OW 8461   2.182   0.984   5.442
 2521SOL    HW1 8462   2.232   1.070   5.433
 2521SOL    HW2 8463   2.089   1.003   5.476
 2522SOL     OW 8464   0.787   2.905   4.958
 2522SOL    HW1 8465   0.771   3.001   4.934
 2522SOL    HW2 8466   0.826   2.901   5.050
 2523SOL     OW 8467   0.282   3.485   1.292
 2523SOL    HW1 8468   0.232   3.522   1.370
 2523SOL    HW2 8469   0.317   3.560   1.237
 2524SOL     OW 8470   0.749   6.430   5.196
 2524SOL    HW1 8471   0.715   6.369   5.124
 2524SOL    HW2 8472   0.698   6.412   5.280
 2525SOL     OW 8473   1.178   2.506   5.696
 2525SOL    HW1 8474   1.234   2.432   5.732
 2525SOL    HW2 8475   1.107   2.530   5.762
 2526SOL     OW 8476   1.423   4.350   6.124
 2526SOL    HW1 8477   1.330   4.312   6.120
 2526SOL    HW2 8478   1.419   4.450   6.115
 2527SOL     OW 8479   5.421   5.883   5.072
 2527SOL    HW1 8480   5.490   5.955   5.068
 2527SOL    HW2 8481   5.330   5.923   5.062
 2528SOL     OW 8482   5.694   5.131   0.437
 2528SOL    HW1 8483   5.726   5.194   0.367
 2528SOL    HW2 8484   5.621   5.074   0.400
 2529SOL     OW 8485   6.794   5.878   6.530
 2529SOL    HW1 8486   6.779   5.826   6.447
 2529SOL    HW2 8487   6.841   5.821   6.598
 2530SOL     OW 8488   2.579   6.105   5.364
 2530SOL    HW1 8489   2.661   6.138   5.316
 2530SOL    HW2 8490   2.606   6.049   5.442
 2531SOL     OW 8491   5.642   5.869   4.376
 2531SOL    HW1 8492   5.587   5.915   4.446
 2531SOL    HW2 8493   5.732   5.912   4.369
 2532SOL     OW 8494   0.429   6.095   0.666
 2532SOL    HW1 8495   0.372   6.116   0.746
 2532SOL    HW2 8496   0.377   6.038   0.602
 2533SOL     OW 8497   3.071   6.815   4.163
 2533SOL    HW1 8498   3.005   6.841   4.092
 2533SOL    HW2 8499   3.162   6.806   4.122
 2534SOL     OW 8500   3.665   0.491   2.894
 2534SOL    HW1 8501   3.575   0.524   2.921
 2534SOL    HW2 8502   3.698   0.542   2.815
 2535SOL     OW 8503   3.438   2.388   5.366
 2535SOL    HW1 8504   3.488   2.474   5.356
 2535SOL    HW2 8505   3.361   2.386   5.303
 2536SOL     OW 8506   1.400   1.565   4.476
 2536SOL    HW1 8507   1.434   1.611   4.394
 2536SOL    HW2 8508   1.300   1.566   4.477
 2537SOL     OW 8509   3.614   0.260   6.126
 2537SOL    HW1 8510   3.575   0.352   6.139
 2537SOL    HW2 8511   3.556   0.209   6.063
 2538SOL     OW 8512   0.915   4.435   3.121
 2538SOL    HW1 8513   0.922   4.405   3.216
 2538SOL    HW2 8514   0.834   4.395   3.079
 2539SOL     OW 8515   6.220   0.983   4.849
 2539SOL    HW1 8516   6.308   0.969   4.804
 2539SOL    HW2 8517   6.147   0.982   4.781
 2540SOL     OW 8518   3.918   1.831   3.171
 2540SOL    HW1 8519   3.913   1.905   3.105
 2540SOL    HW2 8520   3.922   1.743   3.123
 2541SOL     OW 8521   2.781   0.266   5.240
 2541SOL    HW1 8522   2.846   0.293   5.310
 2541SOL    HW2 8523   2.730   0.346   5.209
 2542SOL     OW 8524   3.501   1.101   5.669
 2542SOL    HW1 8525   3.453   1.136   5.588
 2542SOL    HW2 8526   3.591   1.145   5.675
 2543SOL     OW 8527   1.687   1.223   3.450
 2543SOL    HW1 8528   1.630   1.196   3.527
 2543SOL    HW2 8529   1.656   1.311   3.414
 2544SOL     OW 8530   0.390   6.607   1.685
 2544SOL    HW1 8531   0.438   6.565   1.762
 2544SOL    HW2 8532   0.420   6.701   1.674
 2545SOL     OW 8533   1.241   0.030   1.965
 2545SOL    HW1 8534   1.200   0.072   2.046
 2545SOL    HW2 8535   1.245   6.948   1.976
 2546SOL     OW 8536   0.180   0.967   1.668
 2546SOL    HW1 8537   0.103   1.013   1.711
 2546SOL    HW2 8538   0.232   1.033   1.614
 2547SOL     OW 8539   5.962   5.710   0.734
 2547SOL    HW1 8540   6.028   5.649   0.778
 2547SOL    HW2 8541   5.885   5.656   0.698
 2548SOL     OW 8542   1.444   6.760   6.048
 2548SOL    HW1 8543   1.445   6.850   6.004
 2548SOL    HW2 8544   1.445   6.772   6.148
 2549SOL     OW 8545   2.156   0.524   0.741
 2549SOL    HW1 8546   2.110   0.435   0.739
 2549SOL    HW2 8547   2.223   0.529   0.666
 2550SOL     OW 8548   6.987   0.343   6.959
 2550SOL    HW1 8549   6.963   0.288   0.023
 2550SOL    HW2 8550   6.906   0.392   6.928
 2551SOL     OW 8551   2.920   5.476   0.273
 2551SOL    HW1 8552   3.002   5.532   0.283
 2551SOL    HW2 8553   2.938   5.404   0.205
 2552SOL     OW 8554   1.748   5.168   5.366
 2552SOL    HW1 8555   1.749   5.172   5.266
 2552SOL    HW2 8556   1.745   5.261   5.403
 2553SOL     OW 8557   5.175   3.374   5.655
 2553SOL    HW1 8558   5.163   3.275   5.662
 2553SOL    HW2 8559   5.086   3.419   5.658
 2554SOL     OW 8560   1.593   0.043   0.321
 2554SOL    HW1 8561   1.675   0.041   0.379
 2554SOL    HW2 8562   1.521   7.006   0.364
 2555SOL     OW 8563   5.899   6.874   5.500
 2555SOL    HW1 8564   5.886   6.951   5.439
 2555SOL    HW2 8565   5.995   6.846   5.499
 2556SOL     OW 8566   4.469   5.937   0.539
 2556SOL    HW1 8567   4.442   5.854   0.492
 2556SOL    HW2 8568   4.455   5.926   0.638
 2557SOL     OW 8569   2.572   3.914   0.164
 2557SOL    HW1 8570   2.571   3.990   0.229
 2557SOL    HW2 8571   2.506   3.932   0.091
 2558SOL     OW 8572   5.050   1.927   4.236
 2558SOL    HW1 8573   5.135   1.880   4.209
 2558SOL    HW2 8574   5.072   2.006   4.292
 2559SOL     OW 8575   0.047   3.389   4.003
 2559SOL    HW1 8576   0.104   3.312   4.032
 2559SOL    HW2 8577   0.096   3.475   4.020
 2560SOL     OW 8578   5.695   3.540   4.101
 2560SOL    HW1 8579   5.711   3.611   4.169
 2560SOL    HW2 8580   5.666   3.456   4.146
 2561SOL     OW 8581   3.200   6.259   5.583
 2561SOL    HW1 8582   3.255   6.176   5.589
 2561SOL    HW2 8583   3.235   6.328   5.647
 2562SOL     OW 8584   2.329   5.618   2.019
 2562SOL    HW1 8585   2.396   5.644   2.089
 2562SOL    HW2 8586   2.298   5.700   1.971
 2563SOL     OW 8587   4.111   2.647   0.336
 2563SOL    HW1 8588   4.145   2.566   0.287
 2563SOL    HW2 8589   4.133   2.729   0.284
 2564SOL     OW 8590   2.138   6.592   5.859
 2564SOL    HW1 8591   2.217   6.653   5.868
 2564SOL    HW2 8592   2.054   6.647   5.856
 2565SOL     OW 8593   0.673   0.372   6.978
 2565SOL    HW1 8594   0.623   0.290   6.949
 2565SOL    HW2 8595   0.768   0.366   6.945
 2566SOL     OW 8596   2.664   6.635   0.872
 2566SOL    HW1 8597   2.752   6.632   0.921
 2566SOL    HW2 8598   2.680   6.619   0.775
 2567SOL     OW 8599   1.021   1.356   1.210
 2567SOL    HW1 8600   1.117   1.335   1.195
 2567SOL    HW2 8601   1.013   1.437   1.268
 2568SOL     OW 8602   4.339   6.868   6.751
 2568SOL    HW1 8603   4.428   6.901   6.785
 2568SOL    HW2 8604   4.327   6.898   6.656
 2569SOL     OW 8605   3.276   1.483   1.726
 2569SOL    HW1 8606   3.228   1.540   1.793
 2569SOL    HW2 8607   3.374   1.504   1.728
 2570SOL     OW 8608   5.790   0.078   6.215
 2570SOL    HW1 8609   5.757   7.004   6.188
 2570SOL    HW2 8610   5.879   0.095   6.174
 2571SOL     OW 8611   2.700   4.635   6.055
 2571SOL    HW1 8612   2.798   4.629   6.035
 2571SOL    HW2 8613   2.664   4.722   6.021
 2572SOL     OW 8614   2.436   4.733   0.583
 2572SOL    HW1 8615   2.485   4.656   0.542
 2572SOL    HW2 8616   2.459   4.738   0.681
 2573SOL     OW 8617   6.759   2.529   1.971
 2573SOL    HW1 8618   6.767   2.626   1.949
 2573SOL    HW2 8619   6.820   2.476   1.912
 2574SOL     OW 8620   6.062   4.270   0.614
 2574SOL    HW1 8621   6.028   4.352   0.569
 2574SOL    HW2 8622   6.146   4.292   0.663
 2575SOL     OW 8623   5.025   5.467   1.085
 2575SOL    HW1 8624   5.100   5.443   1.023
 2575SOL    HW2 8625   4.947   5.407   1.068
 2576SOL     OW 8626   4.305   6.458   4.471
 2576SOL    HW1 8627   4.301   6.422   4.378
 2576SOL    HW2 8628   4.291   6.557   4.468
 2577SOL     OW 8629   4.166   6.497   1.802
 2577SOL    HW1 8630   4.168   6.406   1.760
 2577SOL    HW2 8631   4.167   6.487   1.901
 2578SOL     OW 8632   4.698   1.793   5.374
 2578SOL    HW1 8633   4.636   1.725   5.335
 2578SOL    HW2 8634   4.767   1.747   5.431
 2579SOL     OW 8635   1.622   6.184   3.508
 2579SOL    HW1 8636   1.574   6.103   3.541
 2579SOL    HW2 8637   1.676   6.223   3.583
 2580SOL     OW 8638   2.738   3.715   6.552
 2580SOL    HW1 8639   2.766   3.700   6.457
 2580SOL    HW2 8640   2.641   3.692   6.562
 2581SOL     OW 8641   1.022   5.180   1.404
 2581SOL    HW1 8642   0.950   5.246   1.425
 2581SOL    HW2 8643   1.077   5.215   1.328
 2582SOL     OW 8644   0.599   4.126   2.004
 2582SOL    HW1 8645   0.528   4.173   1.951
 2582SOL    HW2 8646   0.572   4.121   2.100
 2583SOL     OW 8647   1.007   1.471   0.165
 2583SOL    HW1 8648   0.952   1.553   0.147
 2583SOL    HW2 8649   0.951   1.390   0.150
 2584SOL     OW 8650   3.997   4.951   6.427
 2584SOL    HW1 8651   4.033   4.879   6.487
 2584SOL    HW2 8652   3.974   4.911   6.338
 2585SOL     OW 8653   4.150   2.745   6.841
 2585SOL    HW1 8654   4.198   2.723   6.756
 2585SOL    HW2 8655   4.085   2.819   6.824
 2586SOL     OW 8656   3.787   1.384   3.129
 2586SOL    HW1 8657   3.848   1.418   3.201
 2586SOL    HW2 8658   3.744   1.461   3.083
 2587SOL     OW 8659   0.486   0.592   3.075
 2587SOL    HW1 8660   0.441   0.645   3.146
 2587SOL    HW2 8661   0.554   0.649   3.029
 2588SOL     OW 8662   5.202   1.212   6.322
 2588SOL    HW1 8663   5.107   1.232   6.345
 2588SOL    HW2 8664   5.232   1.131   6.371
 2589SOL     OW 8665   1.089   6.452   5.964
 2589SOL    HW1 8666   0.999   6.451   5.921
 2589SOL    HW2 8667   1.159   6.456   5.892
 2590SOL     OW 8668   3.018   5.350   0.495
 2590SOL    HW1 8669   3.034   5.447   0.514
 2590SOL    HW2 8670   2.972   5.339   0.407
 2591SOL     OW 8671   6.967   4.905   3.159
 2591SOL    HW1 8672   6.874   4.900   3.194
 2591SOL    HW2 8673   6.966   4.898   3.059
 2592SOL     OW 8674   3.401   5.712   0.177
 2592SOL    HW1 8675   3.417   5.793   0.232
 2592SOL    HW2 8676   3.486   5.683   0.133
 2593SOL     OW 8677   3.756   5.480   0.326
 2593SOL    HW1 8678   3.785   5.496   0.421
 2593SOL    HW2 8679   3.722   5.387   0.317
 2594SOL     OW 8680   2.003   4.589   6.422
 2594SOL    HW1 8681   1.927   4.539   6.380
 2594SOL    HW2 8682   1.973   4.682   6.445
 2595SOL     OW 8683   6.933   0.757   3.648
 2595SOL    HW1 8684   6.863   0.799   3.705
 2595SOL    HW2 8685   7.015   0.741   3.703
 2596SOL     OW 8686   3.344   2.249   1.828
 2596SOL    HW1 8687   3.426   2.303   1.844
 2596SOL    HW2 8688   3.370   2.156   1.803
 2597SOL     OW 8689   0.581   5.062   5.709
 2597SOL    HW1 8690   0.618   4.975   5.678
 2597SOL    HW2 8691   0.504   5.088   5.651
 2598SOL     OW 8692   6.361   1.093   3.150
 2598SOL    HW1 8693   6.332   1.128   3.239
 2598SOL    HW2 8694   6.282   1.057   3.101
 2599SOL     OW 8695   1.406   6.169   0.897
 2599SOL    HW1 8696   1.454   6.243   0.944
 2599SOL    HW2 8697   1.368   6.202   0.810
 2600SOL     OW 8698   5.702   2.761   4.764
 2600SOL    HW1 8699   5.765   2.701   4.812
 2600SOL    HW2 8700   5.644   2.707   4.703
 2601SOL     OW 8701   2.359   1.426   2.227
 2601SOL    HW1 8702   2.411   1.503   2.192
 2601SOL    HW2 8703   2.264   1.432   2.194
 2602SOL     OW 8704   1.298   4.768   5.027
 2602SOL    HW1 8705   1.212   4.718   5.034
 2602SOL    HW2 8706   1.347   4.739   4.944
 2603SOL     OW 8707   3.073   0.789   3.536
 2603SOL    HW1 8708   3.168   0.793   3.506
 2603SOL    HW2 8709   3.067   0.815   3.632
 2604SOL     OW 8710   4.745   2.055   2.763
 2604SOL    HW1 8711   4.712   2.090   2.675
 2604SOL    HW2 8712   4.672   2.002   2.806
 2605SOL     OW 8713   1.937   2.826   3.558
 2605SOL    HW1 8714   2.037   2.833   3.560
 2605SOL    HW2 8715   1.900   2.890   3.490
 2606SOL     OW 8716   5.316   4.843   1.728
 2606SOL    HW1 8717   5.258   4.924   1.726
 2606SOL    HW2 8718   5.277   4.772   1.670
 2607SOL     OW 8719   1.158   1.458   2.423
 2607SOL    HW1 8720   1.131   1.541   2.375
 2607SOL    HW2 8721   1.250   1.468   2.460
 2608SOL     OW 8722   4.186   5.041   0.730
 2608SOL    HW1 8723   4.135   4.969   0.683
 2608SOL    HW2 8724   4.237   5.000   0.807
 2609SOL     OW 8725   6.688   1.096   1.911
 2609SOL    HW1 8726   6.634   1.134   1.986
 2609SOL    HW2 8727   6.759   1.037   1.948
 2610SOL     OW 8728   0.744   3.975   4.302
 2610SOL    HW1 8729   0.645   3.964   4.305
 2610SOL    HW2 8730   0.788   3.900   4.353
 2611SOL     OW 8731   3.980   5.933   0.902
 2611SOL    HW1 8732   4.023   5.843   0.900
 2611SOL    HW2 8733   3.994   5.978   0.814
 2612SOL     OW 8734   6.850   6.946   4.690
 2612SOL    HW1 8735   6.789   6.916   4.617
 2612SOL    HW2 8736   6.820   0.019   4.724
 2613SOL     OW 8737   1.841   5.944   5.889
 2613SOL    HW1 8738   1.912   5.916   5.825
 2613SOL    HW2 8739   1.788   6.019   5.850
 2614SOL     OW 8740   6.226   2.004   0.203
 2614SOL    HW1 8741   6.220   1.917   0.155
 2614SOL    HW2 8742   6.187   2.076   0.146
 2615SOL     OW 8743   0.939   2.844   2.478
 2615SOL    HW1 8744   0.915   2.796   2.562
 2615SOL    HW2 8745   0.865   2.835   2.411
 2616SOL     OW 8746   2.522   2.971   5.926
 2616SOL    HW1 8747   2.579   2.938   5.851
 2616SOL    HW2 8748   2.448   3.028   5.890
 2617SOL     OW 8749   4.413   0.323   0.452
 2617SOL    HW1 8750   4.414   0.368   0.363
 2617SOL    HW2 8751   4.484   0.253   0.456
 2618SOL     OW 8752   6.896   0.388   4.045
 2618SOL    HW1 8753   6.937   0.479   4.048
 2618SOL    HW2 8754   6.969   0.319   4.036
 2619SOL     OW 8755   4.752   1.784   1.512
 2619SOL    HW1 8756   4.720   1.864   1.460
 2619SOL    HW2 8757   4.832   1.809   1.567
 2620SOL     OW 8758   6.692   6.774   3.471
 2620SOL    HW1 8759   6.787   6.745   3.485
 2620SOL    HW2 8760   6.689   6.872   3.452
 2621SOL     OW 8761   1.158   5.433   2.041
 2621SOL    HW1 8762   1.102   5.516   2.041
 2621SOL    HW2 8763   1.228   5.440   2.112
 2622SOL     OW 8764   1.360   3.631   6.113
 2622SOL    HW1 8765   1.375   3.634   6.212
 2622SOL    HW2 8766   1.339   3.537   6.085
 2623SOL     OW 8767   0.397   0.371   5.451
 2623SOL    HW1 8768   0.445   0.290   5.416
 2623SOL    HW2 8769   0.432   0.393   5.542
 2624SOL     OW 8770   0.589   1.144   4.656
 2624SOL    HW1 8771   0.508   1.151   4.714
 2624SOL    HW2 8772   0.650   1.221   4.676
 2625SOL     OW 8773   2.543   3.684   5.856
 2625SOL    HW1 8774   2.551   3.756   5.787
 2625SOL    HW2 8775   2.535   3.595   5.811
 2626SOL     OW 8776   6.950   0.150   6.180
 2626SOL    HW1 8777   7.000   0.233   6.155
 2626SOL    HW2 8778   7.000   0.070   6.146
 2627SOL     OW 8779   1.360   1.313   6.317
 2627SOL    HW1 8780   1.344   1.297   6.219
 2627SOL    HW2 8781   1.295   1.257   6.370
 2628SOL     OW 8782   2.134   4.101   5.432
 2628SOL    HW1 8783   2.047   4.076   5.474
 2628SOL    HW2 8784   2.173   4.022   5.385
 2629SOL     OW 8785   4.081   3.340   2.482
 2629SOL    HW1 8786   4.063   3.242   2.495
 2629SOL    HW2 8787   4.180   3.355   2.479
 2630SOL     OW 8788   3.794   1.481   2.711
 2630SOL    HW1 8789   3.815   1.413   2.641
 2630SOL    HW2 8790   3.815   1.573   2.675
 2631SOL     OW 8791   5.235   0.762   6.406
 2631SOL    HW1 8792   5.136   0.750   6.411
 2631SOL    HW2 8793   5.280   0.682   6.445
 2632SOL     OW 8794   5.350   3.067   0.876
 2632SOL    HW1 8795   5.399   3.019   0.949
 2632SOL    HW2 8796   5.409   3.138   0.837
 2633SOL     OW 8797   0.290   1.276   4.441
 2633SOL    HW1 8798   0.285   1.366   4.485
 2633SOL    HW2 8799   0.211   1.222   4.468
 2634SOL     OW 8800   1.134   5.282   3.777
 2634SOL    HW1 8801   1.216   5.228   3.755
 2634SOL    HW2 8802   1.161   5.371   3.813
 2635SOL     OW 8803   0.271   5.821   4.702
 2635SOL    HW1 8804   0.327   5.738   4.695
 2635SOL    HW2 8805   0.198   5.816   4.634
 2636SOL     OW 8806   4.206   0.794   5.970
 2636SOL    HW1 8807   4.262   0.715   5.995
 2636SOL    HW2 8808   4.159   0.829   6.051
 2637SOL     OW 8809   6.190   2.245   3.803
 2637SOL    HW1 8810   6.120   2.277   3.739
 2637SOL    HW2 8811   6.158   2.160   3.845
 2638SOL     OW 8812   6.861   6.669   4.421
 2638SOL    HW1 8813   6.928   6.601   4.450
 2638SOL    HW2 8814   6.898   6.723   4.346
 2639SOL     OW 8815   0.055   6.243   0.514
 2639SOL    HW1 8816   0.106   6.329   0.516
 2639SOL    HW2 8817   7.013   6.237   0.594
 2640SOL     OW 8818   6.749   6.572   5.303
 2640SOL    HW1 8819   6.719   6.501   5.239
 2640SOL    HW2 8820   6.805   6.529   5.375
 2641SOL     OW 8821   5.450   2.348   2.181
 2641SOL    HW1 8822   5.400   2.407   2.244
 2641SOL    HW2 8823   5.395   2.332   2.100
 2642SOL     OW 8824   6.147   0.502   3.865
 2642SOL    HW1 8825   6.050   0.526   3.870
 2642SOL    HW2 8826   6.158   0.403   3.873
 2643SOL     OW 8827   1.503   3.519   3.581
 2643SOL    HW1 8828   1.585   3.567   3.550
 2643SOL    HW2 8829   1.422   3.574   3.563
 2644SOL     OW 8830   4.857   5.029   4.878
 2644SOL    HW1 8831   4.894   5.105   4.931
 2644SOL    HW2 8832   4.889   4.943   4.918
 2645SOL     OW 8833   4.416   5.408   3.752
 2645SOL    HW1 8834   4.494   5.454   3.709
 2645SOL    HW2 8835   4.447   5.325   3.798
 2646SOL     OW 8836   6.601   2.056   6.983
 2646SOL    HW1 8837   6.675   2.027   0.028
 2646SOL    HW2 8838   6.586   2.154   6.993
 2647SOL     OW 8839   6.489   0.253   1.599
 2647SOL    HW1 8840   6.552   0.302   1.538
 2647SOL    HW2 8841   6.524   0.257   1.692
 2648SOL     OW 8842   0.595   6.034   4.028
 2648SOL    HW1 8843   0.569   6.118   4.077
 2648SOL    HW2 8844   0.624   6.058   3.935
 2649SOL     OW 8845   6.366   3.401   1.079
 2649SOL    HW1 8846   6.435   3.416   1.008
 2649SOL    HW2 8847   6.283   3.363   1.037
 2650SOL     OW 8848   1.741   5.070   3.688
 2650SOL    HW1 8849   1.671   5.060   3.758
 2650SOL    HW2 8850   1.804   5.143   3.714
 2651SOL     OW 8851   2.794   1.964   1.274
 2651SOL    HW1 8852   2.883   1.962   1.320
 2651SOL    HW2 8853   2.800   1.917   1.186
 2652SOL     OW 8854   4.267   3.293   5.579
 2652SOL    HW1 8855   4.358   3.252   5.587
 2652SOL    HW2 8856   4.254   3.325   5.485
 2653SOL     OW 8857   4.706   6.810   5.978
 2653SOL    HW1 8858   4.710   6.718   6.017
 2653SOL    HW2 8859   4.616   6.825   5.938
 2654SOL     OW 8860   4.185   6.880   1.407
 2654SOL    HW1 8861   4.192   6.941   1.486
 2654SOL    HW2 8862   4.255   6.809   1.414
 2655SOL     OW 8863   5.213   5.822   4.156
 2655SOL    HW1 8864   5.124   5.797   4.117
 2655SOL    HW2 8865   5.227   5.921   4.146
 2656SOL     OW 8866   3.497   5.187   4.594
 2656SOL    HW1 8867   3.461   5.241   4.518
 2656SOL    HW2 8868   3.502   5.091   4.568
 2657SOL     OW 8869   1.737   4.156   0.148
 2657SOL    HW1 8870   1.700   4.205   0.069
 2657SOL    HW2 8871   1.814   4.208   0.186
 2658SOL     OW 8872   4.901   5.184   0.376
 2658SOL    HW1 8873   4.946   5.101   0.343
 2658SOL    HW2 8874   4.892   5.249   0.300
 2659SOL     OW 8875   4.891   3.144   5.141
 2659SOL    HW1 8876   4.885   3.098   5.053
 2659SOL    HW2 8877   4.986   3.148   5.170
 2660SOL     OW 8878   1.381   0.104   1.732
 2660SOL    HW1 8879   1.346   0.077   1.822
 2660SOL    HW2 8880   1.480   0.093   1.729
 2661SOL     OW 8881   1.868   6.633   1.210
 2661SOL    HW1 8882   1.945   6.691   1.232
 2661SOL    HW2 8883   1.830   6.594   1.294
 2662SOL     OW 8884   3.493   6.842   4.717
 2662SOL    HW1 8885   3.446   6.918   4.762
 2662SOL    HW2 8886   3.467   6.839   4.621
 2663SOL     OW 8887   4.478   4.041   6.786
 2663SOL    HW1 8888   4.433   4.122   6.825
 2663SOL    HW2 8889   4.488   4.053   6.687
 2664SOL     OW 8890   4.678   3.415   5.734
 2664SOL    HW1 8891   4.662   3.497   5.679
 2664SOL    HW2 8892   4.616   3.415   5.813
 2665SOL     OW 8893   2.671   3.602   5.298
 2665SOL    HW1 8894   2.674   3.590   5.397
 2665SOL    HW2 8895   2.764   3.618   5.263
 2666SOL     OW 8896   1.414   5.083   1.396
 2666SOL    HW1 8897   1.322   5.044   1.408
 2666SOL    HW2 8898   1.447   5.115   1.485
 2667SOL     OW 8899   1.672   5.561   3.701
 2667SOL    HW1 8900   1.589   5.513   3.730
 2667SOL    HW2 8901   1.674   5.652   3.744
 2668SOL     OW 8902   6.334   2.570   4.659
 2668SOL    HW1 8903   6.302   2.658   4.694
 2668SOL    HW2 8904   6.419   2.583   4.608
 2669SOL     OW 8905   2.705   5.341   6.017
 2669SOL    HW1 8906   2.728   5.423   6.069
 2669SOL    HW2 8907   2.781   5.276   6.021
 2670SOL     OW 8908   5.850   2.998   4.650
 2670SOL    HW1 8909   5.946   2.975   4.661
 2670SOL    HW2 8910   5.795   2.914   4.657
 2671SOL     OW 8911   4.735   5.022   6.366
 2671SOL    HW1 8912   4.642   4.986   6.379
 2671SOL    HW2 8913   4.739   5.077   6.283
 2672SOL     OW 8914   3.538   6.326   0.957
 2672SOL    HW1 8915   3.512   6.301   1.050
 2672SOL    HW2 8916   3.456   6.333   0.900
 2673SOL     OW 8917   5.901   2.361   2.144
 2673SOL    HW1 8918   5.833   2.427   2.179
 2673SOL    HW2 8919   5.935   2.392   2.055
 2674SOL     OW 8920   1.170   4.538   4.355
 2674SOL    HW1 8921   1.226   4.461   4.387
 2674SOL    HW2 8922   1.216   4.582   4.279
 2675SOL     OW 8923   6.741   6.372   3.834
 2675SOL    HW1 8924   6.694   6.330   3.912
 2675SOL    HW2 8925   6.818   6.427   3.867
 2676SOL     OW 8926   3.264   3.114   1.545
 2676SOL    HW1 8927   3.261   3.213   1.554
 2676SOL    HW2 8928   3.192   3.084   1.483
 2677SOL     OW 8929   2.552   4.465   1.167
 2677SOL    HW1 8930   2.520   4.544   1.114
 2677SOL    HW2 8931   2.478   4.399   1.175
 2678SOL     OW 8932   0.410   2.735   2.283
 2678SOL    HW1 8933   0.396   2.669   2.357
 2678SOL    HW2 8934   0.393   2.827   2.318
 2679SOL     OW 8935   2.040   4.810   2.223
 2679SOL    HW1 8936   2.076   4.717   2.218
 2679SOL    HW2 8937   2.108   4.870   2.264
 2680SOL     OW 8938   0.898   2.234   0.476
 2680SOL    HW1 8939   0.976   2.187   0.517
 2680SOL    HW2 8940   0.925   2.328   0.453
 2681SOL     OW 8941   1.377   2.077   4.529
 2681SOL    HW1 8942   1.448   2.123   4.582
 2681SOL    HW2 8943   1.406   2.070   4.434
 2682SOL     OW 8944   4.602   4.446   3.808
 2682SOL    HW1 8945   4.685   4.499   3.828
 2682SOL    HW2 8946   4.582   4.384   3.884
 2683SOL     OW 8947   2.721   4.655   2.270
 2683SOL    HW1 8948   2.632   4.609   2.264
 2683SOL    HW2 8949   2.775   4.636   2.189
 2684SOL     OW 8950   4.517   6.761   2.323
 2684SOL    HW1 8951   4.441   6.817   2.290
 2684SOL    HW2 8952   4.529   6.681   2.263
 2685SOL     OW 8953   5.328   5.492   5.714
 2685SOL    HW1 8954   5.254   5.538   5.667
 2685SOL    HW2 8955   5.403   5.474   5.650
 2686SOL     OW 8956   0.870   1.468   5.427
 2686SOL    HW1 8957   0.884   1.567   5.416
 2686SOL    HW2 8958   0.811   1.435   5.353
 2687SOL     OW 8959   4.384   5.659   0.366
 2687SOL    HW1 8960   4.380   5.708   0.279
 2687SOL    HW2 8961   4.307   5.595   0.372
 2688SOL     OW 8962   2.386   2.636   0.529
 2688SOL    HW1 8963   2.477   2.616   0.564
 2688SOL    HW2 8964   2.320   2.573   0.571
 2689SOL     OW 8965   6.541   3.676   2.149
 2689SOL    HW1 8966   6.540   3.576   2.152
 2689SOL    HW2 8967   6.618   3.710   2.203
 2690SOL     OW 8968   2.731   3.269   6.060
 2690SOL    HW1 8969   2.757   3.173   6.053
 2690SOL    HW2 8970   2.632   3.277   6.070
 2691SOL     OW 8971   0.033   5.034   3.524
 2691SOL    HW1 8972   0.088   4.951   3.537
 2691SOL    HW2 8973   0.051   5.073   3.434
 2692SOL     OW 8974   2.756   6.805   3.698
 2692SOL    HW1 8975   2.725   6.888   3.744
 2692SOL    HW2 8976   2.850   6.785   3.724
 2693SOL     OW 8977   2.765   4.792   4.022
 2693SOL    HW1 8978   2.858   4.800   3.987
 2693SOL    HW2 8979   2.711   4.734   3.962
 2694SOL     OW 8980   3.644   6.477   3.468
 2694SOL    HW1 8981   3.628   6.490   3.370
 2694SOL    HW2 8982   3.614   6.558   3.518
 2695SOL     OW 8983   5.806   0.419   2.766
 2695SOL    HW1 8984   5.820   0.406   2.668
 2695SOL    HW2 8985   5.892   0.445   2.810
 2696SOL     OW 8986   4.268   3.753   5.748
 2696SOL    HW1 8987   4.311   3.663   5.739
 2696SOL    HW2 8988   4.219   3.775   5.664
 2697SOL     OW 8989   3.507   1.493   2.782
 2697SOL    HW1 8990   3.469   1.405   2.807
 2697SOL    HW2 8991   3.605   1.483   2.762
 2698SOL     OW 8992   2.361   4.598   0.064
 2698SOL    HW1 8993   2.355   4.660   7.003
 2698SOL    HW2 8994   2.361   4.651   0.149
 2699SOL     OW 8995   2.600   5.829   0.437
 2699SOL    HW1 8996   2.536   5.780   0.378
 2699SOL    HW2 8997   2.566   5.921   0.454
 2700SOL     OW 8998   2.893   1.870   1.036
 2700SOL    HW1 8999   2.984   1.876   1.076
 2700SOL    HW2 9000   2.890   1.922   0.951
 2701SOL     OW 9001   5.254   2.373   5.892
 2701SOL    HW1 9002   5.205   2.451   5.930
 2701SOL    HW2 9003   5.260   2.382   5.793
 2702SOL     OW 9004   0.942   2.595   3.678
 2702SOL    HW1 9005   0.863   2.536   3.661
 2702SOL    HW2 9006   1.004   2.592   3.600
 2703SOL     OW 9007   1.044   5.893   1.101
 2703SOL    HW1 9008   0.993   5.888   1.187
 2703SOL    HW2 9009   1.134   5.934   1.119
 2704SOL     OW 9010   6.369   6.250   2.053
 2704SOL    HW1 9011   6.378   6.187   2.129
 2704SOL    HW2 9012   6.289   6.309   2.067
 2705SOL     OW 9013   6.177   0.365   5.122
 2705SOL    HW1 9014   6.249   0.348   5.190
 2705SOL    HW2 9015   6.184   0.297   5.049
 2706SOL     OW 9016   6.471   4.770   3.513
 2706SOL    HW1 9017   6.477   4.860   3.555
 2706SOL    HW2 9018   6.418   4.776   3.428
 2707SOL     OW 9019   3.740   0.003   4.050
 2707SOL    HW1 9020   3.803   6.978   4.116
 2707SOL    HW2 9021   3.752   0.102   4.052
 2708SOL     OW 9022   6.385   2.771   1.394
 2708SOL    HW1 9023   6.361   2.735   1.304
 2708SOL    HW2 9024   6.372   2.700   1.463
 2709SOL     OW 9025   5.330   6.845   6.700
 2709SOL    HW1 9026   5.315   6.929   6.648
 2709SOL    HW2 9027   5.422   6.847   6.740
 2710SOL     OW 9028   1.603   2.857   3.952
 2710SOL    HW1 9029   1.653   2.780   3.913
 2710SOL    HW2 9030   1.575   2.834   4.046
 2711SOL     OW 9031   3.068   0.827   3.807
 2711SOL    HW1 9032   3.141   0.774   3.850
 2711SOL    HW2 9033   2.987   0.827   3.866
 2712SOL     OW 9034   2.687   5.549   1.944
 2712SOL    HW1 9035   2.612   5.513   1.889
 2712SOL    HW2 9036   2.712   5.483   2.015
 2713SOL     OW 9037   2.462   3.582   6.533
 2713SOL    HW1 9038   2.405   3.659   6.506
 2713SOL    HW2 9039   2.404   3.503   6.553
 2714SOL     OW 9040   3.529   3.039   6.585
 2714SOL    HW1 9041   3.578   3.125   6.596
 2714SOL    HW2 9042   3.593   2.968   6.555
 2715SOL     OW 9043   5.239   2.149   0.626
 2715SOL    HW1 9044   5.242   2.178   0.722
 2715SOL    HW2 9045   5.318   2.092   0.606
 2716SOL     OW 9046   4.889   3.574   3.950
 2716SOL    HW1 9047   4.975   3.575   3.898
 2716SOL    HW2 9048   4.834   3.496   3.922
 2717SOL     OW 9049   0.591   6.929   2.049
 2717SOL    HW1 9050   0.505   6.883   2.025
 2717SOL    HW2 9051   0.590   6.953   2.146
 2718SOL     OW 9052   0.481   0.922   5.056
 2718SOL    HW1 9053   0.516   0.882   4.971
 2718SOL    HW2 9054   0.528   0.881   5.134
 2719SOL     OW 9055   1.064   4.875   1.714
 2719SOL    HW1 9056   1.079   4.962   1.761
 2719SOL    HW2 9057   0.992   4.824   1.761
 2720SOL     OW 9058   1.323   0.193   2.496
 2720SOL    HW1 9059   1.368   0.249   2.565
 2720SOL    HW2 9060   1.244   0.241   2.459
 2721SOL     OW 9061   3.262   6.207   3.079
 2721SOL    HW1 9062   3.188   6.145   3.104
 2721SOL    HW2 9063   3.255   6.231   2.982
 2722SOL     OW 9064   5.224   5.068   6.784
 2722SOL    HW1 9065   5.292   5.091   6.715
 2722SOL    HW2 9066   5.265   5.076   6.875
 2723SOL     OW 9067   1.634   6.262   6.515
 2723SOL    HW1 9068   1.541   6.271   6.549
 2723SOL    HW2 9069   1.659   6.165   6.510
 2724SOL     OW 9070   1.433   6.492   6.013
 2724SOL    HW1 9071   1.424   6.590   6.032
 2724SOL    HW2 9072   1.406   6.439   6.093
 2725SOL     OW 9073   5.323   4.224   5.177
 2725SOL    HW1 9074   5.272   4.310   5.172
 2725SOL    HW2 9075   5.408   4.239   5.229
 2726SOL     OW 9076   0.299   2.672   2.027
 2726SOL    HW1 9077   0.345   2.705   2.109
 2726SOL    HW2 9078   0.346   2.590   1.993
 2727SOL     OW 9079   0.921   3.985   3.949
 2727SOL    HW1 9080   0.906   3.986   4.048
 2727SOL    HW2 9081   1.019   3.979   3.931
 2728SOL     OW 9082   5.002   6.458   5.522
 2728SOL    HW1 9083   5.098   6.479   5.538
 2728SOL    HW2 9084   4.945   6.514   5.582
 2729SOL     OW 9085   6.823   6.463   0.560
 2729SOL    HW1 9086   6.822   6.382   0.617
 2729SOL    HW2 9087   6.918   6.487   0.536
 2730SOL     OW 9088   1.460   5.881   1.738
 2730SOL    HW1 9089   1.475   5.834   1.651
 2730SOL    HW2 9090   1.384   5.838   1.787
 2731SOL     OW 9091   2.892   3.503   3.319
 2731SOL    HW1 9092   2.886   3.558   3.235
 2731SOL    HW2 9093   2.912   3.408   3.295
 2732SOL     OW 9094   5.853   1.464   0.715
 2732SOL    HW1 9095   5.855   1.463   0.815
 2732SOL    HW2 9096   5.944   1.441   0.680
 2733SOL     OW 9097   6.668   1.757   5.356
 2733SOL    HW1 9098   6.692   1.732   5.450
 2733SOL    HW2 9099   6.578   1.720   5.333
 2734SOL     OW 9100   2.679   5.557   0.835
 2734SOL    HW1 9101   2.768   5.515   0.850
 2734SOL    HW2 9102   2.685   5.655   0.855
 2735SOL     OW 9103   1.600   2.313   2.205
 2735SOL    HW1 9104   1.548   2.254   2.142
 2735SOL    HW2 9105   1.541   2.387   2.236
 2736SOL     OW 9106   6.883   6.005   4.841
 2736SOL    HW1 9107   6.821   5.975   4.913
 2736SOL    HW2 9108   6.973   5.964   4.855
 2737SOL     OW 9109   3.057   3.601   5.420
 2737SOL    HW1 9110   3.018   3.532   5.481
 2737SOL    HW2 9111   2.997   3.613   5.341
 2738SOL     OW 9112   5.613   6.180   2.122
 2738SOL    HW1 9113   5.651   6.161   2.212
 2738SOL    HW2 9114   5.608   6.279   2.108
 2739SOL     OW 9115   1.267   4.459   0.702
 2739SOL    HW1 9116   1.184   4.468   0.758
 2739SOL    HW2 9117   1.249   4.494   0.610
 2740SOL     OW 9118   6.781   4.909   1.434
 2740SOL    HW1 9119   6.734   4.821   1.433
 2740SOL    HW2 9120   6.815   4.928   1.526
 2741SOL     OW 9121   6.477   1.238   4.508
 2741SOL    HW1 9122   6.379   1.256   4.511
 2741SOL    HW2 9123   6.495   1.163   4.445
 2742SOL     OW 9124   2.184   4.954   0.448
 2742SOL    HW1 9125   2.189   4.909   0.537
 2742SOL    HW2 9126   2.219   5.047   0.455
 2743SOL     OW 9127   0.353   4.772   2.407
 2743SOL    HW1 9128   0.256   4.755   2.391
 2743SOL    HW2 9129   0.407   4.709   2.350
 2744SOL     OW 9130   4.630   2.710   0.346
 2744SOL    HW1 9131   4.567   2.785   0.327
 2744SOL    HW2 9132   4.652   2.708   0.443
 2745SOL     OW 9133   0.038   1.002   4.683
 2745SOL    HW1 9134   0.123   0.971   4.641
 2745SOL    HW2 9135   0.058   1.042   4.773
 2746SOL     OW 9136   1.222   2.496   5.042
 2746SOL    HW1 9137   1.183   2.408   5.068
 2746SOL    HW2 9138   1.321   2.488   5.032
 2747SOL     OW 9139   4.804   5.444   6.642
 2747SOL    HW1 9140   4.791   5.345   6.633
 2747SOL    HW2 9141   4.734   5.491   6.589
 2748SOL     OW 9142   4.465   1.424   2.007
 2748SOL    HW1 9143   4.423   1.476   2.081
 2748SOL    HW2 9144   4.541   1.475   1.969
 2749SOL     OW 9145   6.463   4.700   1.120
 2749SOL    HW1 9146   6.553   4.741   1.135
 2749SOL    HW2 9147   6.411   4.701   1.205
 2750SOL     OW 9148   2.078   4.170   1.915
 2750SOL    HW1 9149   2.169   4.203   1.889
 2750SOL    HW2 9150   2.085   4.074   1.942
 2751SOL     OW 9151   0.628   2.509   1.722
 2751SOL    HW1 9152   0.686   2.442   1.676
 2751SOL    HW2 9153   0.659   2.601   1.699
 2752SOL     OW 9154   3.196   4.441   6.046
 2752SOL    HW1 9155   3.214   4.350   6.086
 2752SOL    HW2 9156   3.201   4.435   5.947
 2753SOL     OW 9157   6.799   6.781   4.932
 2753SOL    HW1 9158   6.822   6.690   4.896
 2753SOL    HW2 9159   6.787   6.845   4.856
 2754SOL     OW 9160   0.371   0.138   0.919
 2754SOL    HW1 9161   0.412   0.213   0.970
 2754SOL    HW2 9162   0.406   0.051   0.953
 2755SOL     OW 9163   3.651   6.873   2.270
 2755SOL    HW1 9164   3.584   6.875   2.196
 2755SOL    HW2 9165   3.740   6.899   2.235
 2756SOL     OW 9166   4.404   6.075   6.946
 2756SOL    HW1 9167   4.453   6.016   6.882
 2756SOL    HW2 9168   4.321   6.029   6.977
 2757SOL     OW 9169   2.306   6.507   0.077
 2757SOL    HW1 9170   2.365   6.578   0.115
 2757SOL    HW2 9171   2.281   6.441   0.148
 2758SOL     OW 9172   4.192   0.354   3.754
 2758SOL    HW1 9173   4.153   0.401   3.834
 2758SOL    HW2 9174   4.211   0.421   3.682
 2759SOL     OW 9175   5.920   6.380   5.665
 2759SOL    HW1 9176   5.948   6.358   5.758
 2759SOL    HW2 9177   5.848   6.316   5.636
 2760SOL     OW 9178   0.080   5.702   1.817
 2760SOL    HW1 9179   0.139   5.704   1.737
 2760SOL    HW2 9180   0.039   5.612   1.827
 2761SOL     OW 9181   2.250   4.926   4.338
 2761SOL    HW1 9182   2.163   4.883   4.312
 2761SOL    HW2 9183   2.243   5.024   4.324
 2762SOL     OW 9184   1.677   0.991   5.371
 2762SOL    HW1 9185   1.625   0.908   5.350
 2762SOL    HW2 9186   1.708   1.033   5.286
 2763SOL     OW 9187   4.957   1.680   3.766
 2763SOL    HW1 9188   4.950   1.594   3.816
 2763SOL    HW2 9189   4.878   1.737   3.786
 2764SOL     OW 9190   6.138   0.757   0.920
 2764SOL    HW1 9191   6.107   0.782   0.828
 2764SOL    HW2 9192   6.062   0.719   0.972
 2765SOL     OW 9193   5.601   0.135   0.830
 2765SOL    HW1 9194   5.614   0.136   0.731
 2765SOL    HW2 9195   5.638   0.219   0.870
 2766SOL     OW 9196   4.492   2.169   0.083
 2766SOL    HW1 9197   4.497   2.261   0.043
 2766SOL    HW2 9198   4.585   2.134   0.097
 2767SOL     OW 9199   6.551   5.153   0.010
 2767SOL    HW1 9200   6.570   5.056   7.012
 2767SOL    HW2 9201   6.454   5.171   7.013
 2768SOL     OW 9202   4.688   0.397   0.796
 2768SOL    HW1 9203   4.639   0.477   0.762
 2768SOL    HW2 9204   4.762   0.427   0.857
 2769SOL     OW 9205   0.887   4.326   4.046
 2769SOL    HW1 9206   0.939   4.250   4.084
 2769SOL    HW2 9207   0.882   4.318   3.947
 2770SOL     OW 9208   2.721   5.215   5.633
 2770SOL    HW1 9209   2.770   5.274   5.696
 2770SOL    HW2 9210   2.633   5.257   5.609
 2771SOL     OW 9211   6.596   0.923   3.185
 2771SOL    HW1 9212   6.625   0.939   3.279
 2771SOL    HW2 9213   6.545   1.002   3.151
 2772SOL     OW 9214   4.536   1.420   0.533
 2772SOL    HW1 9215   4.618   1.442   0.585
 2772SOL    HW2 9216   4.485   1.504   0.513
 2773SOL     OW 9217   5.783   2.431   5.473
 2773SOL    HW1 9218   5.703   2.438   5.413
 2773SOL    HW2 9219   5.776   2.498   5.546
 2774SOL     OW 9220   6.330   3.709   3.509
 2774SOL    HW1 9221   6.316   3.617   3.543
 2774SOL    HW2 9222   6.243   3.746   3.475
 2775SOL     OW 9223   6.940   5.207   6.856
 2775SOL    HW1 9224   0.023   5.214   6.849
 2775SOL    HW2 9225   6.914   5.111   6.858
 2776SOL     OW 9226   4.672   4.451   6.357
 2776SOL    HW1 9227   4.667   4.456   6.257
 2776SOL    HW2 9228   4.761   4.486   6.388
 2777SOL     OW 9229   2.553   1.259   1.667
 2777SOL    HW1 9230   2.556   1.201   1.586
 2777SOL    HW2 9231   2.638   1.250   1.718
 2778SOL     OW 9232   1.230   0.149   5.282
 2778SOL    HW1 9233   1.248   0.056   5.250
 2778SOL    HW2 9234   1.145   0.183   5.241
 2779SOL     OW 9235   4.835   6.573   0.903
 2779SOL    HW1 9236   4.933   6.555   0.906
 2779SOL    HW2 9237   4.803   6.601   0.994
 2780SOL     OW 9238   6.548   6.039   6.927
 2780SOL    HW1 9239   6.482   6.113   6.940
 2780SOL    HW2 9240   6.626   6.072   6.874
 2781SOL     OW 9241   6.061   6.104   1.813
 2781SOL    HW1 9242   6.014   6.019   1.792
 2781SOL    HW2 9243   6.001   6.182   1.792
 2782SOL     OW 9244   3.716   1.989   5.334
 2782SOL    HW1 9245   3.783   1.915   5.338
 2782SOL    HW2 9246   3.699   2.024   5.426
 2783SOL     OW 9247   5.175   3.758   4.254
 2783SOL    HW1 9248   5.184   3.790   4.349
 2783SOL    HW2 9249   5.099   3.694   4.247
 2784SOL     OW 9250   3.427   2.013   1.300
 2784SOL    HW1 9251   3.368   2.017   1.220
 2784SOL    HW2 9252   3.416   2.096   1.355
 2785SOL     OW 9253   5.619   1.802   0.981
 2785SOL    HW1 9254   5.560   1.881   0.964
 2785SOL    HW2 9255   5.654   1.807   1.075
 2786SOL     OW 9256   4.390   5.633   2.327
 2786SOL    HW1 9257   4.477   5.635   2.377
 2786SOL    HW2 9258   4.389   5.555   2.265
 2787SOL     OW 9259   3.304   2.003   0.054
 2787SOL    HW1 9260   3.387   2.057   0.038
 2787SOL    HW2 9261   3.271   1.966   6.984
 2788SOL     OW 9262   2.234   4.927   6.236
 2788SOL    HW1 9263   2.236   4.846   6.294
 2788SOL    HW2 9264   2.139   4.951   6.214
 2789SOL     OW 9265   2.392   2.142   3.702
 2789SOL    HW1 9266   2.352   2.175   3.617
 2789SOL    HW2 9267   2.368   2.203   3.777
 2790SOL     OW 9268   3.136   5.644   1.967
 2790SOL    HW1 9269   3.124   5.735   2.007
 2790SOL    HW2 9270   3.065   5.628   1.899
 2791SOL     OW 9271   1.138   4.097   3.178
 2791SOL    HW1 9272   1.147   4.182   3.230
 2791SOL    HW2 9273   1.182   4.023   3.228
 2792SOL     OW 9274   0.759   6.584   4.522
 2792SOL    HW1 9275   0.777   6.671   4.570
 2792SOL    HW2 9276   0.661   6.567   4.520
 2793SOL     OW 9277   4.944   3.459   3.238
 2793SOL    HW1 9278   5.039   3.487   3.225
 2793SOL    HW2 9279   4.925   3.450   3.336
 2794SOL     OW 9280   0.412   3.391   0.301
 2794SOL    HW1 9281   0.370   3.476   0.271
 2794SOL    HW2 9282   0.352   3.345   0.366
 2795SOL     OW 9283   1.659   3.081   0.710
 2795SOL    HW1 9284   1.736   3.140   0.735
 2795SOL    HW2 9285   1.669   2.992   0.756
 2796SOL     OW 9286   6.534   5.239   2.525
 2796SOL    HW1 9287   6.616   5.282   2.564
 2796SOL    HW2 9288   6.460   5.242   2.592
 2797SOL     OW 9289   5.529   4.882   4.550
 2797SOL    HW1 9290   5.625   4.909   4.542
 2797SOL    HW2 9291   5.475   4.960   4.580
 2798SOL     OW 9292   0.847   5.397   1.361
 2798SOL    HW1 9293   0.834   5.453   1.443
 2798SOL    HW2 9294   0.894   5.450   1.291
 2799SOL     OW 9295   6.728   6.910   0.350
 2799SOL    HW1 9296   6.785   6.828   0.336
 2799SOL    HW2 9297   6.752   6.952   0.438
 2800SOL     OW 9298   4.471   5.231   6.560
 2800SOL    HW1 9299   4.432   5.318   6.590
 2800SOL    HW2 9300   4.560   5.219   6.604
 2801SOL     OW 9301   5.551   5.320   4.962
 2801SOL    HW1 9302   5.556   5.335   4.863
 2801SOL    HW2 9303   5.575   5.405   5.009
 2802SOL     OW 9304   4.537   2.081   5.720
 2802SOL    HW1 9305   4.490   2.019   5.658
 2802SOL    HW2 9306   4.476   2.157   5.743
 2803SOL     OW 9307   3.146   5.767   6.433
 2803SOL    HW1 9308   3.136   5.863   6.406
 2803SOL    HW2 9309   3.076   5.744   6.500
 2804SOL     OW 9310   0.248   4.704   5.176
 2804SOL    HW1 9311   0.183   4.687   5.102
 2804SOL    HW2 9312   0.334   4.738   5.138
 2805SOL     OW 9313   5.237   2.493   1.992
 2805SOL    HW1 9314   5.227   2.573   2.051
 2805SOL    HW2 9315   5.160   2.431   2.007
 2806SOL     OW 9316   6.938   5.399   4.711
 2806SOL    HW1 9317   6.847   5.423   4.745
 2806SOL    HW2 9318   7.006   5.462   4.750
 2807SOL     OW 9319   5.053   5.409   3.414
 2807SOL    HW1 9320   5.144   5.381   3.384
 2807SOL    HW2 9321   5.036   5.504   3.388
 2808SOL     OW 9322   5.538   3.642   2.781
 2808SOL    HW1 9323   5.504   3.724   2.827
 2808SOL    HW2 9324   5.464   3.575   2.776
 2809SOL     OW 9325   5.760   3.062   0.874
 2809SOL    HW1 9326   5.660   3.062   0.875
 2809SOL    HW2 9327   5.794   3.155   0.866
 2810SOL     OW 9328   3.271   5.698   4.266
 2810SOL    HW1 9329   3.188   5.645   4.283
 2810SOL    HW2 9330   3.351   5.641   4.283
 2811SOL     OW 9331   1.570   1.676   3.260
 2811SOL    HW1 9332   1.655   1.721   3.234
 2811SOL    HW2 9333   1.524   1.730   3.331
 2812SOL     OW 9334   5.198   3.974   0.130
 2812SOL    HW1 9335   5.182   4.071   0.111
 2812SOL    HW2 9336   5.112   3.930   0.156
 2813SOL     OW 9337   6.811   0.069   5.865
 2813SOL    HW1 9338   6.734   0.027   5.913
 2813SOL    HW2 9339   6.809   0.168   5.879
 2814SOL     OW 9340   4.677   3.408   6.460
 2814SOL    HW1 9341   4.750   3.400   6.529
 2814SOL    HW2 9342   4.588   3.405   6.506
 2815SOL     OW 9343   6.258   0.884   5.421
 2815SOL    HW1 9344   6.356   0.902   5.413
 2815SOL    HW2 9345   6.238   0.795   5.379
 2816SOL     OW 9346   5.948   5.694   3.401
 2816SOL    HW1 9347   6.006   5.625   3.357
 2816SOL    HW2 9348   5.852   5.677   3.377
 2817SOL     OW 9349   2.780   0.085   1.099
 2817SOL    HW1 9350   2.752   0.172   1.140
 2817SOL    HW2 9351   2.703   0.044   1.051
 2818SOL     OW 9352   0.100   0.580   0.483
 2818SOL    HW1 9353   0.007   0.613   0.466
 2818SOL    HW2 9354   0.135   0.622   0.568
 2819SOL     OW 9355   0.913   1.177   1.455
 2819SOL    HW1 9356   0.917   1.257   1.395
 2819SOL    HW2 9357   0.846   1.111   1.419
 2820SOL     OW 9358   1.249   1.973   3.130
 2820SOL    HW1 9359   1.304   1.967   3.046
 2820SOL    HW2 9360   1.152   1.972   3.106
 2821SOL     OW 9361   3.870   3.341   0.327
 2821SOL    HW1 9362   3.890   3.431   0.290
 2821SOL    HW2 9363   3.954   3.298   0.361
 2822SOL     OW 9364   4.736   2.065   0.144
 2822SOL    HW1 9365   4.812   2.128   0.159
 2822SOL    HW2 9366   4.681   2.059   0.227
 2823SOL     OW 9367   3.882   6.205   0.306
 2823SOL    HW1 9368   3.861   6.166   0.396
 2823SOL    HW2 9369   3.851   6.300   0.303
 2824SOL     OW 9370   3.036   1.220   2.980
 2824SOL    HW1 9371   3.081   1.147   2.929
 2824SOL    HW2 9372   3.033   1.197   3.077
 2825SOL     OW 9373   6.657   0.389   6.577
 2825SOL    HW1 9374   6.604   0.321   6.628
 2825SOL    HW2 9375   6.738   0.345   6.537
 2826SOL     OW 9376   4.514   1.478   6.645
 2826SOL    HW1 9377   4.440   1.516   6.701
 2826SOL    HW2 9378   4.587   1.545   6.635
 2827SOL     OW 9379   6.507   0.748   5.589
 2827SOL    HW1 9380   6.413   0.723   5.568
 2827SOL    HW2 9381   6.523   0.843   5.562
 2828SOL     OW 9382   3.177   1.353   0.260
 2828SOL    HW1 9383   3.232   1.280   0.298
 2828SOL    HW2 9384   3.236   1.419   0.214
 2829SOL     OW 9385   3.472   3.693   5.577
 2829SOL    HW1 9386   3.378   3.677   5.607
 2829SOL    HW2 9387   3.473   3.757   5.501
 2830SOL     OW 9388   1.181   3.039   6.199
 2830SOL    HW1 9389   1.092   3.042   6.153
 2830SOL    HW2 9390   1.223   3.130   6.196
 2831SOL     OW 9391   1.030   5.312   3.309
 2831SOL    HW1 9392   1.034   5.223   3.355
 2831SOL    HW2 9393   1.043   5.385   3.377
 2832SOL     OW 9394   1.237   0.737   2.258
 2832SOL    HW1 9395   1.178   0.809   2.296
 2832SOL    HW2 9396   1.332   0.757   2.279
 2833SOL     OW 9397   4.277   2.121   2.148
 2833SOL    HW1 9398   4.198   2.120   2.209
 2833SOL    HW2 9399   4.268   2.195   2.082
 2834SOL     OW 9400   2.692   5.539   6.248
 2834SOL    HW1 9401   2.660   5.460   6.299
 2834SOL    HW2 9402   2.681   5.622   6.303
 2835SOL     OW 9403   6.870   7.008   1.570
 2835SOL    HW1 9404   6.826   6.918   1.570
 2835SOL    HW2 9405   6.846   0.040   1.654
 2836SOL     OW 9406   5.879   0.340   2.501
 2836SOL    HW1 9407   5.821   0.262   2.526
 2836SOL    HW2 9408   5.947   0.311   2.434
 2837SOL     OW 9409   5.294   4.192   3.112
 2837SOL    HW1 9410   5.287   4.094   3.134
 2837SOL    HW2 9411   5.231   4.243   3.170
 2838SOL     OW 9412   2.075   4.364   0.929
 2838SOL    HW1 9413   2.000   4.358   0.995
 2838SOL    HW2 9414   2.162   4.366   0.978
 2839SOL     OW 9415   6.705   1.920   1.897
 2839SOL    HW1 9416   6.709   1.917   1.797
 2839SOL    HW2 9417   6.616   1.888   1.927
 2840SOL     OW 9418   2.213   0.998   3.126
 2840SOL    HW1 9419   2.308   1.026   3.119
 2840SOL    HW2 9420   2.188   0.942   3.047
 2841SOL     OW 9421   0.883   0.565   5.781
 2841SOL    HW1 9422   0.838   0.476   5.788
 2841SOL    HW2 9423   0.814   0.637   5.791
 2842SOL     OW 9424   6.926   3.649   4.095
 2842SOL    HW1 9425   6.859   3.665   4.023
 2842SOL    HW2 9426   6.916   3.555   4.130
 2843SOL     OW 9427   2.656   1.143   2.732
 2843SOL    HW1 9428   2.577   1.139   2.672
 2843SOL    HW2 9429   2.730   1.087   2.693
 2844SOL     OW 9430   0.511   5.602   0.216
 2844SOL    HW1 9431   0.454   5.676   0.252
 2844SOL    HW2 9432   0.514   5.527   0.282
 2845SOL     OW 9433   6.456   3.188   1.479
 2845SOL    HW1 9434   6.522   3.122   1.443
 2845SOL    HW2 9435   6.402   3.146   1.552
 2846SOL     OW 9436   4.103   0.866   6.209
 2846SOL    HW1 9437   4.167   0.844   6.283
 2846SOL    HW2 9438   4.010   0.848   6.239
 2847SOL     OW 9439   4.865   3.861   3.982
 2847SOL    HW1 9440   4.956   3.854   4.021
 2847SOL    HW2 9441   4.828   3.769   3.966
 2848SOL     OW 9442   1.567   2.920   5.953
 2848SOL    HW1 9443   1.541   2.902   5.859
 2848SOL    HW2 9444   1.641   2.988   5.955
 2849SOL     OW 9445   3.623   6.336   0.575
 2849SOL    HW1 9446   3.528   6.361   0.558
 2849SOL    HW2 9447   3.630   6.236   0.579
 2850SOL     OW 9448   2.437   0.072   2.284
 2850SOL    HW1 9449   2.386   0.082   2.199
 2850SOL    HW2 9450   2.431   6.994   2.315
 2851SOL     OW 9451   6.860   1.466   5.672
 2851SOL    HW1 9452   6.852   1.382   5.618
 2851SOL    HW2 9453   6.947   1.465   5.722
 2852SOL     OW 9454   5.303   5.126   0.020
 2852SOL    HW1 9455   5.398   5.124   7.004
 2852SOL    HW2 9456   5.267   5.219   0.009
 2853SOL     OW 9457   1.909   2.843   6.950
 2853SOL    HW1 9458   1.995   2.796   6.972
 2853SOL    HW2 9459   1.867   2.877   0.017
 2854SOL     OW 9460   4.023   1.066   4.997
 2854SOL    HW1 9461   3.939   1.016   4.976
 2854SOL    HW2 9462   4.089   1.004   5.040
 2855SOL     OW 9463   2.543   1.051   6.836
 2855SOL    HW1 9464   2.491   1.135   6.819
 2855SOL    HW2 9465   2.589   1.059   6.925
 2856SOL     OW 9466   1.569   2.694   6.131
 2856SOL    HW1 9467   1.605   2.788   6.129
 2856SOL    HW2 9468   1.529   2.672   6.042
 2857SOL     OW 9469   3.256   1.492   2.382
 2857SOL    HW1 9470   3.236   1.569   2.442
 2857SOL    HW2 9471   3.341   1.449   2.410
 2858SOL     OW 9472   5.023   4.434   3.078
 2858SOL    HW1 9473   4.941   4.468   3.122
 2858SOL    HW2 9474   5.069   4.369   3.138
 2859SOL     OW 9475   5.132   2.006   0.239
 2859SOL    HW1 9476   5.113   1.938   0.169
 2859SOL    HW2 9477   5.077   2.088   0.222
 2860SOL     OW 9478   3.444   1.755   1.543
 2860SOL    HW1 9479   3.485   1.710   1.623
 2860SOL    HW2 9480   3.517   1.789   1.483
 2861SOL     OW 9481   4.050   3.762   5.895
 2861SOL    HW1 9482   4.010   3.848   5.865
 2861SOL    HW2 9483   4.142   3.753   5.855
 2862SOL     OW 9484   5.282   1.854   3.111
 2862SOL    HW1 9485   5.359   1.900   3.155
 2862SOL    HW2 9486   5.196   1.890   3.148
 2863SOL     OW 9487   5.097   1.099   6.931
 2863SOL    HW1 9488   5.171   1.167   6.928
 2863SOL    HW2 9489   5.108   1.043   7.013
 2864SOL     OW 9490   4.224   1.163   1.432
 2864SOL    HW1 9491   4.158   1.198   1.499
 2864SOL    HW2 9492   4.273   1.240   1.390
 2865SOL     OW 9493   4.916   4.095   6.529
 2865SOL    HW1 9494   4.871   4.095   6.440
 2865SOL    HW2 9495   4.893   4.011   6.578
 2866SOL     OW 9496   6.127   5.752   0.079
 2866SOL    HW1 9497   6.103   5.780   7.003
 2866SOL    HW2 9498   6.178   5.825   0.124
 2867SOL     OW 9499   5.775   3.824   2.755
 2867SOL    HW1 9500   5.762   3.922   2.766
 2867SOL    HW2 9501   5.691   3.776   2.779
 2868SOL     OW 9502   6.839   2.124   5.670
 2868SOL    HW1 9503   6.813   2.048   5.730
 2868SOL    HW2 9504   6.908   2.180   5.716
 2869SOL     OW 9505   6.661   0.685   3.051
 2869SOL    HW1 9506   6.605   0.761   3.084
 2869SOL    HW2 9507   6.627   0.599   3.089
 2870SOL     OW 9508   7.005   1.247   4.598
 2870SOL    HW1 9509   0.009   1.151   4.613
 2870SOL    HW2 9510   6.984   1.262   4.501
 2871SOL     OW 9511   0.580   1.922   0.685
 2871SOL    HW1 9512   0.600   1.856   0.612
 2871SOL    HW2 9513   0.606   2.014   0.655
 2872SOL     OW 9514   2.828   1.366   2.585
 2872SOL    HW1 9515   2.836   1.348   2.487
 2872SOL    HW2 9516   2.760   1.304   2.625
 2873SOL     OW 9517   0.191   5.024   2.771
 2873SOL    HW1 9518   0.137   5.104   2.797
 2873SOL    HW2 9519   0.214   4.971   2.853
 2874SOL     OW 9520   3.069   6.259   3.406
 2874SOL    HW1 9521   3.015   6.232   3.327
 2874SOL    HW2 9522   3.087   6.358   3.402
 2875SOL     OW 9523   4.500   6.859   0.858
 2875SOL    HW1 9524   4.464   6.915   0.932
 2875SOL    HW2 9525   4.429   6.843   0.790
 2876SOL     OW 9526   0.938   0.052   1.817
 2876SOL    HW1 9527   1.036   0.046   1.797
 2876SOL    HW2 9528   0.898   6.977   1.814
 2877SOL     OW 9529   3.089   2.579   5.397
 2877SOL    HW1 9530   3.126   2.532   5.317
 2877SOL    HW2 9531   3.104   2.678   5.388
 2878SOL     OW 9532   4.356   5.220   4.648
 2878SOL    HW1 9533   4.272   5.187   4.604
 2878SOL    HW2 9534   4.374   5.167   4.730
 2879SOL     OW 9535   4.770   4.851   0.925
 2879SOL    HW1 9536   4.775   4.752   0.911
 2879SOL    HW2 9537   4.789   4.872   1.021
 2880SOL     OW 9538   5.780   6.641   1.424
 2880SOL    HW1 9539   5.695   6.588   1.417
 2880SOL    HW2 9540   5.843   6.614   1.351
 2881SOL     OW 9541   5.293   6.020   6.735
 2881SOL    HW1 9542   5.388   5.999   6.759
 2881SOL    HW2 9543   5.266   5.963   6.657
 2882SOL     OW 9544   0.853   4.496   2.758
 2882SOL    HW1 9545   0.918   4.472   2.686
 2882SOL    HW2 9546   0.882   4.581   2.802
 2883SOL     OW 9547   6.299   0.256   3.874
 2883SOL    HW1 9548   6.385   0.284   3.831
 2883SOL    HW2 9549   6.240   0.215   3.805
 2884SOL     OW 9550   0.854   5.727   3.243
 2884SOL    HW1 9551   0.872   5.631   3.219
 2884SOL    HW2 9552   0.913   5.786   3.188
 2885SOL     OW 9553   0.679   3.163   2.282
 2885SOL    HW1 9554   0.604   3.225   2.307
 2885SOL    HW2 9555   0.703   3.177   2.186
 2886SOL     OW 9556   2.545   4.185   6.049
 2886SOL    HW1 9557   2.637   4.216   6.073
 2886SOL    HW2 9558   2.482   4.207   6.124
 2887SOL     OW 9559   0.805   0.706   4.383
 2887SOL    HW1 9560   0.761   0.737   4.299
 2887SOL    HW2 9561   0.735   0.681   4.450
 2888SOL     OW 9562   1.013   4.440   0.059
 2888SOL    HW1 9563   0.964   4.358   0.028
 2888SOL    HW2 9564   1.015   4.443   0.158
 2889SOL     OW 9565   1.984   0.046   2.044
 2889SOL    HW1 9566   1.951   0.123   1.989
 2889SOL    HW2 9567   1.926   0.035   2.124
 2890SOL     OW 9568   2.360   6.887   0.676
 2890SOL    HW1 9569   2.349   6.788   0.663
 2890SOL    HW2 9570   2.428   6.922   0.612
 2891SOL     OW 9571   1.441   4.189   3.213
 2891SOL    HW1 9572   1.485   4.241   3.286
 2891SOL    HW2 9573   1.365   4.241   3.175
 2892SOL     OW 9574   5.626   3.700   6.642
 2892SOL    HW1 9575   5.567   3.765   6.689
 2892SOL    HW2 9576   5.714   3.696   6.689
 2893SOL     OW 9577   0.337   6.122   4.395
 2893SOL    HW1 9578   0.333   6.200   4.457
 2893SOL    HW2 9579   0.244   6.099   4.364
 2894SOL     OW 9580   2.975   3.078   0.797
 2894SOL    HW1 9581   2.930   3.121   0.719
 2894SOL    HW2 9582   3.027   2.999   0.767
 2895SOL     OW 9583   4.583   2.447   5.947
 2895SOL    HW1 9584   4.483   2.452   5.949
 2895SOL    HW2 9585   4.622   2.529   5.988
 2896SOL     OW 9586   3.991   5.440   6.333
 2896SOL    HW1 9587   3.957   5.529   6.304
 2896SOL    HW2 9588   3.918   5.372   6.326
 2897SOL     OW 9589   3.512   4.947   3.569
 2897SOL    HW1 9590   3.455   4.961   3.488
 2897SOL    HW2 9591   3.453   4.933   3.649
 2898SOL     OW 9592   3.800   5.735   4.398
 2898SOL    HW1 9593   3.849   5.651   4.420
 2898SOL    HW2 9594   3.747   5.764   4.477
 2899SOL     OW 9595   0.707   1.880   0.937
 2899SOL    HW1 9596   0.646   1.894   0.860
 2899SOL    HW2 9597   0.682   1.796   0.985
 2900SOL     OW 9598   2.416   4.732   5.392
 2900SOL    HW1 9599   2.358   4.793   5.337
 2900SOL    HW2 9600   2.429   4.646   5.343
 2901SOL     OW 9601   2.188   6.419   3.621
 2901SOL    HW1 9602   2.225   6.442   3.711
 2901SOL    HW2 9603   2.212   6.325   3.598
 2902SOL     OW 9604   4.718   6.457   1.806
 2902SOL    HW1 9605   4.770   6.442   1.721
 2902SOL    HW2 9606   4.637   6.511   1.785
 2903SOL     OW 9607   3.522   1.107   0.598
 2903SOL    HW1 9608   3.580   1.173   0.550
 2903SOL    HW2 9609   3.426   1.127   0.579
 2904SOL     OW 9610   2.264   3.839   5.349
 2904SOL    HW1 9611   2.229   3.765   5.292
 2904SOL    HW2 9612   2.331   3.893   5.297
 2905SOL     OW 9613   1.218   2.335   3.568
 2905SOL    HW1 9614   1.272   2.373   3.644
 2905SOL    HW2 9615   1.169   2.254   3.599
 2906SOL     OW 9616   4.715   6.111   2.634
 2906SOL    HW1 9617   4.748   6.199   2.601
 2906SOL    HW2 9618   4.708   6.047   2.557
 2907SOL     OW 9619   0.611   1.606   3.774
 2907SOL    HW1 9620   0.617   1.705   3.761
 2907SOL    HW2 9621   0.515   1.579   3.784
 2908SOL     OW 9622   4.646   6.614   4.563
 2908SOL    HW1 9623   4.588   6.561   4.500
 2908SOL    HW2 9624   4.740   6.579   4.559
 2909SOL     OW 9625   0.890   6.614   3.375
 2909SOL    HW1 9626   0.968   6.604   3.436
 2909SOL    HW2 9627   0.894   6.703   3.331
 2910SOL     OW 9628   4.692   6.723   4.873
 2910SOL    HW1 9629   4.670   6.792   4.942
 2910SOL    HW2 9630   4.665   6.757   4.783
 2911SOL     OW 9631   1.917   5.562   3.281
 2911SOL    HW1 9632   1.990   5.598   3.222
 2911SOL    HW2 9633   1.847   5.633   3.292
 2912SOL     OW 9634   4.633   0.307   6.648
 2912SOL    HW1 9635   4.566   0.265   6.709
 2912SOL    HW2 9636   4.725   0.295   6.687
 2913SOL     OW 9637   2.323   4.414   3.214
 2913SOL    HW1 9638   2.382   4.495   3.208
 2913SOL    HW2 9639   2.324   4.380   3.308
 2914SOL     OW 9640   6.046   6.349   5.953
 2914SOL    HW1 9641   5.998   6.347   6.041
 2914SOL    HW2 9642   6.104   6.431   5.950
 2915SOL     OW 9643   5.608   1.855   5.034
 2915SOL    HW1 9644   5.631   1.836   5.129
 2915SOL    HW2 9645   5.666   1.929   5.000
 2916SOL     OW 9646   6.891   6.131   6.545
 2916SOL    HW1 9647   6.884   6.181   6.458
 2916SOL    HW2 9648   6.854   6.039   6.534
 2917SOL     OW 9649   3.670   6.658   2.460
 2917SOL    HW1 9650   3.705   6.644   2.553
 2917SOL    HW2 9651   3.732   6.718   2.410
 2918SOL     OW 9652   6.775   4.054   4.107
 2918SOL    HW1 9653   6.784   4.081   4.012
 2918SOL    HW2 9654   6.725   4.125   4.158
 2919SOL     OW 9655   6.744   0.896   1.065
 2919SOL    HW1 9656   6.760   0.911   1.162
 2919SOL    HW2 9657   6.804   0.823   1.032
 2920SOL     OW 9658   2.776   2.105   1.965
 2920SOL    HW1 9659   2.822   2.179   2.014
 2920SOL    HW2 9660   2.740   2.038   2.030
 2921SOL     OW 9661   1.376   0.984   3.107
 2921SOL    HW1 9662   1.412   0.891   3.108
 2921SOL    HW2 9663   1.448   1.049   3.130
 2922SOL     OW 9664   4.896   0.209   0.690
 2922SOL    HW1 9665   4.810   0.241   0.729
 2922SOL    HW2 9666   4.908   0.248   0.599
 2923SOL     OW 9667   6.783   4.938   2.017
 2923SOL    HW1 9668   6.751   4.851   1.981
 2923SOL    HW2 9669   6.705   4.991   2.051
 2924SOL     OW 9670   0.212   2.019   6.848
 2924SOL    HW1 9671   0.193   2.040   6.752
 2924SOL    HW2 9672   0.141   2.059   6.905
 2925SOL     OW 9673   4.446   1.021   2.864
 2925SOL    HW1 9674   4.531   1.018   2.811
 2925SOL    HW2 9675   4.461   1.075   2.947
 2926SOL     OW 9676   6.723   1.164   4.588
 2926SOL    HW1 9677   6.793   1.232   4.568
 2926SOL    HW2 9678   6.634   1.196   4.555
 2927SOL     OW 9679   1.130   2.190   2.832
 2927SOL    HW1 9680   1.085   2.119   2.886
 2927SOL    HW2 9681   1.061   2.238   2.777
 2928SOL     OW 9682   0.086   2.030   6.114
 2928SOL    HW1 9683   0.015   2.002   6.049
 2928SOL    HW2 9684   0.083   2.129   6.127
 2929SOL     OW 9685   0.577   1.287   6.684
 2929SOL    HW1 9686   0.522   1.366   6.712
 2929SOL    HW2 9687   0.538   1.248   6.600
 2930SOL     OW 9688   4.421   6.330   4.914
 2930SOL    HW1 9689   4.499   6.351   4.856
 2930SOL    HW2 9690   4.338   6.325   4.858
 2931SOL     OW 9691   5.288   5.237   0.551
 2931SOL    HW1 9692   5.193   5.225   0.577
 2931SOL    HW2 9693   5.347   5.227   0.631
 2932SOL     OW 9694   0.346   5.312   1.213
 2932SOL    HW1 9695   0.267   5.265   1.251
 2932SOL    HW2 9696   0.316   5.381   1.148
 2933SOL     OW 9697   6.471   4.359   3.506
 2933SOL    HW1 9698   6.538   4.419   3.549
 2933SOL    HW2 9699   6.387   4.410   3.488
 2934SOL     OW 9700   4.763   1.431   0.317
 2934SOL    HW1 9701   4.665   1.432   0.333
 2934SOL    HW2 9702   4.782   1.405   0.222
 2935SOL     OW 9703   6.427   3.085   1.186
 2935SOL    HW1 9704   6.487   3.090   1.266
 2935SOL    HW2 9705   6.333   3.072   1.216
 2936SOL     OW 9706   3.992   5.371   1.891
 2936SOL    HW1 9707   3.907   5.320   1.905
 2936SOL    HW2 9708   3.991   5.454   1.947
 2937SOL     OW 9709   3.932   4.569   0.245
 2937SOL    HW1 9710   3.891   4.636   0.306
 2937SOL    HW2 9711   3.955   4.612   0.158
 2938SOL     OW 9712   4.719   4.745   6.287
 2938SOL    HW1 9713   4.643   4.781   6.342
 2938SOL    HW2 9714   4.803   4.794   6.312
 2939SOL     OW 9715   1.015   0.417   3.677
 2939SOL    HW1 9716   1.084   0.346   3.692
 2939SOL    HW2 9717   0.955   0.422   3.757
 2940SOL     OW 9718   5.631   5.774   6.410
 2940SOL    HW1 9719   5.635   5.834   6.330
 2940SOL    HW2 9720   5.565   5.700   6.393
 2941SOL     OW 9721   2.142   3.156   4.213
 2941SOL    HW1 9722   2.122   3.253   4.225
 2941SOL    HW2 9723   2.158   3.137   4.116
 2942SOL     OW 9724   3.245   2.503   1.296
 2942SOL    HW1 9725   3.233   2.589   1.248
 2942SOL    HW2 9726   3.333   2.462   1.270
 2943SOL     OW 9727   5.464   4.361   3.328
 2943SOL    HW1 9728   5.462   4.446   3.276
 2943SOL    HW2 9729   5.371   4.329   3.344
 2944SOL     OW 9730   2.807   5.711   5.779
 2944SOL    HW1 9731   2.830   5.623   5.737
 2944SOL    HW2 9732   2.709   5.726   5.774
 2945SOL     OW 9733   3.395   3.896   3.444
 2945SOL    HW1 9734   3.308   3.938   3.418
 2945SOL    HW2 9735   3.471   3.953   3.413
 2946SOL     OW 9736   0.917   5.636   6.954
 2946SOL    HW1 9737   0.821   5.664   6.947
 2946SOL    HW2 9738   0.961   5.687   0.011
 2947SOL     OW 9739   0.434   3.496   6.973
 2947SOL    HW1 9740   0.525   3.508   7.012
 2947SOL    HW2 9741   0.415   3.398   6.962
 2948SOL     OW 9742   0.064   4.640   5.719
 2948SOL    HW1 9743   0.151   4.624   5.765
 2948SOL    HW2 9744   0.076   4.627   5.620
 2949SOL     OW 9745   2.697   5.536   0.427
 2949SOL    HW1 9746   2.778   5.529   0.370
 2949SOL    HW2 9747   2.691   5.628   0.465
 2950SOL     OW 9748   4.876   3.738   4.468
 2950SOL    HW1 9749   4.879   3.666   4.398
 2950SOL    HW2 9750   4.842   3.822   4.427
 2951SOL     OW 9751   6.024   1.502   0.950
 2951SOL    HW1 9752   6.091   1.445   0.996
 2951SOL    HW2 9753   6.059   1.596   0.944
 2952SOL     OW 9754   0.866   5.238   5.403
 2952SOL    HW1 9755   0.915   5.313   5.360
 2952SOL    HW2 9756   0.865   5.251   5.502
 2953SOL     OW 9757   5.369   3.374   3.033
 2953SOL    HW1 9758   5.341   3.338   2.944
 2953SOL    HW2 9759   5.393   3.297   3.093
 2954SOL     OW 9760   0.488   5.762   1.820
 2954SOL    HW1 9761   0.571   5.707   1.828
 2954SOL    HW2 9762   0.436   5.733   1.740
 2955SOL     OW 9763   0.633   3.964   1.508
 2955SOL    HW1 9764   0.705   3.909   1.550
 2955SOL    HW2 9765   0.606   3.923   1.421
 2956SOL     OW 9766   6.045   6.577   3.423
 2956SOL    HW1 9767   5.968   6.566   3.359
 2956SOL    HW2 9768   6.058   6.491   3.473
 2957SOL     OW 9769   6.056   2.944   1.634
 2957SOL    HW1 9770   5.961   2.943   1.604
 2957SOL    HW2 9771   6.063   2.903   1.725
 2958SOL     OW 9772   2.558   4.554   4.389
 2958SOL    HW1 9773   2.562   4.544   4.290
 2958SOL    HW2 9774   2.650   4.541   4.428
 2959SOL     OW 9775   4.605   5.230   0.531
 2959SOL    HW1 9776   4.570   5.223   0.437
 2959SOL    HW2 9777   4.699   5.266   0.528
 2960SOL     OW 9778   4.303   6.694   5.963
 2960SOL    HW1 9779   4.321   6.776   5.909
 2960SOL    HW2 9780   4.286   6.719   6.058
 2961SOL     OW 9781   4.680   2.759   4.184
 2961SOL    HW1 9782   4.644   2.774   4.276
 2961SOL    HW2 9783   4.762   2.702   4.189
 2962SOL     OW 9784   4.411   0.972   3.279
 2962SOL    HW1 9785   4.341   0.931   3.221
 2962SOL    HW2 9786   4.462   1.040   3.226
 2963SOL     OW 9787   2.021   1.211   5.741
 2963SOL    HW1 9788   1.938   1.166   5.772
 2963SOL    HW2 9789   1.997   1.291   5.686
 2964SOL     OW 9790   0.078   0.125   2.780
 2964SOL    HW1 9791   0.101   0.220   2.802
 2964SOL    HW2 9792   0.149   0.086   2.722
 2965SOL     OW 9793   6.686   0.660   4.803
 2965SOL    HW1 9794   6.711   0.699   4.892
 2965SOL    HW2 9795   6.736   0.706   4.731
 2966SOL     OW 9796   6.175   5.881   4.245
 2966SOL    HW1 9797   6.080   5.859   4.224
 2966SOL    HW2 9798   6.235   5.842   4.174
 2967SOL     OW 9799   5.847   1.810   4.673
 2967SOL    HW1 9800   5.915   1.765   4.731
 2967SOL    HW2 9801   5.865   1.909   4.671
 2968SOL     OW 9802   0.776   3.159   6.417
 2968SOL    HW1 9803   0.836   3.200   6.486
 2968SOL    HW2 9804   0.694   3.214   6.408
 2969SOL     OW 9805   5.839   0.811   4.723
 2969SOL    HW1 9806   5.769   0.748   4.690
 2969SOL    HW2 9807   5.847   0.804   4.822
 2970SOL     OW 9808   0.941   4.222   5.922
 2970SOL    HW1 9809   0.914   4.244   6.016
 2970SOL    HW2 9810   0.970   4.127   5.917
 2971SOL     OW 9811   5.911   3.499   6.228
 2971SOL    HW1 9812   5.928   3.542   6.139
 2971SOL    HW2 9813   5.978   3.532   6.294
 2972SOL     OW 9814   6.318   4.317   6.325
 2972SOL    HW1 9815   6.222   4.295   6.307
 2972SOL    HW2 9816   6.371   4.303   6.242
 2973SOL     OW 9817   5.551   1.073   4.347
 2973SOL    HW1 9818   5.558   0.974   4.358
 2973SOL    HW2 9819   5.456   1.101   4.357
 2974SOL     OW 9820   0.592   3.902   2.456
 2974SOL    HW1 9821   0.685   3.875   2.482
 2974SOL    HW2 9822   0.570   3.990   2.497
 2975SOL     OW 9823   0.050   2.296   5.265
 2975SOL    HW1 9824   6.968   2.310   5.253
 2975SOL    HW2 9825   0.067   2.257   5.355
 2976SOL     OW 9826   4.144   2.262   3.151
 2976SOL    HW1 9827   4.056   2.232   3.116
 2976SOL    HW2 9828   4.213   2.255   3.079
 2977SOL     OW 9829   1.480   6.725   3.974
 2977SOL    HW1 9830   1.385   6.694   3.977
 2977SOL    HW2 9831   1.533   6.666   3.914
 2978SOL     OW 9832   4.208   4.525   6.661
 2978SOL    HW1 9833   4.162   4.436   6.660
 2978SOL    HW2 9834   4.298   4.517   6.617
 2979SOL     OW 9835   4.724   0.464   4.121
 2979SOL    HW1 9836   4.678   0.447   4.207
 2979SOL    HW2 9837   4.811   0.511   4.138
 2980SOL     OW 9838   1.192   6.017   3.810
 2980SOL    HW1 9839   1.157   5.995   3.901
 2980SOL    HW2 9840   1.192   5.934   3.754
 2981SOL     OW 9841   1.956   1.338   6.112
 2981SOL    HW1 9842   1.900   1.262   6.145
 2981SOL    HW2 9843   1.929   1.361   6.018
 2982SOL     OW 9844   3.774   6.152   3.200
 2982SOL    HW1 9845   3.853   6.097   3.173
 2982SOL    HW2 9846   3.760   6.143   3.299
 2983SOL     OW 9847   0.906   1.404   4.033
 2983SOL    HW1 9848   0.947   1.411   3.942
 2983SOL    HW2 9849   0.827   1.343   4.029
 2984SOL     OW 9850   5.274   5.415   1.931
 2984SOL    HW1 9851   5.210   5.451   1.863
 2984SOL    HW2 9852   5.232   5.340   1.981
 2985SOL     OW 9853   1.370   2.280   5.748
 2985SOL    HW1 9854   1.356   2.182   5.733
 2985SOL    HW2 9855   1.468   2.299   5.751
 2986SOL     OW 9856   2.090   3.882   6.260
 2986SOL    HW1 9857   2.108   3.804   6.321
 2986SOL    HW2 9858   2.088   3.966   6.314
 2987SOL     OW 9859   5.384   1.338   4.185
 2987SOL    HW1 9860   5.452   1.394   4.231
 2987SOL    HW2 9861   5.416   1.315   4.093
 2988SOL     OW 9862   0.464   6.701   2.906
 2988SOL    HW1 9863   0.439   6.715   3.002
 2988SOL    HW2 9864   0.406   6.631   2.866
 2989SOL     OW 9865   6.618   5.805   0.333
 2989SOL    HW1 9866   6.699   5.823   0.389
 2989SOL    HW2 9867   6.628   5.850   0.245
 2990SOL     OW 9868   4.509   1.720   4.525
 2990SOL    HW1 9869   4.551   1.649   4.470
 2990SOL    HW2 9870   4.447   1.679   4.592
 2991SOL     OW 9871   6.416   4.078   6.017
 2991SOL    HW1 9872   6.453   4.160   6.062
 2991SOL    HW2 9873   6.469   4.060   5.934
 2992SOL     OW 9874   2.117   5.026   5.756
 2992SOL    HW1 9875   2.031   5.037   5.706
 2992SOL    HW2 9876   2.194   5.049   5.696
 2993SOL     OW 9877   0.435   5.433   1.451
 2993SOL    HW1 9878   0.452   5.373   1.529
 2993SOL    HW2 9879   0.448   5.381   1.366
 2994SOL     OW 9880   3.737   6.719   0.248
 2994SOL    HW1 9881   3.757   6.794   0.311
 2994SOL    HW2 9882   3.790   6.730   0.164
 2995SOL     OW 9883   1.845   3.479   6.630
 2995SOL    HW1 9884   1.789   3.495   6.549
 2995SOL    HW2 9885   1.907   3.557   6.643
 2996SOL     OW 9886   1.846   0.114   4.342
 2996SOL    HW1 9887   1.810   0.081   4.255
 2996SOL    HW2 9888   1.894   0.201   4.327
 2997SOL     OW 9889   5.387   0.767   2.498
 2997SOL    HW1 9890   5.336   0.827   2.559
 2997SOL    HW2 9891   5.324   0.724   2.433
 2998SOL     OW 9892   5.067   0.334   4.443
 2998SOL    HW1 9893   5.044   0.306   4.350
 2998SOL    HW2 9894   5.121   0.262   4.487
 2999SOL     OW 9895   3.281   4.883   4.020
 2999SOL    HW1 9896   3.380   4.877   4.009
 2999SOL    HW2 9897   3.260   4.925   4.108
 3000SOL     OW 9898   2.247   3.723   6.822
 3000SOL    HW1 9899   2.186   3.665   6.878
 3000SOL    HW2 9900   2.245   3.816   6.857
 3001SOL     OW 9901   5.830   5.700   6.192
 3001SOL    HW1 9902   5.786   5.712   6.102
 3001SOL    HW2 9903   5.760   5.684   6.261
 3002SOL     OW 9904   3.875   0.129   6.029
 3002SOL    HW1 9905   3.837   0.060   5.967
 3002SOL    HW2 9906   3.801   0.182   6.070
 3003SOL     OW 9907   2.188   0.141   6.962
 3003SOL    HW1 9908   2.133   0.078   0.000
 3003SOL    HW2 9909   2.135   0.169   6.882
 3004SOL     OW 9910   1.430   4.986   3.175
 3004SOL    HW1 9911   1.427   4.933   3.090
 3004SOL    HW2 9912   1.498   5.059   3.166
 3005SOL     OW 9913   2.835   2.201   6.842
 3005SOL    HW1 9914   2.820   2.255   6.924
 3005SOL    HW2 9915   2.846   2.262   6.763
 3006SOL     OW 9916   4.764   2.493   6.352
 3006SOL    HW1 9917   4.741   2.526   6.443
 3006SOL    HW2 9918   4.774   2.393   6.354
 3007SOL     OW 9919   5.805   5.202   1.519
 3007SOL    HW1 9920   5.891   5.222   1.565
 3007SOL    HW2 9921   5.782   5.277   1.456
 3008SOL     OW 9922   3.742   0.629   6.344
 3008SOL    HW1 9923   3.673   0.618   6.273
 3008SOL    HW2 9924   3.698   0.636   6.434
 3009SOL     OW 9925   0.859   0.579   2.845
 3009SOL    HW1 9926   0.793   0.507   2.866
 3009SOL    HW2 9927   0.874   0.635   2.926
 3010SOL     OW 9928   3.021   6.046   3.921
 3010SOL    HW1 9929   3.120   6.042   3.909
 3010SOL    HW2 9930   2.980   6.103   3.850
 3011SOL     OW 9931   5.229   1.510   1.161
 3011SOL    HW1 9932   5.219   1.535   1.064
 3011SOL    HW2 9933   5.323   1.526   1.190
 3012SOL     OW 9934   1.327   3.704   5.065
 3012SOL    HW1 9935   1.237   3.721   5.107
 3012SOL    HW2 9936   1.347   3.776   5.000
 3013SOL     OW 9937   5.623   5.704   4.868
 3013SOL    HW1 9938   5.541   5.761   4.872
 3013SOL    HW2 9939   5.615   5.629   4.932
 3014SOL     OW 9940   4.858   2.996   4.874
 3014SOL    HW1 9941   4.829   2.927   4.939
 3014SOL    HW2 9942   4.823   2.973   4.783
 3015SOL     OW 9943   2.460   2.134   0.097
 3015SOL    HW1 9944   2.494   2.155   0.189
 3015SOL    HW2 9945   2.468   2.036   0.080
 3016SOL     OW 9946   2.978   5.878   4.231
 3016SOL    HW1 9947   2.922   5.939   4.287
 3016SOL    HW2 9948   3.066   5.922   4.212
 3017SOL     OW 9949   0.660   5.543   1.850
 3017SOL    HW1 9950   0.759   5.540   1.866
 3017SOL    HW2 9951   0.612   5.535   1.937
 3018SOL     OW 9952   2.233   6.779   5.512
 3018SOL    HW1 9953   2.223   6.683   5.488
 3018SOL    HW2 9954   2.320   6.813   5.476
 3019SOL     OW 9955   1.611   0.187   6.873
 3019SOL    HW1 9956   1.683   0.201   6.804
 3019SOL    HW2 9957   1.651   0.147   6.955
 3020SOL     OW 9958   4.014   3.731   2.274
 3020SOL    HW1 9959   4.066   3.816   2.265
 3020SOL    HW2 9960   4.048   3.665   2.206
 3021SOL     OW 9961   3.467   0.261   0.084
 3021SOL    HW1 9962   3.564   0.245   0.063
 3021SOL    HW2 9963   3.454   0.257   0.183
 3022SOL     OW 9964   4.016   4.927   4.629
 3022SOL    HW1 9965   3.927   4.905   4.588
 3022SOL    HW2 9966   4.037   4.860   4.700
 3023SOL     OW 9967   4.432   0.228   2.851
 3023SOL    HW1 9968   4.494   0.179   2.789
 3023SOL    HW2 9969   4.337   0.208   2.825
 3024SOL     OW 9970   4.200   6.332   5.655
 3024SOL    HW1 9971   4.239   6.342   5.564
 3024SOL    HW2 9972   4.100   6.333   5.649
 3025SOL     OW 9973   3.537   1.435   0.082
 3025SOL    HW1 9974   3.491   1.511   0.127
 3025SOL    HW2 9975   3.631   1.461   0.060
 3026SOL     OW 9976   1.517   1.413   0.837
 3026SOL    HW1 9977   1.595   1.398   0.898
 3026SOL    HW2 9978   1.550   1.433   0.745
 3027SOL     OW 9979   3.891   0.248   2.230
 3027SOL    HW1 9980   3.954   0.316   2.266
 3027SOL    HW2 9981   3.919   0.157   2.261
 3028SOL     OW 9982   1.344   3.842   5.663
 3028SOL    HW1 9983   1.298   3.814   5.579
 3028SOL    HW2 9984   1.346   3.942   5.669
 3029SOL     OW 9985   0.210   3.323   4.669
 3029SOL    HW1 9986   0.128   3.305   4.723
 3029SOL    HW2 9987   0.231   3.244   4.612
 3030SOL     OW 9988   0.820   2.248   6.023
 3030SOL    HW1 9989   0.901   2.192   6.006
 3030SOL    HW2 9990   0.753   2.234   5.950
 3031SOL     OW 9991   0.732   2.788   1.181
 3031SOL    HW1 9992   0.688   2.755   1.265
 3031SOL    HW2 9993   0.664   2.832   1.123
 3032SOL     OW 9994   4.261   6.223   1.725
 3032SOL    HW1 9995   4.347   6.173   1.738
 3032SOL    HW2 9996   4.187   6.158   1.707
 3033SOL     OW 9997   6.951   2.125   1.903
 3033SOL    HW1 9998   6.894   2.048   1.876
 3033SOL    HW2 9999   7.010   2.098   1.979
 3034SOL     OW10000   1.724   5.390   3.337
 3034SOL    HW110001   1.754   5.362   3.428
 3034SOL    HW210002   1.801   5.435   3.289
 3035SOL     OW10003   0.246   3.218   0.687
 3035SOL    HW110004   0.171   3.259   0.636
 3035SOL    HW210005   0.320   3.284   0.698
 3036SOL     OW10006   1.728   2.631   6.866
 3036SOL    HW110007   1.739   2.599   6.772
 3036SOL    HW210008   1.798   2.700   6.886
 3037SOL     OW10009   0.873   5.769   5.028
 3037SOL    HW110010   0.923   5.852   5.054
 3037SOL    HW210011   0.871   5.705   5.104
 3038SOL     OW10012   5.660   5.688   5.988
 3038SOL    HW110013   5.582   5.699   5.925
 3038SOL    HW210014   5.712   5.607   5.962
 3039SOL     OW10015   6.890   3.936   1.313
 3039SOL    HW110016   6.985   3.905   1.315
 3039SOL    HW210017   6.859   3.945   1.218
 3040SOL     OW10018   4.240   3.408   6.072
 3040SOL    HW110019   4.283   3.392   6.160
 3040SOL    HW210020   4.141   3.413   6.083
 3041SOL     OW10021   2.106   3.001   4.761
 3041SOL    HW110022   2.143   2.946   4.836
 3041SOL    HW210023   2.095   2.944   4.680
 3042SOL     OW10024   4.961   6.181   2.085
 3042SOL    HW110025   4.973   6.130   2.170
 3042SOL    HW210026   5.033   6.155   2.021
 3043SOL     OW10027   0.901   5.738   1.776
 3043SOL    HW110028   0.863   5.758   1.685
 3043SOL    HW210029   0.914   5.823   1.826
 3044SOL     OW10030   3.015   3.614   6.205
 3044SOL    HW110031   3.084   3.542   6.208
 3044SOL    HW210032   3.059   3.703   6.217
 3045SOL     OW10033   4.789   1.436   2.951
 3045SOL    HW110034   4.797   1.352   2.898
 3045SOL    HW210035   4.724   1.498   2.908
 3046SOL     OW10036   2.651   1.555   6.694
 3046SOL    HW110037   2.671   1.457   6.695
 3046SOL    HW210038   2.561   1.571   6.654
 3047SOL     OW10039   4.908   0.453   2.371
 3047SOL    HW110040   4.858   0.413   2.295
 3047SOL    HW210041   4.999   0.411   2.378
 3048SOL     OW10042   3.751   2.404   1.595
 3048SOL    HW110043   3.707   2.370   1.512
 3048SOL    HW210044   3.690   2.389   1.673
 3049SOL     OW10045   0.783   6.343   1.648
 3049SOL    HW110046   0.852   6.364   1.717
 3049SOL    HW210047   0.711   6.412   1.651
 3050SOL     OW10048   2.874   0.651   2.266
 3050SOL    HW110049   2.828   0.582   2.210
 3050SOL    HW210050   2.851   0.742   2.232
 3051SOL     OW10051   2.010   3.776   0.215
 3051SOL    HW110052   2.109   3.772   0.204
 3051SOL    HW210053   1.973   3.851   0.160
 3052SOL     OW10054   5.287   0.044   2.422
 3052SOL    HW110055   5.253   0.138   2.429
 3052SOL    HW210056   5.386   0.043   2.427
 3053SOL     OW10057   0.192   1.757   6.812
 3053SOL    HW110058   0.210   1.855   6.813
 3053SOL    HW210059   0.173   1.728   6.718
 3054SOL     OW10060   6.933   2.158   1.617
 3054SOL    HW110061   7.010   2.095   1.607
 3054SOL    HW210062   6.908   2.166   1.713
 3055SOL     OW10063   5.274   6.998   4.050
 3055SOL    HW110064   5.186   6.973   4.091
 3055SOL    HW210065   5.285   6.950   3.963
 3056SOL     OW10066   6.238   1.323   5.407
 3056SOL    HW110067   6.230   1.266   5.489
 3056SOL    HW210068   6.166   1.392   5.408
 3057SOL     OW10069   3.795   6.202   3.721
 3057SOL    HW110070   3.786   6.136   3.795
 3057SOL    HW210071   3.849   6.280   3.753
 3058SOL     OW10072   6.728   5.482   0.825
 3058SOL    HW110073   6.649   5.537   0.797
 3058SOL    HW210074   6.782   5.458   0.744
 3059SOL     OW10075   2.696   2.192   4.449
 3059SOL    HW110076   2.619   2.189   4.386
 3059SOL    HW210077   2.674   2.251   4.526
 3060SOL     OW10078   0.755   5.839   0.293
 3060SOL    HW110079   0.686   5.864   0.225
 3060SOL    HW210080   0.714   5.843   0.384
 3061SOL     OW10081   5.565   0.543   5.622
 3061SOL    HW110082   5.644   0.604   5.610
 3061SOL    HW210083   5.510   0.543   5.539
 3062SOL     OW10084   1.262   6.694   6.854
 3062SOL    HW110085   1.243   6.664   6.947
 3062SOL    HW210086   1.361   6.691   6.837
 3063SOL     OW10087   2.811   5.179   1.458
 3063SOL    HW110088   2.720   5.177   1.416
 3063SOL    HW210089   2.808   5.129   1.545
 3064SOL     OW10090   5.538   4.022   3.726
 3064SOL    HW110091   5.607   3.952   3.745
 3064SOL    HW210092   5.505   4.060   3.812
 3065SOL     OW10093   2.301   0.835   0.376
 3065SOL    HW110094   2.343   0.842   0.286
 3065SOL    HW210095   2.341   0.903   0.437
 3066SOL     OW10096   4.813   5.265   1.217
 3066SOL    HW110097   4.822   5.211   1.300
 3066SOL    HW210098   4.854   5.216   1.140
 3067SOL     OW10099   3.811   1.955   4.521
 3067SOL    HW110100   3.801   2.012   4.439
 3067SOL    HW210101   3.739   1.886   4.522
 3068SOL     OW10102   6.065   6.410   1.559
 3068SOL    HW110103   6.025   6.378   1.473
 3068SOL    HW210104   6.146   6.464   1.540
 3069SOL     OW10105   6.628   6.352   1.960
 3069SOL    HW110106   6.686   6.403   2.022
 3069SOL    HW210107   6.547   6.319   2.009
 3070SOL     OW10108   0.977   0.983   1.980
 3070SOL    HW110109   0.878   0.982   1.971
 3070SOL    HW210110   1.004   1.062   2.035
 3071SOL     OW10111   6.343   5.843   2.940
 3071SOL    HW110112   6.314   5.909   3.009
 3071SOL    HW210113   6.265   5.785   2.914
 3072SOL     OW10114   1.255   0.146   0.081
 3072SOL    HW110115   1.256   0.049   0.107
 3072SOL    HW210116   1.240   0.202   0.162
 3073SOL     OW10117   6.693   2.676   5.123
 3073SOL    HW110118   6.734   2.737   5.054
 3073SOL    HW210119   6.672   2.588   5.081
 3074SOL     OW10120   5.469   3.687   0.684
 3074SOL    HW110121   5.549   3.636   0.716
 3074SOL    HW210122   5.488   3.785   0.687
 3075SOL     OW10123   2.349   5.955   1.454
 3075SOL    HW110124   2.301   5.971   1.541
 3075SOL    HW210125   2.361   6.041   1.406
 3076SOL     OW10126   0.044   1.043   4.268
 3076SOL    HW110127   0.017   0.974   4.335
 3076SOL    HW210128   0.141   1.033   4.247
 3077SOL     OW10129   4.647   5.569   2.728
 3077SOL    HW110130   4.679   5.629   2.801
 3077SOL    HW210131   4.548   5.556   2.736
 3078SOL     OW10132   1.112   3.426   1.931
 3078SOL    HW110133   1.120   3.507   1.989
 3078SOL    HW210134   1.102   3.345   1.989
 3079SOL     OW10135   2.512   1.951   4.546
 3079SOL    HW110136   2.533   1.855   4.525
 3079SOL    HW210137   2.493   2.000   4.461
 3080SOL     OW10138   5.194   3.543   3.188
 3080SOL    HW110139   5.169   3.625   3.137
 3080SOL    HW210140   5.239   3.478   3.126
 3081SOL     OW10141   0.794   2.523   5.970
 3081SOL    HW110142   0.863   2.595   5.956
 3081SOL    HW210143   0.832   2.451   6.029
 3082SOL     OW10144   3.010   0.098   4.173
 3082SOL    HW110145   2.980   0.191   4.197
 3082SOL    HW210146   3.107   0.100   4.148
 3083SOL     OW10147   4.223   6.580   3.185
 3083SOL    HW110148   4.254   6.652   3.122
 3083SOL    HW210149   4.256   6.601   3.277
 3084SOL     OW10150   5.225   4.097   4.378
 3084SOL    HW110151   5.220   3.998   4.387
 3084SOL    HW210152   5.277   4.135   4.454
 3085SOL     OW10153   0.324   4.794   1.394
 3085SOL    HW110154   0.308   4.784   1.492
 3085SOL    HW210155   0.417   4.827   1.378
 3086SOL     OW10156   3.798   2.130   2.282
 3086SOL    HW110157   3.775   2.150   2.377
 3086SOL    HW210158   3.732   2.173   2.221
 3087SOL     OW10159   0.800   5.063   4.069
 3087SOL    HW110160   0.738   5.082   3.993
 3087SOL    HW210161   0.894   5.077   4.039
 3088SOL     OW10162   2.538   4.832   6.004
 3088SOL    HW110163   2.569   4.878   5.921
 3088SOL    HW210164   2.520   4.901   6.075
 3089SOL     OW10165   1.397   3.543   0.238
 3089SOL    HW110166   1.488   3.519   0.270
 3089SOL    HW210167   1.362   3.469   0.179
 3090SOL     OW10168   2.112   1.740   2.291
 3090SOL    HW110169   2.089   1.681   2.368
 3090SOL    HW210170   2.086   1.695   2.205
 3091SOL     OW10171   1.446   0.444   0.890
 3091SOL    HW110172   1.439   0.442   0.989
 3091SOL    HW210173   1.363   0.483   0.851
 3092SOL     OW10174   4.755   6.786   0.748
 3092SOL    HW110175   4.657   6.766   0.735
 3092SOL    HW210176   4.795   6.716   0.807
 3093SOL     OW10177   5.093   6.343   5.842
 3093SOL    HW110178   5.014   6.398   5.872
 3093SOL    HW210179   5.090   6.332   5.742
 3094SOL     OW10180   2.325   6.592   4.370
 3094SOL    HW110181   2.376   6.639   4.298
 3094SOL    HW210182   2.251   6.651   4.403
 3095SOL     OW10183   1.969   5.103   5.072
 3095SOL    HW110184   1.901   5.061   5.012
 3095SOL    HW210185   1.959   5.202   5.070
 3096SOL     OW10186   1.348   6.554   4.806
 3096SOL    HW110187   1.259   6.552   4.759
 3096SOL    HW210188   1.373   6.648   4.826
 3097SOL     OW10189   6.970   2.770   0.860
 3097SOL    HW110190   0.032   2.814   0.904
 3097SOL    HW210191   7.002   2.707   0.790
 3098SOL     OW10192   3.227   3.214   0.695
 3098SOL    HW110193   3.145   3.164   0.724
 3098SOL    HW210194   3.203   3.275   0.619
 3099SOL     OW10195   0.620   6.517   3.279
 3099SOL    HW110196   0.597   6.460   3.200
 3099SOL    HW210197   0.701   6.572   3.257
 3100SOL     OW10198   6.215   6.632   4.810
 3100SOL    HW110199   6.286   6.581   4.858
 3100SOL    HW210200   6.248   6.658   4.719
 3101SOL     OW10201   4.863   6.476   5.924
 3101SOL    HW110202   4.841   6.525   5.839
 3101SOL    HW210203   4.797   6.503   5.995
 3102SOL     OW10204   0.469   5.001   2.469
 3102SOL    HW110205   0.438   4.908   2.448
 3102SOL    HW210206   0.518   5.000   2.556
 3103SOL     OW10207   3.749   0.896   1.890
 3103SOL    HW110208   3.651   0.894   1.870
 3103SOL    HW210209   3.763   0.881   1.988
 3104SOL     OW10210   5.467   6.493   4.996
 3104SOL    HW110211   5.479   6.396   5.015
 3104SOL    HW210212   5.500   6.514   4.904
 3105SOL     OW10213   6.283   4.440   1.951
 3105SOL    HW110214   6.244   4.396   1.871
 3105SOL    HW210215   6.371   4.397   1.973
 3106SOL     OW10216   5.667   1.575   2.577
 3106SOL    HW110217   5.688   1.668   2.546
 3106SOL    HW210218   5.735   1.512   2.542
 3107SOL     OW10219   4.164   0.970   4.244
 3107SOL    HW110220   4.114   1.025   4.310
 3107SOL    HW210221   4.250   0.939   4.285
 3108SOL     OW10222   0.957   0.334   4.636
 3108SOL    HW110223   0.905   0.387   4.570
 3108SOL    HW210224   1.043   0.305   4.595
 3109SOL     OW10225   5.240   6.139   1.937
 3109SOL    HW110226   5.295   6.091   2.006
 3109SOL    HW210227   5.296   6.208   1.891
 3110SOL     OW10228   1.743   1.765   3.947
 3110SOL    HW110229   1.778   1.801   3.861
 3110SOL    HW210230   1.816   1.717   3.996
 3111SOL     OW10231   6.387   6.182   4.046
 3111SOL    HW110232   6.402   6.103   3.987
 3111SOL    HW210233   6.461   6.248   4.033
 3112SOL     OW10234   5.274   2.711   6.144
 3112SOL    HW110235   5.207   2.689   6.073
 3112SOL    HW210236   5.311   2.626   6.182
 3113SOL     OW10237   2.011   6.301   4.187
 3113SOL    HW110238   1.999   6.313   4.088
 3113SOL    HW210239   2.015   6.203   4.207
 3114SOL     OW10240   4.039   2.185   0.033
 3114SOL    HW110241   4.062   2.267   6.998
 3114SOL    HW210242   3.968   2.206   0.100
 3115SOL     OW10243   4.001   3.272   6.350
 3115SOL    HW110244   4.069   3.343   6.368
 3115SOL    HW210245   3.928   3.310   6.293
 3116SOL     OW10246   0.175   3.245   0.393
 3116SOL    HW110247   0.120   3.322   0.426
 3116SOL    HW210248   0.126   3.197   0.321
 3117SOL     OW10249   4.267   3.410   5.339
 3117SOL    HW110250   4.354   3.460   5.340
 3117SOL    HW210251   4.220   3.429   5.253
 3118SOL     OW10252   0.303   4.372   0.551
 3118SOL    HW110253   0.264   4.344   0.639
 3118SOL    HW210254   0.374   4.440   0.565
 3119SOL     OW10255   1.847   3.397   5.543
 3119SOL    HW110256   1.840   3.430   5.449
 3119SOL    HW210257   1.793   3.456   5.603
 3120SOL     OW10258   2.959   6.737   3.864
 3120SOL    HW110259   3.049   6.778   3.879
 3120SOL    HW210260   2.897   6.764   3.937
 3121SOL     OW10261   7.011   1.482   2.721
 3121SOL    HW110262   7.014   1.539   2.639
 3121SOL    HW210263   0.085   1.443   2.738
 3122SOL     OW10264   3.360   6.144   5.948
 3122SOL    HW110265   3.390   6.092   5.868
 3122SOL    HW210266   3.260   6.151   5.948
 3123SOL     OW10267   4.122   1.290   4.210
 3123SOL    HW110268   4.182   1.370   4.210
 3123SOL    HW210269   4.137   1.236   4.127
 3124SOL     OW10270   4.251   6.362   4.717
 3124SOL    HW110271   4.154   6.384   4.729
 3124SOL    HW210272   4.283   6.401   4.631
 3125SOL     OW10273   6.582   2.212   5.043
 3125SOL    HW110274   6.508   2.162   5.089
 3125SOL    HW210275   6.631   2.149   4.983
 3126SOL     OW10276   4.283   4.605   6.309
 3126SOL    HW110277   4.326   4.530   6.258
 3126SOL    HW210278   4.341   4.628   6.388
 3127SOL     OW10279   0.891   3.121   3.554
 3127SOL    HW110280   0.945   3.202   3.533
 3127SOL    HW210281   0.813   3.115   3.492
 3128SOL     OW10282   1.809   0.581   6.472
 3128SOL    HW110283   1.863   0.518   6.528
 3128SOL    HW210284   1.856   0.598   6.386
 3129SOL     OW10285   0.471   4.217   6.531
 3129SOL    HW110286   0.418   4.136   6.508
 3129SOL    HW210287   0.569   4.193   6.533
 3130SOL     OW10288   1.655   4.607   1.761
 3130SOL    HW110289   1.671   4.586   1.857
 3130SOL    HW210290   1.718   4.678   1.731
 3131SOL     OW10291   6.755   2.793   1.840
 3131SOL    HW110292   6.845   2.752   1.824
 3131SOL    HW210293   6.762   2.892   1.831
 3132SOL     OW10294   4.115   4.942   5.866
 3132SOL    HW110295   4.165   4.909   5.946
 3132SOL    HW210296   4.032   4.887   5.854
 3133SOL     OW10297   3.583   1.999   3.887
 3133SOL    HW110298   3.518   2.061   3.931
 3133SOL    HW210299   3.534   1.925   3.842
 3134SOL     OW10300   4.542   4.073   1.372
 3134SOL    HW110301   4.573   4.055   1.465
 3134SOL    HW210302   4.483   4.154   1.372
 3135SOL     OW10303   5.173   0.915   5.557
 3135SOL    HW110304   5.209   0.844   5.496
 3135SOL    HW210305   5.073   0.910   5.559
 3136SOL     OW10306   5.205   0.644   0.145
 3136SOL    HW110307   5.166   0.606   0.061
 3136SOL    HW210308   5.147   0.718   0.178
 3137SOL     OW10309   6.593   0.457   3.512
 3137SOL    HW110310   6.683   0.473   3.553
 3137SOL    HW210311   6.589   0.500   3.422
 3138SOL     OW10312   6.611   2.786   3.987
 3138SOL    HW110313   6.661   2.780   3.901
 3138SOL    HW210314   6.562   2.701   4.004
 3139SOL     OW10315   4.958   7.009   0.422
 3139SOL    HW110316   4.934   0.089   0.430
 3139SOL    HW210317   4.965   6.968   0.513
 3140SOL     OW10318   5.969   0.107   6.697
 3140SOL    HW110319   5.892   0.169   6.680
 3140SOL    HW210320   5.962   0.028   6.637
 3141SOL     OW10321   0.271   5.564   6.330
 3141SOL    HW110322   0.260   5.638   6.396
 3141SOL    HW210323   0.325   5.595   6.252
 3142SOL     OW10324   4.779   6.333   1.546
 3142SOL    HW110325   4.727   6.261   1.592
 3142SOL    HW210326   4.717   6.386   1.488
 3143SOL     OW10327   6.983   2.114   6.949
 3143SOL    HW110328   6.931   2.031   6.927
 3143SOL    HW210329   6.954   2.148   0.022
 3144SOL     OW10330   3.814   3.899   0.917
 3144SOL    HW110331   3.717   3.920   0.918
 3144SOL    HW210332   3.848   3.890   1.010
 3145SOL     OW10333   1.728   5.165   2.124
 3145SOL    HW110334   1.805   5.137   2.067
 3145SOL    HW210335   1.754   5.162   2.220
 3146SOL     OW10336   1.262   7.005   2.667
 3146SOL    HW110337   1.282   0.076   2.623
 3146SOL    HW210338   1.305   7.002   2.757
 3147SOL     OW10339   3.007   5.223   0.207
 3147SOL    HW110340   3.087   5.277   0.181
 3147SOL    HW210341   3.036   5.148   0.266
 3148SOL     OW10342   5.197   6.037   5.098
 3148SOL    HW110343   5.193   6.043   5.197
 3148SOL    HW210344   5.108   6.062   5.059
 3149SOL     OW10345   2.884   0.689   5.312
 3149SOL    HW110346   2.874   0.675   5.411
 3149SOL    HW210347   2.869   0.785   5.290
 3150SOL     OW10348   6.868   6.039   4.483
 3150SOL    HW110349   6.881   6.104   4.408
 3150SOL    HW210350   6.825   6.085   4.560
 3151SOL     OW10351   4.198   1.205   6.451
 3151SOL    HW110352   4.108   1.242   6.472
 3151SOL    HW210353   4.207   1.192   6.352
 3152SOL     OW10354   1.179   5.497   0.968
 3152SOL    HW110355   1.134   5.460   0.887
 3152SOL    HW210356   1.273   5.462   0.973
 3153SOL     OW10357   6.182   4.694   1.996
 3153SOL    HW110358   6.224   4.605   1.979
 3153SOL    HW210359   6.246   4.767   1.972
 3154SOL     OW10360   6.698   1.671   0.539
 3154SOL    HW110361   6.617   1.669   0.598
 3154SOL    HW210362   6.713   1.765   0.507
 3155SOL     OW10363   6.252   4.955   1.304
 3155SOL    HW110364   6.237   5.022   1.377
 3155SOL    HW210365   6.350   4.950   1.282
 3156SOL     OW10366   2.943   3.389   3.763
 3156SOL    HW110367   2.850   3.355   3.769
 3156SOL    HW210368   2.990   3.347   3.686
 3157SOL     OW10369   1.869   2.637   4.866
 3157SOL    HW110370   1.791   2.690   4.831
 3157SOL    HW210371   1.852   2.612   4.961
 3158SOL     OW10372   4.150   6.955   1.979
 3158SOL    HW110373   4.180   6.908   1.896
 3158SOL    HW210374   4.127   0.033   1.957
 3159SOL     OW10375   5.627   1.186   0.616
 3159SOL    HW110376   5.689   1.142   0.551
 3159SOL    HW210377   5.632   1.285   0.605
 3160SOL     OW10378   0.202   6.250   5.236
 3160SOL    HW110379   0.144   6.317   5.281
 3160SOL    HW210380   0.290   6.293   5.212
 3161SOL     OW10381   1.833   1.885   3.721
 3161SOL    HW110382   1.776   1.967   3.710
 3161SOL    HW210383   1.913   1.892   3.660
 3162SOL     OW10384   0.990   6.400   0.626
 3162SOL    HW110385   1.025   6.480   0.674
 3162SOL    HW210386   0.999   6.319   0.685
 3163SOL     OW10387   4.006   2.248   6.690
 3163SOL    HW110388   3.995   2.329   6.748
 3163SOL    HW210389   4.103   2.225   6.683
 3164SOL     OW10390   4.172   4.112   1.459
 3164SOL    HW110391   4.195   4.059   1.541
 3164SOL    HW210392   4.256   4.135   1.410
 3165SOL     OW10393   1.071   5.605   1.459
 3165SOL    HW110394   1.049   5.566   1.549
 3165SOL    HW210395   1.113   5.695   1.472
 3166SOL     OW10396   4.340   0.777   6.338
 3166SOL    HW110397   4.409   0.753   6.271
 3166SOL    HW210398   4.320   0.698   6.396
 3167SOL     OW10399   0.094   4.285   1.467
 3167SOL    HW110400   0.136   4.345   1.536
 3167SOL    HW210401   0.032   4.222   1.512
 3168SOL     OW10402   5.307   2.813   0.039
 3168SOL    HW110403   5.259   2.837   0.123
 3168SOL    HW210404   5.245   2.765   6.994
 3169SOL     OW10405   1.693   3.115   5.083
 3169SOL    HW110406   1.653   3.024   5.095
 3169SOL    HW210407   1.736   3.144   5.168
 3170SOL     OW10408   4.492   0.939   1.207
 3170SOL    HW110409   4.562   0.873   1.177
 3170SOL    HW210410   4.409   0.926   1.153
 3171SOL     OW10411   0.213   6.169   1.507
 3171SOL    HW110412   0.136   6.162   1.443
 3171SOL    HW210413   0.296   6.138   1.462
 3172SOL     OW10414   0.289   5.313   5.894
 3172SOL    HW110415   0.320   5.257   5.971
 3172SOL    HW210416   0.199   5.283   5.865
 3173SOL     OW10417   3.290   2.073   1.087
 3173SOL    HW110418   3.212   2.133   1.067
 3173SOL    HW210419   3.342   2.057   1.003
 3174SOL     OW10420   2.757   2.555   6.195
 3174SOL    HW110421   2.682   2.621   6.196
 3174SOL    HW210422   2.828   2.585   6.132
 3175SOL     OW10423   0.436   6.519   0.437
 3175SOL    HW110424   0.486   6.449   0.386
 3175SOL    HW210425   0.499   6.575   0.490
 3176SOL     OW10426   2.100   5.170   4.706
 3176SOL    HW110427   2.094   5.181   4.606
 3176SOL    HW210428   2.166   5.098   4.728
 3177SOL     OW10429   4.838   4.859   5.115
 3177SOL    HW110430   4.806   4.767   5.139
 3177SOL    HW210431   4.759   4.917   5.094
 3178SOL     OW10432   6.824   2.601   1.027
 3178SOL    HW110433   6.877   2.672   0.982
 3178SOL    HW210434   6.731   2.635   1.044
 3179SOL     OW10435   2.070   2.597   2.309
 3179SOL    HW110436   2.008   2.544   2.367
 3179SOL    HW210437   2.048   2.582   2.213
 3180SOL     OW10438   4.769   0.317   0.205
 3180SOL    HW110439   4.780   0.415   0.219
 3180SOL    HW210440   4.690   0.300   0.145
 3181SOL     OW10441   1.190   1.184   3.059
 3181SOL    HW110442   1.096   1.175   3.093
 3181SOL    HW210443   1.240   1.099   3.077
 3182SOL     OW10444   1.537   1.419   5.537
 3182SOL    HW110445   1.554   1.321   5.535
 3182SOL    HW210446   1.613   1.467   5.494
 3183SOL     OW10447   4.870   3.848   1.207
 3183SOL    HW110448   4.937   3.775   1.199
 3183SOL    HW210449   4.801   3.823   1.276
 3184SOL     OW10450   2.252   2.460   2.989
 3184SOL    HW110451   2.301   2.388   3.037
 3184SOL    HW210452   2.309   2.493   2.913
 3185SOL     OW10453   5.797   0.764   6.584
 3185SOL    HW110454   5.801   0.835   6.514
 3185SOL    HW210455   5.890   0.732   6.605
 3186SOL     OW10456   3.547   1.680   3.306
 3186SOL    HW110457   3.472   1.736   3.271
 3186SOL    HW210458   3.605   1.651   3.230
 3187SOL     OW10459   4.491   4.482   0.352
 3187SOL    HW110460   4.460   4.434   0.435
 3187SOL    HW210461   4.423   4.470   0.279
 3188SOL     OW10462   3.422   6.337   4.300
 3188SOL    HW110463   3.439   6.293   4.212
 3188SOL    HW210464   3.446   6.275   4.374
 3189SOL     OW10465   2.375   0.731   2.484
 3189SOL    HW110466   2.321   0.814   2.470
 3189SOL    HW210467   2.322   0.664   2.535
 3190SOL     OW10468   0.537   6.228   1.571
 3190SOL    HW110469   0.615   6.194   1.624
 3190SOL    HW210470   0.453   6.218   1.626
 3191SOL     OW10471   4.001   6.912   0.731
 3191SOL    HW110472   4.077   6.975   0.744
 3191SOL    HW210473   4.035   6.818   0.728
 3192SOL     OW10474   0.050   2.274   1.357
 3192SOL    HW110475   0.020   2.335   1.284
 3192SOL    HW210476   0.093   2.193   1.317
 3193SOL     OW10477   4.224   1.746   5.977
 3193SOL    HW110478   4.155   1.815   6.002
 3193SOL    HW210479   4.302   1.754   6.038
 3194SOL     OW10480   0.983   2.709   5.876
 3194SOL    HW110481   0.986   2.752   5.966
 3194SOL    HW210482   0.976   2.780   5.806
 3195SOL     OW10483   2.164   2.842   2.527
 3195SOL    HW110484   2.143   2.936   2.502
 3195SOL    HW210485   2.238   2.808   2.469
 3196SOL     OW10486   6.976   0.380   5.043
 3196SOL    HW110487   6.894   0.407   4.993
 3196SOL    HW210488   0.014   0.460   5.065
 3197SOL     OW10489   1.922   5.875   3.568
 3197SOL    HW110490   2.004   5.823   3.544
 3197SOL    HW210491   1.890   5.847   3.659
 3198SOL     OW10492   6.228   2.489   6.141
 3198SOL    HW110493   6.146   2.531   6.180
 3198SOL    HW210494   6.298   2.481   6.212
 3199SOL     OW10495   4.563   2.803   1.695
 3199SOL    HW110496   4.503   2.833   1.620
 3199SOL    HW210497   4.565   2.874   1.766
 3200SOL     OW10498   7.005   1.573   2.030
 3200SOL    HW110499   6.914   1.532   2.019
 3200SOL    HW210500   0.044   1.514   2.089
 3201SOL     OW10501   5.173   4.281   4.777
 3201SOL    HW110502   5.094   4.268   4.837
 3201SOL    HW210503   5.256   4.252   4.825
 3202SOL     OW10504   1.161   4.563   1.771
 3202SOL    HW110505   1.076   4.607   1.742
 3202SOL    HW210506   1.226   4.562   1.695
 3203SOL     OW10507   5.250   1.145   1.139
 3203SOL    HW110508   5.335   1.114   1.181
 3203SOL    HW210509   5.259   1.240   1.109
 3204SOL     OW10510   4.790   5.563   1.786
 3204SOL    HW110511   4.727   5.622   1.836
 3204SOL    HW210512   4.744   5.525   1.706
 3205SOL     OW10513   0.335   4.038   6.376
 3205SOL    HW110514   0.277   3.957   6.380
 3205SOL    HW210515   0.295   4.105   6.314
 3206SOL     OW10516   6.686   6.670   5.767
 3206SOL    HW110517   6.692   6.746   5.701
 3206SOL    HW210518   6.720   6.587   5.725
 3207SOL     OW10519   0.219   1.599   6.554
 3207SOL    HW110520   0.189   1.523   6.496
 3207SOL    HW210521   0.204   1.686   6.506
 3208SOL     OW10522   5.129   6.243   6.094
 3208SOL    HW110523   5.100   6.276   6.004
 3208SOL    HW210524   5.205   6.299   6.127
 3209SOL     OW10525   2.964   5.424   3.667
 3209SOL    HW110526   3.001   5.451   3.756
 3209SOL    HW210527   3.028   5.451   3.595
 3210SOL     OW10528   0.842   3.981   2.014
 3210SOL    HW110529   0.913   4.051   2.011
 3210SOL    HW210530   0.755   4.021   1.987
 3211SOL     OW10531   2.387   3.866   0.951
 3211SOL    HW110532   2.422   3.800   1.017
 3211SOL    HW210533   2.289   3.877   0.962
 3212SOL     OW10534   3.982   1.336   6.498
 3212SOL    HW110535   3.928   1.417   6.521
 3212SOL    HW210536   3.924   1.270   6.449
 3213SOL     OW10537   6.074   5.169   3.021
 3213SOL    HW110538   6.147   5.139   3.082
 3213SOL    HW210539   6.020   5.241   3.064
 3214SOL     OW10540   4.993   5.972   0.424
 3214SOL    HW110541   4.904   5.956   0.468
 3214SOL    HW210542   5.005   5.906   0.350
 3215SOL     OW10543   6.955   3.549   1.392
 3215SOL    HW110544   6.989   3.472   1.446
 3215SOL    HW210545   0.014   3.589   1.341
 3216SOL     OW10546   4.981   5.470   1.986
 3216SOL    HW110547   4.989   5.373   2.008
 3216SOL    HW210548   4.927   5.480   1.903
 3217SOL     OW10549   0.923   5.227   2.330
 3217SOL    HW110550   0.843   5.179   2.293
 3217SOL    HW210551   0.904   5.255   2.424
 3218SOL     OW10552   4.114   6.351   3.628
 3218SOL    HW110553   4.059   6.435   3.626
 3218SOL    HW210554   4.098   6.299   3.545
 3219SOL     OW10555   0.047   1.289   3.329
 3219SOL    HW110556   7.012   1.217   3.374
 3219SOL    HW210557   0.077   1.356   3.397
 3220SOL     OW10558   6.192   5.225   5.791
 3220SOL    HW110559   6.145   5.268   5.868
 3220SOL    HW210560   6.257   5.289   5.751
 3221SOL     OW10561   3.147   6.627   2.144
 3221SOL    HW110562   3.199   6.710   2.122
 3221SOL    HW210563   3.081   6.609   2.071
 3222SOL     OW10564   4.742   1.883   3.509
 3222SOL    HW110565   4.728   1.825   3.429
 3222SOL    HW210566   4.732   1.829   3.592
 3223SOL     OW10567   1.740   5.248   6.699
 3223SOL    HW110568   1.642   5.254   6.677
 3223SOL    HW210569   1.758   5.300   6.782
 3224SOL     OW10570   4.215   4.842   6.189
 3224SOL    HW110571   4.239   4.761   6.241
 3224SOL    HW210572   4.116   4.845   6.173
 3225SOL     OW10573   4.390   2.443   5.538
 3225SOL    HW110574   4.357   2.349   5.529
 3225SOL    HW210575   4.485   2.442   5.570
 3226SOL     OW10576   1.560   1.582   4.713
 3226SOL    HW110577   1.614   1.508   4.753
 3226SOL    HW210578   1.506   1.547   4.636
 3227SOL     OW10579   3.117   1.961   6.542
 3227SOL    HW110580   3.040   1.999   6.491
 3227SOL    HW210581   3.108   1.861   6.545
 3228SOL     OW10582   5.281   3.355   4.187
 3228SOL    HW110583   5.289   3.440   4.136
 3228SOL    HW210584   5.355   3.293   4.161
 3229SOL     OW10585   3.378   1.463   5.754
 3229SOL    HW110586   3.381   1.560   5.775
 3229SOL    HW210587   3.295   1.441   5.703
 3230SOL     OW10588   0.819   2.781   4.104
 3230SOL    HW110589   0.797   2.781   4.006
 3230SOL    HW210590   0.899   2.839   4.120
 3231SOL     OW10591   3.483   6.103   2.250
 3231SOL    HW110592   3.560   6.125   2.189
 3231SOL    HW210593   3.505   6.135   2.342
 3232SOL     OW10594   4.210   5.357   4.133
 3232SOL    HW110595   4.142   5.347   4.060
 3232SOL    HW210596   4.302   5.349   4.094
 3233SOL     OW10597   1.919   3.309   1.074
 3233SOL    HW110598   1.837   3.366   1.077
 3233SOL    HW210599   1.972   3.322   1.158
 3234SOL     OW10600   0.144   2.757   0.383
 3234SOL    HW110601   0.078   2.745   0.457
 3234SOL    HW210602   0.214   2.686   0.389
 3235SOL     OW10603   5.407   5.845   1.829
 3235SOL    HW110604   5.381   5.762   1.780
 3235SOL    HW210605   5.389   5.925   1.771
 3236SOL     OW10606   1.690   3.180   1.761
 3236SOL    HW110607   1.667   3.258   1.703
 3236SOL    HW210608   1.609   3.150   1.811
 3237SOL     OW10609   5.300   1.212   3.613
 3237SOL    HW110610   5.347   1.163   3.540
 3237SOL    HW210611   5.308   1.161   3.698
 3238SOL     OW10612   6.976   4.760   6.701
 3238SOL    HW110613   6.967   4.835   6.635
 3238SOL    HW210614   7.014   4.680   6.655
 3239SOL     OW10615   6.309   1.233   0.325
 3239SOL    HW110616   6.317   1.136   0.300
 3239SOL    HW210617   6.394   1.281   0.301
 3240SOL     OW10618   1.256   6.342   5.012
 3240SOL    HW110619   1.321   6.395   4.957
 3240SOL    HW210620   1.188   6.403   5.051
 3241SOL     OW10621   5.579   1.368   4.534
 3241SOL    HW110622   5.601   1.280   4.491
 3241SOL    HW210623   5.480   1.379   4.535
 3242SOL     OW10624   3.256   4.586   0.776
 3242SOL    HW110625   3.230   4.518   0.708
 3242SOL    HW210626   3.272   4.542   0.864
 3243SOL     OW10627   5.744   5.604   0.596
 3243SOL    HW110628   5.654   5.568   0.572
 3243SOL    HW210629   5.785   5.648   0.517
 3244SOL     OW10630   4.713   4.873   6.891
 3244SOL    HW110631   4.771   4.954   6.882
 3244SOL    HW210632   4.699   4.832   6.801
 3245SOL     OW10633   4.849   2.654   5.636
 3245SOL    HW110634   4.820   2.676   5.542
 3245SOL    HW210635   4.915   2.579   5.634
 3246SOL     OW10636   6.579   0.477   3.240
 3246SOL    HW110637   6.628   0.391   3.223
 3246SOL    HW210638   6.484   0.468   3.209
 3247SOL     OW10639   0.341   5.283   2.916
 3247SOL    HW110640   0.397   5.335   2.852
 3247SOL    HW210641   0.246   5.314   2.911
 3248SOL     OW10642   5.568   3.743   1.687
 3248SOL    HW110643   5.585   3.782   1.596
 3248SOL    HW210644   5.615   3.656   1.696
 3249SOL     OW10645   4.427   4.295   5.721
 3249SOL    HW110646   4.337   4.312   5.763
 3249SOL    HW210647   4.477   4.228   5.777
 3250SOL     OW10648   5.542   0.310   3.420
 3250SOL    HW110649   5.524   0.221   3.377
 3250SOL    HW210650   5.462   0.338   3.474
 3251SOL     OW10651   4.277   0.736   2.376
 3251SOL    HW110652   4.337   0.724   2.455
 3251SOL    HW210653   4.331   0.730   2.292
 3252SOL     OW10654   3.349   1.161   2.186
 3252SOL    HW110655   3.299   1.121   2.263
 3252SOL    HW210656   3.284   1.204   2.124
 3253SOL     OW10657   5.037   3.349   2.632
 3253SOL    HW110658   4.987   3.431   2.657
 3253SOL    HW210659   4.973   3.276   2.606
 3254SOL     OW10660   3.474   5.004   4.989
 3254SOL    HW110661   3.446   5.087   4.940
 3254SOL    HW210662   3.491   4.931   4.923
 3255SOL     OW10663   4.569   5.848   1.310
 3255SOL    HW110664   4.576   5.750   1.292
 3255SOL    HW210665   4.590   5.865   1.406
 3256SOL     OW10666   5.463   0.354   6.634
 3256SOL    HW110667   5.510   0.440   6.653
 3256SOL    HW210668   5.516   0.301   6.569
 3257SOL     OW10669   1.020   2.002   1.225
 3257SOL    HW110670   0.962   1.977   1.148
 3257SOL    HW210671   1.105   1.950   1.220
 3258SOL     OW10672   4.434   5.917   2.412
 3258SOL    HW110673   4.416   5.819   2.397
 3258SOL    HW210674   4.530   5.937   2.395
 3259SOL     OW10675   4.741   5.758   4.503
 3259SOL    HW110676   4.776   5.698   4.575
 3259SOL    HW210677   4.717   5.847   4.542
 3260SOL     OW10678   1.922   2.258   1.322
 3260SOL    HW110679   2.013   2.262   1.363
 3260SOL    HW210680   1.923   2.305   1.234
 3261SOL     OW10681   4.257   6.461   0.490
 3261SOL    HW110682   4.327   6.498   0.429
 3261SOL    HW210683   4.299   6.392   0.550
 3262SOL     OW10684   3.874   1.754   2.682
 3262SOL    HW110685   3.912   1.844   2.700
 3262SOL    HW210686   3.863   1.741   2.583
 3263SOL     OW10687   5.067   0.206   3.864
 3263SOL    HW110688   5.085   0.304   3.868
 3263SOL    HW210689   5.127   0.163   3.797
 3264SOL     OW10690   0.901   4.744   6.770
 3264SOL    HW110691   0.824   4.687   6.742
 3264SOL    HW210692   0.961   4.692   6.831
 3265SOL     OW10693   4.470   2.316   6.183
 3265SOL    HW110694   4.502   2.411   6.184
 3265SOL    HW210695   4.403   2.304   6.110
 3266SOL     OW10696   0.571   2.615   0.589
 3266SOL    HW110697   0.594   2.611   0.492
 3266SOL    HW210698   0.610   2.537   0.637
 3267SOL     OW10699   3.451   2.370   1.048
 3267SOL    HW110700   3.373   2.324   1.006
 3267SOL    HW210701   3.459   2.462   1.010
 3268SOL     OW10702   0.512   3.669   6.624
 3268SOL    HW110703   0.419   3.660   6.661
 3268SOL    HW210704   0.578   3.675   6.698
 3269SOL     OW10705   4.262   4.960   2.017
 3269SOL    HW110706   4.224   5.021   1.948
 3269SOL    HW210707   4.193   4.939   2.086
 3270SOL     OW10708   1.280   5.678   4.861
 3270SOL    HW110709   1.262   5.776   4.863
 3270SOL    HW210710   1.336   5.656   4.780
 3271SOL     OW10711   5.585   2.954   2.474
 3271SOL    HW110712   5.620   2.944   2.380
 3271SOL    HW210713   5.553   3.048   2.488
 3272SOL     OW10714   3.783   5.361   0.848
 3272SOL    HW110715   3.692   5.400   0.833
 3272SOL    HW210716   3.777   5.262   0.853
 3273SOL     OW10717   0.608   6.372   2.304
 3273SOL    HW110718   0.668   6.292   2.299
 3273SOL    HW210719   0.630   6.435   2.230
 3274SOL     OW10720   3.723   2.267   6.843
 3274SOL    HW110721   3.763   2.341   6.896
 3274SOL    HW210722   3.793   2.198   6.824
 3275SOL     OW10723   1.847   0.489   6.840
 3275SOL    HW110724   1.813   0.437   6.761
 3275SOL    HW210725   1.795   0.463   6.921
 3276SOL     OW10726   3.179   4.968   6.418
 3276SOL    HW110727   3.209   5.061   6.439
 3276SOL    HW210728   3.229   4.934   6.339
 3277SOL     OW10729   5.983   0.389   6.324
 3277SOL    HW110730   5.890   0.389   6.361
 3277SOL    HW210731   6.027   0.301   6.344
 3278SOL     OW10732   6.683   1.008   5.783
 3278SOL    HW110733   6.670   0.917   5.822
 3278SOL    HW210734   6.595   1.053   5.774
 3279SOL     OW10735   0.531   0.970   1.134
 3279SOL    HW110736   0.518   0.880   1.092
 3279SOL    HW210737   0.470   0.979   1.212
 3280SOL     OW10738   2.500   5.672   6.035
 3280SOL    HW110739   2.418   5.624   6.066
 3280SOL    HW210740   2.580   5.638   6.084
 3281SOL     OW10741   1.865   5.441   0.981
 3281SOL    HW110742   1.942   5.493   1.019
 3281SOL    HW210743   1.900   5.362   0.930
 3282SOL     OW10744   2.204   5.520   4.585
 3282SOL    HW110745   2.172   5.562   4.500
 3282SOL    HW210746   2.300   5.545   4.601
 3283SOL     OW10747   3.148   1.627   1.932
 3283SOL    HW110748   3.080   1.603   2.002
 3283SOL    HW210749   3.142   1.725   1.913
 3284SOL     OW10750   6.378   6.994   6.283
 3284SOL    HW110751   6.306   0.032   6.241
 3284SOL    HW210752   6.424   0.032   6.354
 3285SOL     OW10753   6.886   2.711   3.281
 3285SOL    HW110754   6.893   2.723   3.182
 3285SOL    HW210755   6.874   2.614   3.303
 3286SOL     OW10756   4.133   3.282   4.026
 3286SOL    HW110757   4.110   3.274   4.123
 3286SOL    HW210758   4.072   3.224   3.973
 3287SOL     OW10759   1.229   5.916   0.374
 3287SOL    HW110760   1.232   5.936   0.471
 3287SOL    HW210761   1.222   5.817   0.360
 3288SOL     OW10762   1.065   5.555   6.698
 3288SOL    HW110763   1.022   5.510   6.777
 3288SOL    HW210764   1.079   5.487   6.625
 3289SOL     OW10765   1.865   6.590   5.613
 3289SOL    HW110766   1.881   6.660   5.682
 3289SOL    HW210767   1.800   6.523   5.648
 3290SOL     OW10768   0.385   6.751   2.002
 3290SOL    HW110769   0.307   6.801   1.963
 3290SOL    HW210770   0.419   6.686   1.934
 3291SOL     OW10771   0.937   6.859   6.485
 3291SOL    HW110772   0.964   6.873   6.581
 3291SOL    HW210773   0.846   6.819   6.481
 3292SOL     OW10774   0.759   1.343   0.244
 3292SOL    HW110775   0.705   1.411   0.295
 3292SOL    HW210776   0.697   1.275   0.204
 3293SOL     OW10777   6.527   2.106   3.060
 3293SOL    HW110778   6.590   2.183   3.069
 3293SOL    HW210779   6.490   2.103   2.968
 3294SOL     OW10780   0.122   0.312   6.112
 3294SOL    HW110781   0.106   0.407   6.085
 3294SOL    HW210782   0.151   0.259   6.032
 3295SOL     OW10783   2.356   2.546   0.909
 3295SOL    HW110784   2.274   2.530   0.854
 3295SOL    HW210785   2.401   2.630   0.879
 3296SOL     OW10786   2.091   6.388   0.928
 3296SOL    HW110787   2.105   6.334   1.012
 3296SOL    HW210788   2.040   6.334   0.862
 3297SOL     OW10789   2.925   1.411   4.441
 3297SOL    HW110790   2.990   1.347   4.402
 3297SOL    HW210791   2.858   1.437   4.372
 3298SOL     OW10792   6.261   2.912   3.075
 3298SOL    HW110793   6.344   2.941   3.123
 3298SOL    HW210794   6.272   2.819   3.041
 3299SOL     OW10795   2.423   6.735   3.897
 3299SOL    HW110796   2.340   6.690   3.929
 3299SOL    HW210797   2.442   6.708   3.802
 3300SOL     OW10798   0.229   0.135   5.941
 3300SOL    HW110799   0.183   0.067   5.999
 3300SOL    HW210800   0.321   0.102   5.918
 3301SOL     OW10801   1.848   4.219   3.489
 3301SOL    HW110802   1.794   4.303   3.491
 3301SOL    HW210803   1.847   4.181   3.397
 3302SOL     OW10804   1.327   5.364   4.526
 3302SOL    HW110805   1.395   5.403   4.588
 3302SOL    HW210806   1.270   5.298   4.576
 3303SOL     OW10807   3.453   2.791   1.830
 3303SOL    HW110808   3.457   2.695   1.802
 3303SOL    HW210809   3.369   2.833   1.796
 3304SOL     OW10810   1.835   4.801   3.063
 3304SOL    HW110811   1.849   4.796   3.162
 3304SOL    HW210812   1.739   4.783   3.042
 3305SOL     OW10813   2.615   2.144   2.928
 3305SOL    HW110814   2.706   2.126   2.890
 3305SOL    HW210815   2.545   2.100   2.872
 3306SOL     OW10816   2.327   4.687   3.754
 3306SOL    HW110817   2.334   4.786   3.742
 3306SOL    HW210818   2.231   4.659   3.755
 3307SOL     OW10819   0.128   6.232   6.655
 3307SOL    HW110820   0.040   6.197   6.621
 3307SOL    HW210821   0.195   6.230   6.581
 3308SOL     OW10822   4.750   5.898   6.601
 3308SOL    HW110823   4.837   5.863   6.637
 3308SOL    HW210824   4.754   5.900   6.501
 3309SOL     OW10825   0.755   5.399   2.682
 3309SOL    HW110826   0.808   5.441   2.756
 3309SOL    HW210827   0.802   5.317   2.649
 3310SOL     OW10828   6.932   3.829   3.141
 3310SOL    HW110829   6.864   3.902   3.130
 3310SOL    HW210830   0.001   3.857   3.099
 3311SOL     OW10831   2.987   5.126   0.995
 3311SOL    HW110832   3.042   5.046   1.020
 3311SOL    HW210833   3.045   5.194   0.949
 3312SOL     OW10834   2.780   3.948   6.313
 3312SOL    HW110835   2.791   3.927   6.215
 3312SOL    HW210836   2.684   3.969   6.331
 3313SOL     OW10837   0.761   5.578   2.496
 3313SOL    HW110838   0.793   5.666   2.529
 3313SOL    HW210839   0.751   5.515   2.573
 3314SOL     OW10840   2.066   2.356   5.095
 3314SOL    HW110841   2.011   2.298   5.154
 3314SOL    HW210842   2.036   2.451   5.103
 3315SOL     OW10843   6.956   2.443   4.263
 3315SOL    HW110844   0.028   2.409   4.295
 3315SOL    HW210845   6.883   2.382   4.297
 3316SOL     OW10846   3.820   1.261   5.539
 3316SOL    HW110847   3.873   1.324   5.596
 3316SOL    HW210848   3.759   1.314   5.479
 3317SOL     OW10849   4.707   2.785   2.016
 3317SOL    HW110850   4.736   2.871   1.974
 3317SOL    HW210851   4.617   2.760   1.982
 3318SOL     OW10852   2.618   0.123   0.023
 3318SOL    HW110853   2.593   0.216   0.050
 3318SOL    HW210854   2.717   0.118   0.009
 3319SOL     OW10855   6.513   6.565   3.586
 3319SOL    HW110856   6.478   6.649   3.629
 3319SOL    HW210857   6.606   6.581   3.552
 3320SOL     OW10858   5.882   1.218   5.930
 3320SOL    HW110859   5.889   1.317   5.914
 3320SOL    HW210860   5.785   1.192   5.928
 3321SOL     OW10861   3.236   2.937   1.750
 3321SOL    HW110862   3.223   3.016   1.689
 3321SOL    HW210863   3.172   2.943   1.826
 3322SOL     OW10864   4.852   2.176   1.650
 3322SOL    HW110865   4.929   2.216   1.601
 3322SOL    HW210866   4.862   2.077   1.653
 3323SOL     OW10867   2.114   4.122   6.413
 3323SOL    HW110868   2.100   4.094   6.507
 3323SOL    HW210869   2.153   4.214   6.411
 3324SOL     OW10870   0.694   4.017   6.786
 3324SOL    HW110871   0.636   4.059   6.856
 3324SOL    HW210872   0.682   3.918   6.786
 3325SOL     OW10873   1.895   3.193   0.062
 3325SOL    HW110874   1.889   3.207   6.980
 3325SOL    HW210875   1.886   3.281   0.109
 3326SOL     OW10876   5.404   1.680   1.479
 3326SOL    HW110877   5.439   1.606   1.423
 3326SOL    HW210878   5.316   1.711   1.443
 3327SOL     OW10879   2.523   6.398   0.716
 3327SOL    HW110880   2.581   6.469   0.675
 3327SOL    HW210881   2.451   6.441   0.770
 3328SOL     OW10882   4.834   1.350   2.435
 3328SOL    HW110883   4.874   1.258   2.438
 3328SOL    HW210884   4.898   1.412   2.390
 3329SOL     OW10885   4.644   0.306   5.192
 3329SOL    HW110886   4.715   0.282   5.125
 3329SOL    HW210887   4.560   0.258   5.170
 3330SOL     OW10888   5.678   6.450   2.329
 3330SOL    HW110889   5.724   6.487   2.410
 3330SOL    HW210890   5.580   6.441   2.347
 3331SOL     OW10891   1.835   3.383   2.563
 3331SOL    HW110892   1.848   3.377   2.662
 3331SOL    HW210893   1.745   3.421   2.543
 3332SOL     OW10894   6.094   4.164   0.356
 3332SOL    HW110895   6.176   4.107   0.346
 3332SOL    HW210896   6.081   4.188   0.452
 3333SOL     OW10897   2.731   3.589   6.897
 3333SOL    HW110898   2.707   3.502   6.856
 3333SOL    HW210899   2.660   3.657   6.876
 3334SOL     OW10900   2.006   3.082   1.934
 3334SOL    HW110901   1.948   3.041   1.864
 3334SOL    HW210902   2.074   3.141   1.891
 3335SOL     OW10903   4.741   5.547   5.860
 3335SOL    HW110904   4.771   5.640   5.883
 3335SOL    HW210905   4.681   5.513   5.933
 3336SOL     OW10906   2.308   0.180   4.245
 3336SOL    HW110907   2.224   0.129   4.227
 3336SOL    HW210908   2.386   0.118   4.240
 3337SOL     OW10909   3.521   3.197   2.231
 3337SOL    HW110910   3.477   3.187   2.142
 3337SOL    HW210911   3.588   3.125   2.244
 3338SOL     OW10912   0.353   2.431   1.787
 3338SOL    HW110913   0.443   2.466   1.762
 3338SOL    HW210914   0.284   2.468   1.725
 3339SOL     OW10915   2.011   0.298   5.931
 3339SOL    HW110916   2.015   0.358   5.851
 3339SOL    HW210917   1.917   0.268   5.946
 3340SOL     OW10918   4.437   0.604   4.100
 3340SOL    HW110919   4.447   0.641   4.192
 3340SOL    HW210920   4.519   0.552   4.076
 3341SOL     OW10921   2.418   4.433   3.697
 3341SOL    HW110922   2.516   4.439   3.679
 3341SOL    HW210923   2.385   4.522   3.727
 3342SOL     OW10924   0.273   0.359   2.637
 3342SOL    HW110925   0.319   0.358   2.548
 3342SOL    HW210926   0.177   0.385   2.624
 3343SOL     OW10927   5.081   5.302   6.090
 3343SOL    HW110928   5.027   5.330   6.010
 3343SOL    HW210929   5.178   5.321   6.073
 3344SOL     OW10930   6.335   2.863   3.472
 3344SOL    HW110931   6.325   2.763   3.471
 3344SOL    HW210932   6.255   2.905   3.431
 3345SOL     OW10933   0.820   3.928   6.032
 3345SOL    HW110934   0.872   3.917   5.947
 3345SOL    HW210935   0.722   3.927   6.011
 3346SOL     OW10936   1.795   1.234   6.779
 3346SOL    HW110937   1.768   1.138   6.767
 3346SOL    HW210938   1.719   1.293   6.753
 3347SOL     OW10939   1.776   2.536   6.617
 3347SOL    HW110940   1.739   2.446   6.596
 3347SOL    HW210941   1.708   2.606   6.593
 3348SOL     OW10942   4.340   3.807   5.348
 3348SOL    HW110943   4.413   3.745   5.376
 3348SOL    HW210944   4.261   3.796   5.408
 3349SOL     OW10945   2.364   4.942   3.704
 3349SOL    HW110946   2.408   5.015   3.651
 3349SOL    HW210947   2.401   4.943   3.797
 3350SOL     OW10948   0.742   3.004   5.870
 3350SOL    HW110949   0.801   2.945   5.815
 3350SOL    HW210950   0.706   3.078   5.813
 3351SOL     OW10951   5.435   1.339   1.381
 3351SOL    HW110952   5.416   1.319   1.477
 3351SOL    HW210953   5.468   1.256   1.336
 3352SOL     OW10954   5.333   2.412   0.547
 3352SOL    HW110955   5.320   2.315   0.564
 3352SOL    HW210956   5.267   2.442   0.478
 3353SOL     OW10957   2.033   6.848   0.235
 3353SOL    HW110958   1.976   6.903   0.174
 3353SOL    HW210959   2.129   6.874   0.223
 3354SOL     OW10960   3.969   2.838   5.252
 3354SOL    HW110961   4.027   2.759   5.229
 3354SOL    HW210962   3.916   2.817   5.334
 3355SOL     OW10963   2.206   1.668   5.766
 3355SOL    HW110964   2.142   1.702   5.698
 3355SOL    HW210965   2.277   1.736   5.782
 3356SOL     OW10966   0.520   6.507   6.507
 3356SOL    HW110967   0.591   6.491   6.439
 3356SOL    HW210968   0.560   6.505   6.599
 3357SOL     OW10969   3.407   3.240   1.957
 3357SOL    HW110970   3.437   3.330   1.991
 3357SOL    HW210971   3.475   3.204   1.894
 3358SOL     OW10972   5.421   1.250   3.161
 3358SOL    HW110973   5.378   1.168   3.198
 3358SOL    HW210974   5.432   1.318   3.234
 3359SOL     OW10975   0.457   5.392   3.459
 3359SOL    HW110976   0.517   5.312   3.464
 3359SOL    HW210977   0.363   5.363   3.478
 3360SOL     OW10978   0.843   2.340   6.463
 3360SOL    HW110979   0.869   2.416   6.403
 3360SOL    HW210980   0.866   2.364   6.557
 3361SOL     OW10981   0.814   0.565   3.941
 3361SOL    HW110982   0.818   0.476   3.986
 3361SOL    HW210983   0.879   0.627   3.985
 3362SOL     OW10984   3.975   1.649   2.978
 3362SOL    HW110985   3.990   1.699   2.893
 3362SOL    HW210986   3.992   1.551   2.963
 3363SOL     OW10987   6.831   3.619   1.799
 3363SOL    HW110988   6.795   3.537   1.753
 3363SOL    HW210989   6.866   3.683   1.730
 3364SOL     OW10990   1.751   4.563   2.819
 3364SOL    HW110991   1.764   4.551   2.720
 3364SOL    HW210992   1.838   4.549   2.866
 3365SOL     OW10993   1.454   2.638   4.548
 3365SOL    HW110994   1.450   2.736   4.568
 3365SOL    HW210995   1.536   2.599   4.590
 3366SOL     OW10996   6.405   4.030   3.950
 3366SOL    HW110997   6.480   4.010   4.013
 3366SOL    HW210998   6.350   3.948   3.936
 3367SOL     OW10999   3.585   3.266   3.695
 3367SOL    HW111000   3.526   3.248   3.773
 3367SOL    HW211001   3.678   3.286   3.726
 3368SOL     OW11002   0.673   5.631   6.548
 3368SOL    HW111003   0.751   5.665   6.600
 3368SOL    HW211004   0.635   5.706   6.493
 3369SOL     OW11005   4.556   1.610   1.631
 3369SOL    HW111006   4.459   1.635   1.629
 3369SOL    HW211007   4.611   1.687   1.599
 3370SOL     OW11008   5.786   6.595   1.694
 3370SOL    HW111009   5.871   6.632   1.733
 3370SOL    HW211010   5.795   6.590   1.594
 3371SOL     OW11011   2.190   3.750   1.862
 3371SOL    HW111012   2.198   3.660   1.904
 3371SOL    HW211013   2.176   3.819   1.933
 3372SOL     OW11014   6.953   2.434   0.397
 3372SOL    HW111015   6.862   2.464   0.426
 3372SOL    HW211016   6.985   2.494   0.323
 3373SOL     OW11017   0.428   2.133   3.151
 3373SOL    HW111018   0.427   2.218   3.202
 3373SOL    HW211019   0.338   2.116   3.112
 3374SOL     OW11020   1.384   0.420   3.826
 3374SOL    HW111021   1.304   0.361   3.836
 3374SOL    HW211022   1.414   0.421   3.731
 3375SOL     OW11023   6.693   4.641   0.471
 3375SOL    HW111024   6.724   4.559   0.519
 3375SOL    HW211025   6.613   4.619   0.415
 3376SOL     OW11026   2.988   3.509   4.893
 3376SOL    HW111027   2.995   3.447   4.815
 3376SOL    HW211028   3.061   3.490   4.958
 3377SOL     OW11029   6.493   4.808   4.306
 3377SOL    HW111030   6.501   4.766   4.216
 3377SOL    HW211031   6.474   4.906   4.295
 3378SOL     OW11032   0.568   0.087   0.152
 3378SOL    HW111033   0.630   0.051   0.083
 3378SOL    HW211034   0.495   0.021   0.169
 3379SOL     OW11035   1.047   3.032   4.572
 3379SOL    HW111036   1.091   2.959   4.624
 3379SOL    HW211037   1.033   3.112   4.631
 3380SOL     OW11038   4.158   5.597   5.417
 3380SOL    HW111039   4.114   5.523   5.468
 3380SOL    HW211040   4.098   5.625   5.341
 3381SOL     OW11041   6.851   3.229   1.457
 3381SOL    HW111042   6.841   3.234   1.358
 3381SOL    HW211043   6.936   3.275   1.484
 3382SOL     OW11044   0.420   3.101   0.968
 3382SOL    HW111045   0.423   3.193   1.007
 3382SOL    HW211046   0.384   3.105   0.875
 3383SOL     OW11047   3.542   5.372   0.581
 3383SOL    HW111048   3.558   5.273   0.576
 3383SOL    HW211049   3.483   5.400   0.505
 3384SOL     OW11050   2.933   4.611   0.606
 3384SOL    HW111051   2.912   4.612   0.704
 3384SOL    HW211052   3.014   4.554   0.590
 3385SOL     OW11053   6.398   3.291   3.960
 3385SOL    HW111054   6.301   3.299   3.983
 3385SOL    HW211055   6.436   3.208   4.001
 3386SOL     OW11056   6.271   4.678   0.110
 3386SOL    HW111057   6.330   4.598   0.100
 3386SOL    HW211058   6.276   4.733   0.027
 3387SOL     OW11059   4.937   0.500   3.205
 3387SOL    HW111060   4.852   0.467   3.248
 3387SOL    HW211061   4.923   0.508   3.106
 3388SOL     OW11062   5.109   4.242   2.177
 3388SOL    HW111063   5.208   4.231   2.166
 3388SOL    HW211064   5.088   4.339   2.194
 3389SOL     OW11065   6.629   5.317   6.643
 3389SOL    HW111066   6.563   5.389   6.621
 3389SOL    HW211067   6.620   5.293   6.740
 3390SOL     OW11068   4.317   6.517   6.458
 3390SOL    HW111069   4.358   6.608   6.456
 3390SOL    HW211070   4.373   6.454   6.404
 3391SOL     OW11071   5.052   2.141   3.298
 3391SOL    HW111072   5.024   2.156   3.203
 3391SOL    HW211073   5.030   2.048   3.326
 3392SOL     OW11074   3.337   6.685   4.070
 3392SOL    HW111075   3.415   6.740   4.099
 3392SOL    HW211076   3.338   6.675   3.970
 3393SOL     OW11077   5.527   6.710   0.250
 3393SOL    HW111078   5.524   6.809   0.264
 3393SOL    HW211079   5.508   6.663   0.336
 3394SOL     OW11080   4.098   4.793   0.583
 3394SOL    HW111081   4.162   4.717   0.570
 3394SOL    HW211082   4.008   4.757   0.606
 3395SOL     OW11083   4.749   1.691   3.293
 3395SOL    HW111084   4.797   1.607   3.318
 3395SOL    HW211085   4.756   1.705   3.194
 3396SOL     OW11086   5.149   1.256   4.063
 3396SOL    HW111087   5.236   1.264   4.112
 3396SOL    HW211088   5.123   1.159   4.058
 3397SOL     OW11089   3.012   5.506   6.277
 3397SOL    HW111090   2.997   5.559   6.361
 3397SOL    HW211091   2.939   5.527   6.211
 3398SOL     OW11092   0.854   0.146   5.277
 3398SOL    HW111093   0.854   0.059   5.327
 3398SOL    HW211094   0.849   0.221   5.343
 3399SOL     OW11095   6.462   5.044   2.980
 3399SOL    HW111096   6.479   4.973   3.048
 3399SOL    HW211097   6.383   5.020   2.924
 3400SOL     OW11098   6.465   3.610   6.556
 3400SOL    HW111099   6.450   3.548   6.633
 3400SOL    HW211100   6.563   3.614   6.535
 3401SOL     OW11101   6.258   3.453   6.024
 3401SOL    HW111102   6.165   3.451   5.988
 3401SOL    HW211103   6.272   3.373   6.083
 3402SOL     OW11104   6.270   5.525   0.612
 3402SOL    HW111105   6.294   5.428   0.609
 3402SOL    HW211106   6.178   5.537   0.577
 3403SOL     OW11107   5.423   5.591   6.366
 3403SOL    HW111108   5.383   5.507   6.403
 3403SOL    HW211109   5.388   5.606   6.273
 3404SOL     OW11110   4.907   3.043   6.960
 3404SOL    HW111111   4.960   3.108   6.905
 3404SOL    HW211112   4.902   3.076   0.038
 3405SOL     OW11113   5.447   4.851   6.029
 3405SOL    HW111114   5.508   4.796   5.972
 3405SOL    HW211115   5.490   4.865   6.119
 3406SOL     OW11116   2.101   3.421   2.482
 3406SOL    HW111117   2.106   3.514   2.518
 3406SOL    HW211118   2.006   3.389   2.484
 3407SOL     OW11119   2.843   4.487   0.373
 3407SOL    HW111120   2.837   4.391   0.399
 3407SOL    HW211121   2.837   4.544   0.455
 3408SOL     OW11122   4.298   2.342   4.810
 3408SOL    HW111123   4.273   2.247   4.792
 3408SOL    HW211124   4.265   2.369   4.900
 3409SOL     OW11125   3.301   6.232   0.628
 3409SOL    HW111126   3.241   6.260   0.703
 3409SOL    HW211127   3.372   6.171   0.662
 3410SOL     OW11128   5.501   6.205   3.025
 3410SOL    HW111129   5.448   6.288   3.041
 3410SOL    HW211130   5.551   6.213   2.939
 3411SOL     OW11131   6.952   2.675   0.230
 3411SOL    HW111132   0.016   2.713   0.275
 3411SOL    HW211133   6.975   2.651   0.136
 3412SOL     OW11134   5.082   3.703   1.169
 3412SOL    HW111135   5.124   3.654   1.093
 3412SOL    HW211136   5.106   3.658   1.255
 3413SOL     OW11137   6.296   2.578   6.958
 3413SOL    HW111138   6.329   2.672   6.958
 3413SOL    HW211139   6.207   2.575   7.004
 3414SOL     OW11140   3.703   2.043   5.606
 3414SOL    HW111141   3.641   2.117   5.580
 3414SOL    HW211142   3.652   1.970   5.651
 3415SOL     OW11143   2.386   2.168   4.040
 3415SOL    HW111144   2.474   2.144   3.999
 3415SOL    HW211145   2.322   2.197   3.969
 3416SOL     OW11146   5.764   0.280   6.707
 3416SOL    HW111147   5.770   0.316   6.614
 3416SOL    HW211148   5.737   0.354   6.769
 3417SOL     OW11149   0.094   6.696   2.701
 3417SOL    HW111150   0.077   6.600   2.679
 3417SOL    HW211151   0.110   6.747   2.617
 3418SOL     OW11152   3.774   5.902   3.698
 3418SOL    HW111153   3.811   5.909   3.605
 3418SOL    HW211154   3.707   5.828   3.701
 3419SOL     OW11155   3.920   5.498   5.948
 3419SOL    HW111156   3.862   5.425   5.984
 3419SOL    HW211157   4.004   5.459   5.912
 3420SOL     OW11158   5.452   2.833   4.148
 3420SOL    HW111159   5.450   2.734   4.156
 3420SOL    HW211160   5.480   2.873   4.235
 3421SOL     OW11161   5.644   1.852   2.936
 3421SOL    HW111162   5.613   1.893   3.022
 3421SOL    HW211163   5.609   1.905   2.859
 3422SOL     OW11164   2.616   0.816   0.524
 3422SOL    HW111165   2.612   0.719   0.499
 3422SOL    HW211166   2.643   0.823   0.620
 3423SOL     OW11167   0.572   4.019   5.915
 3423SOL    HW111168   0.533   3.950   5.854
 3423SOL    HW211169   0.499   4.080   5.947
 3424SOL     OW11170   3.527   0.269   1.351
 3424SOL    HW111171   3.468   0.282   1.272
 3424SOL    HW211172   3.606   0.214   1.326
 3425SOL     OW11173   4.608   4.977   2.107
 3425SOL    HW111174   4.620   4.883   2.141
 3425SOL    HW211175   4.514   4.990   2.077
 3426SOL     OW11176   4.972   3.140   0.603
 3426SOL    HW111177   4.882   3.102   0.623
 3426SOL    HW211178   4.961   3.227   0.555
 3427SOL     OW11179   0.626   2.155   2.053
 3427SOL    HW111180   0.580   2.138   1.966
 3427SOL    HW211181   0.691   2.231   2.041
 3428SOL     OW11182   4.463   4.563   6.537
 3428SOL    HW111183   4.504   4.626   6.603
 3428SOL    HW211184   4.534   4.532   6.472
 3429SOL     OW11185   0.733   1.143   1.224
 3429SOL    HW111186   0.651   1.088   1.210
 3429SOL    HW211187   0.797   1.129   1.148
 3430SOL     OW11188   2.022   5.199   5.997
 3430SOL    HW111189   2.026   5.102   5.973
 3430SOL    HW211190   2.000   5.253   5.916
 3431SOL     OW11191   2.067   6.550   2.422
 3431SOL    HW111192   2.121   6.492   2.362
 3431SOL    HW211193   2.070   6.645   2.390
 3432SOL     OW11194   2.155   4.758   6.619
 3432SOL    HW111195   2.070   4.707   6.610
 3432SOL    HW211196   2.231   4.703   6.585
 3433SOL     OW11197   1.697   1.213   6.109
 3433SOL    HW111198   1.628   1.157   6.155
 3433SOL    HW211199   1.654   1.268   6.039
 3434SOL     OW11200   3.055   1.920   1.897
 3434SOL    HW111201   3.033   1.974   1.816
 3434SOL    HW211202   2.972   1.905   1.951
 3435SOL     OW11203   2.769   1.041   0.062
 3435SOL    HW111204   2.808   1.105   0.128
 3435SOL    HW211205   2.797   0.948   0.085
 3436SOL     OW11206   3.639   5.625   0.106
 3436SOL    HW111207   3.701   5.564   0.156
 3436SOL    HW211208   3.677   5.645   0.016
 3437SOL     OW11209   1.639   6.934   5.589
 3437SOL    HW111210   1.639   6.868   5.664
 3437SOL    HW211211   1.575   6.903   5.518
 3438SOL     OW11212   0.440   4.413   1.190
 3438SOL    HW111213   0.519   4.364   1.153
 3438SOL    HW211214   0.432   4.397   1.288
 3439SOL     OW11215   3.109   5.836   3.669
 3439SOL    HW111216   3.010   5.819   3.664
 3439SOL    HW211217   3.138   5.835   3.764
 3440SOL     OW11218   4.178   3.373   3.217
 3440SOL    HW111219   4.275   3.355   3.206
 3440SOL    HW211220   4.157   3.467   3.187
 3441SOL     OW11221   0.646   6.445   6.830
 3441SOL    HW111222   0.558   6.403   6.807
 3441SOL    HW211223   0.682   6.403   6.914
 3442SOL     OW11224   3.062   3.677   0.682
 3442SOL    HW111225   3.133   3.611   0.708
 3442SOL    HW211226   3.002   3.636   0.613
 3443SOL     OW11227   3.664   5.681   2.291
 3443SOL    HW111228   3.638   5.699   2.386
 3443SOL    HW211229   3.638   5.588   2.266
 3444SOL     OW11230   4.978   4.778   1.920
 3444SOL    HW111231   4.925   4.819   1.846
 3444SOL    HW211232   4.957   4.681   1.926
 3445SOL     OW11233   0.381   5.245   3.748
 3445SOL    HW111234   0.448   5.312   3.782
 3445SOL    HW211235   0.301   5.293   3.713
 3446SOL     OW11236   5.819   0.405   1.190
 3446SOL    HW111237   5.799   0.502   1.185
 3446SOL    HW211238   5.735   0.354   1.208
 3447SOL     OW11239   5.305   0.825   6.906
 3447SOL    HW111240   5.290   0.868   6.996
 3447SOL    HW211241   5.223   0.838   6.850
 3448SOL     OW11242   2.552   6.528   5.886
 3448SOL    HW111243   2.495   6.562   5.961
 3448SOL    HW211244   2.639   6.494   5.922
 3449SOL     OW11245   5.926   4.893   5.092
 3449SOL    HW111246   5.965   4.886   5.183
 3449SOL    HW211247   5.828   4.913   5.099
 3450SOL     OW11248   1.434   1.053   6.639
 3450SOL    HW111249   1.445   0.982   6.570
 3450SOL    HW211250   1.399   1.013   6.723
 3451SOL     OW11251   1.528   5.887   0.464
 3451SOL    HW111252   1.514   5.791   0.486
 3451SOL    HW211253   1.443   5.926   0.427
 3452SOL     OW11254   5.971   0.836   5.802
 3452SOL    HW111255   5.882   0.795   5.821
 3452SOL    HW211256   6.021   0.849   5.887
 3453SOL     OW11257   5.349   5.954   6.389
 3453SOL    HW111258   5.339   6.051   6.412
 3453SOL    HW211259   5.266   5.922   6.344
 3454SOL     OW11260   1.422   3.296   4.137
 3454SOL    HW111261   1.333   3.341   4.147
 3454SOL    HW211262   1.463   3.284   4.228
 3455SOL     OW11263   2.533   1.688   4.839
 3455SOL    HW111264   2.514   1.590   4.832
 3455SOL    HW211265   2.627   1.707   4.810
 3456SOL     OW11266   4.362   4.571   2.035
 3456SOL    HW111267   4.387   4.478   2.008
 3456SOL    HW211268   4.345   4.626   1.954
 3457SOL     OW11269   4.008   5.257   5.001
 3457SOL    HW111270   3.981   5.284   5.093
 3457SOL    HW211271   4.107   5.270   4.990
 3458SOL     OW11272   4.562   1.861   2.043
 3458SOL    HW111273   4.481   1.854   1.986
 3458SOL    HW211274   4.582   1.957   2.061
 3459SOL     OW11275   5.170   2.003   3.728
 3459SOL    HW111276   5.080   2.027   3.690
 3459SOL    HW211277   5.219   1.946   3.661
 3460SOL     OW11278   3.001   1.957   5.628
 3460SOL    HW111279   3.042   2.037   5.671
 3460SOL    HW211280   3.050   1.875   5.657
 3461SOL     OW11281   6.246   4.476   6.822
 3461SOL    HW111282   6.293   4.442   6.740
 3461SOL    HW211283   6.167   4.531   6.794
 3462SOL     OW11284   1.163   3.603   5.687
 3462SOL    HW111285   1.236   3.637   5.747
 3462SOL    HW211286   1.128   3.517   5.722
 3463SOL     OW11287   0.669   4.279   1.067
 3463SOL    HW111288   0.747   4.296   1.127
 3463SOL    HW211289   0.696   4.297   0.972
 3464SOL     OW11290   0.356   4.387   6.333
 3464SOL    HW111291   0.417   4.397   6.254
 3464SOL    HW211292   0.397   4.326   6.400
 3465SOL     OW11293   2.385   1.645   1.867
 3465SOL    HW111294   2.299   1.602   1.839
 3465SOL    HW211295   2.460   1.607   1.813
 3466SOL     OW11296   6.773   5.692   6.268
 3466SOL    HW111297   6.754   5.654   6.178
 3466SOL    HW211298   6.688   5.704   6.318
 3467SOL     OW11299   1.690   1.789   0.082
 3467SOL    HW111300   1.697   1.696   0.117
 3467SOL    HW211301   1.616   1.836   0.129
 3468SOL     OW11302   3.268   5.299   2.894
 3468SOL    HW111303   3.250   5.201   2.901
 3468SOL    HW211304   3.205   5.340   2.829
 3469SOL     OW11305   6.381   2.131   4.034
 3469SOL    HW111306   6.320   2.097   3.963
 3469SOL    HW211307   6.385   2.230   4.031
 3470SOL     OW11308   0.289   5.386   0.599
 3470SOL    HW111309   0.248   5.382   0.690
 3470SOL    HW211310   0.372   5.442   0.603
 3471SOL     OW11311   4.566   5.193   5.220
 3471SOL    HW111312   4.610   5.150   5.298
 3471SOL    HW211313   4.468   5.204   5.239
 3472SOL     OW11314   2.492   0.809   3.715
 3472SOL    HW111315   2.579   0.844   3.750
 3472SOL    HW211316   2.441   0.883   3.670
 3473SOL     OW11317   5.495   1.697   6.050
 3473SOL    HW111318   5.399   1.690   6.022
 3473SOL    HW211319   5.548   1.740   5.977
 3474SOL     OW11320   3.157   5.152   1.434
 3474SOL    HW111321   3.081   5.205   1.396
 3474SOL    HW211322   3.120   5.075   1.487
 3475SOL     OW11323   1.134   6.377   4.072
 3475SOL    HW111324   1.075   6.304   4.107
 3475SOL    HW211325   1.229   6.345   4.071
 3476SOL     OW11326   3.584   0.219   4.317
 3476SOL    HW111327   3.587   0.287   4.390
 3476SOL    HW211328   3.629   0.135   4.349
 3477SOL     OW11329   3.021   5.502   1.433
 3477SOL    HW111330   3.026   5.600   1.411
 3477SOL    HW211331   3.113   5.466   1.443
 3478SOL     OW11332   2.372   6.329   5.748
 3478SOL    HW111333   2.380   6.364   5.654
 3478SOL    HW211334   2.412   6.395   5.811
 3479SOL     OW11335   0.810   0.046   3.180
 3479SOL    HW111336   0.881   0.106   3.217
 3479SOL    HW211337   0.835   0.017   3.088
 3480SOL     OW11338   6.725   1.346   4.183
 3480SOL    HW111339   6.636   1.305   4.204
 3480SOL    HW211340   6.734   1.356   4.084
 3481SOL     OW11341   4.416   6.814   6.467
 3481SOL    HW111342   4.500   6.791   6.420
 3481SOL    HW211343   4.382   6.903   6.434
 3482SOL     OW11344   5.590   1.500   1.000
 3482SOL    HW111345   5.548   1.451   0.923
 3482SOL    HW211346   5.616   1.591   0.970
 3483SOL     OW11347   3.181   0.629   0.877
 3483SOL    HW111348   3.108   0.643   0.810
 3483SOL    HW211349   3.264   0.675   0.846
 3484SOL     OW11350   3.137   3.408   2.860
 3484SOL    HW111351   3.056   3.351   2.848
 3484SOL    HW211352   3.142   3.476   2.786
 3485SOL     OW11353   1.373   1.009   5.077
 3485SOL    HW111354   1.346   0.941   5.146
 3485SOL    HW211355   1.395   1.095   5.122
 3486SOL     OW11356   3.701   1.570   2.112
 3486SOL    HW111357   3.678   1.482   2.071
 3486SOL    HW211358   3.690   1.565   2.211
 3487SOL     OW11359   5.327   1.629   6.779
 3487SOL    HW111360   5.371   1.661   6.862
 3487SOL    HW211361   5.381   1.655   6.699
 3488SOL     OW11362   5.744   3.238   4.243
 3488SOL    HW111363   5.716   3.312   4.305
 3488SOL    HW211364   5.782   3.162   4.295
 3489SOL     OW11365   3.459   6.592   0.611
 3489SOL    HW111366   3.464   6.660   0.538
 3489SOL    HW211367   3.546   6.590   0.660
 3490SOL     OW11368   4.464   4.766   0.466
 3490SOL    HW111369   4.453   4.671   0.438
 3490SOL    HW211370   4.452   4.826   0.387
 3491SOL     OW11371   6.884   2.804   6.023
 3491SOL    HW111372   6.790   2.835   6.033
 3491SOL    HW211373   6.918   2.772   6.111
 3492SOL     OW11374   1.030   5.459   0.346
 3492SOL    HW111375   0.946   5.436   0.397
 3492SOL    HW211376   1.051   5.385   0.282
 3493SOL     OW11377   5.749   5.307   0.235
 3493SOL    HW111378   5.778   5.258   0.152
 3493SOL    HW211379   5.675   5.370   0.212
 3494SOL     OW11380   4.200   0.069   0.341
 3494SOL    HW111381   4.287   0.110   0.366
 3494SOL    HW211382   4.155   0.034   0.424
 3495SOL     OW11383   4.321   4.637   2.666
 3495SOL    HW111384   4.412   4.633   2.625
 3495SOL    HW211385   4.274   4.721   2.637
 3496SOL     OW11386   1.022   3.241   1.286
 3496SOL    HW111387   1.010   3.285   1.198
 3496SOL    HW211388   0.943   3.260   1.345
 3497SOL     OW11389   3.970   0.478   2.901
 3497SOL    HW111390   3.983   0.387   2.938
 3497SOL    HW211391   3.873   0.495   2.884
 3498SOL     OW11392   3.231   1.974   0.822
 3498SOL    HW111393   3.168   1.913   0.774
 3498SOL    HW211394   3.320   1.973   0.776
 3499SOL     OW11395   6.623   3.510   4.539
 3499SOL    HW111396   6.659   3.503   4.632
 3499SOL    HW211397   6.578   3.599   4.527
 3500SOL     OW11398   6.472   4.319   6.106
 3500SOL    HW111399   6.467   4.368   6.019
 3500SOL    HW211400   6.551   4.350   6.158
 3501SOL     OW11401   0.037   4.799   4.800
 3501SOL    HW111402   6.988   4.846   4.741
 3501SOL    HW211403   0.126   4.843   4.792
 3502SOL     OW11404   0.481   2.042   2.263
 3502SOL    HW111405   0.433   1.973   2.209
 3502SOL    HW211406   0.549   2.088   2.206
 3503SOL     OW11407   4.831   5.706   5.169
 3503SOL    HW111408   4.837   5.783   5.233
 3503SOL    HW211409   4.916   5.654   5.171
 3504SOL     OW11410   2.944   3.507   1.076
 3504SOL    HW111411   3.044   3.506   1.069
 3504SOL    HW211412   2.904   3.501   0.984
 3505SOL     OW11413   5.279   5.610   5.077
 3505SOL    HW111414   5.338   5.662   5.137
 3505SOL    HW211415   5.256   5.665   4.997
 3506SOL     OW11416   4.175   5.732   5.058
 3506SOL    HW111417   4.228   5.699   4.980
 3506SOL    HW211418   4.204   5.825   5.082
 3507SOL     OW11419   1.707   0.983   6.684
 3507SOL    HW111420   1.684   0.901   6.736
 3507SOL    HW211421   1.623   1.031   6.659
 3508SOL     OW11422   4.695   2.322   6.843
 3508SOL    HW111423   4.673   2.309   6.746
 3508SOL    HW211424   4.783   2.280   6.863
 3509SOL     OW11425   5.804   6.105   6.922
 3509SOL    HW111426   5.847   6.110   7.012
 3509SOL    HW211427   5.874   6.085   6.853
 3510SOL     OW11428   1.864   2.352   2.346
 3510SOL    HW111429   1.781   2.337   2.292
 3510SOL    HW211430   1.914   2.266   2.354
 3511SOL     OW11431   1.559   3.373   6.948
 3511SOL    HW111432   1.558   3.324   6.861
 3511SOL    HW211433   1.537   3.469   6.932
 3512SOL     OW11434   1.060   4.440   0.313
 3512SOL    HW111435   0.969   4.416   0.348
 3512SOL    HW211436   1.127   4.378   0.352
 3513SOL     OW11437   6.262   4.610   0.522
 3513SOL    HW111438   6.278   4.679   0.592
 3513SOL    HW211439   6.166   4.582   0.524
 3514SOL     OW11440   0.412   6.884   1.686
 3514SOL    HW111441   0.480   6.911   1.618
 3514SOL    HW211442   0.325   6.929   1.666
 3515SOL     OW11443   3.324   5.827   2.744
 3515SOL    HW111444   3.238   5.875   2.757
 3515SOL    HW211445   3.319   5.771   2.661
 3516SOL     OW11446   3.464   0.713   0.915
 3516SOL    HW111447   3.509   0.625   0.928
 3516SOL    HW211448   3.469   0.767   0.999
 3517SOL     OW11449   0.655   0.855   0.473
 3517SOL    HW111450   0.707   0.791   0.417
 3517SOL    HW211451   0.590   0.906   0.415
 3518SOL     OW11452   5.200   3.674   5.918
 3518SOL    HW111453   5.265   3.602   5.892
 3518SOL    HW211454   5.153   3.647   6.002
 3519SOL     OW11455   1.181   0.111   6.571
 3519SOL    HW111456   1.194   0.098   6.473
 3519SOL    HW211457   1.140   0.029   6.610
 3520SOL     OW11458   3.695   4.408   1.291
 3520SOL    HW111459   3.714   4.503   1.314
 3520SOL    HW211460   3.603   4.383   1.321
 3521SOL     OW11461   5.428   3.221   1.301
 3521SOL    HW111462   5.354   3.265   1.251
 3521SOL    HW211463   5.508   3.282   1.304
 3522SOL     OW11464   3.123   5.200   2.028
 3522SOL    HW111465   3.125   5.217   1.929
 3522SOL    HW211466   3.156   5.280   2.077
 3523SOL     OW11467   3.141   4.613   5.311
 3523SOL    HW111468   3.054   4.567   5.291
 3523SOL    HW211469   3.153   4.690   5.248
 3524SOL     OW11470   2.643   0.873   0.840
 3524SOL    HW111471   2.619   0.894   0.935
 3524SOL    HW211472   2.743   0.863   0.833
 3525SOL     OW11473   0.491   3.336   1.966
 3525SOL    HW111474   0.549   3.361   2.043
 3525SOL    HW211475   0.544   3.337   1.882
 3526SOL     OW11476   1.511   0.699   3.618
 3526SOL    HW111477   1.439   0.631   3.634
 3526SOL    HW211478   1.568   0.669   3.542
 3527SOL     OW11479   5.082   2.909   6.234
 3527SOL    HW111480   5.171   2.864   6.233
 3527SOL    HW211481   5.094   3.008   6.226
 3528SOL     OW11482   0.971   5.934   3.126
 3528SOL    HW111483   1.066   5.945   3.154
 3528SOL    HW211484   0.925   6.023   3.126
 3529SOL     OW11485   3.957   6.505   5.716
 3529SOL    HW111486   3.950   6.439   5.791
 3529SOL    HW211487   3.932   6.461   5.630
 3530SOL     OW11488   2.694   5.960   2.740
 3530SOL    HW111489   2.624   5.890   2.722
 3530SOL    HW211490   2.657   6.050   2.718
 3531SOL     OW11491   5.741   3.938   0.333
 3531SOL    HW111492   5.804   3.906   0.262
 3531SOL    HW211493   5.731   4.038   0.326
 3532SOL     OW11494   2.651   0.736   0.007
 3532SOL    HW111495   2.748   0.757   0.019
 3532SOL    HW211496   2.629   0.730   6.927
 3533SOL     OW11497   1.214   2.081   3.383
 3533SOL    HW111498   1.269   2.163   3.399
 3533SOL    HW211499   1.242   2.038   3.297
 3534SOL     OW11500   5.905   1.830   5.363
 3534SOL    HW111501   5.848   1.763   5.315
 3534SOL    HW211502   5.892   1.921   5.323
 3535SOL     OW11503   6.706   5.951   0.123
 3535SOL    HW111504   6.790   5.965   0.071
 3535SOL    HW211505   6.627   5.970   0.064
 3536SOL     OW11506   1.592   3.328   3.275
 3536SOL    HW111507   1.513   3.374   3.234
 3536SOL    HW211508   1.564   3.282   3.359
 3537SOL     OW11509   2.553   4.943   1.032
 3537SOL    HW111510   2.612   5.024   1.038
 3537SOL    HW211511   2.579   4.890   0.952
 3538SOL     OW11512   3.212   0.684   3.978
 3538SOL    HW111513   3.176   0.602   4.022
 3538SOL    HW211514   3.285   0.722   4.035
 3539SOL     OW11515   6.024   3.505   5.181
 3539SOL    HW111516   6.052   3.437   5.248
 3539SOL    HW211517   6.017   3.463   5.091
 3540SOL     OW11518   1.913   3.255   6.809
 3540SOL    HW111519   1.872   3.178   6.760
 3540SOL    HW211520   1.887   3.340   6.764
 3541SOL     OW11521   2.524   2.796   0.067
 3541SOL    HW111522   2.480   2.776   0.155
 3541SOL    HW211523   2.557   2.891   0.067
 3542SOL     OW11524   5.621   2.553   0.340
 3542SOL    HW111525   5.711   2.597   0.331
 3542SOL    HW211526   5.582   2.575   0.429
 3543SOL     OW11527   1.142   3.511   3.049
 3543SOL    HW111528   1.118   3.484   3.142
 3543SOL    HW211529   1.152   3.611   3.044
 3544SOL     OW11530   3.159   4.300   0.055
 3544SOL    HW111531   3.104   4.218   0.045
 3544SOL    HW211532   3.250   4.284   0.017
 3545SOL     OW11533   3.691   5.060   0.605
 3545SOL    HW111534   3.655   5.032   0.694
 3545SOL    HW211535   3.673   4.989   0.538
 3546SOL     OW11536   6.733   4.603   3.124
 3546SOL    HW111537   6.768   4.611   3.031
 3546SOL    HW211538   6.633   4.607   3.123
 3547SOL     OW11539   6.854   2.919   4.314
 3547SOL    HW111540   6.818   2.947   4.403
 3547SOL    HW211541   6.808   2.835   4.285
 3548SOL     OW11542   4.966   1.256   5.983
 3548SOL    HW111543   4.920   1.221   6.065
 3548SOL    HW211544   4.931   1.346   5.960
 3549SOL     OW11545   2.076   5.309   6.633
 3549SOL    HW111546   2.155   5.298   6.694
 3549SOL    HW211547   2.086   5.394   6.582
 3550SOL     OW11548   5.318   2.248   5.149
 3550SOL    HW111549   5.335   2.157   5.112
 3550SOL    HW211550   5.237   2.287   5.105
 3551SOL     OW11551   3.353   1.740   5.218
 3551SOL    HW111552   3.340   1.710   5.312
 3551SOL    HW211553   3.280   1.803   5.192
 3552SOL     OW11554   6.421   5.531   1.980
 3552SOL    HW111555   6.409   5.436   1.952
 3552SOL    HW211556   6.499   5.538   2.043
 3553SOL     OW11557   3.089   6.049   6.299
 3553SOL    HW111558   3.049   6.108   6.369
 3553SOL    HW211559   3.016   6.002   6.249
 3554SOL     OW11560   3.531   3.866   0.787
 3554SOL    HW111561   3.544   3.945   0.847
 3554SOL    HW211562   3.576   3.882   0.699
 3555SOL     OW11563   2.056   2.214   4.582
 3555SOL    HW111564   2.103   2.282   4.526
 3555SOL    HW211565   1.993   2.162   4.525
 3556SOL     OW11566   3.667   0.965   4.732
 3556SOL    HW111567   3.733   0.992   4.662
 3556SOL    HW211568   3.717   0.939   4.816
 3557SOL     OW11569   0.553   0.400   2.686
 3557SOL    HW111570   0.462   0.360   2.676
 3557SOL    HW211571   0.581   0.441   2.599
 3558SOL     OW11572   2.181   6.082   0.719
 3558SOL    HW111573   2.179   6.018   0.795
 3558SOL    HW211574   2.191   6.031   0.633
 3559SOL     OW11575   2.909   6.628   4.863
 3559SOL    HW111576   2.848   6.644   4.941
 3559SOL    HW211577   2.875   6.679   4.783
 3560SOL     OW11578   1.710   4.875   4.315
 3560SOL    HW111579   1.655   4.861   4.397
 3560SOL    HW211580   1.681   4.812   4.244
 3561SOL     OW11581   5.866   4.151   5.540
 3561SOL    HW111582   5.881   4.099   5.456
 3561SOL    HW211583   5.805   4.101   5.601
 3562SOL     OW11584   3.396   1.621   4.126
 3562SOL    HW111585   3.488   1.594   4.100
 3562SOL    HW211586   3.343   1.539   4.148
 3563SOL     OW11587   5.970   2.452   6.328
 3563SOL    HW111588   5.915   2.390   6.271
 3563SOL    HW211589   6.044   2.400   6.371
 3564SOL     OW11590   0.529   5.013   2.752
 3564SOL    HW111591   0.570   4.990   2.840
 3564SOL    HW211592   0.439   5.056   2.766
 3565SOL     OW11593   3.716   4.878   2.955
 3565SOL    HW111594   3.807   4.900   2.991
 3565SOL    HW211595   3.724   4.813   2.880
 3566SOL     OW11596   6.772   0.965   5.530
 3566SOL    HW111597   6.810   0.873   5.528
 3566SOL    HW211598   6.727   0.981   5.618
 3567SOL     OW11599   0.276   3.049   6.131
 3567SOL    HW111600   0.346   3.021   6.065
 3567SOL    HW211601   0.305   3.025   6.223
 3568SOL     OW11602   6.704   3.917   5.562
 3568SOL    HW111603   6.658   3.833   5.534
 3568SOL    HW211604   6.792   3.895   5.604
 3569SOL     OW11605   2.102   1.853   5.463
 3569SOL    HW111606   2.199   1.832   5.464
 3569SOL    HW211607   2.054   1.789   5.403
 3570SOL     OW11608   5.048   0.351   5.732
 3570SOL    HW111609   5.076   0.367   5.827
 3570SOL    HW211610   4.997   0.265   5.727
 3571SOL     OW11611   0.308   5.849   6.997
 3571SOL    HW111612   0.363   5.793   0.041
 3571SOL    HW211613   0.211   5.824   7.005
 3572SOL     OW11614   5.705   3.950   4.072
 3572SOL    HW111615   5.787   3.917   4.119
 3572SOL    HW211616   5.636   3.975   4.140
 3573SOL     OW11617   0.971   4.094   4.216
 3573SOL    HW111618   1.028   4.121   4.294
 3573SOL    HW211619   0.881   4.065   4.250
 3574SOL     OW11620   0.773   4.850   0.002
 3574SOL    HW111621   0.831   4.842   0.084
 3574SOL    HW211622   0.825   4.821   6.939
 3575SOL     OW11623   5.416   5.356   3.541
 3575SOL    HW111624   5.387   5.366   3.636
 3575SOL    HW211625   5.475   5.275   3.533
 3576SOL     OW11626   1.500   1.706   5.957
 3576SOL    HW111627   1.561   1.769   5.909
 3576SOL    HW211628   1.421   1.686   5.899
 3577SOL     OW11629   1.189   2.534   6.561
 3577SOL    HW111630   1.095   2.544   6.529
 3577SOL    HW211631   1.204   2.594   6.640
 3578SOL     OW11632   3.639   3.532   6.809
 3578SOL    HW111633   3.627   3.632   6.802
 3578SOL    HW211634   3.632   3.491   6.719
 3579SOL     OW11635   0.268   3.801   4.451
 3579SOL    HW111636   0.180   3.767   4.417
 3579SOL    HW211637   0.309   3.732   4.511
 3580SOL     OW11638   6.175   1.399   1.144
 3580SOL    HW111639   6.111   1.433   1.213
 3580SOL    HW211640   6.263   1.445   1.154
 3581SOL     OW11641   6.379   0.604   3.963
 3581SOL    HW111642   6.454   0.538   3.967
 3581SOL    HW211643   6.293   0.556   3.945
 3582SOL     OW11644   0.707   2.677   6.380
 3582SOL    HW111645   0.680   2.695   6.285
 3582SOL    HW211646   0.765   2.751   6.413
 3583SOL     OW11647   0.732   4.124   6.527
 3583SOL    HW111648   0.776   4.083   6.447
 3583SOL    HW211649   0.753   4.070   6.608
 3584SOL     OW11650   6.313   5.946   6.247
 3584SOL    HW111651   6.406   5.979   6.258
 3584SOL    HW211652   6.257   6.019   6.207
 3585SOL     OW11653   3.362   5.203   6.061
 3585SOL    HW111654   3.310   5.259   6.125
 3585SOL    HW211655   3.395   5.260   5.985
 3586SOL     OW11656   6.883   2.450   5.492
 3586SOL    HW111657   6.807   2.502   5.533
 3586SOL    HW211658   6.931   2.508   5.426
 3587SOL     OW11659   2.371   5.559   0.282
 3587SOL    HW111660   2.453   5.585   0.231
 3587SOL    HW211661   2.354   5.461   0.271
 3588SOL     OW11662   0.862   2.878   5.634
 3588SOL    HW111663   0.818   2.790   5.617
 3588SOL    HW211664   0.828   2.946   5.569
 3589SOL     OW11665   3.817   0.925   4.095
 3589SOL    HW111666   3.845   0.869   4.172
 3589SOL    HW211667   3.771   1.007   4.128
 3590SOL     OW11668   0.120   4.262   6.377
 3590SOL    HW111669   0.204   4.311   6.352
 3590SOL    HW211670   0.059   4.257   6.298
 3591SOL     OW11671   4.956   3.724   6.591
 3591SOL    HW111672   4.877   3.751   6.646
 3591SOL    HW211673   5.036   3.713   6.650
 3592SOL     OW11674   5.615   3.607   3.339
 3592SOL    HW111675   5.581   3.590   3.247
 3592SOL    HW211676   5.594   3.528   3.397
 3593SOL     OW11677   2.380   6.346   4.489
 3593SOL    HW111678   2.322   6.403   4.431
 3593SOL    HW211679   2.465   6.394   4.509
 3594SOL     OW11680   3.980   1.076   2.074
 3594SOL    HW111681   4.000   0.983   2.104
 3594SOL    HW211682   4.064   1.130   2.073
 3595SOL     OW11683   1.900   6.353   6.101
 3595SOL    HW111684   1.986   6.304   6.116
 3595SOL    HW211685   1.825   6.286   6.095
 3596SOL     OW11686   6.903   1.561   2.963
 3596SOL    HW111687   6.952   1.525   2.883
 3596SOL    HW211688   6.822   1.611   2.932
 3597SOL     OW11689   2.836   6.267   5.034
 3597SOL    HW111690   2.902   6.280   5.108
 3597SOL    HW211691   2.759   6.330   5.045
 3598SOL     OW11692   1.456   0.535   5.685
 3598SOL    HW111693   1.537   0.587   5.710
 3598SOL    HW211694   1.432   0.473   5.759
 3599SOL     OW11695   0.628   1.806   5.804
 3599SOL    HW111696   0.708   1.773   5.854
 3599SOL    HW211697   0.652   1.822   5.709
 3600SOL     OW11698   6.823   3.620   0.970
 3600SOL    HW111699   6.896   3.554   0.950
 3600SOL    HW211700   6.788   3.603   1.062
 3601SOL     OW11701   6.423   4.113   0.663
 3601SOL    HW111702   6.367   4.076   0.589
 3601SOL    HW211703   6.414   4.055   0.743
 3602SOL     OW11704   1.919   1.427   1.396
 3602SOL    HW111705   1.974   1.345   1.414
 3602SOL    HW211706   1.978   1.507   1.394
 3603SOL     OW11707   3.564   6.298   3.944
 3603SOL    HW111708   3.560   6.282   3.845
 3603SOL    HW211709   3.573   6.396   3.961
 3604SOL     OW11710   6.791   4.134   3.820
 3604SOL    HW111711   6.823   4.229   3.818
 3604SOL    HW211712   6.732   4.117   3.741
 3605SOL     OW11713   5.972   4.724   5.960
 3605SOL    HW111714   5.983   4.652   5.892
 3605SOL    HW211715   5.905   4.791   5.927
 3606SOL     OW11716   6.456   4.972   5.426
 3606SOL    HW111717   6.555   4.964   5.439
 3606SOL    HW211718   6.427   5.065   5.444
 3607SOL     OW11719   5.107   6.584   0.915
 3607SOL    HW111720   5.178   6.612   0.851
 3607SOL    HW211721   5.149   6.565   1.004
 3608SOL     OW11722   6.859   1.853   2.110
 3608SOL    HW111723   6.798   1.870   2.032
 3608SOL    HW211724   6.923   1.780   2.088
 3609SOL     OW11725   0.199   0.414   4.361
 3609SOL    HW111726   0.206   0.314   4.360
 3609SOL    HW211727   0.221   0.448   4.452
 3610SOL     OW11728   0.701   0.543   5.428
 3610SOL    HW111729   0.729   0.458   5.384
 3610SOL    HW211730   0.662   0.522   5.518
 3611SOL     OW11731   3.841   4.675   5.617
 3611SOL    HW111732   3.780   4.707   5.544
 3611SOL    HW211733   3.929   4.648   5.578
 3612SOL     OW11734   6.748   6.864   5.590
 3612SOL    HW111735   6.795   6.932   5.645
 3612SOL    HW211736   6.687   6.909   5.525
 3613SOL     OW11737   5.440   5.289   1.195
 3613SOL    HW111738   5.368   5.256   1.257
 3613SOL    HW211739   5.449   5.226   1.118
 3614SOL     OW11740   3.830   3.352   3.809
 3614SOL    HW111741   3.895   3.301   3.753
 3614SOL    HW211742   3.851   3.450   3.804
 3615SOL     OW11743   5.938   6.391   6.203
 3615SOL    HW111744   5.993   6.445   6.266
 3615SOL    HW211745   5.846   6.431   6.196
 3616SOL     OW11746   6.880   1.406   6.400
 3616SOL    HW111747   6.788   1.370   6.387
 3616SOL    HW211748   6.877   1.505   6.409
 3617SOL     OW11749   5.289   1.348   6.576
 3617SOL    HW111750   5.281   1.253   6.547
 3617SOL    HW211751   5.216   1.402   6.536
 3618SOL     OW11752   1.669   1.883   5.809
 3618SOL    HW111753   1.678   1.980   5.831
 3618SOL    HW211754   1.749   1.853   5.757
 3619SOL     OW11755   5.901   2.461   3.709
 3619SOL    HW111756   5.956   2.539   3.740
 3619SOL    HW211757   5.837   2.492   3.638
 3620SOL     OW11758   5.918   5.362   5.686
 3620SOL    HW111759   5.835   5.319   5.649
 3620SOL    HW211760   5.987   5.292   5.702
 3621SOL     OW11761   2.761   1.898   5.755
 3621SOL    HW111762   2.692   1.959   5.717
 3621SOL    HW211763   2.847   1.908   5.705
 3622SOL     OW11764   2.822   2.015   3.253
 3622SOL    HW111765   2.853   1.976   3.340
 3622SOL    HW211766   2.826   1.945   3.181
 3623SOL     OW11767   5.945   5.970   3.961
 3623SOL    HW111768   5.938   5.883   4.011
 3623SOL    HW211769   6.037   5.979   3.923
 3624SOL     OW11770   2.089   6.838   2.428
 3624SOL    HW111771   2.128   6.868   2.515
 3624SOL    HW211772   1.990   6.852   2.428
 3625SOL     OW11773   6.206   3.311   0.094
 3625SOL    HW111774   6.209   3.231   0.034
 3625SOL    HW211775   6.126   3.304   0.154
 3626SOL     OW11776   1.579   3.787   5.308
 3626SOL    HW111777   1.585   3.689   5.326
 3626SOL    HW211778   1.579   3.803   5.209
 3627SOL     OW11779   3.958   3.184   3.653
 3627SOL    HW111780   3.993   3.217   3.566
 3627SOL    HW211781   3.891   3.111   3.637
 3628SOL     OW11782   1.578   0.012   1.466
 3628SOL    HW111783   1.613   0.058   1.548
 3628SOL    HW211784   1.651   6.973   1.425
 3629SOL     OW11785   6.280   2.267   4.315
 3629SOL    HW111786   6.362   2.321   4.298
 3629SOL    HW211787   6.272   2.196   4.245
 3630SOL     OW11788   5.745   2.936   3.367
 3630SOL    HW111789   5.814   2.987   3.419
 3630SOL    HW211790   5.711   2.993   3.292
 3631SOL     OW11791   2.028   6.928   3.911
 3631SOL    HW111792   1.949   6.954   3.966
 3631SOL    HW211793   2.026   6.978   3.824
 3632SOL     OW11794   5.180   0.405   0.441
 3632SOL    HW111795   5.190   0.404   0.341
 3632SOL    HW211796   5.196   0.497   0.475
 3633SOL     OW11797   3.292   1.211   5.845
 3633SOL    HW111798   3.334   1.300   5.830
 3633SOL    HW211799   3.343   1.141   5.794
 3634SOL     OW11800   0.631   5.409   5.485
 3634SOL    HW111801   0.579   5.407   5.571
 3634SOL    HW211802   0.709   5.346   5.493
 3635SOL     OW11803   2.529   0.064   5.738
 3635SOL    HW111804   2.518   7.016   5.813
 3635SOL    HW211805   2.440   0.082   5.696
 3636SOL     OW11806   1.060   5.992   6.438
 3636SOL    HW111807   1.012   6.052   6.503
 3636SOL    HW211808   1.009   5.988   6.352
 3637SOL     OW11809   6.377   2.200   1.439
 3637SOL    HW111810   6.467   2.186   1.398
 3637SOL    HW211811   6.307   2.200   1.368
 3638SOL     OW11812   0.150   4.214   4.692
 3638SOL    HW111813   0.086   4.252   4.625
 3638SOL    HW211814   0.226   4.169   4.644
 3639SOL     OW11815   3.889   3.664   0.772
 3639SOL    HW111816   3.860   3.587   0.828
 3639SOL    HW211817   3.855   3.749   0.812
 3640SOL     OW11818   3.513   0.091   6.791
 3640SOL    HW111819   3.495   0.188   6.780
 3640SOL    HW211820   3.434   0.038   6.761
 3641SOL     OW11821   4.846   2.955   4.044
 3641SOL    HW111822   4.759   2.908   4.048
 3641SOL    HW211823   4.919   2.894   4.076
 3642SOL     OW11824   4.977   0.832   0.081
 3642SOL    HW111825   4.943   0.747   0.040
 3642SOL    HW211826   4.922   0.909   0.049
 3643SOL     OW11827   2.892   5.560   5.133
 3643SOL    HW111828   2.865   5.644   5.181
 3643SOL    HW211829   2.963   5.513   5.184
 3644SOL     OW11830   6.921   1.429   1.444
 3644SOL    HW111831   6.995   1.495   1.437
 3644SOL    HW211832   6.834   1.474   1.424
 3645SOL     OW11833   6.391   1.457   3.972
 3645SOL    HW111834   6.415   1.554   3.967
 3645SOL    HW211835   6.291   1.447   3.966
 3646SOL     OW11836   6.664   4.449   6.226
 3646SOL    HW111837   6.710   4.418   6.309
 3646SOL    HW211838   6.690   4.544   6.208
 3647SOL     OW11839   2.286   3.501   0.199
 3647SOL    HW111840   2.318   3.496   0.105
 3647SOL    HW211841   2.282   3.597   0.228
 3648SOL     OW11842   2.918   5.184   3.228
 3648SOL    HW111843   2.942   5.187   3.326
 3648SOL    HW211844   2.966   5.258   3.180
 3649SOL     OW11845   4.783   2.981   1.683
 3649SOL    HW111846   4.726   3.002   1.762
 3649SOL    HW211847   4.782   2.882   1.668
 3650SOL     OW11848   0.203   5.198   6.925
 3650SOL    HW111849   0.165   5.147   7.002
 3650SOL    HW211850   0.286   5.151   6.892
 3651SOL     OW11851   0.449   6.181   2.819
 3651SOL    HW111852   0.488   6.171   2.911
 3651SOL    HW211853   0.516   6.228   2.760
 3652SOL     OW11854   5.615   6.038   3.215
 3652SOL    HW111855   5.708   6.074   3.217
 3652SOL    HW211856   5.561   6.091   3.149
 3653SOL     OW11857   6.788   0.530   3.666
 3653SOL    HW111858   6.753   0.548   3.758
 3653SOL    HW211859   6.853   0.601   3.640
 3654SOL     OW11860   1.987   6.750   0.495
 3654SOL    HW111861   1.998   6.798   0.408
 3654SOL    HW211862   2.068   6.694   0.513
 3655SOL     OW11863   1.505   0.059   3.685
 3655SOL    HW111864   1.581   0.124   3.683
 3655SOL    HW211865   1.472   0.049   3.779
 3656SOL     OW11866   1.457   3.360   2.002
 3656SOL    HW111867   1.371   3.410   1.997
 3656SOL    HW211868   1.525   3.403   1.943
 3657SOL     OW11869   4.934   5.697   6.193
 3657SOL    HW111870   4.884   5.613   6.212
 3657SOL    HW211871   4.982   5.689   6.106
 3658SOL     OW11872   1.665   6.061   3.805
 3658SOL    HW111873   1.707   6.145   3.770
 3658SOL    HW211874   1.737   5.994   3.826
 3659SOL     OW11875   2.254   3.402   5.733
 3659SOL    HW111876   2.232   3.350   5.651
 3659SOL    HW211877   2.338   3.454   5.719
 3660SOL     OW11878   4.825   0.105   3.069
 3660SOL    HW111879   4.873   0.122   3.154
 3660SOL    HW211880   4.759   0.179   3.052
 3661SOL     OW11881   4.774   1.984   5.795
 3661SOL    HW111882   4.679   2.007   5.773
 3661SOL    HW211883   4.830   2.066   5.792
 3662SOL     OW11884   4.565   0.757   3.291
 3662SOL    HW111885   4.494   0.823   3.265
 3662SOL    HW211886   4.530   0.697   3.363
 3663SOL     OW11887   2.311   2.106   0.622
 3663SOL    HW111888   2.371   2.169   0.672
 3663SOL    HW211889   2.218   2.143   0.620
 3664SOL     OW11890   4.387   2.073   1.452
 3664SOL    HW111891   4.319   2.006   1.419
 3664SOL    HW211892   4.471   2.063   1.400
 3665SOL     OW11893   1.286   6.179   5.664
 3665SOL    HW111894   1.316   6.270   5.691
 3665SOL    HW211895   1.334   6.110   5.718
 3666SOL     OW11896   2.158   3.712   2.864
 3666SOL    HW111897   2.132   3.765   2.945
 3666SOL    HW211898   2.240   3.752   2.823
 3667SOL     OW11899   6.749   0.750   0.691
 3667SOL    HW111900   6.743   0.848   0.711
 3667SOL    HW211901   6.701   0.699   0.762
 3668SOL     OW11902   1.704   0.796   2.106
 3668SOL    HW111903   1.804   0.796   2.100
 3668SOL    HW211904   1.673   0.886   2.134
 3669SOL     OW11905   5.987   1.044   4.105
 3669SOL    HW111906   5.996   1.061   4.006
 3669SOL    HW211907   6.076   1.019   4.143
 3670SOL     OW11908   2.545   4.121   0.354
 3670SOL    HW111909   2.581   4.140   0.446
 3670SOL    HW211910   2.598   4.172   0.286
 3671SOL     OW11911   6.397   0.208   4.123
 3671SOL    HW111912   6.328   0.153   4.170
 3671SOL    HW211913   6.366   0.229   4.030
 3672SOL     OW11914   5.165   1.804   1.470
 3672SOL    HW111915   5.093   1.786   1.403
 3672SOL    HW211916   5.180   1.903   1.476
 3673SOL     OW11917   3.622   0.204   5.845
 3673SOL    HW111918   3.549   0.162   5.899
 3673SOL    HW211919   3.698   0.139   5.836
 3674SOL     OW11920   0.333   0.260   4.760
 3674SOL    HW111921   0.385   0.220   4.835
 3674SOL    HW211922   0.242   0.219   4.757
 3675SOL     OW11923   1.764   3.144   4.766
 3675SOL    HW111924   1.810   3.125   4.853
 3675SOL    HW211925   1.704   3.224   4.777
 3676SOL     OW11926   4.569   4.782   4.764
 3676SOL    HW111927   4.598   4.855   4.826
 3676SOL    HW211928   4.592   4.693   4.804
 3677SOL     OW11929   1.735   6.595   3.453
 3677SOL    HW111930   1.712   6.690   3.432
 3677SOL    HW211931   1.818   6.592   3.509
 3678SOL     OW11932   1.105   3.780   3.656
 3678SOL    HW111933   1.032   3.826   3.606
 3678SOL    HW211934   1.066   3.704   3.709
 3679SOL     OW11935   1.999   0.585   3.271
 3679SOL    HW111936   2.083   0.567   3.322
 3679SOL    HW211937   2.011   0.666   3.214
 3680SOL     OW11938   5.827   2.168   3.212
 3680SOL    HW111939   5.800   2.145   3.305
 3680SOL    HW211940   5.916   2.127   3.192
 3681SOL     OW11941   1.016   0.863   4.465
 3681SOL    HW111942   0.946   0.818   4.410
 3681SOL    HW211943   0.988   0.957   4.485
 3682SOL     OW11944   5.339   2.418   6.866
 3682SOL    HW111945   5.332   2.451   6.772
 3682SOL    HW211946   5.286   2.478   6.926
 3683SOL     OW11947   6.831   6.650   3.704
 3683SOL    HW111948   6.771   6.729   3.695
 3683SOL    HW211949   6.777   6.566   3.698
 3684SOL     OW11950   1.528   3.905   6.982
 3684SOL    HW111951   1.546   3.954   6.897
 3684SOL    HW211952   1.453   3.950   0.014
 3685SOL     OW11953   6.447   6.617   6.500
 3685SOL    HW111954   6.383   6.693   6.507
 3685SOL    HW211955   6.541   6.652   6.499
 3686SOL     OW11956   6.533   6.055   3.605
 3686SOL    HW111957   6.494   6.137   3.562
 3686SOL    HW211958   6.555   5.988   3.535
 3687SOL     OW11959   3.677   6.403   5.953
 3687SOL    HW111960   3.763   6.351   5.956
 3687SOL    HW211961   3.611   6.360   6.015
 3688SOL     OW11962   0.502   3.302   6.468
 3688SOL    HW111963   0.507   3.269   6.562
 3688SOL    HW211964   0.446   3.240   6.414
 3689SOL     OW11965   1.747   0.797   6.900
 3689SOL    HW111966   1.839   0.789   6.861
 3689SOL    HW211967   1.754   0.826   6.996
 3690SOL     OW11968   4.140   0.106   6.080
 3690SOL    HW111969   4.045   0.133   6.062
 3690SOL    HW211970   4.157   0.110   6.178
 3691SOL     OW11971   2.732   2.455   0.033
 3691SOL    HW111972   2.822   2.434   0.072
 3691SOL    HW211973   2.665   2.459   0.107
 3692SOL     OW11974   0.574   5.941   5.037
 3692SOL    HW111975   0.660   5.928   5.086
 3692SOL    HW211976   0.568   5.875   4.962
 3693SOL     OW11977   2.216   2.764   2.777
 3693SOL    HW111978   2.299   2.713   2.798
 3693SOL    HW211979   2.220   2.798   2.683
 3694SOL     OW11980   1.822   5.601   2.855
 3694SOL    HW111981   1.907   5.595   2.907
 3694SOL    HW211982   1.746   5.564   2.909
 3695SOL     OW11983   6.299   2.587   2.716
 3695SOL    HW111984   6.308   2.608   2.619
 3695SOL    HW211985   6.204   2.602   2.745
 3696SOL     OW11986   3.429   5.686   5.156
 3696SOL    HW111987   3.522   5.717   5.138
 3696SOL    HW211988   3.366   5.762   5.148
 3697SOL     OW11989   0.436   5.990   3.270
 3697SOL    HW111990   0.456   6.042   3.353
 3697SOL    HW211991   0.348   5.943   3.280
 3698SOL     OW11992   2.958   0.050   5.209
 3698SOL    HW111993   2.883   0.117   5.210
 3698SOL    HW211994   2.929   6.984   5.256
 3699SOL     OW11995   6.881   3.352   3.116
 3699SOL    HW111996   6.859   3.371   3.020
 3699SOL    HW211997   6.908   3.257   3.127
 3700SOL     OW11998   0.351   0.561   4.732
 3700SOL    HW111999   0.362   0.475   4.782
 3700SOL    HW212000   0.255   0.588   4.732
 3701SOL     OW12001   0.605   0.796   3.398
 3701SOL    HW112002   0.573   0.734   3.470
 3701SOL    HW212003   0.699   0.773   3.374
 3702SOL     OW12004   5.408   6.427   2.394
 3702SOL    HW112005   5.397   6.331   2.418
 3702SOL    HW212006   5.394   6.484   2.475
 3703SOL     OW12007   4.619   2.247   6.561
 3703SOL    HW112008   4.591   2.169   6.618
 3703SOL    HW212009   4.539   2.303   6.541
 3704SOL     OW12010   3.149   1.052   1.494
 3704SOL    HW112011   3.220   1.004   1.546
 3704SOL    HW212012   3.087   0.985   1.453
 3705SOL     OW12013   5.413   5.658   4.207
 3705SOL    HW112014   5.336   5.719   4.186
 3705SOL    HW212015   5.488   5.677   4.143
 3706SOL     OW12016   1.087   3.352   5.242
 3706SOL    HW112017   1.178   3.313   5.249
 3706SOL    HW212018   1.093   3.443   5.201
 3707SOL     OW12019   6.165   3.733   5.237
 3707SOL    HW112020   6.111   3.657   5.200
 3707SOL    HW212021   6.107   3.788   5.297
 3708SOL     OW12022   6.386   0.687   5.891
 3708SOL    HW112023   6.483   0.707   5.901
 3708SOL    HW212024   6.337   0.718   5.973
 3709SOL     OW12025   3.950   0.612   0.390
 3709SOL    HW112026   3.916   0.676   0.460
 3709SOL    HW212027   4.017   0.550   0.432
 3710SOL     OW12028   0.061   5.891   0.241
 3710SOL    HW112029   0.078   5.797   0.214
 3710SOL    HW212030   0.103   5.953   0.175
 3711SOL     OW12031   6.852   6.493   2.064
 3711SOL    HW112032   6.810   6.576   2.101
 3711SOL    HW212033   6.936   6.474   2.115
 3712SOL     OW12034   6.650   6.530   0.104
 3712SOL    HW112035   6.594   6.447   0.109
 3712SOL    HW212036   6.611   6.599   0.165
 3713SOL     OW12037   1.889   6.119   4.504
 3713SOL    HW112038   1.867   6.035   4.554
 3713SOL    HW212039   1.960   6.099   4.436
 3714SOL     OW12040   4.834   5.349   5.496
 3714SOL    HW112041   4.932   5.350   5.478
 3714SOL    HW212042   4.794   5.437   5.470
 3715SOL     OW12043   6.105   3.850   3.410
 3715SOL    HW112044   6.037   3.897   3.465
 3715SOL    HW212045   6.062   3.774   3.361
 3716SOL     OW12046   5.902   6.325   5.325
 3716SOL    HW112047   5.852   6.389   5.267
 3716SOL    HW212048   5.840   6.288   5.394
 3717SOL     OW12049   5.534   5.430   6.111
 3717SOL    HW112050   5.527   5.529   6.100
 3717SOL    HW212051   5.472   5.385   6.047
 3718SOL     OW12052   2.149   0.576   6.416
 3718SOL    HW112053   2.129   0.674   6.426
 3718SOL    HW212054   2.142   0.551   6.319
 3719SOL     OW12055   5.632   4.747   0.974
 3719SOL    HW112056   5.719   4.699   0.966
 3719SOL    HW212057   5.635   4.809   1.052
 3720SOL     OW12058   6.199   2.019   5.372
 3720SOL    HW112059   6.165   2.075   5.447
 3720SOL    HW212060   6.203   1.923   5.399
 3721SOL     OW12061   5.160   4.669   1.534
 3721SOL    HW112062   5.143   4.667   1.435
 3721SOL    HW212063   5.102   4.601   1.579
 3722SOL     OW12064   6.105   0.014   2.131
 3722SOL    HW112065   6.096   6.946   2.183
 3722SOL    HW212066   6.174   0.002   2.060
 3723SOL     OW12067   5.999   6.707   1.836
 3723SOL    HW112068   5.924   6.759   1.877
 3723SOL    HW212069   6.070   6.770   1.806
 3724SOL     OW12070   1.777   5.064   5.798
 3724SOL    HW112071   1.727   5.012   5.729
 3724SOL    HW212072   1.717   5.132   5.839
 3725SOL     OW12073   5.504   5.878   0.688
 3725SOL    HW112074   5.487   5.864   0.591
 3725SOL    HW212075   5.494   5.975   0.710
 3726SOL     OW12076   6.512   5.633   0.716
 3726SOL    HW112077   6.482   5.699   0.784
 3726SOL    HW212078   6.433   5.583   0.680
 3727SOL     OW12079   6.977   2.801   6.293
 3727SOL    HW112080   0.058   2.791   6.306
 3727SOL    HW212081   6.929   2.725   6.337
 3728SOL     OW12082   1.586   3.898   0.231
 3728SOL    HW112083   1.582   3.876   0.133
 3728SOL    HW212084   1.651   3.972   0.246
 3729SOL     OW12085   1.384   2.346   3.807
 3729SOL    HW112086   1.397   2.355   3.906
 3729SOL    HW212087   1.380   2.249   3.783
 3730SOL     OW12088   2.489   5.270   6.212
 3730SOL    HW112089   2.410   5.241   6.158
 3730SOL    HW212090   2.562   5.300   6.150
 3731SOL     OW12091   4.375   0.223   0.864
 3731SOL    HW112092   4.344   0.283   0.791
 3731SOL    HW212093   4.357   0.265   0.953
 3732SOL     OW12094   1.327   2.309   6.502
 3732SOL    HW112095   1.285   2.394   6.533
 3732SOL    HW212096   1.373   2.264   6.579
 3733SOL     OW12097   1.547   3.676   1.720
 3733SOL    HW112098   1.454   3.641   1.729
 3733SOL    HW212099   1.609   3.625   1.780
 3734SOL     OW12100   4.287   1.227   1.815
 3734SOL    HW112101   4.380   1.194   1.799
 3734SOL    HW212102   4.285   1.327   1.804
 3735SOL     OW12103   2.097   1.060   3.383
 3735SOL    HW112104   2.162   1.062   3.308
 3735SOL    HW212105   2.116   0.981   3.442
 3736SOL     OW12106   6.503   2.637   1.167
 3736SOL    HW112107   6.539   2.594   1.249
 3736SOL    HW212108   6.558   2.717   1.144
 3737SOL     OW12109   5.168   0.750   3.076
 3737SOL    HW112110   5.198   0.691   3.151
 3737SOL    HW212111   5.214   0.838   3.082
 3738SOL     OW12112   0.144   5.671   2.343
 3738SOL    HW112113   0.218   5.615   2.306
 3738SOL    HW212114   0.152   5.676   2.443
 3739SOL     OW12115   2.194   4.696   1.376
 3739SOL    HW112116   2.262   4.728   1.310
 3739SOL    HW212117   2.220   4.726   1.468
 3740SOL     OW12118   4.943   0.265   0.409
 3740SOL    HW112119   4.880   0.299   0.340
 3740SOL    HW212120   5.027   0.318   0.408
 3741SOL     OW12121   4.678   3.026   1.430
 3741SOL    HW112122   4.701   3.041   1.526
 3741SOL    HW212123   4.730   2.949   1.394
 3742SOL     OW12124   2.626   2.360   6.343
 3742SOL    HW112125   2.668   2.444   6.310
 3742SOL    HW212126   2.672   2.281   6.301
 3743SOL     OW12127   5.179   4.262   1.265
 3743SOL    HW112128   5.091   4.216   1.276
 3743SOL    HW212129   5.177   4.317   1.181
 3744SOL     OW12130   0.379   5.881   2.717
 3744SOL    HW112131   0.370   5.801   2.658
 3744SOL    HW212132   0.448   5.943   2.679
 3745SOL     OW12133   3.537   4.882   2.537
 3745SOL    HW112134   3.575   4.937   2.612
 3745SOL    HW212135   3.598   4.805   2.518
 3746SOL     OW12136   5.084   1.791   2.749
 3746SOL    HW112137   5.024   1.727   2.702
 3746SOL    HW212138   5.164   1.742   2.785
 3747SOL     OW12139   3.241   6.957   5.745
 3747SOL    HW112140   3.243   6.924   5.839
 3747SOL    HW212141   3.261   0.039   5.744
 3748SOL     OW12142   5.039   0.756   1.370
 3748SOL    HW112143   5.040   0.830   1.302
 3748SOL    HW212144   5.076   0.790   1.456
 3749SOL     OW12145   1.747   6.584   4.190
 3749SOL    HW112146   1.704   6.665   4.232
 3749SOL    HW212147   1.731   6.505   4.248
 3750SOL     OW12148   1.651   3.922   0.911
 3750SOL    HW112149   1.590   3.967   0.845
 3750SOL    HW212150   1.648   3.823   0.897
 3751SOL     OW12151   6.607   3.558   2.584
 3751SOL    HW112152   6.647   3.470   2.558
 3751SOL    HW212153   6.525   3.576   2.528
 3752SOL     OW12154   5.069   0.479   6.303
 3752SOL    HW112155   5.053   0.555   6.240
 3752SOL    HW212156   5.159   0.490   6.346
 3753SOL     OW12157   6.410   0.723   5.042
 3753SOL    HW112158   6.421   0.816   5.077
 3753SOL    HW212159   6.500   0.681   5.031
 3754SOL     OW12160   2.445   0.423   1.731
 3754SOL    HW112161   2.461   0.340   1.784
 3754SOL    HW212162   2.383   0.484   1.781
 3755SOL     OW12163   3.936   5.381   5.229
 3755SOL    HW112164   3.845   5.409   5.198
 3755SOL    HW212165   3.929   5.342   5.321
 3756SOL     OW12166   2.363   5.499   6.961
 3756SOL    HW112167   2.441   5.494   0.006
 3756SOL    HW212168   2.279   5.515   7.014
 3757SOL     OW12169   6.410   5.302   1.864
 3757SOL    HW112170   6.412   5.330   1.768
 3757SOL    HW212171   6.376   5.208   1.870
 3758SOL     OW12172   2.065   1.352   4.221
 3758SOL    HW112173   1.973   1.352   4.181
 3758SOL    HW212174   2.106   1.261   4.211
 3759SOL     OW12175   4.794   0.357   4.807
 3759SOL    HW112176   4.828   0.297   4.879
 3759SOL    HW212177   4.846   0.443   4.809
 3760SOL     OW12178   1.085   1.616   3.531
 3760SOL    HW112179   1.023   1.607   3.610
 3760SOL    HW212180   1.172   1.572   3.552
 3761SOL     OW12181   6.719   0.803   5.031
 3761SOL    HW112182   6.804   0.849   5.055
 3761SOL    HW212183   6.646   0.871   5.020
 3762SOL     OW12184   1.660   4.243   1.243
 3762SOL    HW112185   1.622   4.297   1.168
 3762SOL    HW212186   1.626   4.278   1.331
 3763SOL     OW12187   6.687   4.095   0.519
 3763SOL    HW112188   6.685   4.190   0.486
 3763SOL    HW212189   6.624   4.086   0.596
 3764SOL     OW12190   1.897   6.640   2.656
 3764SOL    HW112191   1.933   6.642   2.563
 3764SOL    HW212192   1.879   6.546   2.683
 3765SOL     OW12193   6.084   1.114   0.885
 3765SOL    HW112194   6.177   1.135   0.914
 3765SOL    HW212195   6.060   1.021   0.912
 3766SOL     OW12196   2.398   2.419   4.216
 3766SOL    HW112197   2.393   2.513   4.181
 3766SOL    HW212198   2.376   2.355   4.142
 3767SOL     OW12199   3.069   3.844   6.327
 3767SOL    HW112200   2.972   3.867   6.336
 3767SOL    HW212201   3.099   3.792   6.407
 3768SOL     OW12202   0.747   0.395   5.118
 3768SOL    HW112203   0.741   0.320   5.052
 3768SOL    HW212204   0.656   0.432   5.134
 3769SOL     OW12205   6.519   5.383   5.271
 3769SOL    HW112206   6.488   5.330   5.349
 3769SOL    HW212207   6.450   5.378   5.198
 3770SOL     OW12208   1.101   1.110   6.909
 3770SOL    HW112209   1.132   1.156   6.992
 3770SOL    HW212210   1.090   1.177   6.836
 3771SOL     OW12211   5.772   4.621   6.736
 3771SOL    HW112212   5.862   4.580   6.749
 3771SOL    HW212213   5.743   4.665   6.821
 3772SOL     OW12214   0.426   0.650   0.121
 3772SOL    HW112215   0.392   0.623   0.211
 3772SOL    HW212216   0.520   0.616   0.109
 3773SOL     OW12217   6.510   3.068   5.537
 3773SOL    HW112218   6.462   3.153   5.559
 3773SOL    HW212219   6.547   3.074   5.444
 3774SOL     OW12220   5.665   5.485   1.620
 3774SOL    HW112221   5.763   5.486   1.638
 3774SOL    HW212222   5.647   5.520   1.529
 3775SOL     OW12223   4.052   4.773   3.902
 3775SOL    HW112224   4.105   4.688   3.901
 3775SOL    HW212225   4.103   4.844   3.950
 3776SOL     OW12226   3.892   2.572   6.363
 3776SOL    HW112227   3.834   2.593   6.441
 3776SOL    HW212228   3.841   2.587   6.278
 3777SOL     OW12229   2.359   5.709   4.190
 3777SOL    HW112230   2.446   5.703   4.142
 3777SOL    HW212231   2.290   5.655   4.141
 3778SOL     OW12232   2.201   5.817   3.629
 3778SOL    HW112233   2.280   5.877   3.622
 3778SOL    HW212234   2.200   5.753   3.551
 3779SOL     OW12235   0.516   5.081   0.823
 3779SOL    HW112236   0.587   5.069   0.893
 3779SOL    HW212237   0.431   5.110   0.867
 3780SOL     OW12238   7.014   3.911   4.157
 3780SOL    HW112239   6.928   3.962   4.158
 3780SOL    HW212240   6.996   3.815   4.139
 3781SOL     OW12241   0.655   0.324   4.085
 3781SOL    HW112242   0.622   0.385   4.014
 3781SOL    HW212243   0.640   0.366   4.175
 3782SOL     OW12244   3.348   6.770   2.362
 3782SOL    HW112245   3.440   6.736   2.341
 3782SOL    HW212246   3.316   6.826   2.287
 3783SOL     OW12247   6.896   5.976   4.017
 3783SOL    HW112248   6.968   5.909   4.033
 3783SOL    HW212249   6.911   6.022   3.929
 3784SOL     OW12250   5.317   2.706   2.755
 3784SOL    HW112251   5.223   2.733   2.779
 3784SOL    HW212252   5.339   2.742   2.665
 3785SOL     OW12253   1.551   3.361   4.817
 3785SOL    HW112254   1.502   3.389   4.735
 3785SOL    HW212255   1.531   3.425   4.891
 3786SOL     OW12256   2.175   4.083   3.236
 3786SOL    HW112257   2.159   4.001   3.182
 3786SOL    HW212258   2.168   4.164   3.177
 3787SOL     OW12259   5.694   0.776   2.468
 3787SOL    HW112260   5.595   0.764   2.468
 3787SOL    HW212261   5.719   0.839   2.394
 3788SOL     OW12262   5.910   4.200   5.074
 3788SOL    HW112263   5.979   4.240   5.134
 3788SOL    HW212264   5.955   4.160   4.994
 3789SOL     OW12265   0.212   3.630   2.982
 3789SOL    HW112266   0.205   3.537   3.019
 3789SOL    HW212267   0.284   3.680   3.031
 3790SOL     OW12268   0.708   5.034   6.286
 3790SOL    HW112269   0.615   5.047   6.319
 3790SOL    HW212270   0.709   5.037   6.186
 3791SOL     OW12271   5.252   1.904   6.814
 3791SOL    HW112272   5.300   1.821   6.787
 3791SOL    HW212273   5.318   1.973   6.843
 3792SOL     OW12274   1.039   1.620   4.366
 3792SOL    HW112275   1.060   1.579   4.277
 3792SOL    HW212276   0.960   1.681   4.356
 3793SOL     OW12277   5.406   6.324   1.876
 3793SOL    HW112278   5.479   6.338   1.943
 3793SOL    HW212279   5.369   6.413   1.849
 3794SOL     OW12280   2.973   3.352   1.611
 3794SOL    HW112281   2.904   3.279   1.616
 3794SOL    HW212282   3.019   3.348   1.523
 3795SOL     OW12283   3.846   5.019   1.342
 3795SOL    HW112284   3.886   5.018   1.434
 3795SOL    HW212285   3.780   5.094   1.335
 3796SOL     OW12286   4.280   1.634   1.630
 3796SOL    HW112287   4.241   1.706   1.686
 3796SOL    HW212288   4.216   1.611   1.556
 3797SOL     OW12289   0.875   3.709   3.067
 3797SOL    HW112290   0.794   3.651   3.072
 3797SOL    HW212291   0.848   3.804   3.050
 3798SOL     OW12292   3.103   6.274   2.100
 3798SOL    HW112293   3.178   6.305   2.158
 3798SOL    HW212294   3.100   6.330   2.017
 3799SOL     OW12295   0.298   2.594   3.682
 3799SOL    HW112296   0.360   2.640   3.617
 3799SOL    HW212297   0.258   2.513   3.638
 3800SOL     OW12298   4.883   2.104   3.964
 3800SOL    HW112299   4.919   2.018   4.000
 3800SOL    HW212300   4.870   2.096   3.865
 3801SOL     OW12301   5.362   6.738   2.275
 3801SOL    HW112302   5.406   6.649   2.283
 3801SOL    HW212303   5.293   6.748   2.347
 3802SOL     OW12304   0.508   1.224   2.523
 3802SOL    HW112305   0.556   1.294   2.576
 3802SOL    HW212306   0.569   1.148   2.504
 3803SOL     OW12307   3.854   3.562   3.474
 3803SOL    HW112308   3.756   3.561   3.451
 3803SOL    HW212309   3.883   3.656   3.490
 3804SOL     OW12310   4.077   1.284   3.488
 3804SOL    HW112311   4.022   1.351   3.437
 3804SOL    HW212312   4.032   1.195   3.487
 3805SOL     OW12313   1.736   2.555   1.897
 3805SOL    HW112314   1.729   2.601   1.809
 3805SOL    HW212315   1.678   2.473   1.897
 3806SOL     OW12316   3.313   3.756   5.928
 3806SOL    HW112317   3.288   3.836   5.874
 3806SOL    HW212318   3.230   3.704   5.950
 3807SOL     OW12319   2.069   5.275   3.861
 3807SOL    HW112320   2.058   5.204   3.931
 3807SOL    HW212321   2.134   5.244   3.792
 3808SOL     OW12322   4.255   1.220   0.017
 3808SOL    HW112323   4.263   1.318   7.013
 3808SOL    HW212324   4.178   1.206   0.080
 3809SOL     OW12325   5.454   2.794   1.345
 3809SOL    HW112326   5.486   2.702   1.321
 3809SOL    HW212327   5.364   2.810   1.304
 3810SOL     OW12328   6.091   2.564   3.477
 3810SOL    HW112329   6.191   2.557   3.483
 3810SOL    HW212330   6.064   2.660   3.481
 3811SOL     OW12331   0.246   6.331   4.825
 3811SOL    HW112332   0.240   6.231   4.827
 3811SOL    HW212333   0.306   6.362   4.899
 3812SOL     OW12334   3.275   4.481   5.751
 3812SOL    HW112335   3.190   4.517   5.714
 3812SOL    HW212336   3.336   4.557   5.774
 3813SOL     OW12337   5.713   3.885   0.602
 3813SOL    HW112338   5.708   3.899   0.503
 3813SOL    HW212339   5.674   3.964   0.649
 3814SOL     OW12340   0.054   6.795   4.617
 3814SOL    HW112341   6.987   6.850   4.625
 3814SOL    HW212342   0.058   6.754   4.526
 3815SOL     OW12343   4.028   3.216   0.990
 3815SOL    HW112344   3.982   3.283   0.932
 3815SOL    HW212345   4.096   3.263   1.047
 3816SOL     OW12346   0.961   5.197   6.047
 3816SOL    HW112347   0.971   5.108   6.004
 3816SOL    HW212348   0.989   5.192   6.143
 3817SOL     OW12349   4.953   4.032   2.377
 3817SOL    HW112350   4.907   4.115   2.407
 3817SOL    HW212351   5.051   4.047   2.374
 3818SOL     OW12352   6.901   0.964   1.333
 3818SOL    HW112353   6.993   0.952   1.296
 3818SOL    HW212354   6.903   1.028   1.409
 3819SOL     OW12355   5.993   4.715   2.787
 3819SOL    HW112356   5.925   4.751   2.724
 3819SOL    HW212357   6.029   4.628   2.753
 3820SOL     OW12358   5.943   7.015   3.808
 3820SOL    HW112359   5.996   0.077   3.777
 3820SOL    HW212360   5.882   6.985   3.735
 3821SOL     OW12361   1.293   0.960   1.974
 3821SOL    HW112362   1.202   0.958   2.017
 3821SOL    HW212363   1.297   1.036   1.909
 3822SOL     OW12364   1.847   6.845   0.010
 3822SOL    HW112365   1.941   6.814   7.012
 3822SOL    HW212366   1.803   6.861   6.938
 3823SOL     OW12367   3.960   3.418   6.085
 3823SOL    HW112368   3.918   3.328   6.072
 3823SOL    HW212369   3.889   3.488   6.091
 3824SOL     OW12370   0.919   2.479   0.719
 3824SOL    HW112371   0.893   2.564   0.766
 3824SOL    HW212372   1.018   2.469   0.721
 3825SOL     OW12373   0.980   4.901   0.244
 3825SOL    HW112374   1.076   4.874   0.237
 3825SOL    HW212375   0.973   5.001   0.242
 3826SOL     OW12376   0.109   3.755   1.290
 3826SOL    HW112377   0.126   3.797   1.201
 3826SOL    HW212378   0.177   3.789   1.356
 3827SOL     OW12379   0.968   1.258   1.702
 3827SOL    HW112380   0.954   1.232   1.607
 3827SOL    HW212381   0.904   1.209   1.760
 3828SOL     OW12382   3.584   3.804   4.038
 3828SOL    HW112383   3.551   3.885   3.988
 3828SOL    HW212384   3.634   3.834   4.119
 3829SOL     OW12385   0.521   4.723   2.190
 3829SOL    HW112386   0.512   4.657   2.116
 3829SOL    HW212387   0.601   4.700   2.246
 3830SOL     OW12388   0.390   1.326   5.549
 3830SOL    HW112389   0.440   1.255   5.597
 3830SOL    HW212390   0.417   1.327   5.452
 3831SOL     OW12391   4.448   2.303   2.437
 3831SOL    HW112392   4.424   2.336   2.346
 3831SOL    HW212393   4.473   2.380   2.495
 3832SOL     OW12394   6.898   0.612   2.211
 3832SOL    HW112395   6.944   0.698   2.230
 3832SOL    HW212396   6.833   0.592   2.284
 3833SOL     OW12397   0.335   5.764   6.557
 3833SOL    HW112398   0.358   5.691   6.620
 3833SOL    HW212399   0.276   5.831   6.603
 3834SOL     OW12400   3.579   4.734   0.646
 3834SOL    HW112401   3.582   4.637   0.624
 3834SOL    HW212402   3.515   4.780   0.586
 3835SOL     OW12403   3.947   6.353   5.488
 3835SOL    HW112404   3.931   6.433   5.431
 3835SOL    HW212405   3.982   6.278   5.432
 3836SOL     OW12406   6.665   5.236   5.766
 3836SOL    HW112407   6.652   5.137   5.757
 3836SOL    HW212408   6.644   5.265   5.859
 3837SOL     OW12409   4.729   4.875   5.423
 3837SOL    HW112410   4.739   4.975   5.425
 3837SOL    HW212411   4.717   4.841   5.517
 3838SOL     OW12412   1.111   2.623   3.890
 3838SOL    HW112413   1.039   2.597   3.826
 3838SOL    HW212414   1.091   2.713   3.928
 3839SOL     OW12415   5.418   1.853   2.571
 3839SOL    HW112416   5.371   1.900   2.646
 3839SOL    HW212417   5.517   1.865   2.582
 3840SOL     OW12418   2.955   1.449   6.504
 3840SOL    HW112419   2.975   1.448   6.602
 3840SOL    HW212420   2.952   1.544   6.472
 3841SOL     OW12421   0.325   3.549   4.251
 3841SOL    HW112422   0.258   3.520   4.319
 3841SOL    HW212423   0.415   3.512   4.274
 3842SOL     OW12424   2.316   2.619   3.464
 3842SOL    HW112425   2.292   2.676   3.543
 3842SOL    HW212426   2.233   2.597   3.413
 3843SOL     OW12427   5.250   3.656   2.535
 3843SOL    HW112428   5.164   3.700   2.512
 3843SOL    HW212429   5.234   3.559   2.555
 3844SOL     OW12430   1.292   2.898   5.990
 3844SOL    HW112431   1.391   2.914   5.997
 3844SOL    HW212432   1.251   2.903   6.081
 3845SOL     OW12433   2.965   4.605   6.043
 3845SOL    HW112434   2.952   4.623   6.141
 3845SOL    HW212435   3.058   4.573   6.027
 3846SOL     OW12436   1.276   4.438   3.482
 3846SOL    HW112437   1.252   4.367   3.547
 3846SOL    HW212438   1.353   4.408   3.425
 3847SOL     OW12439   5.551   2.931   4.370
 3847SOL    HW112440   5.591   3.020   4.394
 3847SOL    HW212441   5.521   2.885   4.454
 3848SOL     OW12442   4.767   4.522   3.114
 3848SOL    HW112443   4.716   4.593   3.162
 3848SOL    HW212444   4.710   4.440   3.105
 3849SOL     OW12445   0.898   1.793   6.469
 3849SOL    HW112446   0.808   1.796   6.426
 3849SOL    HW212447   0.969   1.811   6.401
 3850SOL     OW12448   3.226   3.346   1.712
 3850SOL    HW112449   3.142   3.371   1.665
 3850SOL    HW212450   3.206   3.279   1.783
 3851SOL     OW12451   0.355   4.182   3.233
 3851SOL    HW112452   0.400   4.097   3.263
 3851SOL    HW212453   0.260   4.162   3.209
 3852SOL     OW12454   4.312   6.286   3.785
 3852SOL    HW112455   4.299   6.366   3.843
 3852SOL    HW212456   4.256   6.296   3.702
 3853SOL     OW12457   0.883   4.019   3.276
 3853SOL    HW112458   0.975   4.018   3.236
 3853SOL    HW212459   0.818   3.980   3.212
 3854SOL     OW12460   1.868   2.398   3.173
 3854SOL    HW112461   1.848   2.326   3.239
 3854SOL    HW212462   1.827   2.484   3.205
 3855SOL     OW12463   4.787   6.268   6.722
 3855SOL    HW112464   4.693   6.263   6.755
 3855SOL    HW212465   4.787   6.260   6.622
 3856SOL     OW12466   6.985   0.357   5.725
 3856SOL    HW112467   6.890   0.364   5.756
 3856SOL    HW212468   6.993   0.284   5.657
 3857SOL     OW12469   0.719   6.161   6.414
 3857SOL    HW112470   0.721   6.250   6.369
 3857SOL    HW212471   0.800   6.151   6.472
 3858SOL     OW12472   2.492   0.890   5.580
 3858SOL    HW112473   2.458   0.851   5.495
 3858SOL    HW212474   2.453   0.982   5.592
 3859SOL     OW12475   6.442   1.240   1.351
 3859SOL    HW112476   6.489   1.306   1.410
 3859SOL    HW212477   6.509   1.186   1.301
 3860SOL     OW12478   1.489   1.648   4.184
 3860SOL    HW112479   1.427   1.724   4.162
 3860SOL    HW212480   1.581   1.684   4.201
 3861SOL     OW12481   4.167   5.608   4.234
 3861SOL    HW112482   4.158   5.509   4.218
 3861SOL    HW212483   4.119   5.657   4.162
 3862SOL     OW12484   0.702   1.121   4.268
 3862SOL    HW112485   0.741   1.071   4.191
 3862SOL    HW212486   0.681   1.215   4.240
 3863SOL     OW12487   6.080   2.175   0.054
 3863SOL    HW112488   6.038   2.100   0.003
 3863SOL    HW212489   6.054   2.263   0.012
 3864SOL     OW12490   2.394   1.136   5.652
 3864SOL    HW112491   2.351   1.149   5.741
 3864SOL    HW212492   2.456   1.212   5.634
 3865SOL     OW12493   4.073   1.110   0.797
 3865SOL    HW112494   4.146   1.046   0.771
 3865SOL    HW212495   3.991   1.092   0.743
 3866SOL     OW12496   4.081   0.378   0.237
 3866SOL    HW112497   4.138   0.296   0.238
 3866SOL    HW212498   4.011   0.371   0.308
 3867SOL     OW12499   0.410   6.023   3.740
 3867SOL    HW112500   0.442   6.098   3.797
 3867SOL    HW212501   0.470   5.944   3.750
 3868SOL     OW12502   2.980   0.578   0.296
 3868SOL    HW112503   2.892   0.540   0.268
 3868SOL    HW212504   3.009   0.535   0.381
 3869SOL     OW12505   6.001   3.392   4.380
 3869SOL    HW112506   5.988   3.462   4.309
 3869SOL    HW212507   6.008   3.302   4.337
 3870SOL     OW12508   6.549   6.713   0.273
 3870SOL    HW112509   6.612   6.769   0.327
 3870SOL    HW212510   6.454   6.740   0.293
 3871SOL     OW12511   4.084   1.200   3.157
 3871SOL    HW112512   4.094   1.151   3.070
 3871SOL    HW212513   4.168   1.251   3.176
 3872SOL     OW12514   3.731   2.932   3.914
 3872SOL    HW112515   3.691   2.841   3.900
 3872SOL    HW212516   3.710   2.963   4.007
 3873SOL     OW12517   6.469   4.085   1.688
 3873SOL    HW112518   6.431   4.177   1.703
 3873SOL    HW212519   6.553   4.093   1.634
 3874SOL     OW12520   4.956   6.055   6.756
 3874SOL    HW112521   4.946   6.029   6.852
 3874SOL    HW212522   4.908   6.141   6.740
 3875SOL     OW12523   2.163   3.131   2.487
 3875SOL    HW112524   2.149   3.108   2.391
 3875SOL    HW212525   2.184   3.228   2.496
 3876SOL     OW12526   3.805   5.690   1.066
 3876SOL    HW112527   3.817   5.642   1.153
 3876SOL    HW212528   3.854   5.640   0.994
 3877SOL     OW12529   5.782   2.577   0.642
 3877SOL    HW112530   5.849   2.540   0.705
 3877SOL    HW212531   5.733   2.652   0.686
 3878SOL     OW12532   3.744   6.523   4.516
 3878SOL    HW112533   3.730   6.610   4.563
 3878SOL    HW212534   3.684   6.518   4.436
 3879SOL     OW12535   5.858   5.171   1.067
 3879SOL    HW112536   5.952   5.141   1.054
 3879SOL    HW212537   5.842   5.254   1.013
 3880SOL     OW12538   5.921   5.046   4.450
 3880SOL    HW112539   5.841   5.057   4.390
 3880SOL    HW212540   5.902   5.085   4.539
 3881SOL     OW12541   1.485   3.103   1.940
 3881SOL    HW112542   1.529   3.050   2.012
 3881SOL    HW212543   1.471   3.197   1.971
 3882SOL     OW12544   1.246   1.101   5.734
 3882SOL    HW112545   1.193   1.168   5.785
 3882SOL    HW212546   1.215   1.009   5.760
 3883SOL     OW12547   4.660   1.014   2.704
 3883SOL    HW112548   4.701   0.943   2.646
 3883SOL    HW212549   4.699   1.103   2.681
 3884SOL     OW12550   1.075   5.523   2.418
 3884SOL    HW112551   1.139   5.486   2.351
 3884SOL    HW212552   1.125   5.556   2.498
 3885SOL     OW12553   5.611   6.326   2.751
 3885SOL    HW112554   5.528   6.362   2.793
 3885SOL    HW212555   5.595   6.232   2.720
 3886SOL     OW12556   5.924   5.185   5.032
 3886SOL    HW112557   5.998   5.130   4.994
 3886SOL    HW212558   5.837   5.141   5.015
 3887SOL     OW12559   0.375   0.665   6.715
 3887SOL    HW112560   0.446   0.602   6.749
 3887SOL    HW212561   0.287   0.641   6.756
 3888SOL     OW12562   6.757   0.395   4.861
 3888SOL    HW112563   6.712   0.484   4.856
 3888SOL    HW212564   6.692   0.323   4.837
 3889SOL     OW12565   0.218   4.017   0.339
 3889SOL    HW112566   0.120   4.013   0.320
 3889SOL    HW212567   0.259   4.095   0.292
 3890SOL     OW12568   5.989   5.594   3.668
 3890SOL    HW112569   6.069   5.652   3.683
 3890SOL    HW212570   5.964   5.597   3.571
 3891SOL     OW12571   6.148   4.624   4.463
 3891SOL    HW112572   6.070   4.623   4.401
 3891SOL    HW212573   6.152   4.712   4.510
 3892SOL     OW12574   6.941   2.391   1.855
 3892SOL    HW112575   6.966   2.297   1.880
 3892SOL    HW212576   6.921   2.395   1.757
 3893SOL     OW12577   4.390   4.893   0.206
 3893SOL    HW112578   4.363   4.932   0.118
 3893SOL    HW212579   4.310   4.853   0.251
 3894SOL     OW12580   3.691   1.736   0.810
 3894SOL    HW112581   3.725   1.656   0.858
 3894SOL    HW212582   3.625   1.708   0.739
 3895SOL     OW12583   1.502   0.772   4.959
 3895SOL    HW112584   1.487   0.863   4.996
 3895SOL    HW212585   1.538   0.712   5.031
 3896SOL     OW12586   6.805   0.490   6.130
 3896SOL    HW112587   6.707   0.509   6.123
 3896SOL    HW212588   6.835   0.505   6.224
 3897SOL     OW12589   3.428   5.570   2.896
 3897SOL    HW112590   3.420   5.662   2.935
 3897SOL    HW212591   3.375   5.565   2.812
 3898SOL     OW12592   2.854   3.826   5.059
 3898SOL    HW112593   2.940   3.877   5.066
 3898SOL    HW212594   2.787   3.865   5.122
 3899SOL     OW12595   5.635   6.929   5.052
 3899SOL    HW112596   5.682   6.872   5.120
 3899SOL    HW212597   5.608   7.015   5.095
 3900SOL     OW12598   5.094   3.640   3.768
 3900SOL    HW112599   5.048   3.668   3.684
 3900SOL    HW212600   5.140   3.552   3.753
 3901SOL     OW12601   2.946   0.441   5.885
 3901SOL    HW112602   2.961   0.494   5.801
 3901SOL    HW212603   2.865   0.475   5.933
 3902SOL     OW12604   5.453   3.470   1.972
 3902SOL    HW112605   5.532   3.432   1.924
 3902SOL    HW212606   5.484   3.517   2.054
 3903SOL     OW12607   3.680   5.950   6.666
 3903SOL    HW112608   3.627   5.935   6.582
 3903SOL    HW212609   3.645   6.031   6.713
 3904SOL     OW12610   2.246   1.317   4.972
 3904SOL    HW112611   2.306   1.383   5.018
 3904SOL    HW212612   2.219   1.246   5.037
 3905SOL     OW12613   0.232   0.331   6.360
 3905SOL    HW112614   0.166   0.324   6.286
 3905SOL    HW212615   0.237   0.426   6.391
 3906SOL     OW12616   4.494   4.894   6.359
 3906SOL    HW112617   4.445   4.862   6.440
 3906SOL    HW212618   4.436   4.882   6.278
 3907SOL     OW12619   5.594   6.971   4.778
 3907SOL    HW112620   5.534   0.030   4.754
 3907SOL    HW212621   5.598   6.962   4.878
 3908SOL     OW12622   1.189   2.030   0.911
 3908SOL    HW112623   1.116   1.964   0.928
 3908SOL    HW212624   1.272   2.002   0.959
 3909SOL     OW12625   0.371   4.976   5.484
 3909SOL    HW112626   0.421   4.892   5.460
 3909SOL    HW212627   0.282   4.976   5.440
 3910SOL     OW12628   3.781   3.615   1.846
 3910SOL    HW112629   3.767   3.521   1.879
 3910SOL    HW212630   3.698   3.646   1.799
 3911SOL     OW12631   4.792   1.063   0.050
 3911SOL    HW112632   4.692   1.057   0.056
 3911SOL    HW212633   4.822   1.149   0.091
 3912SOL     OW12634   4.248   6.972   5.860
 3912SOL    HW112635   4.251   0.034   5.798
 3912SOL    HW212636   4.187   6.992   5.936
 3913SOL     OW12637   2.127   6.947   5.976
 3913SOL    HW112638   2.097   0.016   6.017
 3913SOL    HW212639   2.146   6.961   5.879
 3914SOL     OW12640   3.946   1.155   0.509
 3914SOL    HW112641   4.038   1.195   0.521
 3914SOL    HW212642   3.953   1.070   0.457
 3915SOL     OW12643   3.608   5.684   2.582
 3915SOL    HW112644   3.607   5.773   2.628
 3915SOL    HW212645   3.514   5.658   2.559
 3916SOL     OW12646   1.680   5.839   4.123
 3916SOL    HW112647   1.587   5.860   4.093
 3916SOL    HW212648   1.677   5.773   4.197
 3917SOL     OW12649   0.901   5.022   6.766
 3917SOL    HW112650   0.867   4.928   6.767
 3917SOL    HW212651   0.989   5.024   6.720
 3918SOL     OW12652   4.512   0.003   2.659
 3918SOL    HW112653   4.608   0.007   2.632
 3918SOL    HW212654   4.454   0.024   2.580
 3919SOL     OW12655   2.258   5.767   6.260
 3919SOL    HW112656   2.269   5.670   6.237
 3919SOL    HW212657   2.285   5.823   6.183
 3920SOL     OW12658   2.735   2.902   0.477
 3920SOL    HW112659   2.643   2.937   0.463
 3920SOL    HW212660   2.790   2.918   0.396
 3921SOL     OW12661   6.814   3.274   1.175
 3921SOL    HW112662   6.804   3.348   1.108
 3921SOL    HW212663   6.870   3.202   1.135
 3922SOL     OW12664   6.104   4.235   1.845
 3922SOL    HW112665   6.103   4.140   1.815
 3922SOL    HW212666   6.070   4.241   1.939
 3923SOL     OW12667   6.921   1.836   6.934
 3923SOL    HW112668   6.992   1.770   6.959
 3923SOL    HW212669   6.844   1.829   6.997
 3924SOL     OW12670   1.065   5.258   2.982
 3924SOL    HW112671   1.023   5.283   2.895
 3924SOL    HW212672   0.995   5.258   3.053
 3925SOL     OW12673   3.837   4.799   0.676
 3925SOL    HW112674   3.743   4.774   0.654
 3925SOL    HW212675   3.836   4.880   0.735
 3926SOL     OW12676   6.543   5.538   3.174
 3926SOL    HW112677   6.528   5.464   3.107
 3926SOL    HW212678   6.482   5.525   3.252
 3927SOL     OW12679   6.518   3.314   3.468
 3927SOL    HW112680   6.504   3.300   3.370
 3927SOL    HW212681   6.613   3.341   3.484
 3928SOL     OW12682   2.832   5.903   6.209
 3928SOL    HW112683   2.852   5.955   6.126
 3928SOL    HW212684   2.739   5.922   6.240
 3929SOL     OW12685   0.594   1.967   6.028
 3929SOL    HW112686   0.574   1.902   5.955
 3929SOL    HW212687   0.687   1.951   6.062
 3930SOL     OW12688   2.413   1.560   4.083
 3930SOL    HW112689   2.479   1.634   4.089
 3930SOL    HW212690   2.373   1.543   4.173
 3931SOL     OW12691   1.810   2.067   2.531
 3931SOL    HW112692   1.894   2.093   2.483
 3931SOL    HW212693   1.731   2.088   2.475
 3932SOL     OW12694   1.917   3.889   2.812
 3932SOL    HW112695   1.861   3.838   2.747
 3932SOL    HW212696   1.879   3.879   2.904
 3933SOL     OW12697   1.680   6.668   0.139
 3933SOL    HW112698   1.603   6.718   0.178
 3933SOL    HW212699   1.720   6.720   0.064
 3934SOL     OW12700   6.905   0.694   0.977
 3934SOL    HW112701   6.957   0.649   1.049
 3934SOL    HW212702   6.889   0.631   0.902
 3935SOL     OW12703   2.276   6.969   0.203
 3935SOL    HW112704   2.366   6.935   0.175
 3935SOL    HW212705   2.287   0.037   0.254
 3936SOL     OW12706   6.884   5.291   5.627
 3936SOL    HW112707   6.804   5.277   5.684
 3936SOL    HW212708   6.927   5.203   5.607
 3937SOL     OW12709   6.947   0.292   1.886
 3937SOL    HW112710   6.895   0.209   1.863
 3937SOL    HW212711   6.888   0.354   1.937
 3938SOL     OW12712   0.153   1.965   3.537
 3938SOL    HW112713   0.152   1.867   3.517
 3938SOL    HW212714   0.226   2.008   3.484
 3939SOL     OW12715   2.562   1.942   1.638
 3939SOL    HW112716   2.578   2.040   1.648
 3939SOL    HW212717   2.474   1.918   1.679
 3940SOL     OW12718   4.217   5.352   2.404
 3940SOL    HW112719   4.235   5.329   2.499
 3940SOL    HW212720   4.132   5.404   2.397
 3941SOL     OW12721   5.090   1.739   6.373
 3941SOL    HW112722   5.121   1.813   6.314
 3941SOL    HW212723   5.075   1.657   6.318
 3942SOL     OW12724   0.515   0.654   6.098
 3942SOL    HW112725   0.449   0.679   6.027
 3942SOL    HW212726   0.503   0.558   6.123
 3943SOL     OW12727   1.068   3.869   2.627
 3943SOL    HW112728   1.045   3.951   2.573
 3943SOL    HW212729   1.122   3.896   2.707
 3944SOL     OW12730   5.705   3.049   5.454
 3944SOL    HW112731   5.610   3.023   5.472
 3944SOL    HW212732   5.758   3.047   5.538
 3945SOL     OW12733   0.805   2.353   1.986
 3945SOL    HW112734   0.864   2.423   2.026
 3945SOL    HW212735   0.855   2.302   1.916
 3946SOL     OW12736   5.475   5.697   5.799
 3946SOL    HW112737   5.442   5.606   5.775
 3946SOL    HW212738   5.407   5.765   5.771
 3947SOL     OW12739   6.305   5.469   1.309
 3947SOL    HW112740   6.376   5.431   1.250
 3947SOL    HW212741   6.227   5.407   1.311
 3948SOL     OW12742   1.025   5.481   1.701
 3948SOL    HW112743   0.993   5.387   1.711
 3948SOL    HW212744   0.974   5.541   1.763
 3949SOL     OW12745   6.288   0.519   3.144
 3949SOL    HW112746   6.276   0.613   3.176
 3949SOL    HW212747   6.290   0.517   3.044
 3950SOL     OW12748   2.925   4.161   1.758
 3950SOL    HW112749   2.848   4.099   1.742
 3950SOL    HW212750   2.891   4.244   1.802
 3951SOL     OW12751   6.913   6.832   1.253
 3951SOL    HW112752   6.845   6.876   1.194
 3951SOL    HW212753   7.003   6.837   1.209
 3952SOL     OW12754   6.430   3.819   2.777
 3952SOL    HW112755   6.429   3.719   2.780
 3952SOL    HW212756   6.477   3.854   2.858
 3953SOL     OW12757   3.952   4.159   0.511
 3953SOL    HW112758   3.860   4.135   0.480
 3953SOL    HW212759   3.986   4.087   0.571
 3954SOL     OW12760   5.628   5.560   5.094
 3954SOL    HW112761   5.546   5.609   5.121
 3954SOL    HW212762   5.707   5.597   5.143
 3955SOL     OW12763   3.090   5.471   5.988
 3955SOL    HW112764   3.025   5.536   6.029
 3955SOL    HW212765   3.183   5.497   6.014
 3956SOL     OW12766   0.243   0.892   2.691
 3956SOL    HW112767   0.230   0.960   2.620
 3956SOL    HW212768   0.304   0.820   2.657
 3957SOL     OW12769   4.744   6.598   3.687
 3957SOL    HW112770   4.703   6.575   3.599
 3957SOL    HW212771   4.681   6.654   3.740
 3958SOL     OW12772   5.655   0.803   6.242
 3958SOL    HW112773   5.632   0.846   6.155
 3958SOL    HW212774   5.631   0.865   6.317
 3959SOL     OW12775   3.881   5.915   1.197
 3959SOL    HW112776   3.856   5.854   1.121
 3959SOL    HW212777   3.898   6.007   1.162
 3960SOL     OW12778   4.192   1.434   6.661
 3960SOL    HW112779   4.120   1.396   6.602
 3960SOL    HW212780   4.180   1.399   6.754
 3961SOL     OW12781   6.151   2.301   1.888
 3961SOL    HW112782   6.096   2.218   1.895
 3961SOL    HW212783   6.241   2.278   1.851
 3962SOL     OW12784   2.679   4.721   6.865
 3962SOL    HW112785   2.731   4.806   6.875
 3962SOL    HW212786   2.678   4.672   6.952
 3963SOL     OW12787   4.690   4.406   4.451
 3963SOL    HW112788   4.703   4.494   4.405
 3963SOL    HW212789   4.779   4.369   4.479
 3964SOL     OW12790   3.960   4.790   3.650
 3964SOL    HW112791   3.971   4.776   3.748
 3964SOL    HW212792   4.048   4.773   3.604
 3965SOL     OW12793   4.646   3.245   6.039
 3965SOL    HW112794   4.601   3.331   6.015
 3965SOL    HW212795   4.578   3.182   6.076
 3966SOL     OW12796   5.512   5.879   1.088
 3966SOL    HW112797   5.515   5.971   1.048
 3966SOL    HW212798   5.417   5.852   1.105
 3967SOL     OW12799   1.516   4.060   2.348
 3967SOL    HW112800   1.565   4.146   2.357
 3967SOL    HW212801   1.482   4.050   2.255
 3968SOL     OW12802   5.204   0.214   1.062
 3968SOL    HW112803   5.292   0.209   1.109
 3968SOL    HW212804   5.209   0.162   0.976
 3969SOL     OW12805   1.730   3.698   2.677
 3969SOL    HW112806   1.657   3.630   2.679
 3969SOL    HW212807   1.705   3.773   2.616
 3970SOL     OW12808   5.558   5.902   3.824
 3970SOL    HW112809   5.627   5.859   3.883
 3970SOL    HW212810   5.601   5.928   3.737
 3971SOL     OW12811   2.407   5.197   1.666
 3971SOL    HW112812   2.413   5.142   1.750
 3971SOL    HW212813   2.406   5.294   1.690
 3972SOL     OW12814   1.106   5.393   0.711
 3972SOL    HW112815   1.118   5.308   0.659
 3972SOL    HW212816   1.160   5.466   0.668
 3973SOL     OW12817   0.871   4.564   5.887
 3973SOL    HW112818   0.932   4.485   5.895
 3973SOL    HW212819   0.914   4.633   5.828
 3974SOL     OW12820   1.155   1.234   4.471
 3974SOL    HW112821   1.075   1.228   4.412
 3974SOL    HW212822   1.128   1.214   4.565
 3975SOL     OW12823   5.349   0.652   5.934
 3975SOL    HW112824   5.436   0.606   5.955
 3975SOL    HW212825   5.322   0.708   6.012
 3976SOL     OW12826   1.134   6.007   1.927
 3976SOL    HW112827   1.166   6.076   1.862
 3976SOL    HW212828   1.190   5.925   1.918
 3977SOL     OW12829   2.834   4.303   5.548
 3977SOL    HW112830   2.761   4.371   5.539
 3977SOL    HW212831   2.910   4.343   5.599
 3978SOL     OW12832   5.783   6.519   4.938
 3978SOL    HW112833   5.819   6.606   4.904
 3978SOL    HW212834   5.855   6.450   4.934
 3979SOL     OW12835   3.119   5.821   0.774
 3979SOL    HW112836   3.084   5.896   0.717
 3979SOL    HW212837   3.114   5.848   0.870
 3980SOL     OW12838   0.650   5.610   6.998
 3980SOL    HW112839   0.631   5.596   0.078
 3980SOL    HW212840   0.590   5.552   6.944
 3981SOL     OW12841   2.062   1.465   0.556
 3981SOL    HW112842   2.052   1.419   0.644
 3981SOL    HW212843   2.079   1.563   0.572
 3982SOL     OW12844   2.154   0.440   4.353
 3982SOL    HW112845   2.120   0.396   4.269
 3982SOL    HW212846   2.121   0.389   4.433
 3983SOL     OW12847   5.110   5.441   4.740
 3983SOL    HW112848   5.147   5.429   4.832
 3983SOL    HW212849   5.099   5.352   4.697
 3984SOL     OW12850   6.868   0.998   2.460
 3984SOL    HW112851   6.863   1.050   2.545
 3984SOL    HW212852   6.819   1.047   2.387
 3985SOL     OW12853   3.386   4.589   6.317
 3985SOL    HW112854   3.327   4.553   6.245
 3985SOL    HW212855   3.390   4.689   6.311
 3986SOL     OW12856   6.521   1.581   3.247
 3986SOL    HW112857   6.558   1.500   3.292
 3986SOL    HW212858   6.429   1.600   3.282
 3987SOL     OW12859   2.829   5.331   4.010
 3987SOL    HW112860   2.851   5.328   4.108
 3987SOL    HW212861   2.869   5.251   3.965
 3988SOL     OW12862   3.962   3.492   6.861
 3988SOL    HW112863   3.863   3.481   6.865
 3988SOL    HW212864   3.986   3.567   6.800
 3989SOL     OW12865   6.713   2.569   0.013
 3989SOL    HW112866   6.686   2.475   7.008
 3989SOL    HW212867   6.667   2.598   0.097
 3990SOL     OW12868   5.355   2.217   2.987
 3990SOL    HW112869   5.256   2.220   3.002
 3990SOL    HW212870   5.386   2.303   2.948
 3991SOL     OW12871   5.988   0.848   2.117
 3991SOL    HW112872   5.989   0.748   2.108
 3991SOL    HW212873   5.955   0.889   2.032
 3992SOL     OW12874   3.472   2.398   6.913
 3992SOL    HW112875   3.530   2.437   6.984
 3992SOL    HW212876   3.529   2.367   6.836
 3993SOL     OW12877   1.251   1.755   2.839
 3993SOL    HW112878   1.309   1.835   2.856
 3993SOL    HW212879   1.243   1.701   2.923
 3994SOL     OW12880   0.532   1.222   6.430
 3994SOL    HW112881   0.440   1.184   6.443
 3994SOL    HW212882   0.526   1.308   6.378
 3995SOL     OW12883   1.947   3.971   4.923
 3995SOL    HW112884   2.009   3.894   4.906
 3995SOL    HW212885   1.934   3.983   5.021
 3996SOL     OW12886   1.045   0.968   4.182
 3996SOL    HW112887   1.063   0.984   4.085
 3996SOL    HW212888   1.131   0.952   4.230
 3997SOL     OW12889   4.857   1.346   3.593
 3997SOL    HW112890   4.892   1.361   3.686
 3997SOL    HW212891   4.903   1.268   3.552
 3998SOL     OW12892   4.528   1.159   3.105
 3998SOL    HW112893   4.454   1.222   3.128
 3998SOL    HW212894   4.616   1.205   3.117
 3999SOL     OW12895   5.825   3.586   3.830
 3999SOL    HW112896   5.766   3.528   3.886
 3999SOL    HW212897   5.878   3.528   3.767
 4000SOL     OW12898   3.047   5.583   3.200
 4000SOL    HW112899   3.112   5.655   3.177
 4000SOL    HW212900   2.963   5.624   3.237
 4001SOL     OW12901   2.773   2.316   3.995
 4001SOL    HW112902   2.795   2.324   4.092
 4001SOL    HW212903   2.720   2.395   3.966
 4002SOL     OW12904   2.209   2.954   1.015
 4002SOL    HW112905   2.233   2.862   1.047
 4002SOL    HW212906   2.123   2.983   1.057
 4003SOL     OW12907   3.366   5.878   4.506
 4003SOL    HW112908   3.330   5.857   4.415
 4003SOL    HW212909   3.290   5.903   4.567
 4004SOL     OW12910   5.513   2.130   3.760
 4004SOL    HW112911   5.445   2.102   3.693
 4004SOL    HW212912   5.482   2.212   3.807
 4005SOL     OW12913   4.919   6.072   0.727
 4005SOL    HW112914   4.859   6.012   0.674
 4005SOL    HW212915   5.003   6.088   0.675
 4006SOL     OW12916   3.572   5.588   3.389
 4006SOL    HW112917   3.660   5.636   3.383
 4006SOL    HW212918   3.499   5.655   3.404
 4007SOL     OW12919   0.818   2.328   1.432
 4007SOL    HW112920   0.879   2.292   1.503
 4007SOL    HW212921   0.731   2.280   1.436
 4008SOL     OW12922   3.496   1.781   3.751
 4008SOL    HW112923   3.539   1.691   3.741
 4008SOL    HW212924   3.408   1.771   3.796
 4009SOL     OW12925   5.638   3.375   1.072
 4009SOL    HW112926   5.637   3.418   1.162
 4009SOL    HW212927   5.557   3.402   1.021
 4010SOL     OW12928   2.316   2.630   1.942
 4010SOL    HW112929   2.255   2.706   1.964
 4010SOL    HW212930   2.267   2.544   1.951
 4011SOL     OW12931   0.260   0.811   1.948
 4011SOL    HW112932   0.174   0.808   1.897
 4011SOL    HW212933   0.310   0.894   1.924
 4012SOL     OW12934   4.019   5.708   1.502
 4012SOL    HW112935   3.964   5.659   1.434
 4012SOL    HW212936   3.962   5.730   1.581
 4013SOL     OW12937   2.852   6.906   6.942
 4013SOL    HW112938   2.904   6.876   6.863
 4013SOL    HW212939   2.900   6.879   0.009
 4014SOL     OW12940   4.104   6.109   3.388
 4014SOL    HW112941   4.158   6.081   3.468
 4014SOL    HW212942   4.154   6.180   3.338
 4015SOL     OW12943   4.983   4.928   6.378
 4015SOL    HW112944   5.029   4.972   6.301
 4015SOL    HW212945   4.893   4.970   6.392
 4016SOL     OW12946   2.412   5.939   6.856
 4016SOL    HW112947   2.338   5.898   6.909
 4016SOL    HW212948   2.378   6.021   6.810
 4017SOL     OW12949   0.230   6.150   0.845
 4017SOL    HW112950   0.141   6.185   0.815
 4017SOL    HW212951   0.219   6.099   0.930
 4018SOL     OW12952   4.952   5.889   3.515
 4018SOL    HW112953   5.042   5.878   3.556
 4018SOL    HW212954   4.954   5.965   3.449
 4019SOL     OW12955   5.859   3.958   3.188
 4019SOL    HW112956   5.847   3.927   3.282
 4019SOL    HW212957   5.954   3.984   3.174
 4020SOL     OW12958   5.375   2.134   5.893
 4020SOL    HW112959   5.325   2.218   5.871
 4020SOL    HW212960   5.354   2.064   5.824
 4021SOL     OW12961   3.907   3.737   6.269
 4021SOL    HW112962   3.856   3.823   6.280
 4021SOL    HW212963   3.890   3.700   6.178
 4022SOL     OW12964   4.086   0.027   6.881
 4022SOL    HW112965   4.020   0.102   6.894
 4022SOL    HW212966   4.171   0.049   6.929
 4023SOL     OW12967   6.001   2.283   4.837
 4023SOL    HW112968   5.958   2.366   4.802
 4023SOL    HW212969   6.090   2.270   4.793
 4024SOL     OW12970   3.884   6.586   3.850
 4024SOL    HW112971   3.925   6.597   3.759
 4024SOL    HW212972   3.877   6.489   3.872
 4025SOL     OW12973   1.095   5.914   4.048
 4025SOL    HW112974   1.052   5.829   4.021
 4025SOL    HW212975   1.179   5.894   4.099
 4026SOL     OW12976   6.274   5.768   4.503
 4026SOL    HW112977   6.253   5.826   4.424
 4026SOL    HW212978   6.312   5.681   4.472
 4027SOL     OW12979   3.802   4.097   1.816
 4027SOL    HW112980   3.761   4.067   1.730
 4027SOL    HW212981   3.765   4.044   1.892
 4028SOL     OW12982   1.112   2.373   3.993
 4028SOL    HW112983   1.126   2.466   3.959
 4028SOL    HW212984   1.055   2.323   3.928
 4029SOL     OW12985   1.431   4.300   6.396
 4029SOL    HW112986   1.348   4.261   6.435
 4029SOL    HW212987   1.422   4.306   6.297
 4030SOL     OW12988   1.588   2.054   6.224
 4030SOL    HW112989   1.661   2.025   6.285
 4030SOL    HW212990   1.628   2.092   6.141
 4031SOL     OW12991   4.586   6.094   2.884
 4031SOL    HW112992   4.588   6.193   2.899
 4031SOL    HW212993   4.622   6.073   2.793
 4032SOL     OW12994   6.078   0.239   2.949
 4032SOL    HW112995   5.988   0.215   2.985
 4032SOL    HW212996   6.148   0.218   3.018
 4033SOL     OW12997   3.618   2.973   3.146
 4033SOL    HW112998   3.523   2.945   3.132
 4033SOL    HW212999   3.637   2.979   3.244
 4034SOL     OW13000   5.494   1.938   5.444
 4034SOL    HW113001   5.521   2.016   5.387
 4034SOL    HW213002   5.398   1.916   5.426
 4035SOL     OW13003   6.496   4.372   1.377
 4035SOL    HW113004   6.423   4.363   1.310
 4035SOL    HW213005   6.584   4.355   1.333
 4036SOL     OW13006   5.235   6.428   3.132
 4036SOL    HW113007   5.240   6.394   3.226
 4036SOL    HW213008   5.310   6.492   3.116
 4037SOL     OW13009   1.535   2.473   0.683
 4037SOL    HW113010   1.634   2.462   0.683
 4037SOL    HW213011   1.499   2.457   0.591
 4038SOL     OW13012   4.785   4.970   2.422
 4038SOL    HW113013   4.752   5.034   2.492
 4038SOL    HW213014   4.719   4.965   2.347
 4039SOL     OW13015   5.261   5.249   1.393
 4039SOL    HW113016   5.228   5.174   1.336
 4039SOL    HW213017   5.184   5.304   1.425
 4040SOL     OW13018   2.694   6.493   0.218
 4040SOL    HW113019   2.783   6.539   0.215
 4040SOL    HW213020   2.626   6.555   0.258
 4041SOL     OW13021   1.786   5.559   2.162
 4041SOL    HW113022   1.698   5.517   2.141
 4041SOL    HW213023   1.839   5.569   2.079
 4042SOL     OW13024   6.348   4.508   2.553
 4042SOL    HW113025   6.353   4.501   2.453
 4042SOL    HW213026   6.439   4.528   2.589
 4043SOL     OW13027   5.674   2.353   4.052
 4043SOL    HW113028   5.591   2.377   4.001
 4043SOL    HW213029   5.656   2.273   4.109
 4044SOL     OW13030   5.412   0.854   4.839
 4044SOL    HW113031   5.436   0.949   4.819
 4044SOL    HW213032   5.324   0.850   4.887
 4045SOL     OW13033   2.874   4.247   6.313
 4045SOL    HW113034   2.816   4.308   6.366
 4045SOL    HW213035   2.841   4.153   6.322
 4046SOL     OW13036   0.940   2.033   3.352
 4046SOL    HW113037   0.904   2.127   3.353
 4046SOL    HW213038   1.038   2.035   3.375
 4047SOL     OW13039   2.136   3.045   0.684
 4047SOL    HW113040   2.209   3.005   0.627
 4047SOL    HW213041   2.177   3.099   0.757
 4048SOL     OW13042   5.925   0.970   1.874
 4048SOL    HW113043   5.898   1.048   1.817
 4048SOL    HW213044   5.949   0.893   1.815
 4049SOL     OW13045   6.306   6.054   6.629
 4049SOL    HW113046   6.401   6.026   6.640
 4049SOL    HW213047   6.298   6.117   6.551
 4050SOL     OW13048   0.867   6.868   0.179
 4050SOL    HW113049   0.842   6.796   0.244
 4050SOL    HW213050   0.861   6.833   0.086
 4051SOL     OW13051   2.908   3.693   0.079
 4051SOL    HW113052   2.967   3.743   0.016
 4051SOL    HW213053   2.825   3.665   0.031
 4052SOL     OW13054   0.988   6.891   1.161
 4052SOL    HW113055   0.960   6.926   1.072
 4052SOL    HW213056   1.058   6.952   1.200
 4053SOL     OW13057   3.280   4.989   3.751
 4053SOL    HW113058   3.317   4.974   3.842
 4053SOL    HW213059   3.286   5.087   3.728
 4054SOL     OW13060   1.988   3.281   0.539
 4054SOL    HW113061   2.054   3.207   0.533
 4054SOL    HW213062   2.019   3.358   0.484
 4055SOL     OW13063   2.585   3.214   5.610
 4055SOL    HW113064   2.634   3.157   5.543
 4055SOL    HW213065   2.486   3.202   5.598
 4056SOL     OW13066   4.434   3.091   6.403
 4056SOL    HW113067   4.363   3.069   6.469
 4056SOL    HW213068   4.522   3.055   6.434
 4057SOL     OW13069   4.834   3.268   0.391
 4057SOL    HW113070   4.883   3.229   0.313
 4057SOL    HW213071   4.825   3.367   0.379
 4058SOL     OW13072   1.446   1.284   4.488
 4058SOL    HW113073   1.428   1.382   4.495
 4058SOL    HW213074   1.362   1.233   4.506
 4059SOL     OW13075   2.469   2.107   3.340
 4059SOL    HW113076   2.483   2.182   3.275
 4059SOL    HW213077   2.389   2.127   3.396
 4060SOL     OW13078   3.729   4.928   5.103
 4060SOL    HW113079   3.793   4.969   5.038
 4060SOL    HW213080   3.635   4.942   5.071
 4061SOL     OW13081   3.430   4.409   1.647
 4061SOL    HW113082   3.387   4.327   1.686
 4061SOL    HW213083   3.523   4.418   1.681
 4062SOL     OW13084   4.171   1.571   3.191
 4062SOL    HW113085   4.116   1.602   3.114
 4062SOL    HW213086   4.229   1.646   3.223
 4063SOL     OW13087   4.348   6.091   5.622
 4063SOL    HW113088   4.272   6.041   5.583
 4063SOL    HW213089   4.315   6.176   5.664
 4064SOL     OW13090   2.148   6.607   2.803
 4064SOL    HW113091   2.217   6.661   2.755
 4064SOL    HW213092   2.057   6.632   2.771
 4065SOL     OW13093   1.122   0.226   0.312
 4065SOL    HW113094   1.099   0.140   0.357
 4065SOL    HW213095   1.056   0.296   0.340
 4066SOL     OW13096   5.482   4.628   2.341
 4066SOL    HW113097   5.503   4.638   2.244
 4066SOL    HW213098   5.415   4.697   2.369
 4067SOL     OW13099   5.866   2.085   2.642
 4067SOL    HW113100   5.849   2.139   2.560
 4067SOL    HW213101   5.837   2.137   2.722
 4068SOL     OW13102   4.844   0.074   4.567
 4068SOL    HW113103   4.834   0.094   4.469
 4068SOL    HW213104   4.763   0.104   4.616
 4069SOL     OW13105   4.432   3.383   0.060
 4069SOL    HW113106   4.339   3.414   0.044
 4069SOL    HW213107   4.470   3.430   0.140
 4070SOL     OW13108   1.912   3.323   2.808
 4070SOL    HW113109   1.946   3.359   2.895
 4070SOL    HW213110   1.961   3.239   2.785
 4071SOL     OW13111   1.730   1.401   4.808
 4071SOL    HW113112   1.760   1.339   4.881
 4071SOL    HW213113   1.797   1.398   4.733
 4072SOL     OW13114   1.935   6.830   4.254
 4072SOL    HW113115   1.942   6.731   4.239
 4072SOL    HW213116   1.918   6.849   4.350
 4073SOL     OW13117   2.233   5.472   5.865
 4073SOL    HW113118   2.156   5.526   5.898
 4073SOL    HW213119   2.240   5.387   5.918
 4074SOL     OW13120   0.685   3.347   1.742
 4074SOL    HW113121   0.636   3.269   1.702
 4074SOL    HW213122   0.685   3.423   1.677
 4075SOL     OW13123   4.992   2.008   2.862
 4075SOL    HW113124   5.039   1.930   2.820
 4075SOL    HW213125   4.897   2.011   2.831
 4076SOL     OW13126   2.492   4.140   5.388
 4076SOL    HW113127   2.583   4.099   5.398
 4076SOL    HW213128   2.443   4.095   5.314
 4077SOL     OW13129   2.760   6.107   0.916
 4077SOL    HW113130   2.724   6.014   0.923
 4077SOL    HW213131   2.747   6.141   0.823
 4078SOL     OW13132   5.715   5.369   2.053
 4078SOL    HW113133   5.727   5.457   2.099
 4078SOL    HW213134   5.694   5.299   2.121
 4079SOL     OW13135   1.659   0.456   3.444
 4079SOL    HW113136   1.734   0.512   3.479
 4079SOL    HW213137   1.695   0.390   3.378
 4080SOL     OW13138   3.026   3.816   6.888
 4080SOL    HW113139   2.941   3.806   6.836
 4080SOL    HW213140   3.100   3.767   6.842
 4081SOL     OW13141   2.013   0.872   4.525
 4081SOL    HW113142   2.100   0.873   4.477
 4081SOL    HW213143   2.018   0.810   4.603
 4082SOL     OW13144   1.676   1.712   6.631
 4082SOL    HW113145   1.588   1.673   6.658
 4082SOL    HW213146   1.740   1.639   6.607
 4083SOL     OW13147   5.925   4.408   3.792
 4083SOL    HW113148   5.954   4.359   3.710
 4083SOL    HW213149   5.844   4.463   3.771
 4084SOL     OW13150   4.893   2.889   3.188
 4084SOL    HW113151   4.850   2.853   3.270
 4084SOL    HW213152   4.906   2.987   3.197
 4085SOL     OW13153   2.717   5.176   1.006
 4085SOL    HW113154   2.692   5.257   1.058
 4085SOL    HW213155   2.816   5.161   1.013
 4086SOL     OW13156   0.075   5.048   0.126
 4086SOL    HW113157   0.130   4.973   0.089
 4086SOL    HW213158   0.072   5.041   0.225
 4087SOL     OW13159   2.770   0.930   2.618
 4087SOL    HW113160   2.862   0.893   2.629
 4087SOL    HW213161   2.703   0.858   2.632
 4088SOL     OW13162   6.461   1.131   5.734
 4088SOL    HW113163   6.373   1.121   5.688
 4088SOL    HW213164   6.446   1.166   5.827
 4089SOL     OW13165   0.366   5.449   4.494
 4089SOL    HW113166   0.269   5.473   4.496
 4089SOL    HW213167   0.376   5.350   4.484
 4090SOL     OW13168   1.754   6.201   5.232
 4090SOL    HW113169   1.752   6.111   5.274
 4090SOL    HW213170   1.835   6.251   5.264
 4091SOL     OW13171   1.162   5.257   0.182
 4091SOL    HW113172   1.177   5.194   0.106
 4091SOL    HW213173   1.250   5.287   0.218
 4092SOL     OW13174   4.886   3.271   4.793
 4092SOL    HW113175   4.923   3.329   4.865
 4092SOL    HW213176   4.830   3.198   4.834
 4093SOL     OW13177   5.658   5.978   1.903
 4093SOL    HW113178   5.683   6.047   1.971
 4093SOL    HW213179   5.725   5.904   1.903
 4094SOL     OW13180   1.046   4.747   6.526
 4094SOL    HW113181   1.080   4.841   6.533
 4094SOL    HW213182   0.994   4.725   6.608
 4095SOL     OW13183   0.705   3.364   0.324
 4095SOL    HW113184   0.720   3.416   0.409
 4095SOL    HW213185   0.608   3.339   0.317
 4096SOL     OW13186   2.212   1.193   6.174
 4096SOL    HW113187   2.259   1.261   6.230
 4096SOL    HW213188   2.174   1.237   6.093
 4097SOL     OW13189   6.107   4.438   5.401
 4097SOL    HW113190   6.103   4.398   5.492
 4097SOL    HW213191   6.193   4.414   5.357
 4098SOL     OW13192   2.067   2.896   1.579
 4098SOL    HW113193   1.995   2.931   1.639
 4098SOL    HW213194   2.151   2.949   1.593
 4099SOL     OW13195   3.756   4.942   0.094
 4099SOL    HW113196   3.717   4.981   0.010
 4099SOL    HW213197   3.832   5.000   0.124
 4100SOL     OW13198   0.983   0.721   3.763
 4100SOL    HW113199   0.980   0.631   3.719
 4100SOL    HW213200   1.030   0.713   3.851
 4101SOL     OW13201   6.717   0.963   6.366
 4101SOL    HW113202   6.742   0.895   6.296
 4101SOL    HW213203   6.791   0.971   6.432
 4102SOL     OW13204   1.962   0.719   0.728
 4102SOL    HW113205   2.025   0.642   0.733
 4102SOL    HW213206   1.902   0.708   0.650
 4103SOL     OW13207   6.972   0.220   2.244
 4103SOL    HW113208   6.955   0.189   2.338
 4103SOL    HW213209   0.005   0.307   2.247
 4104SOL     OW13210   0.336   5.185   3.167
 4104SOL    HW113211   0.242   5.214   3.186
 4104SOL    HW213212   0.365   5.223   3.078
 4105SOL     OW13213   4.970   1.233   1.938
 4105SOL    HW113214   4.957   1.332   1.939
 4105SOL    HW213215   4.887   1.188   1.904
 4106SOL     OW13216   0.067   2.263   3.879
 4106SOL    HW113217   7.000   2.243   3.929
 4106SOL    HW213218   0.134   2.305   3.941
 4107SOL     OW13219   0.476   6.142   6.558
 4107SOL    HW113220   0.513   6.085   6.631
 4107SOL    HW213221   0.543   6.151   6.485
 4108SOL     OW13222   0.852   5.629   4.138
 4108SOL    HW113223   0.858   5.685   4.055
 4108SOL    HW213224   0.880   5.684   4.217
 4109SOL     OW13225   5.730   5.964   3.604
 4109SOL    HW113226   5.797   5.906   3.650
 4109SOL    HW213227   5.716   5.932   3.511
 4110SOL     OW13228   3.957   3.007   6.497
 4110SOL    HW113229   3.961   3.104   6.471
 4110SOL    HW213230   3.996   2.951   6.424
 4111SOL     OW13231   5.696   5.037   6.202
 4111SOL    HW113232   5.642   5.111   6.243
 4111SOL    HW213233   5.673   4.951   6.248
 4112SOL     OW13234   5.291   6.847   4.784
 4112SOL    HW113235   5.356   6.922   4.778
 4112SOL    HW213236   5.207   6.872   4.736
 4113SOL     OW13237   4.292   5.312   5.010
 4113SOL    HW113238   4.313   5.222   4.972
 4113SOL    HW213239   4.370   5.373   4.997
 4114SOL     OW13240   6.006   1.264   3.379
 4114SOL    HW113241   6.104   1.266   3.397
 4114SOL    HW213242   5.986   1.312   3.294
 4115SOL     OW13243   2.420   4.827   3.445
 4115SOL    HW113244   2.438   4.804   3.541
 4115SOL    HW213245   2.489   4.892   3.413
 4116SOL     OW13246   5.218   2.718   3.640
 4116SOL    HW113247   5.212   2.618   3.645
 4116SOL    HW213248   5.247   2.745   3.549
 4117SOL     OW13249   1.414   1.970   2.902
 4117SOL    HW113250   1.421   2.060   2.861
 4117SOL    HW213251   1.505   1.930   2.912
 4118SOL     OW13252   6.457   6.774   6.151
 4118SOL    HW113253   6.402   6.779   6.068
 4118SOL    HW213254   6.425   6.842   6.217
 4119SOL     OW13255   3.156   0.622   3.255
 4119SOL    HW113256   3.168   0.689   3.329
 4119SOL    HW213257   3.240   0.618   3.200
 4120SOL     OW13258   4.183   1.650   6.277
 4120SOL    HW113259   4.261   1.659   6.215
 4120SOL    HW213260   4.098   1.654   6.224
 4121SOL     OW13261   6.627   6.681   2.166
 4121SOL    HW113262   6.698   6.697   2.235
 4121SOL    HW213263   6.601   6.584   2.169
 4122SOL     OW13264   0.824   6.329   4.823
 4122SOL    HW113265   0.902   6.368   4.774
 4122SOL    HW213266   0.747   6.317   4.760
 4123SOL     OW13267   4.373   5.479   4.574
 4123SOL    HW113268   4.344   5.391   4.613
 4123SOL    HW213269   4.299   5.545   4.581
 4124SOL     OW13270   6.669   6.602   1.115
 4124SOL    HW113271   6.600   6.532   1.093
 4124SOL    HW213272   6.646   6.644   1.203
 4125SOL     OW13273   4.678   2.761   2.692
 4125SOL    HW113274   4.666   2.790   2.787
 4125SOL    HW213275   4.767   2.716   2.681
 4126SOL     OW13276   1.660   3.018   2.136
 4126SOL    HW113277   1.724   2.962   2.083
 4126SOL    HW213278   1.706   3.052   2.218
 4127SOL     OW13279   4.449   2.513   4.626
 4127SOL    HW113280   4.447   2.462   4.540
 4127SOL    HW213281   4.395   2.464   4.695
 4128SOL     OW13282   0.582   3.095   1.684
 4128SOL    HW113283   0.612   3.013   1.733
 4128SOL    HW213284   0.552   3.071   1.592
 4129SOL     OW13285   3.685   1.546   0.512
 4129SOL    HW113286   3.674   1.584   0.420
 4129SOL    HW213287   3.603   1.563   0.566
 4130SOL     OW13288   6.186   2.597   0.678
 4130SOL    HW113289   6.092   2.585   0.710
 4130SOL    HW213290   6.246   2.613   0.756
 4131SOL     OW13291   6.539   0.649   2.619
 4131SOL    HW113292   6.542   0.557   2.659
 4131SOL    HW213293   6.595   0.711   2.674
 4132SOL     OW13294   5.995   3.985   4.150
 4132SOL    HW113295   6.050   4.059   4.111
 4132SOL    HW213296   6.038   3.952   4.234
 4133SOL     OW13297   4.618   6.391   1.122
 4133SOL    HW113298   4.713   6.390   1.152
 4133SOL    HW213299   4.606   6.462   1.052
 4134SOL     OW13300   2.607   3.252   0.515
 4134SOL    HW113301   2.652   3.305   0.443
 4134SOL    HW213302   2.574   3.314   0.586
 4135SOL     OW13303   0.194   2.318   2.864
 4135SOL    HW113304   0.145   2.297   2.948
 4135SOL    HW213305   0.253   2.241   2.838
 4136SOL     OW13306   1.307   3.570   1.700
 4136SOL    HW113307   1.255   3.511   1.638
 4136SOL    HW213308   1.246   3.602   1.773
 4137SOL     OW13309   1.129   2.731   0.305
 4137SOL    HW113310   1.180   2.652   0.271
 4137SOL    HW213311   1.162   2.814   0.261
 4138SOL     OW13312   4.311   4.997   1.215
 4138SOL    HW113313   4.395   4.977   1.263
 4138SOL    HW213314   4.323   4.979   1.117
 4139SOL     OW13315   1.259   2.102   3.866
 4139SOL    HW113316   1.189   2.031   3.877
 4139SOL    HW213317   1.297   2.125   3.955
 4140SOL     OW13318   3.381   2.104   4.018
 4140SOL    HW113319   3.307   2.045   4.049
 4140SOL    HW213320   3.422   2.150   4.097
 4141SOL     OW13321   4.959   0.268   0.014
 4141SOL    HW113322   4.900   0.299   0.089
 4141SOL    HW213323   4.935   0.174   7.006
 4142SOL     OW13324   6.969   4.343   1.911
 4142SOL    HW113325   6.893   4.281   1.889
 4142SOL    HW213326   0.029   4.289   1.946
 4143SOL     OW13327   5.193   3.372   0.756
 4143SOL    HW113328   5.227   3.338   0.668
 4143SOL    HW213329   5.126   3.308   0.793
 4144SOL     OW13330   5.265   1.567   0.203
 4144SOL    HW113331   5.242   1.637   0.270
 4144SOL    HW213332   5.283   1.481   0.251
 4145SOL     OW13333   1.290   6.202   0.661
 4145SOL    HW113334   1.321   6.233   0.571
 4145SOL    HW213335   1.267   6.105   0.656
 4146SOL     OW13336   6.273   0.472   4.333
 4146SOL    HW113337   6.286   0.397   4.398
 4146SOL    HW213338   6.360   0.488   4.285
 4147SOL     OW13339   5.657   4.508   6.084
 4147SOL    HW113340   5.752   4.529   6.109
 4147SOL    HW213341   5.618   4.444   6.150
 4148SOL     OW13342   2.721   0.411   5.586
 4148SOL    HW113343   2.718   0.499   5.634
 4148SOL    HW213344   2.651   0.410   5.514
 4149SOL     OW13345   0.114   3.576   1.671
 4149SOL    HW113346   0.207   3.613   1.674
 4149SOL    HW213347   0.094   3.531   1.758
 4150SOL     OW13348   6.865   1.990   5.332
 4150SOL    HW113349   6.949   1.958   5.288
 4150SOL    HW213350   6.795   1.918   5.327
 4151SOL     OW13351   1.899   0.343   5.256
 4151SOL    HW113352   1.838   0.376   5.328
 4151SOL    HW213353   1.894   0.243   5.251
 4152SOL     OW13354   4.201   5.651   2.025
 4152SOL    HW113355   4.111   5.620   1.994
 4152SOL    HW213356   4.261   5.572   2.036
 4153SOL     OW13357   6.766   5.015   1.693
 4153SOL    HW113358   6.798   4.950   1.762
 4153SOL    HW213359   6.773   5.108   1.728
 4154SOL     OW13360   0.544   5.652   3.516
 4154SOL    HW113361   0.516   5.556   3.506
 4154SOL    HW213362   0.557   5.692   3.426
 4155SOL     OW13363   6.803   1.972   1.214
 4155SOL    HW113364   6.878   1.918   1.176
 4155SOL    HW213365   6.754   2.019   1.140
 4156SOL     OW13366   6.640   5.173   5.054
 4156SOL    HW113367   6.556   5.136   5.015
 4156SOL    HW213368   6.620   5.260   5.100
 4157SOL     OW13369   5.932   6.019   2.888
 4157SOL    HW113370   5.909   6.087   2.958
 4157SOL    HW213371   5.882   5.934   2.906
 4158SOL     OW13372   2.001   2.511   2.072
 4158SOL    HW113373   2.053   2.468   1.998
 4158SOL    HW213374   1.907   2.527   2.041
 4159SOL     OW13375   3.151   2.137   3.498
 4159SOL    HW113376   3.237   2.086   3.499
 4159SOL    HW213377   3.138   2.183   3.585
 4160SOL     OW13378   5.823   0.206   0.068
 4160SOL    HW113379   5.795   0.190   6.990
 4160SOL    HW213380   5.742   0.208   0.127
 4161SOL     OW13381   1.637   2.161   1.789
 4161SOL    HW113382   1.545   2.178   1.754
 4161SOL    HW213383   1.704   2.194   1.723
 4162SOL     OW13384   6.245   5.673   1.456
 4162SOL    HW113385   6.283   5.673   1.549
 4162SOL    HW213386   6.294   5.605   1.401
 4163SOL     OW13387   5.849   1.452   3.203
 4163SOL    HW113388   5.802   1.366   3.183
 4163SOL    HW213389   5.819   1.521   3.137
 4164SOL     OW13390   0.859   6.893   5.616
 4164SOL    HW113391   0.760   6.878   5.622
 4164SOL    HW213392   0.888   6.884   5.521
 4165SOL     OW13393   4.651   6.961   6.206
 4165SOL    HW113394   4.700   0.031   6.212
 4165SOL    HW213395   4.642   6.935   6.110
 4166SOL     OW13396   5.584   1.391   1.649
 4166SOL    HW113397   5.625   1.400   1.741
 4166SOL    HW213398   5.633   1.321   1.598
 4167SOL     OW13399   2.831   5.214   6.333
 4167SOL    HW113400   2.859   5.227   6.238
 4167SOL    HW213401   2.862   5.292   6.387
 4168SOL     OW13402   6.996   4.221   0.635
 4168SOL    HW113403   7.002   4.127   0.670
 4168SOL    HW213404   7.014   4.221   0.537
 4169SOL     OW13405   5.920   3.781   5.365
 4169SOL    HW113406   5.882   3.710   5.305
 4169SOL    HW213407   5.864   3.864   5.359
 4170SOL     OW13408   4.751   2.831   5.048
 4170SOL    HW113409   4.670   2.800   4.998
 4170SOL    HW213410   4.723   2.863   5.138
 4171SOL     OW13411   0.929   5.525   1.136
 4171SOL    HW113412   0.896   5.474   1.057
 4171SOL    HW213413   1.028   5.539   1.127
 4172SOL     OW13414   2.339   2.922   0.553
 4172SOL    HW113415   2.334   2.823   0.542
 4172SOL    HW213416   2.374   2.963   0.469
 4173SOL     OW13417   5.026   3.090   5.567
 4173SOL    HW113418   5.065   3.014   5.619
 4173SOL    HW213419   4.956   3.136   5.622
 4174SOL     OW13420   5.135   1.438   2.372
 4174SOL    HW113421   5.183   1.373   2.313
 4174SOL    HW213422   5.142   1.408   2.467
 4175SOL     OW13423   1.639   4.508   4.890
 4175SOL    HW113424   1.716   4.478   4.833
 4175SOL    HW213425   1.666   4.507   4.986
 4176SOL     OW13426   4.128   6.739   1.644
 4176SOL    HW113427   4.166   6.653   1.677
 4176SOL    HW213428   4.071   6.722   1.564
 4177SOL     OW13429   5.480   4.663   5.182
 4177SOL    HW113430   5.386   4.677   5.214
 4177SOL    HW213431   5.520   4.586   5.232
 4178SOL     OW13432   4.332   0.452   3.144
 4178SOL    HW113433   4.329   0.511   3.063
 4178SOL    HW213434   4.240   0.445   3.184
 4179SOL     OW13435   5.482   3.855   3.314
 4179SOL    HW113436   5.531   3.918   3.253
 4179SOL    HW213437   5.531   3.768   3.318
 4180SOL     OW13438   4.669   2.973   1.109
 4180SOL    HW113439   4.718   2.910   1.169
 4180SOL    HW213440   4.576   2.939   1.094
 4181SOL     OW13441   4.973   0.749   6.707
 4181SOL    HW113442   5.024   0.703   6.781
 4181SOL    HW213443   4.907   0.812   6.748
 4182SOL     OW13444   0.627   5.165   3.205
 4182SOL    HW113445   0.534   5.175   3.240
 4182SOL    HW213446   0.630   5.090   3.139
 4183SOL     OW13447   2.947   1.100   0.448
 4183SOL    HW113448   2.895   1.150   0.379
 4183SOL    HW213449   3.006   1.164   0.498
 4184SOL     OW13450   3.631   0.289   2.281
 4184SOL    HW113451   3.727   0.270   2.263
 4184SOL    HW213452   3.577   0.270   2.198
 4185SOL     OW13453   0.727   3.943   3.058
 4185SOL    HW113454   0.779   3.999   2.993
 4185SOL    HW213455   0.643   3.991   3.084
 4186SOL     OW13456   2.075   5.794   6.443
 4186SOL    HW113457   2.149   5.802   6.377
 4186SOL    HW213458   2.050   5.885   6.477
 4187SOL     OW13459   2.398   2.972   6.187
 4187SOL    HW113460   2.423   2.961   6.091
 4187SOL    HW213461   2.339   2.897   6.215
 4188SOL     OW13462   5.177   0.842   4.970
 4188SOL    HW113463   5.215   0.862   5.060
 4188SOL    HW213464   5.080   0.816   4.980
 4189SOL     OW13465   3.669   4.962   4.210
 4189SOL    HW113466   3.598   5.031   4.225
 4189SOL    HW213467   3.652   4.915   4.124
 4190SOL     OW13468   0.976   6.972   0.814
 4190SOL    HW113469   0.903   6.926   0.865
 4190SOL    HW213470   0.991   0.047   0.853
 4191SOL     OW13471   5.525   3.940   4.932
 4191SOL    HW113472   5.598   3.875   4.955
 4191SOL    HW213473   5.508   3.938   4.834
 4192SOL     OW13474   0.957   1.425   2.635
 4192SOL    HW113475   1.001   1.431   2.724
 4192SOL    HW213476   1.025   1.405   2.565
 4193SOL     OW13477   5.176   0.650   0.565
 4193SOL    HW113478   5.161   0.722   0.497
 4193SOL    HW213479   5.191   0.692   0.655
 4194SOL     OW13480   4.834   0.132   4.287
 4194SOL    HW113481   4.922   0.087   4.272
 4194SOL    HW213482   4.816   0.195   4.212
 4195SOL     OW13483   4.145   5.000   1.440
 4195SOL    HW113484   4.116   5.095   1.451
 4195SOL    HW213485   4.188   4.988   1.351
 4196SOL     OW13486   6.822   2.512   2.904
 4196SOL    HW113487   6.885   2.464   2.965
 4196SOL    HW213488   6.728   2.491   2.929
 4197SOL     OW13489   4.437   5.319   5.696
 4197SOL    HW113490   4.431   5.376   5.615
 4197SOL    HW213491   4.363   5.251   5.694
 4198SOL     OW13492   6.449   1.822   1.082
 4198SOL    HW113493   6.442   1.917   1.114
 4198SOL    HW213494   6.542   1.803   1.052
 4199SOL     OW13495   1.092   2.157   5.405
 4199SOL    HW113496   1.165   2.090   5.419
 4199SOL    HW213497   1.084   2.215   5.487
 4200SOL     OW13498   3.094   0.466   6.704
 4200SOL    HW113499   3.034   0.500   6.777
 4200SOL    HW213500   3.178   0.431   6.744
 4201SOL     OW13501   6.384   0.058   3.540
 4201SOL    HW113502   6.418   0.000   3.614
 4201SOL    HW213503   6.311   0.011   3.491
 4202SOL     OW13504   2.315   5.509   6.199
 4202SOL    HW113505   2.221   5.473   6.200
 4202SOL    HW213506   2.379   5.436   6.221
 4203SOL     OW13507   4.769   4.375   0.558
 4203SOL    HW113508   4.843   4.337   0.502
 4203SOL    HW213509   4.757   4.472   0.534
 4204SOL     OW13510   3.863   3.578   4.747
 4204SOL    HW113511   3.945   3.625   4.780
 4204SOL    HW213512   3.873   3.558   4.650
 4205SOL     OW13513   4.203   6.074   4.801
 4205SOL    HW113514   4.150   6.001   4.756
 4205SOL    HW213515   4.235   6.139   4.732
 4206SOL     OW13516   6.148   1.708   5.102
 4206SOL    HW113517   6.085   1.650   5.052
 4206SOL    HW213518   6.129   1.804   5.080
 4207SOL     OW13519   2.138   2.829   2.021
 4207SOL    HW113520   2.091   2.897   1.965
 4207SOL    HW213521   2.074   2.757   2.048
 4208SOL     OW13522   0.158   3.477   5.421
 4208SOL    HW113523   0.128   3.557   5.370
 4208SOL    HW213524   0.141   3.395   5.366
 4209SOL     OW13525   7.016   6.196   3.378
 4209SOL    HW113526   0.062   6.155   3.312
 4209SOL    HW213527   0.051   6.232   3.455
 4210SOL     OW13528   3.183   3.018   2.823
 4210SOL    HW113529   3.221   2.970   2.744
 4210SOL    HW213530   3.190   2.960   2.904
 4211SOL     OW13531   3.991   0.440   5.385
 4211SOL    HW113532   3.994   0.461   5.483
 4211SOL    HW213533   3.992   0.340   5.372
 4212SOL     OW13534   6.286   1.812   3.103
 4212SOL    HW113535   6.314   1.770   3.189
 4212SOL    HW213536   6.187   1.806   3.094
 4213SOL     OW13537   2.857   0.383   2.443
 4213SOL    HW113538   2.833   0.418   2.352
 4213SOL    HW213539   2.818   0.441   2.513
 4214SOL     OW13540   0.258   5.487   5.521
 4214SOL    HW113541   0.212   5.403   5.493
 4214SOL    HW213542   0.198   5.538   5.583
 4215SOL     OW13543   5.034   0.091   5.368
 4215SOL    HW113544   5.094   0.088   5.288
 4215SOL    HW213545   5.088   0.110   5.450
 4216SOL     OW13546   1.546   0.961   2.871
 4216SOL    HW113547   1.531   1.045   2.818
 4216SOL    HW213548   1.470   0.948   2.934
 4217SOL     OW13549   1.192   1.075   2.709
 4217SOL    HW113550   1.099   1.082   2.745
 4217SOL    HW213551   1.220   0.979   2.707
 4218SOL     OW13552   3.366   0.802   1.561
 4218SOL    HW113553   3.401   0.710   1.577
 4218SOL    HW213554   3.406   0.839   1.477
 4219SOL     OW13555   4.418   5.849   4.512
 4219SOL    HW113556   4.457   5.811   4.596
 4219SOL    HW213557   4.442   5.946   4.506
 4220SOL     OW13558   6.440   3.269   2.416
 4220SOL    HW113559   6.473   3.357   2.381
 4220SOL    HW213560   6.494   3.195   2.375
 4221SOL     OW13561   5.532   4.301   5.917
 4221SOL    HW113562   5.442   4.259   5.908
 4221SOL    HW213563   5.525   4.385   5.970
 4222SOL     OW13564   6.702   1.405   2.280
 4222SOL    HW113565   6.737   1.447   2.364
 4222SOL    HW213566   6.602   1.406   2.282
 4223SOL     OW13567   2.967   3.879   0.834
 4223SOL    HW113568   2.994   3.805   0.772
 4223SOL    HW213569   2.962   3.844   0.927
 4224SOL     OW13570   5.654   5.080   4.296
 4224SOL    HW113571   5.557   5.062   4.278
 4224SOL    HW213572   5.664   5.171   4.335
 4225SOL     OW13573   2.037   2.617   5.122
 4225SOL    HW113574   2.113   2.679   5.101
 4225SOL    HW213575   1.984   2.653   5.198
 4226SOL     OW13576   0.911   6.309   2.865
 4226SOL    HW113577   0.920   6.306   2.965
 4226SOL    HW213578   0.938   6.221   2.826
 4227SOL     OW13579   3.573   5.395   1.927
 4227SOL    HW113580   3.657   5.342   1.915
 4227SOL    HW213581   3.548   5.438   1.840
 4228SOL     OW13582   0.784   6.455   5.897
 4228SOL    HW113583   0.732   6.418   5.820
 4228SOL    HW213584   0.795   6.554   5.886
 4229SOL     OW13585   4.717   5.845   5.871
 4229SOL    HW113586   4.810   5.861   5.837
 4229SOL    HW213587   4.664   5.929   5.866
 4230SOL     OW13588   1.763   6.009   3.049
 4230SOL    HW113589   1.775   5.996   3.147
 4230SOL    HW213590   1.696   6.081   3.032
 4231SOL     OW13591   5.133   0.098   5.892
 4231SOL    HW113592   5.085   0.017   5.859
 4231SOL    HW213593   5.079   0.142   5.964
 4232SOL     OW13594   1.272   4.371   3.117
 4232SOL    HW113595   1.367   4.394   3.093
 4232SOL    HW213596   1.209   4.425   3.061
 4233SOL     OW13597   6.228   0.581   4.890
 4233SOL    HW113598   6.294   0.507   4.897
 4233SOL    HW213599   6.250   0.653   4.957
 4234SOL     OW13600   1.868   4.908   5.451
 4234SOL    HW113601   1.948   4.882   5.397
 4234SOL    HW213602   1.840   5.001   5.426
 4235SOL     OW13603   6.197   4.267   5.897
 4235SOL    HW113604   6.268   4.208   5.936
 4235SOL    HW213605   6.190   4.351   5.952
 4236SOL     OW13606   6.089   3.639   2.113
 4236SOL    HW113607   6.161   3.611   2.050
 4236SOL    HW213608   6.023   3.696   2.065
 4237SOL     OW13609   5.995   5.213   3.851
 4237SOL    HW113610   5.937   5.201   3.932
 4237SOL    HW213611   6.052   5.293   3.863
 4238SOL     OW13612   1.716   6.455   3.064
 4238SOL    HW113613   1.697   6.376   3.123
 4238SOL    HW213614   1.813   6.458   3.043
 4239SOL     OW13615   5.026   1.539   3.080
 4239SOL    HW113616   5.102   1.552   3.016
 4239SOL    HW213617   4.951   1.493   3.034
 4240SOL     OW13618   1.982   5.597   0.295
 4240SOL    HW113619   2.038   5.558   0.368
 4240SOL    HW213620   1.889   5.560   0.299
 4241SOL     OW13621   5.635   1.130   0.970
 4241SOL    HW113622   5.555   1.159   0.918
 4241SOL    HW213623   5.713   1.188   0.946
 4242SOL     OW13624   3.218   2.172   4.309
 4242SOL    HW113625   3.202   2.093   4.249
 4242SOL    HW213626   3.140   2.234   4.304
 4243SOL     OW13627   5.693   2.615   2.898
 4243SOL    HW113628   5.687   2.694   2.837
 4243SOL    HW213629   5.643   2.634   2.982
 4244SOL     OW13630   4.072   4.352   1.527
 4244SOL    HW113631   4.112   4.261   1.517
 4244SOL    HW213632   4.128   4.406   1.591
 4245SOL     OW13633   6.607   1.783   6.130
 4245SOL    HW113634   6.696   1.738   6.122
 4245SOL    HW213635   6.605   1.837   6.214
 4246SOL     OW13636   6.697   3.703   3.015
 4246SOL    HW113637   6.646   3.617   3.023
 4246SOL    HW213638   6.794   3.685   3.029
 4247SOL     OW13639   2.567   5.861   3.629
 4247SOL    HW113640   2.547   5.848   3.726
 4247SOL    HW213641   2.552   5.956   3.603
 4248SOL     OW13642   3.564   1.117   3.790
 4248SOL    HW113643   3.554   1.121   3.691
 4248SOL    HW213644   3.598   1.027   3.817
 4249SOL     OW13645   6.821   2.902   4.956
 4249SOL    HW113646   6.767   2.984   4.975
 4249SOL    HW213647   6.919   2.926   4.959
 4250SOL     OW13648   6.433   4.367   2.900
 4250SOL    HW113649   6.383   4.453   2.888
 4250SOL    HW213650   6.511   4.364   2.838
 4251SOL     OW13651   5.840   4.560   0.886
 4251SOL    HW113652   5.938   4.578   0.876
 4251SOL    HW213653   5.819   4.468   0.852
 4252SOL     OW13654   6.116   6.225   5.197
 4252SOL    HW113655   6.043   6.259   5.257
 4252SOL    HW213656   6.199   6.208   5.252
 4253SOL     OW13657   3.233   6.547   0.830
 4253SOL    HW113658   3.294   6.555   0.751
 4253SOL    HW213659   3.171   6.470   0.817
 4254SOL     OW13660   0.900   2.577   2.127
 4254SOL    HW113661   0.825   2.643   2.135
 4254SOL    HW213662   0.931   2.551   2.218
 4255SOL     OW13663   5.791   3.795   3.458
 4255SOL    HW113664   5.732   3.730   3.410
 4255SOL    HW213665   5.760   3.805   3.552
 4256SOL     OW13666   1.669   0.086   0.738
 4256SOL    HW113667   1.745   0.137   0.779
 4256SOL    HW213668   1.583   0.135   0.755
 4257SOL     OW13669   3.421   0.382   3.785
 4257SOL    HW113670   3.359   0.309   3.754
 4257SOL    HW213671   3.444   0.368   3.881
 4258SOL     OW13672   5.426   6.170   1.301
 4258SOL    HW113673   5.364   6.199   1.375
 4258SOL    HW213674   5.396   6.210   1.215
 4259SOL     OW13675   2.905   0.798   0.067
 4259SOL    HW113676   2.957   0.820   0.149
 4259SOL    HW213677   2.964   0.802   7.004
 4260SOL     OW13678   4.976   6.981   6.380
 4260SOL    HW113679   4.905   0.005   6.438
 4260SOL    HW213680   4.992   6.887   6.408
 4261SOL     OW13681   1.664   0.169   1.676
 4261SOL    HW113682   1.640   0.264   1.698
 4261SOL    HW213683   1.736   0.138   1.738
 4262SOL     OW13684   0.481   4.099   5.074
 4262SOL    HW113685   0.571   4.120   5.112
 4262SOL    HW213686   0.416   4.086   5.149
 4263SOL     OW13687   2.609   6.367   3.449
 4263SOL    HW113688   2.640   6.427   3.524
 4263SOL    HW213689   2.600   6.421   3.365
 4264SOL     OW13690   0.302   2.770   2.645
 4264SOL    HW113691   0.356   2.760   2.562
 4264SOL    HW213692   0.355   2.739   2.724
 4265SOL     OW13693   5.417   1.458   0.798
 4265SOL    HW113694   5.333   1.493   0.757
 4265SOL    HW213695   5.405   1.362   0.823
 4266SOL     OW13696   1.978   4.916   0.256
 4266SOL    HW113697   2.039   4.935   0.333
 4266SOL    HW213698   1.914   4.992   0.244
 4267SOL     OW13699   1.994   3.628   4.486
 4267SOL    HW113700   2.060   3.654   4.556
 4267SOL    HW213701   1.934   3.556   4.521
 4268SOL     OW13702   1.447   6.125   6.271
 4268SOL    HW113703   1.412   6.103   6.363
 4268SOL    HW213704   1.417   6.055   6.207
 4269SOL     OW13705   2.353   1.049   1.844
 4269SOL    HW113706   2.403   1.042   1.930
 4269SOL    HW213707   2.331   1.144   1.825
 4270SOL     OW13708   3.921   3.607   3.806
 4270SOL    HW113709   4.017   3.592   3.829
 4270SOL    HW213710   3.914   3.687   3.747
 4271SOL     OW13711   0.383   1.386   6.989
 4271SOL    HW113712   0.365   1.398   6.891
 4271SOL    HW213713   0.302   1.414   0.024
 4272SOL     OW13714   0.362   3.423   4.922
 4272SOL    HW113715   0.269   3.455   4.910
 4272SOL    HW213716   0.394   3.380   4.837
 4273SOL     OW13717   4.840   5.931   5.394
 4273SOL    HW113718   4.940   5.936   5.392
 4273SOL    HW213719   4.809   5.921   5.488
 4274SOL     OW13720   1.614   6.963   1.949
 4274SOL    HW113721   1.566   7.011   2.022
 4274SOL    HW213722   1.710   6.992   1.948
 4275SOL     OW13723   6.589   1.122   4.863
 4275SOL    HW113724   6.523   1.055   4.828
 4275SOL    HW213725   6.637   1.164   4.786
 4276SOL     OW13726   1.950   4.849   3.797
 4276SOL    HW113727   1.879   4.917   3.819
 4276SOL    HW213728   2.017   4.890   3.735
 4277SOL     OW13729   6.423   4.662   4.055
 4277SOL    HW113730   6.396   4.572   4.089
 4277SOL    HW213731   6.459   4.652   3.962
 4278SOL     OW13732   0.460   0.721   4.371
 4278SOL    HW113733   0.523   0.677   4.436
 4278SOL    HW213734   0.473   0.820   4.375
 4279SOL     OW13735   3.735   6.996   5.212
 4279SOL    HW113736   3.811   0.044   5.205
 4279SOL    HW213737   3.692   6.986   5.123
 4280SOL     OW13738   5.142   0.590   5.713
 4280SOL    HW113739   5.105   0.497   5.712
 4280SOL    HW213740   5.204   0.600   5.791
 4281SOL     OW13741   1.069   5.101   3.995
 4281SOL    HW113742   1.105   5.172   3.934
 4281SOL    HW213743   1.100   5.117   4.088
 4282SOL     OW13744   3.386   3.611   6.581
 4282SOL    HW113745   3.375   3.557   6.498
 4282SOL    HW213746   3.476   3.654   6.581
 4283SOL     OW13747   2.381   0.848   3.345
 4283SOL    HW113748   2.455   0.796   3.387
 4283SOL    HW213749   2.415   0.897   3.265
 4284SOL     OW13750   4.526   4.990   1.420
 4284SOL    HW113751   4.566   5.056   1.484
 4284SOL    HW213752   4.589   4.914   1.405
 4285SOL     OW13753   0.528   0.975   5.977
 4285SOL    HW113754   0.532   0.985   6.076
 4285SOL    HW213755   0.433   0.980   5.947
 4286SOL     OW13756   4.923   6.125   6.191
 4286SOL    HW113757   4.842   6.176   6.161
 4286SOL    HW213758   5.005   6.173   6.162
 4287SOL     OW13759   5.574   1.424   6.834
 4287SOL    HW113760   5.501   1.432   6.767
 4287SOL    HW213761   5.649   1.486   6.810
 4288SOL     OW13762   1.458   5.949   3.596
 4288SOL    HW113763   1.450   6.000   3.682
 4288SOL    HW213764   1.374   5.897   3.579
 4289SOL     OW13765   6.557   3.396   0.835
 4289SOL    HW113766   6.645   3.360   0.868
 4289SOL    HW213767   6.540   3.364   0.742
 4290SOL     OW13768   2.171   0.065   2.677
 4290SOL    HW113769   2.075   0.039   2.679
 4290SOL    HW213770   2.194   0.116   2.760
 4291SOL     OW13771   3.966   3.855   1.146
 4291SOL    HW113772   3.978   3.947   1.184
 4291SOL    HW213773   4.045   3.830   1.091
 4292SOL     OW13774   6.254   4.662   6.277
 4292SOL    HW113775   6.351   4.684   6.276
 4292SOL    HW213776   6.201   4.746   6.264
 4293SOL     OW13777   0.993   3.347   0.804
 4293SOL    HW113778   0.960   3.254   0.814
 4293SOL    HW213779   1.039   3.357   0.716
 4294SOL     OW13780   3.016   2.927   6.975
 4294SOL    HW113781   2.956   2.874   6.916
 4294SOL    HW213782   2.979   3.019   6.987
 4295SOL     OW13783   3.951   5.569   4.554
 4295SOL    HW113784   3.952   5.550   4.652
 4295SOL    HW213785   4.044   5.592   4.523
 4296SOL     OW13786   4.496   0.642   0.461
 4296SOL    HW113787   4.407   0.602   0.439
 4296SOL    HW213788   4.522   0.707   0.389
 4297SOL     OW13789   5.472   1.030   6.804
 4297SOL    HW113790   5.526   1.079   6.872
 4297SOL    HW213791   5.401   0.975   6.849
 4298SOL     OW13792   3.160   5.409   0.030
 4298SOL    HW113793   3.103   5.479   7.004
 4298SOL    HW213794   3.254   5.441   0.037
 4299SOL     OW13795   1.214   2.922   0.112
 4299SOL    HW113796   1.270   3.001   0.136
 4299SOL    HW213797   1.226   2.901   0.015
 4300SOL     OW13798   3.887   0.671   0.019
 4300SOL    HW113799   3.824   0.625   0.082
 4300SOL    HW213800   3.836   0.737   6.980
 4301SOL     OW13801   3.659   2.006   0.908
 4301SOL    HW113802   3.667   1.907   0.894
 4301SOL    HW213803   3.655   2.025   1.006
 4302SOL     OW13804   1.129   6.744   5.660
 4302SOL    HW113805   1.219   6.708   5.636
 4302SOL    HW213806   1.136   6.799   5.743
 4303SOL     OW13807   5.982   4.716   4.267
 4303SOL    HW113808   6.027   4.705   4.178
 4303SOL    HW213809   6.023   4.792   4.316
 4304SOL     OW13810   3.189   4.043   3.330
 4304SOL    HW113811   3.243   4.059   3.248
 4304SOL    HW213812   3.113   3.981   3.308
 4305SOL     OW13813   6.506   0.585   4.595
 4305SOL    HW113814   6.542   0.617   4.683
 4305SOL    HW213815   6.577   0.596   4.525
 4306SOL     OW13816   6.762   3.532   6.894
 4306SOL    HW113817   6.731   3.518   6.799
 4306SOL    HW213818   6.859   3.508   6.901
 4307SOL     OW13819   4.508   3.476   5.947
 4307SOL    HW113820   4.430   3.471   6.010
 4307SOL    HW213821   4.547   3.568   5.951
 4308SOL     OW13822   5.684   5.510   6.605
 4308SOL    HW113823   5.781   5.491   6.588
 4308SOL    HW213824   5.651   5.577   6.538
 4309SOL     OW13825   1.344   1.606   0.550
 4309SOL    HW113826   1.309   1.620   0.457
 4309SOL    HW213827   1.320   1.684   0.607
 4310SOL     OW13828   1.694   2.612   3.250
 4310SOL    HW113829   1.625   2.548   3.283
 4310SOL    HW213830   1.679   2.702   3.291
 4311SOL     OW13831   1.862   5.853   3.829
 4311SOL    HW113832   1.948   5.885   3.869
 4311SOL    HW213833   1.843   5.760   3.862
 4312SOL     OW13834   1.266   4.871   0.591
 4312SOL    HW113835   1.312   4.936   0.531
 4312SOL    HW213836   1.270   4.903   0.685
 4313SOL     OW13837   4.752   1.662   1.260
 4313SOL    HW113838   4.744   1.722   1.339
 4313SOL    HW213839   4.699   1.578   1.276
 4314SOL     OW13840   5.613   1.469   4.268
 4314SOL    HW113841   5.603   1.468   4.367
 4314SOL    HW213842   5.703   1.434   4.243
 4315SOL     OW13843   2.797   6.779   2.186
 4315SOL    HW113844   2.710   6.751   2.227
 4315SOL    HW213845   2.780   6.812   2.093
 4316SOL     OW13846   5.054   6.965   1.217
 4316SOL    HW113847   5.142   6.996   1.179
 4316SOL    HW213848   5.064   6.872   1.252
 4317SOL     OW13849   3.921   1.744   5.033
 4317SOL    HW113850   3.994   1.679   5.010
 4317SOL    HW213851   3.960   1.835   5.044
 4318SOL     OW13852   0.875   3.604   3.786
 4318SOL    HW113853   0.799   3.667   3.802
 4318SOL    HW213854   0.842   3.510   3.790
 4319SOL     OW13855   2.151   2.895   0.274
 4319SOL    HW113856   2.193   2.982   0.251
 4319SOL    HW213857   2.051   2.904   0.269
 4320SOL     OW13858   5.927   6.358   2.203
 4320SOL    HW113859   5.838   6.380   2.243
 4320SOL    HW213860   5.986   6.317   2.273
 4321SOL     OW13861   6.922   6.531   4.961
 4321SOL    HW113862   6.918   6.431   4.966
 4321SOL    HW213863   7.006   6.563   5.005
 4322SOL     OW13864   6.268   2.094   6.724
 4322SOL    HW113865   6.188   2.153   6.739
 4322SOL    HW213866   6.303   2.109   6.632
 4323SOL     OW13867   4.935   4.116   1.219
 4323SOL    HW113868   4.994   4.066   1.155
 4323SOL    HW213869   4.866   4.054   1.256
 4324SOL     OW13870   5.612   3.928   6.125
 4324SOL    HW113871   5.618   3.835   6.162
 4324SOL    HW213872   5.535   3.933   6.061
 4325SOL     OW13873   2.601   1.093   1.417
 4325SOL    HW113874   2.611   1.154   1.338
 4325SOL    HW213875   2.647   1.006   1.398
 4326SOL     OW13876   5.427   3.494   5.102
 4326SOL    HW113877   5.465   3.585   5.083
 4326SOL    HW213878   5.447   3.469   5.197
 4327SOL     OW13879   6.041   5.457   2.082
 4327SOL    HW113880   6.032   5.465   2.181
 4327SOL    HW213881   6.078   5.367   2.059
 4328SOL     OW13882   4.372   3.506   5.725
 4328SOL    HW113883   4.395   3.480   5.819
 4328SOL    HW213884   4.332   3.427   5.678
 4329SOL     OW13885   4.149   2.004   5.379
 4329SOL    HW113886   4.222   2.053   5.331
 4329SOL    HW213887   4.185   1.919   5.417
 4330SOL     OW13888   2.673   0.511   5.174
 4330SOL    HW113889   2.726   0.564   5.240
 4330SOL    HW213890   2.626   0.573   5.112
 4331SOL     OW13891   5.195   2.847   0.316
 4331SOL    HW113892   5.096   2.862   0.313
 4331SOL    HW213893   5.213   2.754   0.347
 4332SOL     OW13894   5.219   4.478   2.525
 4332SOL    HW113895   5.271   4.477   2.439
 4332SOL    HW213896   5.170   4.565   2.533
 4333SOL     OW13897   4.199   0.466   5.149
 4333SOL    HW113898   4.131   0.498   5.214
 4333SOL    HW213899   4.249   0.389   5.187
 4334SOL     OW13900   1.759   2.085   2.848
 4334SOL    HW113901   1.721   1.994   2.862
 4334SOL    HW213902   1.769   2.103   2.750
 4335SOL     OW13903   3.597   3.828   2.953
 4335SOL    HW113904   3.579   3.921   2.922
 4335SOL    HW213905   3.675   3.791   2.904
 4336SOL     OW13906   1.467   6.804   6.295
 4336SOL    HW113907   1.533   6.865   6.340
 4336SOL    HW213908   1.477   6.711   6.330
 4337SOL     OW13909   0.772   4.646   0.692
 4337SOL    HW113910   0.841   4.666   0.761
 4337SOL    HW213911   0.801   4.684   0.604
 4338SOL     OW13912   5.312   5.527   4.578
 4338SOL    HW113913   5.251   5.497   4.652
 4338SOL    HW213914   5.271   5.504   4.490
 4339SOL     OW13915   6.346   3.035   5.181
 4339SOL    HW113916   6.343   3.134   5.199
 4339SOL    HW213917   6.441   3.003   5.186
 4340SOL     OW13918   6.354   4.374   1.633
 4340SOL    HW113919   6.260   4.338   1.635
 4340SOL    HW213920   6.393   4.359   1.542
 4341SOL     OW13921   0.337   6.013   2.150
 4341SOL    HW113922   0.313   5.935   2.093
 4341SOL    HW213923   0.253   6.055   2.185
 4342SOL     OW13924   6.292   3.638   4.302
 4342SOL    HW113925   6.195   3.618   4.286
 4342SOL    HW213926   6.329   3.688   4.224
 4343SOL     OW13927   2.474   6.248   6.144
 4343SOL    HW113928   2.438   6.201   6.063
 4343SOL    HW213929   2.421   6.221   6.225
 4344SOL     OW13930   1.656   5.475   3.055
 4344SOL    HW113931   1.639   5.481   3.153
 4344SOL    HW213932   1.721   5.401   3.037
 4345SOL     OW13933   2.169   2.843   5.113
 4345SOL    HW113934   2.258   2.869   5.074
 4345SOL    HW213935   2.109   2.923   5.112
 4346SOL     OW13936   1.815   3.289   2.087
 4346SOL    HW113937   1.850   3.375   2.049
 4346SOL    HW213938   1.715   3.290   2.085
 4347SOL     OW13939   5.710   6.835   2.935
 4347SOL    HW113940   5.765   6.803   2.859
 4347SOL    HW213941   5.673   6.926   2.914
 4348SOL     OW13942   6.952   4.308   2.891
 4348SOL    HW113943   6.945   4.210   2.911
 4348SOL    HW213944   0.014   4.346   2.939
 4349SOL     OW13945   6.733   1.760   2.410
 4349SOL    HW113946   6.741   1.821   2.489
 4349SOL    HW213947   6.780   1.800   2.332
 4350SOL     OW13948   5.163   2.189   3.954
 4350SOL    HW113949   5.066   2.215   3.949
 4350SOL    HW213950   5.188   2.141   3.870
 4351SOL     OW13951   1.756   6.634   0.959
 4351SOL    HW113952   1.668   6.590   0.974
 4351SOL    HW213953   1.822   6.602   1.028
 4352SOL     OW13954   0.722   2.888   2.316
 4352SOL    HW113955   0.714   2.986   2.299
 4352SOL    HW213956   0.709   2.838   2.230
 4353SOL     OW13957   3.453   3.216   0.083
 4353SOL    HW113958   3.512   3.164   0.022
 4353SOL    HW213959   3.413   3.293   0.032
 4354SOL     OW13960   2.534   6.923   5.971
 4354SOL    HW113961   2.451   6.869   5.986
 4354SOL    HW213962   2.593   6.917   6.051
 4355SOL     OW13963   3.265   0.297   2.482
 4355SOL    HW113964   3.335   0.226   2.482
 4355SOL    HW213965   3.229   0.308   2.389
 4356SOL     OW13966   4.954   4.176   0.866
 4356SOL    HW113967   4.936   4.100   0.928
 4356SOL    HW213968   4.957   4.262   0.918
 4357SOL     OW13969   6.116   0.112   0.183
 4357SOL    HW113970   6.042   0.087   0.120
 4357SOL    HW213971   6.197   0.058   0.162
 4358SOL     OW13972   0.095   6.393   6.887
 4358SOL    HW113973   0.111   6.484   6.848
 4358SOL    HW213974   0.097   6.325   6.814
 4359SOL     OW13975   2.142   2.249   6.356
 4359SOL    HW113976   2.209   2.271   6.428
 4359SOL    HW213977   2.157   2.155   6.325
 4360SOL     OW13978   1.366   2.296   4.079
 4360SOL    HW113979   1.405   2.372   4.131
 4360SOL    HW213980   1.278   2.323   4.040
 4361SOL     OW13981   2.677   3.470   1.442
 4361SOL    HW113982   2.674   3.568   1.423
 4361SOL    HW213983   2.667   3.454   1.540
 4362SOL     OW13984   6.249   4.908   2.836
 4362SOL    HW113985   6.158   4.867   2.835
 4362SOL    HW213986   6.269   4.946   2.746
 4363SOL     OW13987   4.939   2.764   0.008
 4363SOL    HW113988   4.920   2.859   7.003
 4363SOL    HW213989   4.853   2.716   0.026
 4364SOL     OW13990   3.400   3.605   5.311
 4364SOL    HW113991   3.338   3.643   5.243
 4364SOL    HW213992   3.464   3.676   5.341
 4365SOL     OW13993   2.220   2.382   1.952
 4365SOL    HW113994   2.210   2.404   1.855
 4365SOL    HW213995   2.303   2.329   1.966
 4366SOL     OW13996   6.018   6.312   0.435
 4366SOL    HW113997   5.985   6.355   0.519
 4366SOL    HW213998   5.985   6.363   0.356
 4367SOL     OW13999   2.417   4.530   4.978
 4367SOL    HW114000   2.483   4.588   4.931
 4367SOL    HW214001   2.449   4.511   5.071
 4368SOL     OW14002   3.917   4.389   0.721
 4368SOL    HW114003   3.963   4.340   0.795
 4368SOL    HW214004   3.894   4.324   0.648
 4369SOL     OW14005   3.568   5.526   4.032
 4369SOL    HW114006   3.534   5.565   3.947
 4369SOL    HW214007   3.661   5.560   4.049
 4370SOL     OW14008   5.000   5.176   2.852
 4370SOL    HW114009   5.070   5.242   2.824
 4370SOL    HW214010   4.968   5.198   2.944
 4371SOL     OW14011   0.639   1.384   1.436
 4371SOL    HW114012   0.557   1.429   1.399
 4371SOL    HW214013   0.686   1.335   1.362
 4372SOL     OW14014   3.908   1.204   2.888
 4372SOL    HW114015   3.974   1.278   2.877
 4372SOL    HW214016   3.834   1.235   2.948
 4373SOL     OW14017   6.942   2.359   6.823
 4373SOL    HW114018   6.957   2.279   6.881
 4373SOL    HW214019   7.013   2.363   6.752
 4374SOL     OW14020   1.037   2.071   2.488
 4374SOL    HW114021   0.941   2.096   2.482
 4374SOL    HW214022   1.051   2.011   2.567
 4375SOL     OW14023   3.629   0.510   3.224
 4375SOL    HW114024   3.665   0.514   3.131
 4375SOL    HW214025   3.634   0.415   3.257
 4376SOL     OW14026   6.257   6.719   2.745
 4376SOL    HW114027   6.327   6.753   2.682
 4376SOL    HW214028   6.195   6.659   2.695
 4377SOL     OW14029   5.281   4.318   0.772
 4377SOL    HW114030   5.221   4.260   0.717
 4377SOL    HW214031   5.283   4.410   0.732
 4378SOL     OW14032   2.118   1.207   2.860
 4378SOL    HW114033   2.046   1.263   2.819
 4378SOL    HW214034   2.094   1.187   2.955
 4379SOL     OW14035   1.901   0.859   2.668
 4379SOL    HW114036   1.958   0.926   2.621
 4379SOL    HW214037   1.940   0.840   2.759
 4380SOL     OW14038   1.695   6.801   2.719
 4380SOL    HW114039   1.621   6.787   2.654
 4380SOL    HW214040   1.776   6.752   2.688
 4381SOL     OW14041   0.673   5.983   5.508
 4381SOL    HW114042   0.719   6.025   5.585
 4381SOL    HW214043   0.574   5.999   5.516
 4382SOL     OW14044   1.068   3.745   5.147
 4382SOL    HW114045   1.053   3.770   5.242
 4382SOL    HW214046   0.986   3.700   5.111
 4383SOL     OW14047   0.367   3.239   0.060
 4383SOL    HW114048   0.391   3.142   0.068
 4383SOL    HW214049   0.396   3.287   0.143
 4384SOL     OW14050   5.937   0.327   4.644
 4384SOL    HW114051   5.960   0.373   4.729
 4384SOL    HW214052   5.921   0.395   4.573
 4385SOL     OW14053   4.844   2.658   4.828
 4385SOL    HW114054   4.924   2.713   4.805
 4385SOL    HW214055   4.870   2.590   4.897
 4386SOL     OW14056   1.792   3.340   5.980
 4386SOL    HW114057   1.751   3.294   5.902
 4386SOL    HW214058   1.758   3.434   5.986
 4387SOL     OW14059   6.603   2.528   1.565
 4387SOL    HW114060   6.524   2.532   1.627
 4387SOL    HW214061   6.656   2.612   1.574
 4388SOL     OW14062   4.151   2.079   5.857
 4388SOL    HW114063   4.055   2.093   5.832
 4388SOL    HW214064   4.209   2.097   5.777
 4389SOL     OW14065   6.006   3.359   1.218
 4389SOL    HW114066   6.037   3.373   1.313
 4389SOL    HW214067   6.009   3.261   1.197
 4390SOL     OW14068   3.558   6.775   1.753
 4390SOL    HW114069   3.556   6.676   1.770
 4390SOL    HW214070   3.535   6.823   1.838
 4391SOL     OW14071   2.173   5.879   0.008
 4391SOL    HW114072   2.108   5.816   6.981
 4391SOL    HW214073   2.140   5.901   0.100
 4392SOL     OW14074   0.574   2.638   5.383
 4392SOL    HW114075   0.600   2.725   5.342
 4392SOL    HW214076   0.548   2.573   5.312
 4393SOL     OW14077   6.379   1.126   1.786
 4393SOL    HW114078   6.394   1.088   1.877
 4393SOL    HW214079   6.457   1.183   1.761
 4394SOL     OW14080   6.905   5.707   2.561
 4394SOL    HW114081   6.869   5.793   2.525
 4394SOL    HW214082   7.005   5.711   2.563
 4395SOL     OW14083   1.996   0.362   1.887
 4395SOL    HW114084   1.966   0.389   1.979
 4395SOL    HW214085   2.024   0.443   1.836
 4396SOL     OW14086   1.797   1.566   3.701
 4396SOL    HW114087   1.788   1.666   3.707
 4396SOL    HW214088   1.866   1.535   3.766
 4397SOL     OW14089   1.829   2.455   4.083
 4397SOL    HW114090   1.782   2.430   3.999
 4397SOL    HW214091   1.898   2.386   4.104
 4398SOL     OW14092   1.102   3.379   5.855
 4398SOL    HW114093   1.033   3.386   5.926
 4398SOL    HW214094   1.118   3.282   5.833
 4399SOL     OW14095   3.474   6.019   2.549
 4399SOL    HW114096   3.400   5.957   2.524
 4399SOL    HW214097   3.438   6.111   2.564
 4400SOL     OW14098   2.277   6.706   4.909
 4400SOL    HW114099   2.277   6.715   5.009
 4400SOL    HW214100   2.328   6.624   4.883
 4401SOL     OW14101   2.941   6.875   5.723
 4401SOL    HW114102   2.922   6.828   5.809
 4401SOL    HW214103   2.866   6.940   5.703
 4402SOL     OW14104   1.529   0.244   2.874
 4402SOL    HW114105   1.458   0.255   2.804
 4402SOL    HW214106   1.619   0.253   2.832
 4403SOL     OW14107   1.014   6.985   0.366
 4403SOL    HW114108   0.939   0.021   0.407
 4403SOL    HW214109   0.981   6.941   0.283
 4404SOL     OW14110   1.621   6.444   5.630
 4404SOL    HW114111   1.634   6.355   5.588
 4404SOL    HW214112   1.538   6.487   5.594
 4405SOL     OW14113   2.020   4.684   1.721
 4405SOL    HW114114   2.010   4.599   1.670
 4405SOL    HW214115   1.951   4.750   1.690
 4406SOL     OW14116   0.793   2.652   0.887
 4406SOL    HW114117   0.747   2.655   0.976
 4406SOL    HW214118   0.804   2.745   0.851
 4407SOL     OW14119   6.696   5.537   1.494
 4407SOL    HW114120   6.723   5.469   1.426
 4407SOL    HW214121   6.774   5.560   1.551
 4408SOL     OW14122   2.352   0.220   0.308
 4408SOL    HW114123   2.291   0.281   0.258
 4408SOL    HW214124   2.409   0.273   0.370
 4409SOL     OW14125   4.156   1.482   1.833
 4409SOL    HW114126   4.209   1.561   1.864
 4409SOL    HW214127   4.099   1.449   1.908
 4410SOL     OW14128   0.625   4.678   0.379
 4410SOL    HW114129   0.554   4.625   0.333
 4410SOL    HW214130   0.596   4.774   0.385
 4411SOL     OW14131   3.816   4.101   5.081
 4411SOL    HW114132   3.740   4.056   5.035
 4411SOL    HW214133   3.902   4.068   5.042
 4412SOL     OW14134   4.680   6.159   4.227
 4412SOL    HW114135   4.626   6.094   4.173
 4412SOL    HW214136   4.754   6.195   4.171
 4413SOL     OW14137   5.857   4.885   3.987
 4413SOL    HW114138   5.942   4.838   4.013
 4413SOL    HW214139   5.785   4.863   4.054
 4414SOL     OW14140   3.363   5.943   1.196
 4414SOL    HW114141   3.445   5.890   1.176
 4414SOL    HW214142   3.388   6.033   1.231
 4415SOL     OW14143   4.589   2.745   6.856
 4415SOL    HW114144   4.517   2.739   6.786
 4415SOL    HW214145   4.594   2.840   6.889
 4416SOL     OW14146   4.233   1.951   4.050
 4416SOL    HW114147   4.330   1.952   4.027
 4416SOL    HW214148   4.218   1.891   4.129
 4417SOL     OW14149   5.999   3.761   4.011
 4417SOL    HW114150   5.986   3.859   4.028
 4417SOL    HW214151   5.943   3.732   3.934
 4418SOL     OW14152   6.484   1.468   2.964
 4418SOL    HW114153   6.386   1.456   2.950
 4418SOL    HW214154   6.503   1.478   3.062
 4419SOL     OW14155   6.349   0.366   5.357
 4419SOL    HW114156   6.447   0.368   5.379
 4419SOL    HW214157   6.303   0.296   5.411
 4420SOL     OW14158   4.012   1.478   2.082
 4420SOL    HW114159   4.034   1.575   2.080
 4420SOL    HW214160   3.924   1.464   2.128
 4421SOL     OW14161   1.924   1.819   4.642
 4421SOL    HW114162   1.918   1.877   4.723
 4421SOL    HW214163   1.833   1.788   4.616
 4422SOL     OW14164   1.303   4.662   6.529
 4422SOL    HW114165   1.214   4.706   6.517
 4422SOL    HW214166   1.334   4.676   6.623
 4423SOL     OW14167   0.135   3.738   5.303
 4423SOL    HW114168   0.208   3.803   5.323
 4423SOL    HW214169   0.121   3.732   5.205
 4424SOL     OW14170   5.261   0.512   4.370
 4424SOL    HW114171   5.351   0.490   4.410
 4424SOL    HW214172   5.194   0.445   4.402
 4425SOL     OW14173   3.071   4.995   0.372
 4425SOL    HW114174   3.129   4.978   0.291
 4425SOL    HW214175   3.011   4.917   0.387
 4426SOL     OW14176   0.953   1.226   3.745
 4426SOL    HW114177   0.971   1.273   3.659
 4426SOL    HW214178   0.893   1.148   3.729
 4427SOL     OW14179   5.914   0.074   2.577
 4427SOL    HW114180   5.866   0.056   2.491
 4427SOL    HW214181   6.008   0.040   2.571
 4428SOL     OW14182   4.051   0.771   3.764
 4428SOL    HW114183   4.126   0.706   3.770
 4428SOL    HW214184   4.060   0.839   3.836
 4429SOL     OW14185   3.119   0.079   2.141
 4429SOL    HW114186   3.162   0.160   2.180
 4429SOL    HW214187   3.067   0.031   2.212
 4430SOL     OW14188   5.324   4.917   5.176
 4430SOL    HW114189   5.232   4.939   5.209
 4430SOL    HW214190   5.318   4.865   5.091
 4431SOL     OW14191   2.516   0.774   2.905
 4431SOL    HW114192   2.422   0.794   2.935
 4431SOL    HW214193   2.578   0.784   2.983
 4432SOL     OW14194   2.533   3.191   6.312
 4432SOL    HW114195   2.502   3.271   6.261
 4432SOL    HW214196   2.502   3.108   6.266
 4433SOL     OW14197   6.518   2.653   4.470
 4433SOL    HW114198   6.615   2.630   4.468
 4433SOL    HW214199   6.505   2.742   4.426
 4434SOL     OW14200   5.794   1.661   3.040
 4434SOL    HW114201   5.742   1.743   3.014
 4434SOL    HW214202   5.793   1.596   2.964
 4435SOL     OW14203   4.145   3.399   1.169
 4435SOL    HW114204   4.195   3.437   1.091
 4435SOL    HW214205   4.210   3.354   1.231
 4436SOL     OW14206   4.574   0.869   1.756
 4436SOL    HW114207   4.553   0.963   1.780
 4436SOL    HW214208   4.644   0.868   1.684
 4437SOL     OW14209   1.263   2.921   2.588
 4437SOL    HW114210   1.361   2.940   2.581
 4437SOL    HW214211   1.223   2.915   2.497
 4438SOL     OW14212   4.687   6.802   6.407
 4438SOL    HW114213   4.674   6.856   6.324
 4438SOL    HW214214   4.753   6.849   6.467
 4439SOL     OW14215   0.277   4.482   1.600
 4439SOL    HW114216   0.284   4.581   1.602
 4439SOL    HW214217   0.342   4.445   1.534
 4440SOL     OW14218   3.179   4.853   0.682
 4440SOL    HW114219   3.095   4.893   0.718
 4440SOL    HW214220   3.187   4.758   0.712
 4441SOL     OW14221   0.002   1.813   1.848
 4441SOL    HW114222   6.930   1.766   1.845
 4441SOL    HW214223   0.068   1.755   1.896
 4442SOL     OW14224   1.599   4.988   4.569
 4442SOL    HW114225   1.518   4.969   4.625
 4442SOL    HW214226   1.681   4.956   4.617
 4443SOL     OW14227   1.589   3.271   5.780
 4443SOL    HW114228   1.575   3.359   5.735
 4443SOL    HW214229   1.559   3.198   5.719
 4444SOL     OW14230   3.738   4.150   0.050
 4444SOL    HW114231   3.691   4.098   0.122
 4444SOL    HW214232   3.744   4.246   0.077
 4445SOL     OW14233   1.419   6.455   0.291
 4445SOL    HW114234   1.433   6.554   0.295
 4445SOL    HW214235   1.428   6.416   0.383
 4446SOL     OW14236   5.150   2.117   0.927
 4446SOL    HW114237   5.102   2.196   0.889
 4446SOL    HW214238   5.083   2.050   0.958
 4447SOL     OW14239   6.305   4.053   4.988
 4447SOL    HW114240   6.225   4.041   4.928
 4447SOL    HW214241   6.334   4.149   4.986
 4448SOL     OW14242   2.341   5.358   1.157
 4448SOL    HW114243   2.323   5.311   1.243
 4448SOL    HW214244   2.438   5.380   1.151
 4449SOL     OW14245   5.327   1.090   6.079
 4449SOL    HW114246   5.267   1.163   6.112
 4449SOL    HW214247   5.296   1.060   5.989
 4450SOL     OW14248   3.530   1.950   6.188
 4450SOL    HW114249   3.628   1.939   6.173
 4450SOL    HW214250   3.514   2.010   6.266
 4451SOL     OW14251   4.968   5.153   4.537
 4451SOL    HW114252   4.893   5.219   4.532
 4451SOL    HW214253   4.931   5.063   4.559
 4452SOL     OW14254   5.918   5.752   4.148
 4452SOL    HW114255   5.854   5.771   4.223
 4452SOL    HW214256   5.935   5.654   4.142
 4453SOL     OW14257   1.440   2.802   1.611
 4453SOL    HW114258   1.407   2.855   1.533
 4453SOL    HW214259   1.411   2.847   1.696
 4454SOL     OW14260   1.303   1.765   6.991
 4454SOL    HW114261   1.227   1.715   6.950
 4454SOL    HW214262   1.372   1.700   0.007
 4455SOL     OW14263   5.538   5.503   5.533
 4455SOL    HW114264   5.547   5.475   5.438
 4455SOL    HW214265   5.564   5.599   5.542
 4456SOL     OW14266   2.621   6.214   2.759
 4456SOL    HW114267   2.533   6.251   2.728
 4456SOL    HW214268   2.695   6.268   2.720
 4457SOL     OW14269   3.537   1.430   3.447
 4457SOL    HW114270   3.565   1.522   3.418
 4457SOL    HW214271   3.459   1.401   3.393
 4458SOL     OW14272   2.550   3.438   0.944
 4458SOL    HW114273   2.610   3.360   0.962
 4458SOL    HW214274   2.512   3.471   1.030
 4459SOL     OW14275   4.104   2.245   4.552
 4459SOL    HW114276   4.017   2.217   4.594
 4459SOL    HW214277   4.178   2.232   4.618
 4460SOL     OW14278   0.944   2.910   0.712
 4460SOL    HW114279   1.029   2.870   0.746
 4460SOL    HW214280   0.906   2.850   0.642
 4461SOL     OW14281   1.764   0.753   0.923
 4461SOL    HW114282   1.842   0.700   0.955
 4461SOL    HW214283   1.754   0.741   0.824
 4462SOL     OW14284   5.923   5.025   2.365
 4462SOL    HW114285   5.922   4.926   2.375
 4462SOL    HW214286   5.840   5.055   2.317
 4463SOL     OW14287   4.649   1.312   0.811
 4463SOL    HW114288   4.695   1.400   0.798
 4463SOL    HW214289   4.553   1.321   0.785
 4464SOL     OW14290   0.423   5.867   0.304
 4464SOL    HW114291   0.467   5.875   0.394
 4464SOL    HW214292   0.373   5.951   0.284
 4465SOL     OW14293   3.433   5.348   0.828
 4465SOL    HW114294   3.451   5.351   0.730
 4465SOL    HW214295   3.447   5.439   0.867
 4466SOL     OW14296   0.948   1.987   3.043
 4466SOL    HW114297   0.897   1.903   3.030
 4466SOL    HW214298   0.887   2.058   3.080
 4467SOL     OW14299   2.066   5.114   3.102
 4467SOL    HW114300   2.143   5.154   3.052
 4467SOL    HW214301   2.041   5.027   3.059
 4468SOL     OW14302   1.517   4.050   0.682
 4468SOL    HW114303   1.445   3.985   0.659
 4468SOL    HW214304   1.481   4.143   0.675
 4469SOL     OW14305   3.534   0.870   1.119
 4469SOL    HW114306   3.484   0.923   1.188
 4469SOL    HW214307   3.598   0.809   1.165
 4470SOL     OW14308   0.551   1.688   2.533
 4470SOL    HW114309   0.612   1.613   2.562
 4470SOL    HW214310   0.502   1.723   2.613
 4471SOL     OW14311   0.834   2.832   6.995
 4471SOL    HW114312   0.863   2.912   0.030
 4471SOL    HW214313   0.907   2.805   6.933
 4472SOL     OW14314   0.131   2.518   1.643
 4472SOL    HW114315   0.083   2.452   1.585
 4472SOL    HW214316   0.066   2.559   1.708
 4473SOL     OW14317   5.889   3.041   4.374
 4473SOL    HW114318   5.943   2.956   4.370
 4473SOL    HW214319   5.883   3.071   4.469
 4474SOL     OW14320   3.429   6.546   1.870
 4474SOL    HW114321   3.470   6.573   1.957
 4474SOL    HW214322   3.388   6.456   1.879
 4475SOL     OW14323   1.474   3.899   1.836
 4475SOL    HW114324   1.415   3.946   1.770
 4475SOL    HW214325   1.507   3.813   1.797
 4476SOL     OW14326   6.367   1.104   3.691
 4476SOL    HW114327   6.465   1.090   3.678
 4476SOL    HW214328   6.320   1.016   3.686
 4477SOL     OW14329   1.948   0.511   4.891
 4477SOL    HW114330   1.991   0.439   4.944
 4477SOL    HW214331   1.949   0.596   4.943
 4478SOL     OW14332   2.656   6.500   2.472
 4478SOL    HW114333   2.736   6.453   2.509
 4478SOL    HW214334   2.645   6.588   2.518
 4479SOL     OW14335   0.210   2.009   1.854
 4479SOL    HW114336   0.181   2.022   1.948
 4479SOL    HW214337   0.159   1.933   1.813
 4480SOL     OW14338   0.014   3.922   4.771
 4480SOL    HW114339   6.987   4.005   4.806
 4480SOL    HW214340   0.112   3.925   4.791
 4481SOL     OW14341   2.240   5.097   5.040
 4481SOL    HW114342   2.287   5.148   4.968
 4481SOL    HW214343   2.141   5.105   5.027
 4482SOL     OW14344   2.006   3.100   5.313
 4482SOL    HW114345   1.995   3.010   5.271
 4482SOL    HW214346   2.089   3.143   5.277
 4483SOL     OW14347   6.856   2.361   2.215
 4483SOL    HW114348   6.804   2.394   2.136
 4483SOL    HW214349   6.887   2.267   2.197
 4484SOL     OW14350   3.236   2.239   6.846
 4484SOL    HW114351   3.152   2.288   6.822
 4484SOL    HW214352   3.304   2.304   6.878
 4485SOL     OW14353   5.803   2.444   4.658
 4485SOL    HW114354   5.848   2.514   4.605
 4485SOL    HW214355   5.704   2.462   4.661
 4486SOL     OW14356   6.361   5.287   4.661
 4486SOL    HW114357   6.368   5.225   4.583
 4486SOL    HW214358   6.294   5.358   4.642
 4487SOL     OW14359   2.846   2.848   6.772
 4487SOL    HW114360   2.770   2.785   6.788
 4487SOL    HW214361   2.905   2.813   6.700
 4488SOL     OW14362   1.063   3.512   4.966
 4488SOL    HW114363   1.087   3.499   4.869
 4488SOL    HW214364   1.112   3.592   5.001
 4489SOL     OW14365   4.516   5.443   4.933
 4489SOL    HW114366   4.584   5.447   5.006
 4489SOL    HW214367   4.551   5.388   4.858
 4490SOL     OW14368   5.319   2.150   1.219
 4490SOL    HW114369   5.231   2.160   1.265
 4490SOL    HW214370   5.359   2.062   1.242
 4491SOL     OW14371   0.267   3.608   3.587
 4491SOL    HW114372   0.250   3.663   3.505
 4491SOL    HW214373   0.292   3.667   3.663
 4492SOL     OW14374   5.968   3.473   1.831
 4492SOL    HW114375   5.933   3.380   1.831
 4492SOL    HW214376   5.923   3.526   1.902
 4493SOL     OW14377   5.408   6.212   4.981
 4493SOL    HW114378   5.327   6.186   5.033
 4493SOL    HW214379   5.390   6.199   4.884
 4494SOL     OW14380   0.070   0.777   5.935
 4494SOL    HW114381   0.034   0.724   5.859
 4494SOL    HW214382   0.167   0.755   5.948
 4495SOL     OW14383   4.794   0.432   3.824
 4495SOL    HW114384   4.804   0.489   3.905
 4495SOL    HW214385   4.807   0.336   3.848
 4496SOL     OW14386   5.458   6.130   0.767
 4496SOL    HW114387   5.496   6.135   0.859
 4496SOL    HW214388   5.459   6.220   0.725
 4497SOL     OW14389   4.223   1.953   6.425
 4497SOL    HW114390   4.309   1.910   6.454
 4497SOL    HW214391   4.241   2.016   6.349
 4498SOL     OW14392   6.698   4.574   6.626
 4498SOL    HW114393   6.715   4.479   6.651
 4498SOL    HW214394   6.781   4.628   6.640
 4499SOL     OW14395   6.160   3.232   3.620
 4499SOL    HW114396   6.237   3.174   3.645
 4499SOL    HW214397   6.193   3.310   3.568
 4500SOL     OW14398   3.690   4.004   6.056
 4500SOL    HW114399   3.607   4.040   6.012
 4500SOL    HW214400   3.770   4.031   6.003
 4501SOL     OW14401   6.496   3.505   3.090
 4501SOL    HW114402   6.516   3.408   3.108
 4501SOL    HW214403   6.444   3.513   3.006
 4502SOL     OW14404   0.997   3.580   6.802
 4502SOL    HW114405   1.028   3.580   6.707
 4502SOL    HW214406   1.041   3.504   6.851
 4503SOL     OW14407   3.779   6.893   1.793
 4503SOL    HW114408   3.694   6.840   1.788
 4503SOL    HW214409   3.846   6.844   1.848
 4504SOL     OW14410   0.370   1.633   4.155
 4504SOL    HW114411   0.458   1.680   4.142
 4504SOL    HW214412   0.299   1.681   4.103
 4505SOL     OW14413   6.412   4.853   1.904
 4505SOL    HW114414   6.437   4.878   1.810
 4505SOL    HW214415   6.490   4.809   1.948
 4506SOL     OW14416   5.035   2.924   3.488
 4506SOL    HW114417   4.963   2.885   3.431
 4506SOL    HW214418   5.084   2.850   3.535
 4507SOL     OW14419   6.781   3.377   3.522
 4507SOL    HW114420   6.817   3.417   3.607
 4507SOL    HW214421   6.852   3.380   3.452
 4508SOL     OW14422   1.525   4.941   6.861
 4508SOL    HW114423   1.463   4.864   6.846
 4508SOL    HW214424   1.620   4.908   6.864
 4509SOL     OW14425   5.029   1.870   3.301
 4509SOL    HW114426   5.037   1.812   3.383
 4509SOL    HW214427   4.977   1.821   3.231
 4510SOL     OW14428   4.232   1.493   4.415
 4510SOL    HW114429   4.262   1.476   4.509
 4510SOL    HW214430   4.306   1.468   4.352
 4511SOL     OW14431   6.018   3.523   6.718
 4511SOL    HW114432   6.077   3.523   6.799
 4511SOL    HW214433   5.950   3.595   6.726
 4512SOL     OW14434   3.256   0.643   5.674
 4512SOL    HW114435   3.263   0.701   5.593
 4512SOL    HW214436   3.324   0.569   5.669
 4513SOL     OW14437   1.097   5.360   6.489
 4513SOL    HW114438   1.061   5.286   6.433
 4513SOL    HW214439   1.176   5.401   6.444
 4514SOL     OW14440   3.267   2.658   5.910
 4514SOL    HW114441   3.183   2.611   5.883
 4514SOL    HW214442   3.346   2.616   5.865
 4515SOL     OW14443   5.847   2.192   5.285
 4515SOL    HW114444   5.859   2.291   5.296
 4515SOL    HW214445   5.924   2.154   5.235
 4516SOL     OW14446   2.523   0.393   0.051
 4516SOL    HW114447   2.518   0.452   6.987
 4516SOL    HW214448   2.436   0.395   0.100
 4517SOL     OW14449   4.988   6.691   6.480
 4517SOL    HW114450   5.006   6.701   6.578
 4517SOL    HW214451   5.040   6.614   6.444
 4518SOL     OW14452   0.290   6.541   2.415
 4518SOL    HW114453   0.368   6.601   2.432
 4518SOL    HW214454   0.256   6.557   2.322
 4519SOL     OW14455   5.332   6.666   0.778
 4519SOL    HW114456   5.321   6.758   0.816
 4519SOL    HW214457   5.424   6.633   0.796
 4520SOL     OW14458   4.470   5.885   6.303
 4520SOL    HW114459   4.565   5.916   6.297
 4520SOL    HW214460   4.461   5.798   6.255
 4521SOL     OW14461   5.535   2.312   5.588
 4521SOL    HW114462   5.570   2.246   5.521
 4521SOL    HW214463   5.599   2.321   5.663
 4522SOL     OW14464   5.648   4.675   3.429
 4522SOL    HW114465   5.565   4.679   3.374
 4522SOL    HW214466   5.721   4.724   3.383
 4523SOL     OW14467   1.271   4.304   0.035
 4523SOL    HW114468   1.324   4.267   0.112
 4523SOL    HW214469   1.189   4.349   0.069
 4524SOL     OW14470   6.367   3.587   2.387
 4524SOL    HW114471   6.372   3.669   2.331
 4524SOL    HW214472   6.274   3.548   2.382
 4525SOL     OW14473   3.977   2.189   5.491
 4525SOL    HW114474   3.910   2.164   5.561
 4525SOL    HW214475   4.032   2.109   5.467
 4526SOL     OW14476   6.315   0.271   6.908
 4526SOL    HW114477   6.277   0.180   6.925
 4526SOL    HW214478   6.411   0.272   6.933
 4527SOL     OW14479   6.657   0.018   2.588
 4527SOL    HW114480   6.655   0.086   2.661
 4527SOL    HW214481   6.610   6.952   2.618
 4528SOL     OW14482   4.352   0.691   6.603
 4528SOL    HW114483   4.420   0.733   6.663
 4528SOL    HW214484   4.393   0.613   6.556
 4529SOL     OW14485   2.344   1.194   5.353
 4529SOL    HW114486   2.374   1.184   5.258
 4529SOL    HW214487   2.421   1.223   5.409
 4530SOL     OW14488   2.288   5.435   3.192
 4530SOL    HW114489   2.292   5.384   3.278
 4530SOL    HW214490   2.362   5.404   3.132
 4531SOL     OW14491   0.613   2.955   6.238
 4531SOL    HW114492   0.682   3.025   6.252
 4531SOL    HW214493   0.566   2.972   6.151
 4532SOL     OW14494   6.397   1.268   2.623
 4532SOL    HW114495   6.422   1.362   2.602
 4532SOL    HW214496   6.315   1.243   2.571
 4533SOL     OW14497   2.269   0.579   2.687
 4533SOL    HW114498   2.309   0.492   2.656
 4533SOL    HW214499   2.292   0.594   2.783
 4534SOL     OW14500   5.150   3.188   5.171
 4534SOL    HW114501   5.131   3.258   5.240
 4534SOL    HW214502   5.246   3.194   5.143
 4535SOL     OW14503   3.877   1.191   1.830
 4535SOL    HW114504   3.907   1.172   1.923
 4535SOL    HW214505   3.834   1.109   1.791
 4536SOL     OW14506   3.594   1.610   5.130
 4536SOL    HW114507   3.498   1.629   5.152
 4536SOL    HW214508   3.620   1.661   5.048
 4537SOL     OW14509   4.234   3.124   1.329
 4537SOL    HW114510   4.245   3.180   1.412
 4537SOL    HW214511   4.138   3.128   1.300
 4538SOL     OW14512   2.776   0.423   2.129
 4538SOL    HW114513   2.698   0.364   2.147
 4538SOL    HW214514   2.825   0.389   2.048
 4539SOL     OW14515   3.149   5.683   5.352
 4539SOL    HW114516   3.235   5.673   5.301
 4539SOL    HW214517   3.148   5.772   5.398
 4540SOL     OW14518   2.280   1.220   0.480
 4540SOL    HW114519   2.277   1.135   0.532
 4540SOL    HW214520   2.192   1.268   0.489
 4541SOL     OW14521   5.087   1.562   6.651
 4541SOL    HW114522   5.039   1.637   6.605
 4541SOL    HW214523   5.170   1.598   6.694
 4542SOL     OW14524   0.041   2.629   2.064
 4542SOL    HW114525   0.021   2.577   2.147
 4542SOL    HW214526   0.138   2.618   2.041
 4543SOL     OW14527   4.906   2.290   1.097
 4543SOL    HW114528   4.977   2.313   1.030
 4543SOL    HW214529   4.816   2.308   1.057
 4544SOL     OW14530   3.470   5.400   0.038
 4544SOL    HW114531   3.514   5.481   0.075
 4544SOL    HW214532   3.531   5.354   6.990
 4545SOL     OW14533   6.674   3.146   5.094
 4545SOL    HW114534   6.598   3.210   5.087
 4545SOL    HW214535   6.760   3.196   5.106
 4546SOL     OW14536   3.176   6.382   4.025
 4546SOL    HW114537   3.128   6.389   4.112
 4546SOL    HW214538   3.272   6.407   4.038
 4547SOL     OW14539   6.340   1.192   0.614
 4547SOL    HW114540   6.388   1.175   0.528
 4547SOL    HW214541   6.380   1.272   0.659
 4548SOL     OW14542   2.737   2.401   3.694
 4548SOL    HW114543   2.653   2.415   3.746
 4548SOL    HW214544   2.724   2.437   3.601
 4549SOL     OW14545   5.419   3.854   2.467
 4549SOL    HW114546   5.375   3.775   2.511
 4549SOL    HW214547   5.348   3.917   2.435
 4550SOL     OW14548   1.110   4.234   2.371
 4550SOL    HW114549   1.153   4.224   2.281
 4550SOL    HW214550   1.139   4.319   2.413
 4551SOL     OW14551   0.853   3.758   4.454
 4551SOL    HW114552   0.917   3.806   4.514
 4551SOL    HW214553   0.777   3.721   4.509
 4552SOL     OW14554   5.316   2.390   1.116
 4552SOL    HW114555   5.291   2.381   1.019
 4552SOL    HW214556   5.334   2.299   1.153
 4553SOL     OW14557   4.946   3.815   0.090
 4553SOL    HW114558   5.018   3.747   0.075
 4553SOL    HW214559   4.859   3.777   0.059
 4554SOL     OW14560   6.709   0.416   1.517
 4554SOL    HW114561   6.753   0.338   1.471
 4554SOL    HW214562   6.675   0.480   1.448
 4555SOL     OW14563   1.565   1.170   5.551
 4555SOL    HW114564   1.591   1.107   5.478
 4555SOL    HW214565   1.568   1.122   5.639
 4556SOL     OW14566   5.882   3.387   4.622
 4556SOL    HW114567   5.795   3.396   4.574
 4556SOL    HW214568   5.954   3.363   4.556
 4557SOL     OW14569   4.854   5.284   4.082
 4557SOL    HW114570   4.907   5.353   4.131
 4557SOL    HW214571   4.787   5.243   4.144
 4558SOL     OW14572   6.941   3.960   4.518
 4558SOL    HW114573   6.898   3.886   4.467
 4558SOL    HW214574   7.002   3.921   4.588
 4559SOL     OW14575   6.997   3.132   2.570
 4559SOL    HW114576   6.997   3.192   2.489
 4559SOL    HW214577   6.950   3.047   2.547
 4560SOL     OW14578   5.664   3.877   1.438
 4560SOL    HW114579   5.686   3.946   1.369
 4560SOL    HW214580   5.718   3.795   1.422
 4561SOL     OW14581   3.605   2.106   3.433
 4561SOL    HW114582   3.683   2.045   3.416
 4561SOL    HW214583   3.607   2.182   3.368
 4562SOL     OW14584   1.308   0.438   0.479
 4562SOL    HW114585   1.294   0.345   0.445
 4562SOL    HW214586   1.261   0.449   0.567
 4563SOL     OW14587   0.066   3.417   1.122
 4563SOL    HW114588   0.140   3.451   1.179
 4563SOL    HW214589   0.018   3.344   1.170
 4564SOL     OW14590   6.755   6.122   1.824
 4564SOL    HW114591   6.739   6.215   1.855
 4564SOL    HW214592   6.829   6.081   1.878
 4565SOL     OW14593   1.568   0.985   3.920
 4565SOL    HW114594   1.553   1.075   3.960
 4565SOL    HW214595   1.666   0.966   3.914
 4566SOL     OW14596   6.884   3.748   1.550
 4566SOL    HW114597   6.927   3.663   1.520
 4566SOL    HW214598   6.873   3.809   1.472
 4567SOL     OW14599   0.139   1.471   6.321
 4567SOL    HW114600   0.051   1.431   6.346
 4567SOL    HW214601   0.195   1.403   6.275
 4568SOL     OW14602   1.608   3.520   5.632
 4568SOL    HW114603   1.606   3.599   5.693
 4568SOL    HW214604   1.555   3.539   5.549
 4569SOL     OW14605   2.491   0.496   3.286
 4569SOL    HW114606   2.411   0.469   3.338
 4569SOL    HW214607   2.465   0.511   3.190
 4570SOL     OW14608   6.161   6.688   2.203
 4570SOL    HW114609   6.191   6.626   2.276
 4570SOL    HW214610   6.161   6.639   2.116
 4571SOL     OW14611   4.873   2.858   6.603
 4571SOL    HW114612   4.969   2.832   6.596
 4571SOL    HW214613   4.864   2.956   6.584
 4572SOL     OW14614   2.309   0.948   6.280
 4572SOL    HW114615   2.232   0.907   6.329
 4572SOL    HW214616   2.287   1.043   6.258
 4573SOL     OW14617   0.141   6.884   0.510
 4573SOL    HW114618   0.222   6.875   0.452
 4573SOL    HW214619   0.096   6.971   0.491
 4574SOL     OW14620   5.719   4.222   0.275
 4574SOL    HW114621   5.769   4.245   0.192
 4574SOL    HW214622   5.621   4.219   0.256
 4575SOL     OW14623   5.492   0.668   5.349
 4575SOL    HW114624   5.480   0.624   5.261
 4575SOL    HW214625   5.550   0.749   5.339
 4576SOL     OW14626   3.020   5.125   5.322
 4576SOL    HW114627   2.945   5.187   5.346
 4576SOL    HW214628   3.012   5.099   5.226
 4577SOL     OW14629   1.307   2.989   4.147
 4577SOL    HW114630   1.280   3.070   4.200
 4577SOL    HW214631   1.357   2.926   4.206
 4578SOL     OW14632   0.968   1.812   4.645
 4578SOL    HW114633   0.984   1.717   4.616
 4578SOL    HW214634   1.053   1.864   4.637
 4579SOL     OW14635   4.584   1.276   2.508
 4579SOL    HW114636   4.531   1.330   2.574
 4579SOL    HW214637   4.667   1.325   2.483
 4580SOL     OW14638   5.363   4.118   0.459
 4580SOL    HW114639   5.323   4.060   0.389
 4580SOL    HW214640   5.302   4.195   0.477
 4581SOL     OW14641   2.361   5.966   2.217
 4581SOL    HW114642   2.425   5.892   2.200
 4581SOL    HW214643   2.390   6.017   2.298
 4582SOL     OW14644   4.716   0.716   3.720
 4582SOL    HW114645   4.760   0.689   3.806
 4582SOL    HW214646   4.740   0.811   3.698
 4583SOL     OW14647   2.750   1.267   6.644
 4583SOL    HW114648   2.804   1.215   6.710
 4583SOL    HW214649   2.774   1.238   6.551
 4584SOL     OW14650   1.051   5.095   5.192
 4584SOL    HW114651   0.956   5.104   5.221
 4584SOL    HW214652   1.096   5.024   5.247
 4585SOL     OW14653   2.138   4.638   3.165
 4585SOL    HW114654   2.155   4.729   3.203
 4585SOL    HW214655   2.224   4.587   3.161
 4586SOL     OW14656   4.024   3.941   0.642
 4586SOL    HW114657   4.080   3.858   0.636
 4586SOL    HW214658   3.929   3.918   0.623
 4587SOL     OW14659   3.496   3.528   3.640
 4587SOL    HW114660   3.551   3.444   3.647
 4587SOL    HW214661   3.511   3.570   3.551
 4588SOL     OW14662   2.961   2.839   5.954
 4588SOL    HW114663   2.914   2.832   5.866
 4588SOL    HW214664   3.036   2.904   5.948
 4589SOL     OW14665   5.598   0.409   1.926
 4589SOL    HW114666   5.611   0.340   1.856
 4589SOL    HW214667   5.500   0.421   1.944
 4590SOL     OW14668   4.030   4.623   1.244
 4590SOL    HW114669   3.977   4.697   1.203
 4590SOL    HW214670   4.076   4.657   1.327
 4591SOL     OW14671   2.086   0.323   5.055
 4591SOL    HW114672   2.103   0.225   5.042
 4591SOL    HW214673   2.026   0.335   5.134
 4592SOL     OW14674   3.443   0.642   2.878
 4592SOL    HW114675   3.417   0.649   2.974
 4592SOL    HW214676   3.395   0.711   2.825
 4593SOL     OW14677   6.156   6.447   2.045
 4593SOL    HW114678   6.072   6.396   2.067
 4593SOL    HW214679   6.155   6.473   1.948
 4594SOL     OW14680   3.256   0.371   3.076
 4594SOL    HW114681   3.304   0.458   3.064
 4594SOL    HW214682   3.187   0.361   3.005
 4595SOL     OW14683   4.798   3.078   5.902
 4595SOL    HW114684   4.742   3.144   5.953
 4595SOL    HW214685   4.740   3.031   5.836
 4596SOL     OW14686   6.655   0.205   2.772
 4596SOL    HW114687   6.719   0.172   2.842
 4596SOL    HW214688   6.669   0.303   2.757
 4597SOL     OW14689   2.657   5.551   6.561
 4597SOL    HW114690   2.594   5.475   6.573
 4597SOL    HW214691   2.627   5.628   6.616
 4598SOL     OW14692   1.282   5.465   1.299
 4598SOL    HW114693   1.360   5.511   1.342
 4598SOL    HW214694   1.197   5.496   1.343
 4599SOL     OW14695   1.305   4.733   1.312
 4599SOL    HW114696   1.291   4.745   1.410
 4599SOL    HW214697   1.345   4.643   1.294
 4600SOL     OW14698   0.504   6.396   5.798
 4600SOL    HW114699   0.408   6.425   5.793
 4600SOL    HW214700   0.509   6.296   5.795
 4601SOL     OW14701   0.702   1.672   5.293
 4601SOL    HW114702   0.733   1.675   5.198
 4601SOL    HW214703   0.644   1.592   5.307
 4602SOL     OW14704   2.976   6.548   0.579
 4602SOL    HW114705   3.005   6.478   0.513
 4602SOL    HW214706   3.015   6.636   0.554
 4603SOL     OW14707   3.525   5.671   0.599
 4603SOL    HW114708   3.532   5.572   0.583
 4603SOL    HW214709   3.575   5.720   0.528
 4604SOL     OW14710   4.788   6.921   6.716
 4604SOL    HW114711   4.867   6.859   6.727
 4604SOL    HW214712   4.710   6.884   6.766
 4605SOL     OW14713   2.064   6.881   1.458
 4605SOL    HW114714   2.001   6.931   1.398
 4605SOL    HW214715   2.119   6.818   1.404
 4606SOL     OW14716   0.473   6.813   2.642
 4606SOL    HW114717   0.515   6.748   2.578
 4606SOL    HW214718   0.473   6.773   2.734
 4607SOL     OW14719   1.834   3.028   3.360
 4607SOL    HW114720   1.751   2.973   3.375
 4607SOL    HW214721   1.869   3.009   3.268
 4608SOL     OW14722   6.806   4.439   3.810
 4608SOL    HW114723   6.883   4.426   3.748
 4608SOL    HW214724   6.730   4.480   3.760
 4609SOL     OW14725   5.079   4.818   6.842
 4609SOL    HW114726   5.049   4.859   6.928
 4609SOL    HW214727   5.150   4.875   6.801
 4610SOL     OW14728   4.430   1.832   0.181
 4610SOL    HW114729   4.373   1.909   0.152
 4610SOL    HW214730   4.439   1.767   0.105
 4611SOL     OW14731   0.467   0.410   6.212
 4611SOL    HW114732   0.377   0.390   6.250
 4611SOL    HW214733   0.508   0.327   6.175
 4612SOL     OW14734   2.535   6.939   0.480
 4612SOL    HW114735   2.557   6.973   0.388
 4612SOL    HW214736   2.619   6.906   0.524
 4613SOL     OW14737   1.667   5.945   2.517
 4613SOL    HW114738   1.704   5.920   2.606
 4613SOL    HW214739   1.731   6.006   2.470
 4614SOL     OW14740   5.919   3.112   3.511
 4614SOL    HW114741   6.000   3.128   3.567
 4614SOL    HW214742   5.939   3.137   3.416
 4615SOL     OW14743   0.978   1.351   0.708
 4615SOL    HW114744   0.894   1.394   0.674
 4615SOL    HW214745   1.048   1.354   0.636
 4616SOL     OW14746   5.356   1.667   4.367
 4616SOL    HW114747   5.388   1.733   4.300
 4616SOL    HW214748   5.320   1.714   4.447
 4617SOL     OW14749   1.591   2.086   2.377
 4617SOL    HW114750   1.595   2.134   2.289
 4617SOL    HW214751   1.497   2.059   2.397
 4618SOL     OW14752   2.124   3.799   5.596
 4618SOL    HW114753   2.191   3.803   5.522
 4618SOL    HW214754   2.070   3.883   5.597
 4619SOL     OW14755   2.904   6.210   3.711
 4619SOL    HW114756   2.936   6.190   3.618
 4619SOL    HW214757   2.919   6.307   3.731
 4620SOL     OW14758   0.986   4.921   1.291
 4620SOL    HW114759   1.081   4.895   1.276
 4620SOL    HW214760   0.981   5.005   1.346
 4621SOL     OW14761   4.949   0.867   2.182
 4621SOL    HW114762   4.980   0.962   2.180
 4621SOL    HW214763   4.853   0.864   2.208
 4622SOL     OW14764   3.895   5.094   0.863
 4622SOL    HW114765   3.975   5.133   0.909
 4622SOL    HW214766   3.860   5.018   0.916
 4623SOL     OW14767   4.662   5.489   1.278
 4623SOL    HW114768   4.723   5.567   1.291
 4623SOL    HW214769   4.715   5.404   1.277
 4624SOL     OW14770   3.452   0.336   2.805
 4624SOL    HW114771   3.453   0.311   2.709
 4624SOL    HW214772   3.544   0.366   2.833
 4625SOL     OW14773   1.581   5.353   1.996
 4625SOL    HW114774   1.487   5.333   1.968
 4625SOL    HW214775   1.620   5.271   2.039
 4626SOL     OW14776   4.614   4.457   1.764
 4626SOL    HW114777   4.550   4.409   1.824
 4626SOL    HW214778   4.592   4.439   1.669
 4627SOL     OW14779   0.808   4.917   5.111
 4627SOL    HW114780   0.756   4.861   5.176
 4627SOL    HW214781   0.789   5.013   5.128
 4628SOL     OW14782   4.563   4.524   4.880
 4628SOL    HW114783   4.480   4.527   4.935
 4628SOL    HW214784   4.563   4.441   4.824
 4629SOL     OW14785   2.191   4.863   5.251
 4629SOL    HW114786   2.153   4.955   5.244
 4629SOL    HW214787   2.141   4.801   5.192
 4630SOL     OW14788   2.349   5.453   1.788
 4630SOL    HW114789   2.403   5.520   1.738
 4630SOL    HW214790   2.331   5.486   1.881
 4631SOL     OW14791   1.063   6.474   3.541
 4631SOL    HW114792   1.000   6.438   3.610
 4631SOL    HW214793   1.139   6.410   3.528
 4632SOL     OW14794   2.470   4.411   2.865
 4632SOL    HW114795   2.414   4.357   2.802
 4632SOL    HW214796   2.525   4.349   2.921
 4633SOL     OW14797   5.972   1.266   4.680
 4633SOL    HW114798   6.043   1.289   4.747
 4633SOL    HW214799   5.884   1.303   4.710
 4634SOL     OW14800   2.659   3.877   5.298
 4634SOL    HW114801   2.639   3.779   5.309
 4634SOL    HW214802   2.579   3.924   5.263
 4635SOL     OW14803   4.204   4.473   1.757
 4635SOL    HW114804   4.256   4.405   1.808
 4635SOL    HW214805   4.221   4.564   1.796
 4636SOL     OW14806   1.784   4.071   0.579
 4636SOL    HW114807   1.856   4.004   0.602
 4636SOL    HW214808   1.701   4.048   0.630
 4637SOL     OW14809   0.870   6.827   1.410
 4637SOL    HW114810   0.915   6.742   1.436
 4637SOL    HW214811   0.916   6.866   1.331
 4638SOL     OW14812   3.599   5.821   6.917
 4638SOL    HW114813   3.500   5.825   6.934
 4638SOL    HW214814   3.618   5.857   6.826
 4639SOL     OW14815   3.038   2.694   6.174
 4639SOL    HW114816   3.053   2.783   6.218
 4639SOL    HW214817   3.007   2.708   6.080
 4640SOL     OW14818   5.757   3.683   4.355
 4640SOL    HW114819   5.679   3.674   4.416
 4640SOL    HW214820   5.817   3.756   4.387
 4641SOL     OW14821   2.460   0.464   4.166
 4641SOL    HW114822   2.417   0.536   4.111
 4641SOL    HW214823   2.554   0.451   4.135
 4642SOL     OW14824   1.571   6.437   2.574
 4642SOL    HW114825   1.667   6.441   2.603
 4642SOL    HW214826   1.559   6.496   2.494
 4643SOL     OW14827   6.758   1.899   0.130
 4643SOL    HW114828   6.840   1.892   0.187
 4643SOL    HW214829   6.696   1.824   0.152
 4644SOL     OW14830   6.939   0.588   5.501
 4644SOL    HW114831   7.003   0.517   5.470
 4644SOL    HW214832   6.848   0.547   5.512
 4645SOL     OW14833   2.128   0.999   4.078
 4645SOL    HW114834   2.131   1.009   3.979
 4645SOL    HW214835   2.033   0.997   4.109
 4646SOL     OW14836   2.375   5.586   3.757
 4646SOL    HW114837   2.355   5.682   3.776
 4646SOL    HW214838   2.473   5.574   3.742
 4647SOL     OW14839   1.778   0.319   2.749
 4647SOL    HW114840   1.724   0.387   2.699
 4647SOL    HW214841   1.857   0.364   2.792
 4648SOL     OW14842   3.696   0.892   3.854
 4648SOL    HW114843   3.735   0.911   3.945
 4648SOL    HW214844   3.714   0.796   3.830
 4649SOL     OW14845   6.400   0.761   0.570
 4649SOL    HW114846   6.422   0.824   0.645
 4649SOL    HW214847   6.314   0.789   0.528
 4650SOL     OW14848   4.776   5.424   2.288
 4650SOL    HW114849   4.795   5.398   2.383
 4650SOL    HW214850   4.709   5.362   2.249
 4651SOL     OW14851   6.999   3.269   6.959
 4651SOL    HW114852   7.017   3.360   6.995
 4651SOL    HW214853   0.011   3.265   6.863
 4652SOL     OW14854   6.452   6.320   5.284
 4652SOL    HW114855   6.539   6.326   5.234
 4652SOL    HW214856   6.470   6.290   5.378
 4653SOL     OW14857   5.009   6.007   0.984
 4653SOL    HW114858   4.991   5.911   1.005
 4653SOL    HW214859   5.012   6.019   0.885
 4654SOL     OW14860   0.477   5.963   6.072
 4654SOL    HW114861   0.419   5.947   6.152
 4654SOL    HW214862   0.500   5.876   6.029
 4655SOL     OW14863   5.377   3.873   1.379
 4655SOL    HW114864   5.343   3.778   1.377
 4655SOL    HW214865   5.476   3.872   1.391
 4656SOL     OW14866   1.210   1.159   1.762
 4656SOL    HW114867   1.230   1.106   1.679
 4656SOL    HW214868   1.133   1.221   1.744
 4657SOL     OW14869   4.223   5.242   1.962
 4657SOL    HW114870   4.291   5.293   2.015
 4657SOL    HW214871   4.141   5.298   1.949
 4658SOL     OW14872   3.082   1.787   4.708
 4658SOL    HW114873   3.133   1.767   4.792
 4658SOL    HW214874   3.106   1.722   4.637
 4659SOL     OW14875   2.678   4.163   6.722
 4659SOL    HW114876   2.729   4.077   6.716
 4659SOL    HW214877   2.730   4.228   6.777
 4660SOL     OW14878   1.400   6.243   4.534
 4660SOL    HW114879   1.465   6.301   4.485
 4660SOL    HW214880   1.311   6.246   4.487
 4661SOL     OW14881   2.704   4.985   5.848
 4661SOL    HW114882   2.711   4.972   5.749
 4661SOL    HW214883   2.795   4.996   5.887
 4662SOL     OW14884   2.937   0.294   5.650
 4662SOL    HW114885   2.846   0.333   5.631
 4662SOL    HW214886   2.968   0.327   5.739
 4663SOL     OW14887   0.538   0.730   1.000
 4663SOL    HW114888   0.595   0.739   0.919
 4663SOL    HW214889   0.568   0.650   1.053
 4664SOL     OW14890   0.638   0.522   0.479
 4664SOL    HW114891   0.654   0.491   0.573
 4664SOL    HW214892   0.714   0.579   0.449
 4665SOL     OW14893   2.626   0.215   5.953
 4665SOL    HW114894   2.599   0.151   5.882
 4665SOL    HW214895   2.684   0.169   6.020
 4666SOL     OW14896   1.890   2.152   6.878
 4666SOL    HW114897   1.848   2.236   6.911
 4666SOL    HW214898   1.820   2.081   6.869
 4667SOL     OW14899   6.128   3.943   1.852
 4667SOL    HW114900   6.203   3.896   1.807
 4667SOL    HW214901   6.149   3.956   1.949
 4668SOL     OW14902   4.648   1.597   4.298
 4668SOL    HW114903   4.626   1.688   4.264
 4668SOL    HW214904   4.742   1.596   4.332
 4669SOL     OW14905   5.271   6.462   6.238
 4669SOL    HW114906   5.205   6.514   6.294
 4669SOL    HW214907   5.306   6.520   6.165
 4670SOL     OW14908   0.986   2.765   6.788
 4670SOL    HW114909   1.064   2.828   6.783
 4670SOL    HW214910   0.980   2.714   6.702
 4671SOL     OW14911   0.314   3.445   6.669
 4671SOL    HW114912   0.341   3.480   6.579
 4671SOL    HW214913   0.387   3.460   6.734
 4672SOL     OW14914   3.721   4.603   6.160
 4672SOL    HW114915   3.645   4.639   6.105
 4672SOL    HW214916   3.688   4.582   6.252
 4673SOL     OW14917   4.793   0.020   1.188
 4673SOL    HW114918   4.778   0.049   1.094
 4673SOL    HW214919   4.890   7.015   1.201
 4674SOL     OW14920   5.512   1.696   0.459
 4674SOL    HW114921   5.427   1.646   0.443
 4674SOL    HW214922   5.515   1.727   0.554
 4675SOL     OW14923   3.740   0.246   0.067
 4675SOL    HW114924   3.797   0.244   7.002
 4675SOL    HW214925   3.770   0.320   0.127
 4676SOL     OW14926   0.358   6.358   4.570
 4676SOL    HW114927   0.310   6.341   4.656
 4676SOL    HW214928   0.357   6.455   4.549
 4677SOL     OW14929   2.893   0.843   0.540
 4677SOL    HW114930   2.794   0.839   0.545
 4677SOL    HW214931   2.921   0.932   0.503
 4678SOL     OW14932   2.001   4.437   2.172
 4678SOL    HW114933   1.934   4.505   2.141
 4678SOL    HW214934   2.092   4.479   2.172
 4679SOL     OW14935   3.863   1.236   6.983
 4679SOL    HW114936   3.929   1.211   6.912
 4679SOL    HW214937   3.776   1.188   6.966
 4680SOL     OW14938   1.912   0.405   2.153
 4680SOL    HW114939   1.824   0.445   2.178
 4680SOL    HW214940   1.967   0.392   2.235
 4681SOL     OW14941   5.992   5.571   5.472
 4681SOL    HW114942   5.953   5.517   5.547
 4681SOL    HW214943   6.077   5.529   5.441
 4682SOL     OW14944   4.781   4.374   6.793
 4682SOL    HW114945   4.740   4.353   6.704
 4682SOL    HW214946   4.869   4.421   6.779
 4683SOL     OW14947   5.293   4.431   2.928
 4683SOL    HW114948   5.197   4.411   2.946
 4683SOL    HW214949   5.323   4.378   2.848
 4684SOL     OW14950   6.911   1.785   4.061
 4684SOL    HW114951   7.007   1.786   4.089
 4684SOL    HW214952   6.858   1.730   4.124
 4685SOL     OW14953   0.552   6.036   4.751
 4685SOL    HW114954   0.593   5.953   4.787
 4685SOL    HW214955   0.460   6.047   4.788
 4686SOL     OW14956   5.313   5.949   0.317
 4686SOL    HW114957   5.285   5.868   0.367
 4686SOL    HW214958   5.398   5.985   0.356
 4687SOL     OW14959   6.860   4.854   5.138
 4687SOL    HW114960   6.873   4.950   5.110
 4687SOL    HW214961   6.774   4.820   5.101
 4688SOL     OW14962   0.054   3.413   5.916
 4688SOL    HW114963   6.987   3.457   5.947
 4688SOL    HW214964   0.093   3.464   5.839
 4689SOL     OW14965   5.506   0.210   6.938
 4689SOL    HW114966   5.473   0.245   6.850
 4689SOL    HW214967   5.521   0.286   7.001
 4690SOL     OW14968   1.232   1.625   0.268
 4690SOL    HW114969   1.152   1.567   0.254
 4690SOL    HW214970   1.211   1.719   0.242
 4691SOL     OW14971   3.168   4.244   1.665
 4691SOL    HW114972   3.085   4.189   1.666
 4691SOL    HW214973   3.171   4.300   1.582
 4692SOL     OW14974   6.909   5.444   2.483
 4692SOL    HW114975   6.837   5.412   2.545
 4692SOL    HW214976   6.929   5.540   2.502
 4693SOL     OW14977   0.993   0.712   4.123
 4693SOL    HW114978   1.078   0.659   4.118
 4693SOL    HW214979   1.015   0.808   4.143
 4694SOL     OW14980   3.051   0.452   0.059
 4694SOL    HW114981   3.017   0.515   0.130
 4694SOL    HW214982   3.150   0.461   0.052
 4695SOL     OW14983   2.910   3.351   1.296
 4695SOL    HW114984   2.819   3.361   1.337
 4695SOL    HW214985   2.915   3.407   1.214
 4696SOL     OW14986   0.500   4.257   5.320
 4696SOL    HW114987   0.475   4.226   5.412
 4696SOL    HW214988   0.598   4.275   5.317
 4697SOL     OW14989   1.340   3.063   0.720
 4697SOL    HW114990   1.314   3.138   0.780
 4697SOL    HW214991   1.436   3.074   0.692
 4698SOL     OW14992   4.134   5.809   3.200
 4698SOL    HW114993   4.211   5.788   3.260
 4698SOL    HW214994   4.059   5.745   3.220
 4699SOL     OW14995   1.050   6.612   2.107
 4699SOL    HW114996   1.075   6.629   2.202
 4699SOL    HW214997   0.974   6.671   2.080
 4700SOL     OW14998   6.088   1.479   2.358
 4700SOL    HW114999   6.169   1.537   2.359
 4700SOL    HW215000   6.113   1.385   2.382
 4701SOL     OW15001   1.202   2.358   0.629
 4701SOL    HW115002   1.228   2.439   0.575
 4701SOL    HW215003   1.276   2.336   0.693
 4702SOL     OW15004   6.068   4.945   6.546
 4702SOL    HW115005   6.148   4.887   6.561
 4702SOL    HW215006   6.066   4.973   6.450
 4703SOL     OW15007   1.311   2.409   1.975
 4703SOL    HW115008   1.276   2.319   1.949
 4703SOL    HW215009   1.399   2.425   1.932
 4704SOL     OW15010   0.376   6.778   6.874
 4704SOL    HW115011   0.397   6.860   6.928
 4704SOL    HW215012   0.408   6.791   6.780
 4705SOL     OW15013   3.832   3.351   2.885
 4705SOL    HW115014   3.770   3.291   2.833
 4705SOL    HW215015   3.924   3.345   2.847
 4706SOL     OW15016   3.635   6.183   6.776
 4706SOL    HW115017   3.684   6.226   6.852
 4706SOL    HW215018   3.600   6.254   6.714
 4707SOL     OW15019   2.192   5.885   0.901
 4707SOL    HW115020   2.137   5.910   0.981
 4707SOL    HW215021   2.146   5.815   0.848
 4708SOL     OW15022   1.484   2.174   6.696
 4708SOL    HW115023   1.454   2.194   6.790
 4708SOL    HW215024   1.467   2.077   6.677
 4709SOL     OW15025   3.756   5.071   5.372
 4709SOL    HW115026   3.771   5.050   5.276
 4709SOL    HW215027   3.663   5.045   5.398
 4710SOL     OW15028   3.855   0.998   5.515
 4710SOL    HW115029   3.857   1.098   5.518
 4710SOL    HW215030   3.833   0.962   5.606
 4711SOL     OW15031   5.160   0.310   2.493
 4711SOL    HW115032   5.137   0.315   2.590
 4711SOL    HW215033   5.259   0.324   2.481
 4712SOL     OW15034   3.131   4.429   0.565
 4712SOL    HW115035   3.118   4.413   0.467
 4712SOL    HW215036   3.131   4.342   0.614
 4713SOL     OW15037   2.744   4.076   1.158
 4713SOL    HW115038   2.770   4.118   1.071
 4713SOL    HW215039   2.763   3.978   1.154
 4714SOL     OW15040   1.816   2.002   0.238
 4714SOL    HW115041   1.776   1.932   0.179
 4714SOL    HW215042   1.752   2.023   0.313
 4715SOL     OW15043   6.798   3.904   1.878
 4715SOL    HW115044   6.853   3.833   1.833
 4715SOL    HW215045   6.702   3.892   1.853
 4716SOL     OW15046   3.948   5.914   6.706
 4716SOL    HW115047   3.851   5.938   6.696
 4716SOL    HW215048   3.997   5.940   6.623
 4717SOL     OW15049   0.299   6.477   3.350
 4717SOL    HW115050   0.328   6.426   3.269
 4717SOL    HW215051   0.355   6.451   3.428
 4718SOL     OW15052   5.517   2.013   6.674
 4718SOL    HW115053   5.473   2.080   6.615
 4718SOL    HW215054   5.498   1.921   6.640
 4719SOL     OW15055   4.909   3.135   2.587
 4719SOL    HW115056   4.884   3.094   2.675
 4719SOL    HW215057   4.869   3.081   2.513
 4720SOL     OW15058   2.339   5.950   5.591
 4720SOL    HW115059   2.302   5.981   5.503
 4720SOL    HW215060   2.362   5.853   5.584
 4721SOL     OW15061   6.608   2.415   1.287
 4721SOL    HW115062   6.593   2.432   1.385
 4721SOL    HW215063   6.678   2.344   1.276
 4722SOL     OW15064   1.294   6.322   0.011
 4722SOL    HW115065   1.391   6.349   0.012
 4722SOL    HW215066   1.274   6.268   0.092
 4723SOL     OW15067   1.941   4.908   6.028
 4723SOL    HW115068   1.948   4.942   6.121
 4723SOL    HW215069   1.879   4.967   5.976
 4724SOL     OW15070   4.828   5.806   2.792
 4724SOL    HW115071   4.858   5.901   2.785
 4724SOL    HW215072   4.873   5.752   2.720
 4725SOL     OW15073   5.902   6.809   2.725
 4725SOL    HW115074   5.891   6.906   2.702
 4725SOL    HW215075   5.983   6.798   2.782
 4726SOL     OW15076   1.646   3.212   6.599
 4726SOL    HW115077   1.717   3.143   6.582
 4726SOL    HW215078   1.666   3.294   6.545
 4727SOL     OW15079   6.952   6.502   0.067
 4727SOL    HW115080   6.972   6.463   6.994
 4727SOL    HW215081   6.861   6.473   0.096
 4728SOL     OW15082   4.974   1.928   1.076
 4728SOL    HW115083   4.880   1.940   1.043
 4728SOL    HW215084   4.978   1.850   1.139
 4729SOL     OW15085   2.891   1.313   2.314
 4729SOL    HW115086   2.840   1.231   2.341
 4729SOL    HW215087   2.835   1.368   2.252
 4730SOL     OW15088   2.282   5.603   5.300
 4730SOL    HW115089   2.264   5.610   5.202
 4730SOL    HW215090   2.200   5.573   5.347
 4731SOL     OW15091   4.478   0.274   6.347
 4731SOL    HW115092   4.518   0.322   6.425
 4731SOL    HW215093   4.390   0.317   6.322
 4732SOL     OW15094   6.903   3.631   5.974
 4732SOL    HW115095   6.947   3.717   5.999
 4732SOL    HW215096   6.832   3.609   6.041
 4733SOL     OW15097   1.112   4.171   2.895
 4733SOL    HW115098   1.023   4.133   2.868
 4733SOL    HW215099   1.125   4.159   2.994
 4734SOL     OW15100   4.795   3.384   6.895
 4734SOL    HW115101   4.797   3.309   6.960
 4734SOL    HW215102   4.706   3.386   6.848
 4735SOL     OW15103   0.809   5.413   4.266
 4735SOL    HW115104   0.823   5.503   4.223
 4735SOL    HW215105   0.816   5.342   4.196
 4736SOL     OW15106   0.443   1.830   6.603
 4736SOL    HW115107   0.491   1.918   6.610
 4736SOL    HW215108   0.443   1.786   6.693
 4737SOL     OW15109   1.345   4.971   2.214
 4737SOL    HW115110   1.434   4.925   2.211
 4737SOL    HW215111   1.320   5.001   2.121
 4738SOL     OW15112   6.861   5.826   2.948
 4738SOL    HW115113   6.930   5.808   3.018
 4738SOL    HW215114   6.770   5.822   2.989
 4739SOL     OW15115   4.529   6.553   3.055
 4739SOL    HW115116   4.449   6.579   3.109
 4739SOL    HW215117   4.599   6.624   3.064
 4740SOL     OW15118   0.379   1.144   1.586
 4740SOL    HW115119   0.458   1.190   1.626
 4740SOL    HW215120   0.406   1.097   1.503
 4741SOL     OW15121   3.235   2.439   1.554
 4741SOL    HW115122   3.214   2.463   1.459
 4741SOL    HW215123   3.159   2.387   1.593
 4742SOL     OW15124   1.842   6.843   5.347
 4742SOL    HW115125   1.758   6.830   5.401
 4742SOL    HW215126   1.918   6.798   5.393
 4743SOL     OW15127   2.131   3.445   2.988
 4743SOL    HW115128   2.161   3.529   2.942
 4743SOL    HW215129   2.148   3.453   3.086
 4744SOL     OW15130   2.084   5.092   1.070
 4744SOL    HW115131   2.094   5.190   1.087
 4744SOL    HW215132   2.174   5.051   1.059
 4745SOL     OW15133   3.355   3.826   6.977
 4745SOL    HW115134   3.307   3.882   0.028
 4745SOL    HW215135   3.291   3.759   6.939
 4746SOL     OW15136   4.547   6.328   3.889
 4746SOL    HW115137   4.462   6.299   3.845
 4746SOL    HW215138   4.540   6.424   3.917
 4747SOL     OW15139   0.680   4.105   0.557
 4747SOL    HW115140   0.718   4.068   0.642
 4747SOL    HW215141   0.652   4.031   0.497
 4748SOL     OW15142   1.752   6.506   1.424
 4748SOL    HW115143   1.801   6.452   1.493
 4748SOL    HW215144   1.654   6.504   1.443
 4749SOL     OW15145   1.704   7.016   6.305
 4749SOL    HW115146   1.801   0.022   6.293
 4749SOL    HW215147   1.667   0.054   6.380
 4750SOL     OW15148   6.416   3.372   5.394
 4750SOL    HW115149   6.409   3.436   5.317
 4750SOL    HW215150   6.473   3.413   5.466
 4751SOL     OW15151   4.595   2.542   3.002
 4751SOL    HW115152   4.626   2.461   3.053
 4751SOL    HW215153   4.554   2.513   2.916
 4752SOL     OW15154   4.756   0.624   0.204
 4752SOL    HW115155   4.694   0.701   0.191
 4752SOL    HW215156   4.785   0.621   0.300
 4753SOL     OW15157   0.837   6.775   3.920
 4753SOL    HW115158   0.905   6.780   3.847
 4753SOL    HW215159   0.754   6.823   3.892
 4754SOL     OW15160   5.043   3.731   5.070
 4754SOL    HW115161   4.962   3.676   5.048
 4754SOL    HW215162   5.099   3.681   5.136
 4755SOL     OW15163   2.742   0.528   0.904
 4755SOL    HW115164   2.763   0.445   0.852
 4755SOL    HW215165   2.760   0.608   0.848
 4756SOL     OW15166   6.375   3.817   5.583
 4756SOL    HW115167   6.342   3.778   5.669
 4756SOL    HW215168   6.308   3.885   5.550
 4757SOL     OW15169   1.521   2.449   1.403
 4757SOL    HW115170   1.462   2.530   1.400
 4757SOL    HW215171   1.548   2.424   1.310
 4758SOL     OW15172   1.166   6.858   3.345
 4758SOL    HW115173   1.208   6.788   3.287
 4758SOL    HW215174   1.238   6.906   3.396
 4759SOL     OW15175   0.705   5.553   6.249
 4759SOL    HW115176   0.742   5.491   6.179
 4759SOL    HW215177   0.617   5.519   6.280
 4760SOL     OW15178   1.924   1.167   0.777
 4760SOL    HW115179   1.836   1.122   0.759
 4760SOL    HW215180   1.993   1.098   0.799
 4761SOL     OW15181   1.316   0.786   0.630
 4761SOL    HW115182   1.352   0.873   0.597
 4761SOL    HW215183   1.334   0.714   0.563
 4762SOL     OW15184   1.647   5.835   2.067
 4762SOL    HW115185   1.578   5.896   2.106
 4762SOL    HW215186   1.718   5.890   2.023
 4763SOL     OW15187   4.700   0.622   2.476
 4763SOL    HW115188   4.721   0.619   2.573
 4763SOL    HW215189   4.777   0.584   2.424
 4764SOL     OW15190   4.514   3.564   5.379
 4764SOL    HW115191   4.579   3.549   5.305
 4764SOL    HW215192   4.562   3.602   5.458
 4765SOL     OW15193   3.773   0.885   5.770
 4765SOL    HW115194   3.772   0.964   5.831
 4765SOL    HW215195   3.849   0.825   5.795
 4766SOL     OW15196   6.332   6.575   4.400
 4766SOL    HW115197   6.274   6.494   4.402
 4766SOL    HW215198   6.426   6.550   4.419
 4767SOL     OW15199   2.867   4.985   5.511
 4767SOL    HW115200   2.823   5.068   5.545
 4767SOL    HW215201   2.904   5.002   5.420
 4768SOL     OW15202   3.476   2.913   5.870
 4768SOL    HW115203   3.410   2.876   5.937
 4768SOL    HW215204   3.434   2.913   5.779
 4769SOL     OW15205   3.660   6.048   0.572
 4769SOL    HW115206   3.708   6.056   0.659
 4769SOL    HW215207   3.672   5.956   0.535
 4770SOL     OW15208   0.308   1.849   4.822
 4770SOL    HW115209   0.294   1.908   4.742
 4770SOL    HW215210   0.232   1.785   4.828
 4771SOL     OW15211   2.311   6.756   6.294
 4771SOL    HW115212   2.347   6.849   6.296
 4771SOL    HW215213   2.387   6.691   6.306
 4772SOL     OW15214   3.273   4.662   1.461
 4772SOL    HW115215   3.217   4.739   1.432
 4772SOL    HW215216   3.308   4.613   1.381
 4773SOL     OW15217   0.863   5.868   5.340
 4773SOL    HW115218   0.823   5.788   5.297
 4773SOL    HW215219   0.797   5.910   5.402
 4774SOL     OW15220   1.321   4.155   1.347
 4774SOL    HW115221   1.410   4.138   1.388
 4774SOL    HW215222   1.254   4.091   1.386
 4775SOL     OW15223   5.016   0.342   4.174
 4775SOL    HW115224   5.103   0.304   4.143
 4775SOL    HW215225   5.018   0.442   4.162
 4776SOL     OW15226   0.935   1.133   5.093
 4776SOL    HW115227   0.927   1.085   5.005
 4776SOL    HW215228   0.935   1.232   5.077
 4777SOL     OW15229   1.649   5.771   1.169
 4777SOL    HW115230   1.551   5.759   1.189
 4777SOL    HW215231   1.667   5.746   1.074
 4778SOL     OW15232   7.005   2.994   4.629
 4778SOL    HW115233   0.015   3.023   4.538
 4778SOL    HW215234   0.024   2.902   4.647
 4779SOL     OW15235   5.572   6.863   3.663
 4779SOL    HW115236   5.655   6.861   3.607
 4779SOL    HW215237   5.571   6.946   3.718
 4780SOL     OW15238   6.004   2.605   6.711
 4780SOL    HW115239   5.996   2.513   6.673
 4780SOL    HW215240   5.951   2.669   6.656
 4781SOL     OW15241   2.907   5.003   2.110
 4781SOL    HW115242   2.950   4.914   2.091
 4781SOL    HW215243   2.970   5.076   2.083
 4782SOL     OW15244   6.298   5.622   6.276
 4782SOL    HW115245   6.373   5.688   6.273
 4782SOL    HW215246   6.244   5.637   6.359
 4783SOL     OW15247   5.783   3.950   7.011
 4783SOL    HW115248   5.762   3.869   0.048
 4783SOL    HW215249   5.861   3.997   0.034
 4784SOL     OW15250   6.191   2.064   6.371
 4784SOL    HW115251   6.241   1.978   6.360
 4784SOL    HW215252   6.093   2.047   6.361
 4785SOL     OW15253   0.334   6.713   3.138
 4785SOL    HW115254   0.333   6.783   3.208
 4785SOL    HW215255   0.349   6.623   3.180
 4786SOL     OW15256   2.269   6.865   6.716
 4786SOL    HW115257   2.315   6.798   6.657
 4786SOL    HW215258   2.327   6.945   6.725
 4787SOL     OW15259   3.965   1.711   3.538
 4787SOL    HW115260   3.890   1.773   3.516
 4787SOL    HW215261   3.939   1.652   3.614
 4788SOL     OW15262   6.377   6.198   0.802
 4788SOL    HW115263   6.364   6.250   0.717
 4788SOL    HW215264   6.468   6.217   0.839
 4789SOL     OW15265   4.968   1.846   1.658
 4789SOL    HW115266   5.013   1.790   1.728
 4789SOL    HW215267   5.032   1.863   1.583
 4790SOL     OW15268   5.707   2.116   5.836
 4790SOL    HW115269   5.743   2.088   5.747
 4790SOL    HW215270   5.609   2.094   5.840
 4791SOL     OW15271   6.864   3.042   1.724
 4791SOL    HW115272   6.954   3.059   1.764
 4791SOL    HW215273   6.865   3.068   1.627
 4792SOL     OW15274   2.310   4.448   4.495
 4792SOL    HW115275   2.319   4.428   4.592
 4792SOL    HW215276   2.398   4.478   4.459
 4793SOL     OW15277   1.891   3.712   5.175
 4793SOL    HW115278   1.886   3.809   5.200
 4793SOL    HW215279   1.884   3.656   5.257
 4794SOL     OW15280   4.268   6.776   4.492
 4794SOL    HW115281   4.350   6.819   4.528
 4794SOL    HW215282   4.204   6.756   4.567
 4795SOL     OW15283   6.590   1.702   4.438
 4795SOL    HW115284   6.547   1.664   4.520
 4795SOL    HW215285   6.520   1.725   4.370
 4796SOL     OW15286   3.750   0.174   6.356
 4796SOL    HW115287   3.686   0.196   6.282
 4796SOL    HW215288   3.761   0.075   6.362
 4797SOL     OW15289   0.561   5.952   4.418
 4797SOL    HW115290   0.482   6.010   4.398
 4797SOL    HW215291   0.559   5.925   4.514
 4798SOL     OW15292   5.727   5.090   5.383
 4798SOL    HW115293   5.690   5.137   5.463
 4798SOL    HW215294   5.670   5.010   5.363
 4799SOL     OW15295   4.173   1.433   0.275
 4799SOL    HW115296   4.148   1.348   0.230
 4799SOL    HW215297   4.260   1.466   0.239
 4800SOL     OW15298   1.571   4.005   6.733
 4800SOL    HW115299   1.542   4.101   6.726
 4800SOL    HW215300   1.531   3.953   6.658
 4801SOL     OW15301   3.747   2.610   6.618
 4801SOL    HW115302   3.749   2.691   6.560
 4801SOL    HW215303   3.673   2.550   6.588
 4802SOL     OW15304   6.515   6.447   1.716
 4802SOL    HW115305   6.439   6.390   1.683
 4802SOL    HW215306   6.547   6.410   1.804
 4803SOL     OW15307   6.521   4.812   0.672
 4803SOL    HW115308   6.556   4.725   0.637
 4803SOL    HW215309   6.556   4.887   0.616
 4804SOL     OW15310   5.719   6.868   0.807
 4804SOL    HW115311   5.707   6.967   0.802
 4804SOL    HW215312   5.804   6.842   0.762
 4805SOL     OW15313   6.430   0.681   2.346
 4805SOL    HW115314   6.525   0.670   2.317
 4805SOL    HW215315   6.427   0.720   2.438
 4806SOL     OW15316   1.133   3.534   2.513
 4806SOL    HW115317   1.183   3.574   2.436
 4806SOL    HW215318   1.035   3.553   2.502
 4807SOL     OW15319   1.310   3.781   6.424
 4807SOL    HW115320   1.402   3.742   6.432
 4807SOL    HW215321   1.307   3.870   6.469
 4808SOL     OW15322   4.234   5.405   0.403
 4808SOL    HW115323   4.160   5.346   0.371
 4808SOL    HW215324   4.275   5.365   0.485
 4809SOL     OW15325   3.829   4.249   1.480
 4809SOL    HW115326   3.912   4.282   1.525
 4809SOL    HW215327   3.802   4.314   1.408
 4810SOL     OW15328   1.547   4.712   3.314
 4810SOL    HW115329   1.482   4.723   3.389
 4810SOL    HW215330   1.588   4.801   3.293
 4811SOL     OW15331   3.961   3.803   3.603
 4811SOL    HW115332   3.893   3.876   3.597
 4811SOL    HW215333   4.021   3.807   3.523
 4812SOL     OW15334   0.351   6.759   2.267
 4812SOL    HW115335   0.359   6.735   2.170
 4812SOL    HW215336   0.417   6.832   2.289
 4813SOL     OW15337   6.413   1.833   6.360
 4813SOL    HW115338   6.450   1.906   6.417
 4813SOL    HW215339   6.377   1.760   6.418
 4814SOL     OW15340   6.687   3.437   2.129
 4814SOL    HW115341   6.702   3.338   2.124
 4814SOL    HW215342   6.768   3.484   2.093
 4815SOL     OW15343   5.472   4.569   3.117
 4815SOL    HW115344   5.528   4.624   3.055
 4815SOL    HW215345   5.409   4.512   3.063
 4816SOL     OW15346   2.097   5.614   1.058
 4816SOL    HW115347   2.106   5.572   1.148
 4816SOL    HW215348   2.173   5.585   1.000
 4817SOL     OW15349   2.996   1.034   1.764
 4817SOL    HW115350   3.041   1.099   1.824
 4817SOL    HW215351   2.973   1.079   1.677
 4818SOL     OW15352   0.703   1.614   4.072
 4818SOL    HW115353   0.705   1.523   4.029
 4818SOL    HW215354   0.655   1.678   4.012
 4819SOL     OW15355   3.208   1.759   1.408
 4819SOL    HW115356   3.301   1.749   1.443
 4819SOL    HW215357   3.144   1.768   1.485
 4820SOL     OW15358   6.192   2.708   0.424
 4820SOL    HW115359   6.097   2.688   0.400
 4820SOL    HW215360   6.213   2.668   0.513
 4821SOL     OW15361   6.746   6.755   1.463
 4821SOL    HW115362   6.823   6.775   1.402
 4821SOL    HW215363   6.661   6.752   1.410
 4822SOL     OW15364   1.913   3.021   3.881
 4822SOL    HW115365   1.908   3.081   3.801
 4822SOL    HW215366   1.853   2.942   3.867
 4823SOL     OW15367   0.110   1.141   3.902
 4823SOL    HW115368   0.187   1.163   3.962
 4823SOL    HW215369   0.143   1.127   3.809
 4824SOL     OW15370   5.852   1.806   3.775
 4824SOL    HW115371   5.795   1.784   3.695
 4824SOL    HW215372   5.826   1.896   3.809
 4825SOL     OW15373   2.083   2.821   4.498
 4825SOL    HW115374   2.058   2.828   4.401
 4825SOL    HW215375   2.179   2.796   4.506
 4826SOL     OW15376   0.728   0.622   0.060
 4826SOL    HW115377   0.784   0.681   0.001
 4826SOL    HW215378   0.705   0.539   0.010
 4827SOL     OW15379   5.980   0.704   1.794
 4827SOL    HW115380   5.940   0.622   1.835
 4827SOL    HW215381   6.074   0.715   1.828
 4828SOL     OW15382   5.426   3.455   0.945
 4828SOL    HW115383   5.396   3.551   0.943
 4828SOL    HW215384   5.419   3.416   0.854
 4829SOL     OW15385   3.737   6.480   6.646
 4829SOL    HW115386   3.700   6.549   6.707
 4829SOL    HW215387   3.811   6.519   6.591
 4830SOL     OW15388   5.457   6.033   4.082
 4830SOL    HW115389   5.515   6.109   4.053
 4830SOL    HW215390   5.472   5.954   4.022
 4831SOL     OW15391   6.539   5.323   6.001
 4831SOL    HW115392   6.466   5.387   6.024
 4831SOL    HW215393   6.524   5.236   6.049
 4832SOL     OW15394   2.603   2.487   5.839
 4832SOL    HW115395   2.539   2.519   5.909
 4832SOL    HW215396   2.632   2.394   5.859
 4833SOL     OW15397   5.139   1.312   2.897
 4833SOL    HW115398   5.149   1.318   2.798
 4833SOL    HW215399   5.050   1.271   2.919
 4834SOL     OW15400   3.777   0.498   0.231
 4834SOL    HW115401   3.856   0.536   0.280
 4834SOL    HW215402   3.701   0.487   0.294
 4835SOL     OW15403   1.224   0.783   6.776
 4835SOL    HW115404   1.321   0.759   6.766
 4835SOL    HW215405   1.213   0.845   6.853
 4836SOL     OW15406   4.678   2.661   3.565
 4836SOL    HW115407   4.657   2.606   3.646
 4836SOL    HW215408   4.644   2.613   3.484
 4837SOL     OW15409   4.270   3.298   1.536
 4837SOL    HW115410   4.183   3.320   1.580
 4837SOL    HW215411   4.320   3.232   1.591
 4838SOL     OW15412   2.638   5.006   1.627
 4838SOL    HW115413   2.556   5.051   1.664
 4838SOL    HW215414   2.629   4.997   1.527
 4839SOL     OW15415   1.563   3.754   5.774
 4839SOL    HW115416   1.585   3.827   5.838
 4839SOL    HW215417   1.471   3.769   5.736
 4840SOL     OW15418   0.692   6.938   5.900
 4840SOL    HW115419   0.720   6.982   5.985
 4840SOL    HW215420   0.764   6.876   5.869
 4841SOL     OW15421   2.980   6.007   1.278
 4841SOL    HW115422   2.909   6.059   1.326
 4841SOL    HW215423   2.979   6.032   1.181
 4842SOL     OW15424   3.273   4.812   1.878
 4842SOL    HW115425   3.260   4.885   1.946
 4842SOL    HW215426   3.370   4.802   1.858
 4843SOL     OW15427   6.066   4.262   0.974
 4843SOL    HW115428   6.128   4.280   0.898
 4843SOL    HW215429   6.067   4.165   0.997
 4844SOL     OW15430   6.600   3.433   5.647
 4844SOL    HW115431   6.700   3.436   5.658
 4844SOL    HW215432   6.558   3.428   5.737
 4845SOL     OW15433   6.725   5.772   4.652
 4845SOL    HW115434   6.700   5.818   4.567
 4845SOL    HW215435   6.760   5.839   4.717
 4846SOL     OW15436   6.471   2.995   2.824
 4846SOL    HW115437   6.405   3.048   2.771
 4846SOL    HW215438   6.466   2.899   2.798
 4847SOL     OW15439   3.555   1.875   5.746
 4847SOL    HW115440   3.495   1.846   5.819
 4847SOL    HW215441   3.610   1.797   5.715
 4848SOL     OW15442   1.754   0.884   3.704
 4848SOL    HW115443   1.794   0.924   3.622
 4848SOL    HW215444   1.669   0.836   3.680
 4849SOL     OW15445   1.069   6.933   6.722
 4849SOL    HW115446   1.103   6.859   6.780
 4849SOL    HW215447   1.042   7.010   6.779
 4850SOL     OW15448   4.250   1.247   2.514
 4850SOL    HW115449   4.266   1.293   2.426
 4850SOL    HW215450   4.277   1.151   2.508
 4851SOL     OW15451   3.309   5.458   4.995
 4851SOL    HW115452   3.354   5.538   5.036
 4851SOL    HW215453   3.219   5.484   4.961
 4852SOL     OW15454   1.104   0.584   5.953
 4852SOL    HW115455   1.051   0.594   5.868
 4852SOL    HW215456   1.052   0.621   6.029
 4853SOL     OW15457   2.818   1.083   2.400
 4853SOL    HW115458   2.780   1.035   2.479
 4853SOL    HW215459   2.796   1.032   2.317
 4854SOL     OW15460   4.988   6.434   2.373
 4854SOL    HW115461   5.053   6.379   2.321
 4854SOL    HW215462   4.939   6.495   2.312
 4855SOL     OW15463   5.881   2.519   2.520
 4855SOL    HW115464   5.928   2.488   2.603
 4855SOL    HW215465   5.923   2.476   2.440
 4856SOL     OW15466   2.336   4.204   2.730
 4856SOL    HW115467   2.348   4.258   2.647
 4856SOL    HW215468   2.315   4.109   2.706
 4857SOL     OW15469   2.005   2.541   5.401
 4857SOL    HW115470   2.094   2.578   5.373
 4857SOL    HW215471   1.982   2.575   5.492
 4858SOL     OW15472   1.627   1.072   4.400
 4858SOL    HW115473   1.581   1.141   4.455
 4858SOL    HW215474   1.725   1.073   4.421
 4859SOL     OW15475   1.242   0.472   4.240
 4859SOL    HW115476   1.272   0.380   4.219
 4859SOL    HW215477   1.310   0.538   4.208
 4860SOL     OW15478   3.586   4.996   1.907
 4860SOL    HW115479   3.501   4.990   1.960
 4860SOL    HW215480   3.621   4.904   1.889
 4861SOL     OW15481   5.170   5.447   0.399
 4861SOL    HW115482   5.186   5.401   0.311
 4861SOL    HW215483   5.219   5.398   0.471
 4862SOL     OW15484   2.966   4.816   4.877
 4862SOL    HW115485   2.934   4.726   4.909
 4862SOL    HW215486   2.898   4.885   4.897
 4863SOL     OW15487   5.946   4.451   1.742
 4863SOL    HW115488   5.999   4.373   1.775
 4863SOL    HW215489   5.964   4.464   1.645
 4864SOL     OW15490   3.899   1.067   3.795
 4864SOL    HW115491   3.824   1.006   3.819
 4864SOL    HW215492   3.885   1.104   3.703
 4865SOL     OW15493   1.942   0.439   5.710
 4865SOL    HW115494   1.871   0.374   5.682
 4865SOL    HW215495   2.010   0.449   5.638
 4866SOL     OW15496   6.759   2.948   0.830
 4866SOL    HW115497   6.700   2.917   0.755
 4866SOL    HW215498   6.838   2.886   0.838
 4867SOL     OW15499   3.865   5.553   3.758
 4867SOL    HW115500   3.880   5.513   3.848
 4867SOL    HW215501   3.908   5.496   3.688
 4868SOL     OW15502   0.049   4.990   2.518
 4868SOL    HW115503   0.081   4.983   2.613
 4868SOL    HW215504   6.972   5.025   2.518
 4869SOL     OW15505   1.648   1.770   2.283
 4869SOL    HW115506   1.549   1.770   2.270
 4869SOL    HW215507   1.692   1.816   2.206
 4870SOL     OW15508   0.417   6.279   2.080
 4870SOL    HW115509   0.452   6.327   2.160
 4870SOL    HW215510   0.417   6.180   2.097
 4871SOL     OW15511   0.996   0.860   3.477
 4871SOL    HW115512   0.925   0.799   3.442
 4871SOL    HW215513   1.034   0.822   3.561
 4872SOL     OW15514   5.890   0.067   3.342
 4872SOL    HW115515   5.945   0.059   3.259
 4872SOL    HW215516   5.928   0.139   3.400
 4873SOL     OW15517   6.589   5.454   4.093
 4873SOL    HW115518   6.595   5.512   4.174
 4873SOL    HW215519   6.680   5.424   4.066
 4874SOL     OW15520   5.550   4.129   2.589
 4874SOL    HW115521   5.544   4.095   2.496
 4874SOL    HW215522   5.640   4.110   2.627
 4875SOL     OW15523   6.166   1.512   0.158
 4875SOL    HW115524   6.217   1.427   0.168
 4875SOL    HW215525   6.107   1.506   0.077
 4876SOL     OW15526   6.638   1.914   3.450
 4876SOL    HW115527   6.676   1.863   3.373
 4876SOL    HW215528   6.649   2.012   3.434
 4877SOL     OW15529   0.716   1.363   5.665
 4877SOL    HW115530   0.648   1.418   5.713
 4877SOL    HW215531   0.758   1.417   5.592
 4878SOL     OW15532   6.442   1.822   1.570
 4878SOL    HW115533   6.363   1.883   1.577
 4878SOL    HW215534   6.510   1.848   1.638
 4879SOL     OW15535   4.052   1.772   2.004
 4879SOL    HW115536   3.992   1.829   2.060
 4879SOL    HW215537   4.138   1.821   1.988
 4880SOL     OW15538   5.591   3.538   6.993
 4880SOL    HW115539   5.500   3.520   6.956
 4880SOL    HW215540   5.591   3.627   0.022
 4881SOL     OW15541   1.452   1.524   0.074
 4881SOL    HW115542   1.536   1.507   0.125
 4881SOL    HW215543   1.376   1.531   0.138
 4882SOL     OW15544   4.718   0.770   4.999
 4882SOL    HW115545   4.721   0.866   5.024
 4882SOL    HW215546   4.801   0.724   5.032
 4883SOL     OW15547   4.790   4.479   1.433
 4883SOL    HW115548   4.776   4.390   1.476
 4883SOL    HW215549   4.718   4.542   1.462
 4884SOL     OW15550   2.932   5.747   1.625
 4884SOL    HW115551   2.936   5.845   1.645
 4884SOL    HW215552   2.962   5.731   1.531
 4885SOL     OW15553   2.227   5.381   0.912
 4885SOL    HW115554   2.274   5.354   0.996
 4885SOL    HW215555   2.225   5.305   0.848
 4886SOL     OW15556   2.009   6.305   1.782
 4886SOL    HW115557   2.033   6.365   1.706
 4886SOL    HW215558   1.930   6.342   1.831
 4887SOL     OW15559   0.276   6.635   1.274
 4887SOL    HW115560   0.221   6.636   1.190
 4887SOL    HW215561   0.351   6.570   1.263
 4888SOL     OW15562   2.983   0.132   4.465
 4888SOL    HW115563   3.013   0.099   4.375
 4888SOL    HW215564   2.951   0.227   4.456
 4889SOL     OW15565   0.073   1.401   5.059
 4889SOL    HW115566   6.995   1.400   5.028
 4889SOL    HW215567   0.086   1.472   5.128
 4890SOL     OW15568   6.684   1.391   6.062
 4890SOL    HW115569   6.737   1.307   6.050
 4890SOL    HW215570   6.663   1.430   5.972
 4891SOL     OW15571   2.311   4.769   0.300
 4891SOL    HW115572   2.243   4.825   0.346
 4891SOL    HW215573   2.373   4.728   0.368
 4892SOL     OW15574   4.003   5.497   2.424
 4892SOL    HW115575   4.052   5.582   2.405
 4892SOL    HW215576   3.925   5.515   2.483
 4893SOL     OW15577   5.800   2.853   1.627
 4893SOL    HW115578   5.780   2.760   1.659
 4893SOL    HW215579   5.766   2.864   1.533
 4894SOL     OW15580   3.857   0.911   2.823
 4894SOL    HW115581   3.766   0.920   2.784
 4894SOL    HW215582   3.892   1.002   2.846
 4895SOL     OW15583   0.472   4.665   4.114
 4895SOL    HW115584   0.396   4.669   4.179
 4895SOL    HW215585   0.540   4.734   4.139
 4896SOL     OW15586   2.249   4.247   2.282
 4896SOL    HW115587   2.208   4.184   2.348
 4896SOL    HW215588   2.209   4.232   2.192
 4897SOL     OW15589   1.394   5.186   5.453
 4897SOL    HW115590   1.471   5.248   5.438
 4897SOL    HW215591   1.415   5.096   5.415
 4898SOL     OW15592   4.559   1.331   5.092
 4898SOL    HW115593   4.565   1.242   5.136
 4898SOL    HW215594   4.651   1.365   5.073
 4899SOL     OW15595   5.893   5.395   3.065
 4899SOL    HW115596   5.915   5.390   3.163
 4899SOL    HW215597   5.837   5.477   3.048
 4900SOL     OW15598   3.709   6.429   5.120
 4900SOL    HW115599   3.764   6.501   5.161
 4900SOL    HW215600   3.741   6.340   5.153
 4901SOL     OW15601   2.246   1.610   5.172
 4901SOL    HW115602   2.335   1.650   5.193
 4901SOL    HW215603   2.217   1.637   5.081
 4902SOL     OW15604   1.634   1.732   4.925
 4902SOL    HW115605   1.587   1.690   4.848
 4902SOL    HW215606   1.585   1.816   4.952
 4903SOL     OW15607   3.860   5.661   6.972
 4903SOL    HW115608   3.956   5.647   6.994
 4903SOL    HW215609   3.837   5.758   6.983
 4904SOL     OW15610   1.976   0.079   5.292
 4904SOL    HW115611   2.004   0.114   5.381
 4904SOL    HW215612   1.949   7.000   5.300
 4905SOL     OW15613   3.396   0.643   3.152
 4905SOL    HW115614   3.469   0.591   3.198
 4905SOL    HW215615   3.421   0.740   3.151
 4906SOL     OW15616   4.975   1.851   6.068
 4906SOL    HW115617   4.905   1.860   6.138
 4906SOL    HW215618   5.017   1.940   6.051
 4907SOL     OW15619   4.590   6.554   2.156
 4907SOL    HW115620   4.548   6.576   2.068
 4907SOL    HW215621   4.587   6.456   2.171
 4908SOL     OW15622   5.609   6.451   6.614
 4908SOL    HW115623   5.589   6.359   6.581
 4908SOL    HW215624   5.708   6.462   6.623
 4909SOL     OW15625   0.222   5.761   3.289
 4909SOL    HW115626   0.245   5.691   3.222
 4909SOL    HW215627   0.205   5.717   3.378
 4910SOL     OW15628   5.123   0.958   4.037
 4910SOL    HW115629   5.158   0.902   3.962
 4910SOL    HW215630   5.128   0.906   4.122
 4911SOL     OW15631   1.611   4.053   3.028
 4911SOL    HW115632   1.601   4.107   2.945
 4911SOL    HW215633   1.548   4.086   3.098
 4912SOL     OW15634   5.742   1.689   6.319
 4912SOL    HW115635   5.819   1.707   6.380
 4912SOL    HW215636   5.703   1.599   6.341
 4913SOL     OW15637   3.802   3.236   5.084
 4913SOL    HW115638   3.778   3.276   5.173
 4913SOL    HW215639   3.815   3.138   5.094
 4914SOL     OW15640   4.663   6.918   5.093
 4914SOL    HW115641   4.575   6.950   5.128
 4914SOL    HW215642   4.718   6.881   5.168
 4915SOL     OW15643   2.428   6.085   5.840
 4915SOL    HW115644   2.418   6.023   5.763
 4915SOL    HW215645   2.408   6.179   5.810
 4916SOL     OW15646   0.844   0.963   3.738
 4916SOL    HW115647   0.761   0.936   3.689
 4916SOL    HW215648   0.908   0.886   3.738
 4917SOL     OW15649   2.659   5.664   1.301
 4917SOL    HW115650   2.699   5.597   1.365
 4917SOL    HW215651   2.733   5.710   1.252
 4918SOL     OW15652   5.223   6.059   2.264
 4918SOL    HW115653   5.278   6.013   2.194
 4918SOL    HW215654   5.213   6.155   2.240
 4919SOL     OW15655   3.006   3.151   1.079
 4919SOL    HW115656   2.929   3.216   1.084
 4919SOL    HW215657   2.998   3.096   0.996
 4920SOL     OW15658   5.389   0.111   4.689
 4920SOL    HW115659   5.311   0.143   4.742
 4920SOL    HW215660   5.359   0.086   4.597
 4921SOL     OW15661   1.142   5.939   6.985
 4921SOL    HW115662   1.197   5.870   6.938
 4921SOL    HW215663   1.079   5.893   0.032
 4922SOL     OW15664   2.689   2.326   4.941
 4922SOL    HW115665   2.755   2.259   4.908
 4922SOL    HW215666   2.705   2.344   5.038
 4923SOL     OW15667   3.490   0.902   2.481
 4923SOL    HW115668   3.541   0.986   2.463
 4923SOL    HW215669   3.427   0.884   2.406
 4924SOL     OW15670   3.662   1.118   4.196
 4924SOL    HW115671   3.627   1.178   4.123
 4924SOL    HW215672   3.678   1.172   4.278
 4925SOL     OW15673   5.653   0.524   2.452
 4925SOL    HW115674   5.684   0.615   2.478
 4925SOL    HW215675   5.723   0.456   2.476
 4926SOL     OW15676   5.731   1.829   1.240
 4926SOL    HW115677   5.716   1.800   1.335
 4926SOL    HW215678   5.829   1.838   1.223
 4927SOL     OW15679   2.932   3.603   4.550
 4927SOL    HW115680   2.933   3.504   4.534
 4927SOL    HW215681   2.901   3.622   4.643
 4928SOL     OW15682   1.583   1.030   0.144
 4928SOL    HW115683   1.551   0.970   0.217
 4928SOL    HW215684   1.679   1.010   0.124
 4929SOL     OW15685   6.443   6.962   4.802
 4929SOL    HW115686   6.363   6.969   4.742
 4929SOL    HW215687   6.419   6.907   4.882
 4930SOL     OW15688   6.035   0.527   2.914
 4930SOL    HW115689   6.046   0.437   2.957
 4930SOL    HW215690   5.973   0.583   2.970
 4931SOL     OW15691   6.513   6.465   1.316
 4931SOL    HW115692   6.493   6.422   1.227
 4931SOL    HW215693   6.545   6.395   1.379
 4932SOL     OW15694   4.070   3.223   2.782
 4932SOL    HW115695   4.025   3.148   2.830
 4932SOL    HW215696   4.103   3.191   2.693
 4933SOL     OW15697   2.445   6.845   2.402
 4933SOL    HW115698   2.454   6.778   2.328
 4933SOL    HW215699   2.532   6.855   2.449
 4934SOL     OW15700   3.356   5.762   3.460
 4934SOL    HW115701   3.401   5.844   3.496
 4934SOL    HW215702   3.266   5.753   3.501
 4935SOL     OW15703   1.693   1.894   6.409
 4935SOL    HW115704   1.696   1.834   6.329
 4935SOL    HW215705   1.703   1.839   6.492
 4936SOL     OW15706   3.560   5.201   1.489
 4936SOL    HW115707   3.492   5.197   1.562
 4936SOL    HW215708   3.523   5.253   1.412
 4937SOL     OW15709   6.044   3.204   5.871
 4937SOL    HW115710   6.130   3.198   5.820
 4937SOL    HW215711   6.064   3.212   5.969
 4938SOL     OW15712   1.892   5.514   5.653
 4938SOL    HW115713   1.801   5.543   5.682
 4938SOL    HW215714   1.914   5.427   5.698
 4939SOL     OW15715   5.352   1.994   5.009
 4939SOL    HW115716   5.446   1.964   5.028
 4939SOL    HW215717   5.330   1.977   4.913
 4940SOL     OW15718   0.773   1.483   4.661
 4940SOL    HW115719   0.868   1.501   4.635
 4940SOL    HW215720   0.716   1.475   4.579
 4941SOL     OW15721   4.470   1.973   6.001
 4941SOL    HW115722   4.523   2.057   6.018
 4941SOL    HW215723   4.454   1.964   5.902
 4942SOL     OW15724   5.741   2.954   5.811
 4942SOL    HW115725   5.779   2.986   5.724
 4942SOL    HW215726   5.643   2.938   5.801
 4943SOL     OW15727   4.119   3.498   0.302
 4943SOL    HW115728   4.177   3.567   0.344
 4943SOL    HW215729   4.161   3.408   0.313
 4944SOL     OW15730   2.385   4.379   2.524
 4944SOL    HW115731   2.455   4.386   2.453
 4944SOL    HW215732   2.348   4.470   2.542
 4945SOL     OW15733   1.103   1.107   3.951
 4945SOL    HW115734   1.177   1.067   3.897
 4945SOL    HW215735   1.062   1.182   3.899
 4946SOL     OW15736   0.388   3.347   1.087
 4946SOL    HW115737   0.354   3.370   1.178
 4946SOL    HW215738   0.478   3.389   1.074
 4947SOL     OW15739   1.376   0.897   0.893
 4947SOL    HW115740   1.376   0.838   0.812
 4947SOL    HW215741   1.394   0.991   0.866
 4948SOL     OW15742   1.997   0.386   2.907
 4948SOL    HW115743   2.092   0.411   2.928
 4948SOL    HW215744   1.952   0.354   2.990
 4949SOL     OW15745   4.636   6.944   5.552
 4949SOL    HW115746   4.651   0.009   5.496
 4949SOL    HW215747   4.580   6.879   5.501
 4950SOL     OW15748   3.012   5.636   4.090
 4950SOL    HW115749   3.027   5.566   4.160
 4950SOL    HW215750   2.977   5.719   4.134
 4951SOL     OW15751   5.170   1.587   4.817
 4951SOL    HW115752   5.245   1.652   4.801
 4951SOL    HW215753   5.139   1.550   4.730
 4952SOL     OW15754   0.535   0.844   4.780
 4952SOL    HW115755   0.562   0.885   4.693
 4952SOL    HW215756   0.601   0.772   4.804
 4953SOL     OW15757   1.831   6.649   2.063
 4953SOL    HW115758   1.825   6.569   2.003
 4953SOL    HW215759   1.913   6.701   2.042
 4954SOL     OW15760   4.665   3.922   6.946
 4954SOL    HW115761   4.604   3.958   6.875
 4954SOL    HW215762   4.613   3.903   0.012
 4955SOL     OW15763   1.732   6.870   6.068
 4955SOL    HW115764   1.693   6.906   6.154
 4955SOL    HW215765   1.746   6.772   6.076
 4956SOL     OW15766   2.756   6.779   4.671
 4956SOL    HW115767   2.755   6.864   4.723
 4956SOL    HW215768   2.667   6.767   4.626
 4957SOL     OW15769   0.135   1.463   3.628
 4957SOL    HW115770   0.151   1.369   3.656
 4957SOL    HW215771   0.040   1.475   3.602
 4958SOL     OW15772   0.198   6.147   5.747
 4958SOL    HW115773   0.158   6.091   5.674
 4958SOL    HW215774   0.128   6.209   5.783
 4959SOL     OW15775   6.650   1.251   6.388
 4959SOL    HW115776   6.686   1.161   6.411
 4959SOL    HW215777   6.550   1.247   6.386
 4960SOL     OW15778   3.188   5.789   3.967
 4960SOL    HW115779   3.259   5.813   4.032
 4960SOL    HW215780   3.098   5.798   4.011
 4961SOL     OW15781   5.134   1.579   5.575
 4961SOL    HW115782   5.213   1.630   5.609
 4961SOL    HW215783   5.118   1.500   5.635
 4962SOL     OW15784   6.018   3.073   1.218
 4962SOL    HW115785   6.070   3.025   1.289
 4962SOL    HW215786   6.059   3.055   1.129
 4963SOL     OW15787   6.064   6.118   0.650
 4963SOL    HW115788   6.048   6.144   0.554
 4963SOL    HW215789   6.146   6.063   0.656
 4964SOL     OW15790   3.650   6.216   3.477
 4964SOL    HW115791   3.722   6.193   3.543
 4964SOL    HW215792   3.652   6.314   3.459
 4965SOL     OW15793   0.391   0.226   3.958
 4965SOL    HW115794   0.430   0.147   4.005
 4965SOL    HW215795   0.433   0.309   3.993
 4966SOL     OW15796   2.175   0.081   4.962
 4966SOL    HW115797   2.113   0.005   4.940
 4966SOL    HW215798   2.252   0.080   4.898
 4967SOL     OW15799   4.186   3.173   5.920
 4967SOL    HW115800   4.192   3.130   6.010
 4967SOL    HW215801   4.207   3.270   5.928
 4968SOL     OW15802   5.563   3.080   3.185
 4968SOL    HW115803   5.550   3.170   3.227
 4968SOL    HW215804   5.474   3.039   3.165
 4969SOL     OW15805   2.057   1.108   1.924
 4969SOL    HW115806   1.960   1.081   1.925
 4969SOL    HW215807   2.086   1.122   1.830
 4970SOL     OW15808   1.606   2.169   4.663
 4970SOL    HW115809   1.688   2.120   4.632
 4970SOL    HW215810   1.631   2.262   4.689
 4971SOL     OW15811   6.051   6.148   3.386
 4971SOL    HW115812   6.054   6.213   3.462
 4971SOL    HW215813   6.066   6.055   3.421
 4972SOL     OW15814   1.258   2.981   0.464
 4972SOL    HW115815   1.163   2.950   0.473
 4972SOL    HW215816   1.292   3.011   0.553
 4973SOL     OW15817   6.516   6.791   1.917
 4973SOL    HW115818   6.534   6.756   1.825
 4973SOL    HW215819   6.602   6.824   1.957
 4974SOL     OW15820   5.835   4.231   0.782
 4974SOL    HW115821   5.867   4.175   0.706
 4974SOL    HW215822   5.911   4.252   0.843
 4975SOL     OW15823   5.738   5.939   6.599
 4975SOL    HW115824   5.778   5.880   6.669
 4975SOL    HW215825   5.699   5.883   6.526
 4976SOL     OW15826   3.393   0.081   4.765
 4976SOL    HW115827   3.423   0.176   4.769
 4976SOL    HW215828   3.297   0.077   4.738
 4977SOL     OW15829   4.777   4.077   0.683
 4977SOL    HW115830   4.836   4.123   0.750
 4977SOL    HW215831   4.721   4.008   0.730
 4978SOL     OW15832   0.106   3.545   5.681
 4978SOL    HW115833   0.134   3.640   5.674
 4978SOL    HW215834   0.096   3.506   5.590
 4979SOL     OW15835   6.827   1.399   4.996
 4979SOL    HW115836   6.764   1.342   5.048
 4979SOL    HW215837   6.775   1.454   4.930
 4980SOL     OW15838   4.500   0.236   3.566
 4980SOL    HW115839   4.489   0.138   3.548
 4980SOL    HW215840   4.502   0.286   3.479
 4981SOL     OW15841   4.804   5.448   6.216
 4981SOL    HW115842   4.707   5.472   6.226
 4981SOL    HW215843   4.812   5.350   6.197
 4982SOL     OW15844   2.204   1.524   0.094
 4982SOL    HW115845   2.179   1.584   0.018
 4982SOL    HW215846   2.292   1.554   0.132
 4983SOL     OW15847   5.104   2.959   4.359
 4983SOL    HW115848   5.162   2.925   4.433
 4983SOL    HW215849   5.019   2.995   4.397
 4984SOL     OW15850   5.563   3.722   3.950
 4984SOL    HW115851   5.574   3.820   3.964
 4984SOL    HW215852   5.625   3.672   4.010
 4985SOL     OW15853   6.850   5.926   3.381
 4985SOL    HW115854   6.753   5.904   3.375
 4985SOL    HW215855   6.864   6.023   3.361
 4986SOL     OW15856   6.822   4.614   2.865
 4986SOL    HW115857   6.921   4.600   2.867
 4986SOL    HW215858   6.782   4.564   2.788
 4987SOL     OW15859   0.541   2.241   1.467
 4987SOL    HW115860   0.542   2.180   1.388
 4987SOL    HW215861   0.451   2.237   1.511
 4988SOL     OW15862   6.640   1.749   3.660
 4988SOL    HW115863   6.631   1.808   3.580
 4988SOL    HW215864   6.563   1.685   3.663
 4989SOL     OW15865   5.515   1.077   1.217
 4989SOL    HW115866   5.561   1.070   1.129
 4989SOL    HW215867   5.567   1.026   1.286
 4990SOL     OW15868   1.200   1.565   6.292
 4990SOL    HW115869   1.259   1.640   6.324
 4990SOL    HW215870   1.247   1.478   6.306
 4991SOL     OW15871   0.901   4.150   3.734
 4991SOL    HW115872   0.855   4.139   3.646
 4991SOL    HW215873   0.887   4.068   3.789
 4992SOL     OW15874   4.947   0.745   3.895
 4992SOL    HW115875   5.042   0.759   3.868
 4992SOL    HW215876   4.903   0.834   3.909
 4993SOL     OW15877   2.978   5.113   3.920
 4993SOL    HW115878   2.993   5.014   3.920
 4993SOL    HW215879   3.055   5.158   3.876
 4994SOL     OW15880   1.307   0.406   2.223
 4994SOL    HW115881   1.348   0.409   2.315
 4994SOL    HW215882   1.219   0.452   2.225
 4995SOL     OW15883   6.619   2.849   5.965
 4995SOL    HW115884   6.522   2.824   5.965
 4995SOL    HW215885   6.634   2.926   5.903
 4996SOL     OW15886   1.631   0.812   2.646
 4996SOL    HW115887   1.720   0.854   2.626
 4996SOL    HW215888   1.607   0.829   2.742
 4997SOL     OW15889   6.114   2.124   2.905
 4997SOL    HW115890   6.026   2.141   2.862
 4997SOL    HW215891   6.100   2.084   2.996
 4998SOL     OW15892   2.150   3.776   4.985
 4998SOL    HW115893   2.190   3.858   5.026
 4998SOL    HW215894   2.112   3.718   5.057
 4999SOL     OW15895   5.562   5.627   1.409
 4999SOL    HW115896   5.499   5.669   1.474
 4999SOL    HW215897   5.573   5.687   1.329
 5000SOL     OW15898   1.261   0.210   4.208
 5000SOL    HW115899   1.238   0.150   4.285
 5000SOL    HW215900   1.359   0.203   4.188
 5001SOL     OW15901   1.542   4.175   5.915
 5001SOL    HW115902   1.546   4.079   5.944
 5001SOL    HW215903   1.487   4.227   5.981
 5002SOL     OW15904   1.331   3.043   3.018
 5002SOL    HW115905   1.289   3.126   2.982
 5002SOL    HW215906   1.429   3.043   2.999
 5003SOL     OW15907   1.304   6.356   3.486
 5003SOL    HW115908   1.340   6.307   3.566
 5003SOL    HW215909   1.372   6.423   3.456
 5004SOL     OW15910   2.831   5.307   5.365
 5004SOL    HW115911   2.865   5.380   5.424
 5004SOL    HW215912   2.735   5.323   5.343
 5005SOL     OW15913   3.411   2.604   0.897
 5005SOL    HW115914   3.331   2.555   0.863
 5005SOL    HW215915   3.451   2.658   0.823
 5006SOL     OW15916   5.411   7.000   6.371
 5006SOL    HW115917   5.376   6.974   6.281
 5006SOL    HW215918   5.334   0.001   6.432
 5007SOL     OW15919   2.483   0.489   6.283
 5007SOL    HW115920   2.496   0.556   6.356
 5007SOL    HW215921   2.413   0.521   6.219
 5008SOL     OW15922   6.936   0.023   4.094
 5008SOL    HW115923   6.858   0.074   4.131
 5008SOL    HW215924   6.999   0.086   4.048
 5009SOL     OW15925   2.267   6.623   1.998
 5009SOL    HW115926   2.229   6.635   1.906
 5009SOL    HW215927   2.212   6.674   2.064
 5010SOL     OW15928   3.075   3.188   4.056
 5010SOL    HW115929   3.059   3.190   3.957
 5010SOL    HW215930   3.033   3.269   4.098
 5011SOL     OW15931   2.146   3.706   2.208
 5011SOL    HW115932   2.059   3.662   2.233
 5011SOL    HW215933   2.193   3.651   2.140
 5012SOL     OW15934   5.093   3.202   6.833
 5012SOL    HW115935   5.139   3.213   6.921
 5012SOL    HW215936   5.119   3.114   6.792
 5013SOL     OW15937   5.267   0.972   0.100
 5013SOL    HW115938   5.358   0.953   0.135
 5013SOL    HW215939   5.214   1.022   0.169
 5014SOL     OW15940   5.502   5.593   0.828
 5014SOL    HW115941   5.498   5.680   0.779
 5014SOL    HW215942   5.479   5.608   0.924
 5015SOL     OW15943   4.212   1.739   3.665
 5015SOL    HW115944   4.176   1.701   3.750
 5015SOL    HW215945   4.144   1.729   3.593
 5016SOL     OW15946   2.394   1.731   2.128
 5016SOL    HW115947   2.346   1.817   2.147
 5016SOL    HW215948   2.372   1.701   2.035
 5017SOL     OW15949   1.786   2.365   0.559
 5017SOL    HW115950   1.844   2.426   0.505
 5017SOL    HW215951   1.841   2.293   0.601
 5018SOL     OW15952   0.681   4.997   1.051
 5018SOL    HW115953   0.664   4.899   1.066
 5018SOL    HW215954   0.673   5.046   1.137
 5019SOL     OW15955   2.623   4.511   0.104
 5019SOL    HW115956   2.547   4.486   0.044
 5019SOL    HW215957   2.652   4.431   0.157
 5020SOL     OW15958   5.080   6.785   5.358
 5020SOL    HW115959   5.131   6.808   5.274
 5020SOL    HW215960   4.983   6.799   5.342
 5021SOL     OW15961   1.500   2.745   5.699
 5021SOL    HW115962   1.436   2.822   5.688
 5021SOL    HW215963   1.543   2.725   5.610
 5022SOL     OW15964   1.782   0.467   1.152
 5022SOL    HW115965   1.842   0.530   1.202
 5022SOL    HW215966   1.710   0.436   1.213
 5023SOL     OW15967   6.497   3.404   1.335
 5023SOL    HW115968   6.478   3.318   1.382
 5023SOL    HW215969   6.463   3.400   1.242
 5024SOL     OW15970   6.659   4.326   2.764
 5024SOL    HW115971   6.757   4.325   2.785
 5024SOL    HW215972   6.645   4.307   2.667
 5025SOL     OW15973   4.284   1.909   1.953
 5025SOL    HW115974   4.304   1.955   1.866
 5025SOL    HW215975   4.269   1.978   2.024
 5026SOL     OW15976   6.092   5.829   6.370
 5026SOL    HW115977   6.047   5.770   6.303
 5026SOL    HW215978   6.164   5.882   6.325
 5027SOL     OW15979   0.581   6.973   2.322
 5027SOL    HW115980   0.645   6.914   2.372
 5027SOL    HW215981   0.627   0.042   2.297
 5028SOL     OW15982   0.084   6.787   2.388
 5028SOL    HW115983   0.095   6.873   2.439
 5028SOL    HW215984   0.169   6.766   2.340
 5029SOL     OW15985   6.765   3.074   3.185
 5029SOL    HW115986   6.713   3.133   3.246
 5029SOL    HW215987   6.736   3.088   3.091
 5030SOL     OW15988   6.386   0.532   6.856
 5030SOL    HW115989   6.360   0.437   6.876
 5030SOL    HW215990   6.329   0.594   6.910
 5031SOL     OW15991   5.737   1.373   4.756
 5031SOL    HW115992   5.697   1.448   4.808
 5031SOL    HW215993   5.693   1.366   4.666
 5032SOL     OW15994   1.026   4.489   1.329
 5032SOL    HW115995   0.960   4.491   1.254
 5032SOL    HW215996   1.101   4.553   1.309
 5033SOL     OW15997   1.877   4.719   0.013
 5033SOL    HW115998   1.935   4.795   7.000
 5033SOL    HW215999   1.932   4.637   0.025
 5034SOL     OW16000   6.824   3.133   2.127
 5034SOL    HW116001   6.888   3.056   2.126
 5034SOL    HW216002   6.800   3.158   2.034
 5035SOL     OW16003   6.126   4.637   0.872
 5035SOL    HW116004   6.135   4.681   0.783
 5035SOL    HW216005   6.112   4.706   0.943
 5036SOL     OW16006   0.547   5.359   6.856
 5036SOL    HW116007   0.642   5.346   6.825
 5036SOL    HW216008   0.536   5.320   6.948
 5037SOL     OW16009   4.570   2.532   2.560
 5037SOL    HW116010   4.566   2.632   2.567
 5037SOL    HW216011   4.663   2.503   2.537
 5038SOL     OW16012   1.639   4.896   5.631
 5038SOL    HW116013   1.720   4.904   5.572
 5038SOL    HW216014   1.659   4.834   5.707
 5039SOL     OW16015   2.215   3.588   5.230
 5039SOL    HW116016   2.287   3.524   5.255
 5039SOL    HW216017   2.140   3.539   5.186
 5040SOL     OW16018   2.540   4.048   6.395
 5040SOL    HW116019   2.494   4.006   6.317
 5040SOL    HW216020   2.516   4.144   6.401
 5041SOL     OW16021   0.637   3.771   0.991
 5041SOL    HW116022   0.651   3.864   1.025
 5041SOL    HW216023   0.693   3.708   1.044
 5042SOL     OW16024   0.252   2.978   0.160
 5042SOL    HW116025   0.190   3.051   0.132
 5042SOL    HW216026   0.210   2.926   0.234
 5043SOL     OW16027   3.235   0.887   5.365
 5043SOL    HW116028   3.322   0.884   5.413
 5043SOL    HW216029   3.187   0.972   5.388
 5044SOL     OW16030   6.186   6.951   3.398
 5044SOL    HW116031   6.095   6.921   3.425
 5044SOL    HW216032   6.180   7.004   3.314
 5045SOL     OW16033   5.163   3.434   0.194
 5045SOL    HW116034   5.235   3.462   0.258
 5045SOL    HW216035   5.073   3.455   0.234
 5046SOL     OW16036   3.749   3.026   4.772
 5046SOL    HW116037   3.810   2.959   4.814
 5046SOL    HW216038   3.796   3.114   4.765
 5047SOL     OW16039   6.445   1.814   2.863
 5047SOL    HW116040   6.396   1.751   2.804
 5047SOL    HW216041   6.405   1.812   2.955
 5048SOL     OW16042   6.258   2.471   1.296
 5048SOL    HW116043   6.353   2.451   1.272
 5048SOL    HW216044   6.254   2.498   1.393
 5049SOL     OW16045   6.913   1.127   3.518
 5049SOL    HW116046   6.980   1.052   3.524
 5049SOL    HW216047   6.824   1.090   3.491
 5050SOL     OW16048   0.476   1.300   2.257
 5050SOL    HW116049   0.474   1.283   2.356
 5050SOL    HW216050   0.570   1.290   2.224
 5051SOL     OW16051   3.999   3.174   0.519
 5051SOL    HW116052   3.900   3.172   0.507
 5051SOL    HW216053   4.023   3.138   0.609
 5052SOL     OW16054   2.541   4.957   6.253
 5052SOL    HW116055   2.442   4.941   6.249
 5052SOL    HW216056   2.558   5.055   6.258
 5053SOL     OW16057   2.063   3.833   3.099
 5053SOL    HW116058   1.965   3.832   3.079
 5053SOL    HW216059   2.082   3.771   3.175
 5054SOL     OW16060   3.683   5.782   5.095
 5054SOL    HW116061   3.664   5.866   5.147
 5054SOL    HW216062   3.782   5.768   5.091
 5055SOL     OW16063   6.751   1.629   4.229
 5055SOL    HW116064   6.714   1.549   4.183
 5055SOL    HW216065   6.697   1.649   4.311
 5056SOL     OW16066   6.158   4.033   6.127
 5056SOL    HW116067   6.242   4.044   6.074
 5056SOL    HW216068   6.117   4.122   6.144
 5057SOL     OW16069   1.568   5.653   3.475
 5057SOL    HW116070   1.469   5.637   3.469
 5057SOL    HW216071   1.603   5.614   3.559
 5058SOL     OW16072   3.203   3.618   6.870
 5058SOL    HW116073   3.137   3.577   6.807
 5058SOL    HW216074   3.284   3.560   6.876
 5059SOL     OW16075   5.191   3.387   4.626
 5059SOL    HW116076   5.095   3.387   4.599
 5059SOL    HW216077   5.199   3.412   4.722
 5060SOL     OW16078   0.243   2.427   5.117
 5060SOL    HW116079   0.321   2.422   5.179
 5060SOL    HW216080   0.172   2.364   5.147
 5061SOL     OW16081   2.983   3.672   3.769
 5061SOL    HW116082   2.964   3.574   3.758
 5061SOL    HW216083   2.966   3.719   3.682
 5062SOL     OW16084   6.373   0.866   2.135
 5062SOL    HW116085   6.451   0.864   2.072
 5062SOL    HW216086   6.376   0.786   2.194
 5063SOL     OW16087   0.932   5.999   1.600
 5063SOL    HW116088   0.874   5.923   1.570
 5063SOL    HW216089   0.895   6.038   1.685
 5064SOL     OW16090   4.988   5.735   1.000
 5064SOL    HW116091   4.985   5.644   1.042
 5064SOL    HW216092   4.915   5.743   0.933
 5065SOL     OW16093   1.321   0.339   2.737
 5065SOL    HW116094   1.342   0.366   2.830
 5065SOL    HW216095   1.227   0.366   2.715
 5066SOL     OW16096   2.551   4.354   1.707
 5066SOL    HW116097   2.647   4.351   1.677
 5066SOL    HW216098   2.500   4.279   1.664
 5067SOL     OW16099   4.419   1.823   2.281
 5067SOL    HW116100   4.469   1.842   2.197
 5067SOL    HW216101   4.323   1.850   2.270
 5068SOL     OW16102   3.046   5.867   0.146
 5068SOL    HW116103   3.096   5.794   0.194
 5068SOL    HW216104   2.949   5.861   0.169
 5069SOL     OW16105   1.978   3.222   5.755
 5069SOL    HW116106   1.925   3.258   5.678
 5069SOL    HW216107   2.016   3.298   5.808
 5070SOL     OW16108   5.876   3.872   4.500
 5070SOL    HW116109   5.969   3.907   4.490
 5070SOL    HW216110   5.811   3.941   4.467
 5071SOL     OW16111   4.208   2.170   3.556
 5071SOL    HW116112   4.307   2.168   3.573
 5071SOL    HW216113   4.159   2.153   3.642
 5072SOL     OW16114   2.120   1.488   1.838
 5072SOL    HW116115   2.118   1.425   1.916
 5072SOL    HW216116   2.062   1.451   1.765
 5073SOL     OW16117   1.729   5.383   1.393
 5073SOL    HW116118   1.663   5.433   1.450
 5073SOL    HW216119   1.821   5.414   1.414
 5074SOL     OW16120   4.009   2.022   1.671
 5074SOL    HW116121   3.929   2.017   1.731
 5074SOL    HW216122   4.018   1.938   1.618
 5075SOL     OW16123   0.867   2.279   0.087
 5075SOL    HW116124   0.877   2.180   0.101
 5075SOL    HW216125   0.843   2.297   7.008
 5076SOL     OW16126   5.565   6.984   7.002
 5076SOL    HW116127   5.547   0.063   6.980
 5076SOL    HW216128   5.548   6.968   0.083
 5077SOL     OW16129   0.462   3.578   5.731
 5077SOL    HW116130   0.403   3.650   5.769
 5077SOL    HW216131   0.506   3.528   5.807
 5078SOL     OW16132   0.303   1.037   4.231
 5078SOL    HW116133   0.347   1.033   4.321
 5078SOL    HW216134   0.365   1.080   4.165
 5079SOL     OW16135   2.198   2.773   5.380
 5079SOL    HW116136   2.287   2.730   5.394
 5079SOL    HW216137   2.195   2.814   5.289
 5080SOL     OW16138   5.828   5.510   5.274
 5080SOL    HW116139   5.865   5.418   5.280
 5080SOL    HW216140   5.878   5.571   5.335
 5081SOL     OW16141   3.092   4.585   5.569
 5081SOL    HW116142   3.109   4.594   5.471
 5081SOL    HW216143   3.009   4.634   5.593
 5082SOL     OW16144   4.826   6.889   0.204
 5082SOL    HW116145   4.849   6.934   0.290
 5082SOL    HW216146   4.767   6.810   0.222
 5083SOL     OW16147   3.748   0.280   0.905
 5083SOL    HW116148   3.842   0.248   0.891
 5083SOL    HW216149   3.697   0.210   0.956
 5084SOL     OW16150   0.442   5.072   4.200
 5084SOL    HW116151   0.415   4.998   4.261
 5084SOL    HW216152   0.491   5.034   4.121
 5085SOL     OW16153   1.174   3.072   5.576
 5085SOL    HW116154   1.222   3.051   5.490
 5085SOL    HW216155   1.127   3.160   5.567
 5086SOL     OW16156   0.381   4.445   2.375
 5086SOL    HW116157   0.480   4.428   2.373
 5086SOL    HW216158   0.345   4.417   2.464
 5087SOL     OW16159   6.779   5.952   2.550
 5087SOL    HW116160   6.837   5.995   2.619
 5087SOL    HW216161   6.691   5.927   2.592
 5088SOL     OW16162   4.603   6.813   3.789
 5088SOL    HW116163   4.552   6.862   3.860
 5088SOL    HW216164   4.553   6.818   3.703
 5089SOL     OW16165   5.723   4.447   4.587
 5089SOL    HW116166   5.817   4.439   4.620
 5089SOL    HW216167   5.723   4.492   4.497
 5090SOL     OW16168   2.444   1.130   2.546
 5090SOL    HW116169   2.366   1.078   2.512
 5090SOL    HW216170   2.499   1.162   2.468
 5091SOL     OW16171   5.954   6.894   1.021
 5091SOL    HW116172   5.857   6.878   1.040
 5091SOL    HW216173   5.981   6.838   0.942
 5092SOL     OW16174   3.274   2.911   3.780
 5092SOL    HW116175   3.299   2.815   3.778
 5092SOL    HW216176   3.317   2.956   3.858
 5093SOL     OW16177   3.164   1.809   1.153
 5093SOL    HW116178   3.190   1.900   1.121
 5093SOL    HW216179   3.196   1.796   1.247
 5094SOL     OW16180   1.997   6.080   6.538
 5094SOL    HW116181   1.902   6.072   6.568
 5094SOL    HW216182   2.039   6.160   6.581
 5095SOL     OW16183   0.720   2.161   2.997
 5095SOL    HW116184   0.699   2.202   2.908
 5095SOL    HW216185   0.634   2.136   3.043
 5096SOL     OW16186   4.902   4.528   6.472
 5096SOL    HW116187   4.958   4.457   6.516
 5096SOL    HW216188   4.902   4.610   6.528
 5097SOL     OW16189   6.856   0.030   6.971
 5097SOL    HW116190   6.900   6.979   0.014
 5097SOL    HW216191   6.837   0.112   0.006
 5098SOL     OW16192   3.973   1.936   1.410
 5098SOL    HW116193   3.978   1.870   1.335
 5098SOL    HW216194   3.953   2.027   1.372
 5099SOL     OW16195   0.043   6.343   2.182
 5099SOL    HW116196   0.011   6.310   2.094
 5099SOL    HW216197   0.136   6.379   2.173
 5100SOL     OW16198   2.782   5.182   3.699
 5100SOL    HW116199   2.777   5.114   3.773
 5100SOL    HW216200   2.826   5.265   3.733
 5101SOL     OW16201   4.725   0.160   5.409
 5101SOL    HW116202   4.817   0.157   5.371
 5101SOL    HW216203   4.659   0.183   5.337
 5102SOL     OW16204   5.337   6.619   4.214
 5102SOL    HW116205   5.282   6.645   4.294
 5102SOL    HW216206   5.398   6.694   4.190
 5103SOL     OW16207   0.838   1.789   4.246
 5103SOL    HW116208   0.780   1.716   4.209
 5103SOL    HW216209   0.783   1.871   4.263
 5104SOL     OW16210   2.675   6.031   1.465
 5104SOL    HW116211   2.652   5.959   1.531
 5104SOL    HW216212   2.599   6.044   1.402
 5105SOL     OW16213   3.003   2.565   6.560
 5105SOL    HW116214   3.099   2.541   6.576
 5105SOL    HW216215   2.996   2.664   6.545
 5106SOL     OW16216   3.798   1.344   0.934
 5106SOL    HW116217   3.774   1.248   0.947
 5106SOL    HW216218   3.871   1.351   0.866
 5107SOL     OW16219   4.920   2.623   1.245
 5107SOL    HW116220   4.841   2.573   1.278
 5107SOL    HW216221   4.914   2.719   1.275
 5108SOL     OW16222   3.967   3.983   4.874
 5108SOL    HW116223   4.025   4.026   4.805
 5108SOL    HW216224   3.996   3.888   4.888
 5109SOL     OW16225   1.416   2.453   0.446
 5109SOL    HW116226   1.366   2.539   0.462
 5109SOL    HW216227   1.383   2.411   0.362
 5110SOL     OW16228   0.609   0.812   6.294
 5110SOL    HW116229   0.575   0.739   6.234
 5110SOL    HW216230   0.543   0.828   6.368
 5111SOL     OW16231   1.010   6.942   4.127
 5111SOL    HW116232   0.948   6.989   4.190
 5111SOL    HW216233   0.957   6.887   4.063
 5112SOL     OW16234   1.092   0.356   2.601
 5112SOL    HW116235   1.024   0.401   2.543
 5112SOL    HW216236   1.046   0.315   2.680
 5113SOL     OW16237   1.801   5.715   1.414
 5113SOL    HW116238   1.768   5.723   1.319
 5113SOL    HW216239   1.743   5.650   1.463
 5114SOL     OW16240   3.580   6.566   6.916
 5114SOL    HW116241   3.505   6.591   6.855
 5114SOL    HW216242   3.578   6.625   6.997
 5115SOL     OW16243   1.643   4.550   2.303
 5115SOL    HW116244   1.712   4.619   2.323
 5115SOL    HW216245   1.577   4.546   2.377
 5116SOL     OW16246   1.488   6.774   0.339
 5116SOL    HW116247   1.412   6.770   0.404
 5116SOL    HW216248   1.574   6.764   0.388
 5117SOL     OW16249   0.635   3.951   3.665
 5117SOL    HW116250   0.666   3.924   3.756
 5117SOL    HW216251   0.599   3.871   3.617
 5118SOL     OW16252   5.493   0.875   0.226
 5118SOL    HW116253   5.590   0.895   0.210
 5118SOL    HW216254   5.465   0.798   0.168
 5119SOL     OW16255   4.537   1.144   1.804
 5119SOL    HW116256   4.569   1.163   1.897
 5119SOL    HW216257   4.606   1.175   1.739
 5120SOL     OW16258   4.634   6.551   5.301
 5120SOL    HW116259   4.698   6.604   5.245
 5120SOL    HW216260   4.592   6.611   5.370
 5121SOL     OW16261   3.266   3.104   6.503
 5121SOL    HW116262   3.251   3.194   6.544
 5121SOL    HW216263   3.360   3.075   6.520
 5122SOL     OW16264   3.254   5.807   3.184
 5122SOL    HW116265   3.309   5.796   3.267
 5122SOL    HW216266   3.312   5.844   3.111
 5123SOL     OW16267   5.708   2.228   4.343
 5123SOL    HW116268   5.793   2.243   4.292
 5123SOL    HW216269   5.730   2.191   4.433
 5124SOL     OW16270   2.671   5.925   4.221
 5124SOL    HW116271   2.686   6.013   4.175
 5124SOL    HW216272   2.670   5.939   4.320
 5125SOL     OW16273   6.673   2.014   3.736
 5125SOL    HW116274   6.690   1.924   3.695
 5125SOL    HW216275   6.677   2.007   3.836
 5126SOL     OW16276   0.476   6.060   6.899
 5126SOL    HW116277   0.479   6.155   6.932
 5126SOL    HW216278   0.398   6.013   6.940
 5127SOL     OW16279   0.492   4.814   7.002
 5127SOL    HW116280   0.591   4.827   7.007
 5127SOL    HW216281   0.467   4.781   6.910
 5128SOL     OW16282   0.215   6.493   0.608
 5128SOL    HW116283   0.240   6.480   0.704
 5128SOL    HW216284   0.298   6.506   0.553
 5129SOL     OW16285   5.365   6.419   2.803
 5129SOL    HW116286   5.344   6.497   2.744
 5129SOL    HW216287   5.299   6.346   2.786
 5130SOL     OW16288   6.785   5.621   2.793
 5130SOL    HW116289   6.833   5.641   2.707
 5130SOL    HW216290   6.791   5.701   2.853
 5131SOL     OW16291   2.012   3.815   4.244
 5131SOL    HW116292   2.076   3.884   4.278
 5131SOL    HW216293   1.991   3.750   4.318
 5132SOL     OW16294   4.472   2.847   5.954
 5132SOL    HW116295   4.556   2.798   5.981
 5132SOL    HW216296   4.454   2.920   6.018
 5133SOL     OW16297   2.466   5.004   0.252
 5133SOL    HW116298   2.390   4.940   0.237
 5133SOL    HW216299   2.544   4.955   0.291
 5134SOL     OW16300   6.515   2.589   2.144
 5134SOL    HW116301   6.487   2.521   2.213
 5134SOL    HW216302   6.579   2.546   2.080
 5135SOL     OW16303   6.358   2.633   4.990
 5135SOL    HW116304   6.451   2.597   4.986
 5135SOL    HW216305   6.342   2.692   4.911
 5136SOL     OW16306   4.811   0.056   5.923
 5136SOL    HW116307   4.766   6.984   5.918
 5136SOL    HW216308   4.819   0.083   6.019
 5137SOL     OW16309   5.528   3.487   6.509
 5137SOL    HW116310   5.491   3.412   6.563
 5137SOL    HW216311   5.569   3.556   6.569
 5138SOL     OW16312   3.073   2.524   5.798
 5138SOL    HW116313   3.003   2.588   5.767
 5138SOL    HW216314   3.135   2.503   5.722
 5139SOL     OW16315   1.517   6.600   3.648
 5139SOL    HW116316   1.539   6.691   3.682
 5139SOL    HW216317   1.575   6.579   3.569
 5140SOL     OW16318   3.512   1.827   6.911
 5140SOL    HW116319   3.513   1.833   6.812
 5140SOL    HW216320   3.605   1.838   6.947
 5141SOL     OW16321   6.588   4.222   0.858
 5141SOL    HW116322   6.530   4.159   0.806
 5141SOL    HW216323   6.664   4.171   0.899
 5142SOL     OW16324   5.954   1.212   4.339
 5142SOL    HW116325   5.962   1.141   4.269
 5142SOL    HW216326   5.912   1.294   4.299
 5143SOL     OW16327   0.497   4.609   3.741
 5143SOL    HW116328   0.591   4.606   3.773
 5143SOL    HW216329   0.458   4.699   3.760
 5144SOL     OW16330   1.034   5.405   6.940
 5144SOL    HW116331   0.978   5.487   6.955
 5144SOL    HW216332   0.979   5.324   6.961
 5145SOL     OW16333   2.189   4.541   6.172
 5145SOL    HW116334   2.175   4.454   6.125
 5145SOL    HW216335   2.116   4.554   6.240
 5146SOL     OW16336   3.840   3.696   5.617
 5146SOL    HW116337   3.831   3.756   5.537
 5146SOL    HW216338   3.763   3.711   5.679
 5147SOL     OW16339   0.087   4.697   2.403
 5147SOL    HW116340   0.055   4.792   2.404
 5147SOL    HW216341   0.076   4.660   2.311
 5148SOL     OW16342   0.927   6.548   1.425
 5148SOL    HW116343   0.841   6.504   1.451
 5148SOL    HW216344   0.996   6.531   1.496
 5149SOL     OW16345   6.313   6.116   4.304
 5149SOL    HW116346   6.264   6.029   4.301
 5149SOL    HW216347   6.331   6.147   4.210
 5150SOL     OW16348   2.271   5.255   2.599
 5150SOL    HW116349   2.207   5.207   2.659
 5150SOL    HW216350   2.244   5.241   2.504
 5151SOL     OW16351   5.225   1.650   0.469
 5151SOL    HW116352   5.216   1.576   0.537
 5151SOL    HW216353   5.164   1.725   0.493
 5152SOL     OW16354   2.421   4.203   6.841
 5152SOL    HW116355   2.518   4.186   6.825
 5152SOL    HW216356   2.384   4.260   6.768
 5153SOL     OW16357   2.442   0.836   6.667
 5153SOL    HW116358   2.451   0.890   6.751
 5153SOL    HW216359   2.352   0.793   6.665
 5154SOL     OW16360   1.850   2.996   6.723
 5154SOL    HW116361   1.902   2.962   6.645
 5154SOL    HW216362   1.883   2.954   6.807
 5155SOL     OW16363   3.464   0.107   2.511
 5155SOL    HW116364   3.556   0.129   2.477
 5155SOL    HW216365   3.470   0.025   2.569
 5156SOL     OW16366   6.881   3.416   5.626
 5156SOL    HW116367   6.926   3.336   5.585
 5156SOL    HW216368   6.946   3.463   5.686
 5157SOL     OW16369   4.281   2.307   3.881
 5157SOL    HW116370   4.196   2.295   3.830
 5157SOL    HW216371   4.260   2.321   3.978
 5158SOL     OW16372   3.547   1.229   1.143
 5158SOL    HW116373   3.519   1.234   1.047
 5158SOL    HW216374   3.550   1.322   1.182
 5159SOL     OW16375   0.365   2.974   4.060
 5159SOL    HW116376   0.373   2.934   3.969
 5159SOL    HW216377   0.438   2.939   4.119
 5160SOL     OW16378   0.740   4.336   2.945
 5160SOL    HW116379   0.646   4.307   2.929
 5160SOL    HW216380   0.762   4.412   2.883
 5161SOL     OW16381   1.768   3.494   4.138
 5161SOL    HW116382   1.782   3.586   4.102
 5161SOL    HW216383   1.758   3.429   4.062
 5162SOL     OW16384   1.236   4.785   4.224
 5162SOL    HW116385   1.212   4.795   4.321
 5162SOL    HW216386   1.315   4.724   4.216
 5163SOL     OW16387   4.092   5.322   1.268
 5163SOL    HW116388   4.045   5.271   1.340
 5163SOL    HW216389   4.189   5.298   1.268
 5164SOL     OW16390   5.039   2.526   6.682
 5164SOL    HW116391   5.129   2.562   6.658
 5164SOL    HW216392   5.027   2.436   6.641
 5165SOL     OW16393   6.324   3.966   5.233
 5165SOL    HW116394   6.273   3.880   5.230
 5165SOL    HW216395   6.335   4.000   5.140
 5166SOL     OW16396   0.733   5.885   2.137
 5166SOL    HW116397   0.675   5.950   2.185
 5166SOL    HW216398   0.689   5.795   2.136
 5167SOL     OW16399   6.278   6.348   5.621
 5167SOL    HW116400   6.206   6.414   5.602
 5167SOL    HW216401   6.352   6.392   5.672
 5168SOL     OW16402   5.279   3.130   3.206
 5168SOL    HW116403   5.277   3.141   3.305
 5168SOL    HW216404   5.238   3.042   3.181
 5169SOL     OW16405   3.721   2.139   4.950
 5169SOL    HW116406   3.626   2.164   4.967
 5169SOL    HW216407   3.781   2.194   5.008
 5170SOL     OW16408   6.893   3.806   5.733
 5170SOL    HW116409   6.869   3.738   5.803
 5170SOL    HW216410   6.919   3.759   5.649
 5171SOL     OW16411   2.070   5.088   4.066
 5171SOL    HW116412   2.118   5.001   4.053
 5171SOL    HW216413   2.124   5.148   4.126
 5172SOL     OW16414   6.526   2.851   2.216
 5172SOL    HW116415   6.537   2.755   2.189
 5172SOL    HW216416   6.473   2.899   2.146
 5173SOL     OW16417   5.619   4.687   5.888
 5173SOL    HW116418   5.608   4.636   5.973
 5173SOL    HW216419   5.662   4.629   5.820
 5174SOL     OW16420   2.095   4.942   3.597
 5174SOL    HW116421   2.071   5.001   3.520
 5174SOL    HW216422   2.191   4.957   3.623
 5175SOL     OW16423   2.383   3.977   6.999
 5175SOL    HW116424   2.283   3.968   7.000
 5175SOL    HW216425   2.409   4.062   6.954
 5176SOL     OW16426   4.292   3.114   0.085
 5176SOL    HW116427   4.199   3.140   0.110
 5176SOL    HW216428   4.331   3.183   0.024
 5177SOL     OW16429   5.102   0.390   6.027
 5177SOL    HW116430   5.080   0.474   6.077
 5177SOL    HW216431   5.093   0.311   6.088
 5178SOL     OW16432   1.689   3.004   1.039
 5178SOL    HW116433   1.620   3.072   1.016
 5178SOL    HW216434   1.776   3.051   1.057
 5179SOL     OW16435   4.095   6.241   5.019
 5179SOL    HW116436   4.016   6.269   4.965
 5179SOL    HW216437   4.146   6.171   4.969
 5180SOL     OW16438   2.977   2.824   6.526
 5180SOL    HW116439   2.897   2.868   6.484
 5180SOL    HW216440   3.053   2.888   6.527
 5181SOL     OW16441   5.016   1.892   2.015
 5181SOL    HW116442   4.970   1.970   1.973
 5181SOL    HW216443   5.068   1.842   1.946
 5182SOL     OW16444   4.178   4.732   1.452
 5182SOL    HW116445   4.246   4.708   1.520
 5182SOL    HW216446   4.155   4.829   1.460
 5183SOL     OW16447   3.797   0.662   2.744
 5183SOL    HW116448   3.810   0.664   2.645
 5183SOL    HW216449   3.837   0.744   2.785
 5184SOL     OW16450   0.803   2.490   4.061
 5184SOL    HW116451   0.854   2.415   4.018
 5184SOL    HW216452   0.866   2.566   4.081
 5185SOL     OW16453   5.057   0.238   2.869
 5185SOL    HW116454   5.144   0.262   2.825
 5185SOL    HW216455   5.070   0.156   2.924
 5186SOL     OW16456   5.429   3.729   1.036
 5186SOL    HW116457   5.424   3.713   1.135
 5186SOL    HW216458   5.459   3.823   1.019
 5187SOL     OW16459   6.771   0.835   3.869
 5187SOL    HW116460   6.809   0.921   3.905
 5187SOL    HW216461   6.673   0.848   3.850
 5188SOL     OW16462   0.910   5.021   0.524
 5188SOL    HW116463   0.879   5.052   0.434
 5188SOL    HW216464   0.906   4.921   0.528
 5189SOL     OW16465   5.177   5.086   1.167
 5189SOL    HW116466   5.172   5.145   1.086
 5189SOL    HW216467   5.196   4.992   1.138
 5190SOL     OW16468   0.539   2.602   4.069
 5190SOL    HW116469   0.639   2.597   4.066
 5190SOL    HW216470   0.509   2.689   4.030
 5191SOL     OW16471   4.167   0.206   1.992
 5191SOL    HW116472   4.151   0.264   1.913
 5191SOL    HW216473   4.096   0.223   2.061
 5192SOL     OW16474   2.919   5.865   2.897
 5192SOL    HW116475   2.829   5.889   2.860
 5192SOL    HW216476   2.950   5.779   2.856
 5193SOL     OW16477   4.815   5.151   3.846
 5193SOL    HW116478   4.895   5.145   3.786
 5193SOL    HW216479   4.842   5.196   3.932
 5194SOL     OW16480   4.493   1.020   6.808
 5194SOL    HW116481   4.501   0.988   6.714
 5194SOL    HW216482   4.481   1.119   6.809
 5195SOL     OW16483   0.085   5.795   4.001
 5195SOL    HW116484   0.058   5.729   4.071
 5195SOL    HW216485   0.185   5.802   3.999
 5196SOL     OW16486   1.249   3.263   0.917
 5196SOL    HW116487   1.227   3.179   0.967
 5196SOL    HW216488   1.165   3.316   0.903
 5197SOL     OW16489   1.548   5.524   4.929
 5197SOL    HW116490   1.591   5.494   5.014
 5197SOL    HW216491   1.466   5.578   4.950
 5198SOL     OW16492   3.900   0.352   3.772
 5198SOL    HW116493   3.911   0.423   3.841
 5198SOL    HW216494   3.961   0.370   3.695
 5199SOL     OW16495   1.468   6.022   0.013
 5199SOL    HW116496   1.568   6.035   0.009
 5199SOL    HW216497   1.444   5.935   6.987
 5200SOL     OW16498   1.186   2.009   5.039
 5200SOL    HW116499   1.102   2.008   4.986
 5200SOL    HW216500   1.214   1.915   5.059
 5201SOL     OW16501   5.183   5.804   4.451
 5201SOL    HW116502   5.239   5.864   4.394
 5201SOL    HW216503   5.222   5.713   4.453
 5202SOL     OW16504   6.028   3.795   6.169
 5202SOL    HW116505   6.037   3.744   6.084
 5202SOL    HW216506   6.060   3.889   6.156
 5203SOL     OW16507   2.213   0.903   6.944
 5203SOL    HW116508   2.167   0.829   6.992
 5203SOL    HW216509   2.164   0.923   6.859
 5204SOL     OW16510   3.398   6.450   0.387
 5204SOL    HW116511   3.411   6.497   0.475
 5204SOL    HW216512   3.353   6.362   0.403
 5205SOL     OW16513   6.859   5.715   0.128
 5205SOL    HW116514   6.790   5.785   0.148
 5205SOL    HW216515   6.870   5.655   0.208
 5206SOL     OW16516   0.902   4.918   5.972
 5206SOL    HW116517   0.842   4.839   5.980
 5206SOL    HW216518   0.976   4.898   5.907
 5207SOL     OW16519   0.768   0.399   3.470
 5207SOL    HW116520   0.723   0.327   3.417
 5207SOL    HW216521   0.814   0.357   3.549
 5208SOL     OW16522   4.209   2.549   0.022
 5208SOL    HW116523   4.273   2.486   6.995
 5208SOL    HW216524   4.198   2.631   6.982
 5209SOL     OW16525   5.598   0.963   1.437
 5209SOL    HW116526   5.630   0.869   1.445
 5209SOL    HW216527   5.506   0.970   1.475
 5210SOL     OW16528   4.928   3.915   0.948
 5210SOL    HW116529   4.887   3.836   0.901
 5210SOL    HW216530   4.894   3.919   1.042
 5211SOL     OW16531   4.922   1.669   4.534
 5211SOL    HW116532   4.910   1.674   4.435
 5211SOL    HW216533   4.915   1.760   4.574
 5212SOL     OW16534   1.434   2.289   1.101
 5212SOL    HW116535   1.395   2.303   1.010
 5212SOL    HW216536   1.499   2.362   1.121
 5213SOL     OW16537   4.261   3.464   0.926
 5213SOL    HW116538   4.321   3.385   0.911
 5213SOL    HW216539   4.305   3.546   0.890
 5214SOL     OW16540   5.473   3.014   5.766
 5214SOL    HW116541   5.470   2.989   5.670
 5214SOL    HW216542   5.387   2.989   5.810
 5215SOL     OW16543   0.732   4.347   4.479
 5215SOL    HW116544   0.720   4.422   4.544
 5215SOL    HW216545   0.723   4.383   4.386
 5216SOL     OW16546   4.846   5.635   1.459
 5216SOL    HW116547   4.791   5.702   1.510
 5216SOL    HW216548   4.893   5.575   1.524
 5217SOL     OW16549   3.978   5.646   5.213
 5217SOL    HW116550   4.040   5.687   5.146
 5217SOL    HW216551   3.959   5.551   5.188
 5218SOL     OW16552   0.170   1.164   1.353
 5218SOL    HW116553   0.074   1.191   1.367
 5218SOL    HW216554   0.230   1.234   1.393
 5219SOL     OW16555   3.729   1.793   3.951
 5219SOL    HW116556   3.685   1.883   3.949
 5219SOL    HW216557   3.813   1.797   4.004
 5220SOL     OW16558   1.746   4.920   2.594
 5220SOL    HW116559   1.667   4.971   2.627
 5220SOL    HW216560   1.811   4.908   2.668
 5221SOL     OW16561   6.689   0.234   2.239
 5221SOL    HW116562   6.657   0.140   2.253
 5221SOL    HW216563   6.787   0.233   2.219
 5222SOL     OW16564   3.702   5.684   2.035
 5222SOL    HW116565   3.678   5.697   2.131
 5222SOL    HW216566   3.638   5.618   1.994
 5223SOL     OW16567   0.307   2.562   0.692
 5223SOL    HW116568   0.371   2.636   0.670
 5223SOL    HW216569   0.340   2.477   0.652
 5224SOL     OW16570   6.878   2.270   4.042
 5224SOL    HW116571   6.937   2.319   4.106
 5224SOL    HW216572   6.846   2.185   4.084
 5225SOL     OW16573   6.690   0.915   3.426
 5225SOL    HW116574   6.775   0.863   3.437
 5225SOL    HW216575   6.626   0.890   3.498
 5226SOL     OW16576   0.494   6.111   3.486
 5226SOL    HW116577   0.478   6.068   3.574
 5226SOL    HW216578   0.491   6.211   3.496
 5227SOL     OW16579   6.886   4.191   5.681
 5227SOL    HW116580   6.843   4.253   5.616
 5227SOL    HW216581   6.860   4.097   5.661
 5228SOL     OW16582   0.667   2.564   0.334
 5228SOL    HW116583   0.611   2.512   0.270
 5228SOL    HW216584   0.755   2.518   0.346
 5229SOL     OW16585   3.218   6.219   0.233
 5229SOL    HW116586   3.189   6.168   0.152
 5229SOL    HW216587   3.259   6.156   0.299
 5230SOL     OW16588   6.104   6.519   2.631
 5230SOL    HW116589   6.148   6.525   2.542
 5230SOL    HW216590   6.011   6.485   2.621
 5231SOL     OW16591   4.418   2.430   3.676
 5231SOL    HW116592   4.356   2.404   3.751
 5231SOL    HW216593   4.374   2.410   3.589
 5232SOL     OW16594   1.060   3.969   5.845
 5232SOL    HW116595   1.135   3.922   5.893
 5232SOL    HW216596   1.002   3.902   5.800
 5233SOL     OW16597   3.715   0.577   2.268
 5233SOL    HW116598   3.643   0.597   2.202
 5233SOL    HW216599   3.690   0.497   2.322
 5234SOL     OW16600   2.663   3.014   6.648
 5234SOL    HW116601   2.731   2.964   6.702
 5234SOL    HW216602   2.633   2.957   6.571
 5235SOL     OW16603   2.116   2.411   1.091
 5235SOL    HW116604   2.214   2.390   1.098
 5235SOL    HW216605   2.093   2.426   0.995
 5236SOL     OW16606   3.760   5.199   2.189
 5236SOL    HW116607   3.721   5.108   2.202
 5236SOL    HW216608   3.798   5.206   2.096
 5237SOL     OW16609   1.884   1.118   4.467
 5237SOL    HW116610   1.884   1.192   4.534
 5237SOL    HW216611   1.928   1.038   4.506
 5238SOL     OW16612   0.566   5.786   0.827
 5238SOL    HW116613   0.617   5.865   0.861
 5238SOL    HW216614   0.629   5.711   0.808
 5239SOL     OW16615   3.732   2.797   0.441
 5239SOL    HW116616   3.795   2.855   0.388
 5239SOL    HW216617   3.639   2.830   0.428
 5240SOL     OW16618   3.015   2.316   5.375
 5240SOL    HW116619   2.942   2.293   5.310
 5240SOL    HW216620   3.094   2.353   5.325
 5241SOL     OW16621   0.569   5.736   3.250
 5241SOL    HW116622   0.507   5.811   3.274
 5241SOL    HW216623   0.664   5.768   3.257
 5242SOL     OW16624   5.245   6.945   2.108
 5242SOL    HW116625   5.282   0.020   2.093
 5242SOL    HW216626   5.304   6.894   2.170
 5243SOL     OW16627   2.498   6.108   1.254
 5243SOL    HW116628   2.463   6.063   1.172
 5243SOL    HW216629   2.503   6.207   1.239
 5244SOL     OW16630   4.306   3.988   0.310
 5244SOL    HW116631   4.367   4.066   0.298
 5244SOL    HW216632   4.214   4.013   0.279
 5245SOL     OW16633   3.377   4.823   0.485
 5245SOL    HW116634   3.340   4.791   0.398
 5245SOL    HW216635   3.305   4.825   0.554
 5246SOL     OW16636   6.161   2.352   2.478
 5246SOL    HW116637   6.237   2.292   2.503
 5246SOL    HW216638   6.179   2.444   2.513
 5247SOL     OW16639   3.241   0.676   6.173
 5247SOL    HW116640   3.254   0.731   6.092
 5247SOL    HW216641   3.147   0.686   6.206
 5248SOL     OW16642   6.942   2.341   3.101
 5248SOL    HW116643   7.002   2.418   3.121
 5248SOL    HW216644   6.914   2.298   3.186
 5249SOL     OW16645   1.423   5.830   6.596
 5249SOL    HW116646   1.516   5.795   6.583
 5249SOL    HW216647   1.364   5.793   6.525
 5250SOL     OW16648   0.738   5.594   0.792
 5250SOL    HW116649   0.809   5.635   0.735
 5250SOL    HW216650   0.775   5.512   0.837
 5251SOL     OW16651   1.052   3.922   0.491
 5251SOL    HW116652   1.026   3.914   0.395
 5251SOL    HW216653   0.971   3.912   0.549
 5252SOL     OW16654   2.472   6.657   1.069
 5252SOL    HW116655   2.542   6.659   0.997
 5252SOL    HW216656   2.515   6.673   1.158
 5253SOL     OW16657   0.045   3.648   4.437
 5253SOL    HW116658   0.065   3.550   4.430
 5253SOL    HW216659   6.976   3.668   4.391
 5254SOL     OW16660   5.630   1.022   3.566
 5254SOL    HW116661   5.669   0.939   3.526
 5254SOL    HW216662   5.685   1.101   3.537
 5255SOL     OW16663   5.270   2.448   4.841
 5255SOL    HW116664   5.203   2.402   4.900
 5255SOL    HW216665   5.234   2.452   4.747
 5256SOL     OW16666   4.791   2.181   4.262
 5256SOL    HW116667   4.835   2.169   4.173
 5256SOL    HW216668   4.692   2.187   4.249
 5257SOL     OW16669   4.318   0.183   1.541
 5257SOL    HW116670   4.270   0.106   1.583
 5257SOL    HW216671   4.405   0.153   1.503
 5258SOL     OW16672   5.692   2.499   2.251
 5258SOL    HW116673   5.612   2.448   2.220
 5258SOL    HW216674   5.666   2.559   2.326
 5259SOL     OW16675   4.799   6.041   3.176
 5259SOL    HW116676   4.788   6.129   3.130
 5259SOL    HW216677   4.709   6.000   3.191
 5260SOL     OW16678   4.104   4.498   0.523
 5260SOL    HW116679   4.057   4.507   0.435
 5260SOL    HW216680   4.041   4.461   0.591
 5261SOL     OW16681   6.520   4.159   6.479
 5261SOL    HW116682   6.497   4.122   6.569
 5261SOL    HW216683   6.438   4.201   6.439
 5262SOL     OW16684   3.278   1.323   3.323
 5262SOL    HW116685   3.307   1.309   3.229
 5262SOL    HW216686   3.189   1.368   3.325
 5263SOL     OW16687   1.885   1.741   3.259
 5263SOL    HW116688   1.964   1.802   3.264
 5263SOL    HW216689   1.916   1.648   3.242
 5264SOL     OW16690   6.382   2.646   1.773
 5264SOL    HW116691   6.390   2.583   1.851
 5264SOL    HW216692   6.386   2.740   1.807
 5265SOL     OW16693   6.185   3.186   4.406
 5265SOL    HW116694   6.231   3.271   4.381
 5265SOL    HW216695   6.214   3.158   4.498
 5266SOL     OW16696   2.757   5.853   6.854
 5266SOL    HW116697   2.851   5.837   6.885
 5266SOL    HW216698   2.708   5.906   6.923
 5267SOL     OW16699   5.208   2.509   4.555
 5267SOL    HW116700   5.111   2.496   4.577
 5267SOL    HW216701   5.225   2.606   4.534
 5268SOL     OW16702   5.048   1.010   0.569
 5268SOL    HW116703   4.963   0.983   0.615
 5268SOL    HW216704   5.071   0.942   0.500
 5269SOL     OW16705   0.634   6.605   2.521
 5269SOL    HW116706   0.716   6.587   2.576
 5269SOL    HW216707   0.643   6.558   2.433
 5270SOL     OW16708   5.554   1.375   2.046
 5270SOL    HW116709   5.487   1.394   1.975
 5270SOL    HW216710   5.514   1.313   2.114
 5271SOL     OW16711   5.938   4.607   4.962
 5271SOL    HW116712   5.872   4.677   4.937
 5271SOL    HW216713   5.956   4.612   5.061
 5272SOL     OW16714   2.986   5.572   0.987
 5272SOL    HW116715   3.083   5.576   1.007
 5272SOL    HW216716   2.966   5.491   0.932
 5273SOL     OW16717   0.450   3.410   2.938
 5273SOL    HW116718   0.368   3.390   2.992
 5273SOL    HW216719   0.457   3.346   2.862
 5274SOL     OW16720   5.754   0.078   2.806
 5274SOL    HW116721   5.765   0.144   2.880
 5274SOL    HW216722   5.817   0.101   2.731
 5275SOL     OW16723   4.164   1.347   0.523
 5275SOL    HW116724   4.254   1.323   0.561
 5275SOL    HW216725   4.177   1.402   0.441
 5276SOL     OW16726   2.180   0.176   1.013
 5276SOL    HW116727   2.187   0.077   1.027
 5276SOL    HW216728   2.087   0.199   0.983
 5277SOL     OW16729   2.704   1.568   2.727
 5277SOL    HW116730   2.760   1.561   2.645
 5277SOL    HW216731   2.757   1.537   2.806
 5278SOL     OW16732   4.998   5.508   4.168
 5278SOL    HW116733   4.968   5.596   4.205
 5278SOL    HW216734   5.034   5.523   4.075
 5279SOL     OW16735   2.448   5.253   0.125
 5279SOL    HW116736   2.360   5.285   0.161
 5279SOL    HW216737   2.468   5.162   0.163
 5280SOL     OW16738   3.057   6.247   5.317
 5280SOL    HW116739   3.114   6.261   5.398
 5280SOL    HW216740   3.110   6.267   5.235
 5281SOL     OW16741   6.506   1.782   2.250
 5281SOL    HW116742   6.573   1.753   2.318
 5281SOL    HW216743   6.414   1.757   2.281
 5282SOL     OW16744   3.947   1.497   3.368
 5282SOL    HW116745   3.945   1.553   3.451
 5282SOL    HW216746   4.021   1.527   3.308
 5283SOL     OW16747   4.726   6.296   2.054
 5283SOL    HW116748   4.805   6.239   2.077
 5283SOL    HW216749   4.750   6.356   1.978
 5284SOL     OW16750   5.174   4.295   3.359
 5284SOL    HW116751   5.104   4.236   3.319
 5284SOL    HW216752   5.132   4.358   3.424
 5285SOL     OW16753   3.179   5.011   4.409
 5285SOL    HW116754   3.175   4.967   4.499
 5285SOL    HW216755   3.110   4.971   4.349
 5286SOL     OW16756   2.388   4.705   1.138
 5286SOL    HW116757   2.331   4.690   1.058
 5286SOL    HW216758   2.437   4.791   1.129
 5287SOL     OW16759   3.267   1.159   0.536
 5287SOL    HW116760   3.227   1.250   0.543
 5287SOL    HW216761   3.196   1.089   0.551
 5288SOL     OW16762   3.151   0.499   1.592
 5288SOL    HW116763   3.176   0.456   1.679
 5288SOL    HW216764   3.060   0.539   1.600
 5289SOL     OW16765   1.864   4.832   6.484
 5289SOL    HW116766   1.765   4.827   6.478
 5289SOL    HW216767   1.890   4.908   6.544
 5290SOL     OW16768   2.318   5.233   6.022
 5290SOL    HW116769   2.260   5.152   6.013
 5290SOL    HW216770   2.381   5.236   5.944
 5291SOL     OW16771   2.654   5.819   5.274
 5291SOL    HW116772   2.654   5.839   5.372
 5291SOL    HW216773   2.689   5.899   5.225
 5292SOL     OW16774   5.901   2.681   0.400
 5292SOL    HW116775   5.898   2.779   0.421
 5292SOL    HW216776   5.867   2.629   0.478
 5293SOL     OW16777   0.858   1.093   4.560
 5293SOL    HW116778   0.764   1.111   4.588
 5293SOL    HW216779   0.873   1.129   4.468
 5294SOL     OW16780   5.098   3.558   6.153
 5294SOL    HW116781   5.041   3.476   6.160
 5294SOL    HW216782   5.193   3.535   6.175
 5295SOL     OW16783   5.474   1.119   2.772
 5295SOL    HW116784   5.515   1.118   2.680
 5295SOL    HW216785   5.444   1.211   2.794
 5296SOL     OW16786   1.697   5.449   0.006
 5296SOL    HW116787   1.655   5.520   6.966
 5296SOL    HW216788   1.794   5.440   6.999
 5297SOL     OW16789   1.619   2.504   1.090
 5297SOL    HW116790   1.687   2.467   1.027
 5297SOL    HW216791   1.651   2.591   1.128
 5298SOL     OW16792   6.222   5.987   2.231
 5298SOL    HW116793   6.168   6.058   2.185
 5298SOL    HW216794   6.240   5.912   2.167
 5299SOL     OW16795   2.975   0.861   1.402
 5299SOL    HW116796   2.904   0.841   1.335
 5299SOL    HW216797   2.946   0.827   1.492
 5300SOL     OW16798   0.809   5.357   3.142
 5300SOL    HW116799   0.728   5.301   3.157
 5300SOL    HW216800   0.872   5.347   3.219
 5301SOL     OW16801   4.218   1.469   6.984
 5301SOL    HW116802   4.169   1.552   6.956
 5301SOL    HW216803   4.296   1.495   0.025
 5302SOL     OW16804   6.277   4.412   2.231
 5302SOL    HW116805   6.279   4.424   2.132
 5302SOL    HW216806   6.183   4.419   2.264
 5303SOL     OW16807   6.600   6.343   4.080
 5303SOL    HW116808   6.635   6.436   4.090
 5303SOL    HW216809   6.612   6.293   4.165
 5304SOL     OW16810   5.151   2.060   6.047
 5304SOL    HW116811   5.194   2.026   6.131
 5304SOL    HW216812   5.220   2.104   5.990
 5305SOL     OW16813   1.452   0.613   4.179
 5305SOL    HW116814   1.542   0.649   4.205
 5305SOL    HW216815   1.396   0.687   4.143
 5306SOL     OW16816   2.434   6.854   5.296
 5306SOL    HW116817   2.429   6.928   5.229
 5306SOL    HW216818   2.356   6.793   5.284
 5307SOL     OW16819   4.100   6.001   6.517
 5307SOL    HW116820   4.098   6.101   6.508
 5307SOL    HW216821   4.191   5.973   6.547
 5308SOL     OW16822   0.291   0.870   3.950
 5308SOL    HW116823   0.364   0.824   3.901
 5308SOL    HW216824   0.303   0.969   3.944
 5309SOL     OW16825   4.045   3.779   3.361
 5309SOL    HW116826   4.030   3.689   3.320
 5309SOL    HW216827   3.997   3.848   3.307
 5310SOL     OW16828   4.983   2.730   1.776
 5310SOL    HW116829   5.032   2.754   1.692
 5310SOL    HW216830   4.987   2.807   1.840
 5311SOL     OW16831   0.886   5.775   6.655
 5311SOL    HW116832   0.968   5.722   6.679
 5311SOL    HW216833   0.885   5.860   6.707
 5312SOL     OW16834   0.574   4.992   1.906
 5312SOL    HW116835   0.598   5.086   1.933
 5312SOL    HW216836   0.489   4.966   1.951
 5313SOL     OW16837   0.418   5.038   6.825
 5313SOL    HW116838   0.499   5.000   6.869
 5313SOL    HW216839   0.418   5.012   6.728
 5314SOL     OW16840   4.668   5.673   0.462
 5314SOL    HW116841   4.576   5.638   0.441
 5314SOL    HW216842   4.706   5.716   0.381
 5315SOL     OW16843   4.683   4.281   2.212
 5315SOL    HW116844   4.732   4.201   2.176
 5315SOL    HW216845   4.609   4.305   2.150
 5316SOL     OW16846   0.434   5.173   4.807
 5316SOL    HW116847   0.444   5.115   4.887
 5316SOL    HW216848   0.337   5.187   4.787
 5317SOL     OW16849   5.624   1.570   3.843
 5317SOL    HW116850   5.528   1.568   3.869
 5317SOL    HW216851   5.665   1.656   3.873
 5318SOL     OW16852   6.668   2.192   4.688
 5318SOL    HW116853   6.709   2.279   4.717
 5318SOL    HW216854   6.691   2.121   4.754
 5319SOL     OW16855   5.734   0.032   6.486
 5319SOL    HW116856   5.673   0.097   6.441
 5319SOL    HW216857   5.828   0.048   6.456
 5320SOL     OW16858   6.013   4.902   0.005
 5320SOL    HW116859   5.931   4.957   7.012
 5320SOL    HW216860   6.035   4.892   0.102
 5321SOL     OW16861   1.381   5.071   3.802
 5321SOL    HW116862   1.467   5.046   3.847
 5321SOL    HW216863   1.329   4.988   3.782
 5322SOL     OW16864   3.698   6.802   6.658
 5322SOL    HW116865   3.721   6.862   6.734
 5322SOL    HW216866   3.615   6.835   6.613
 5323SOL     OW16867   4.327   2.496   1.282
 5323SOL    HW116868   4.263   2.533   1.214
 5323SOL    HW216869   4.277   2.438   1.347
 5324SOL     OW16870   3.805   2.012   1.854
 5324SOL    HW116871   3.762   1.922   1.855
 5324SOL    HW216872   3.744   2.079   1.895
 5325SOL     OW16873   4.884   6.924   2.897
 5325SOL    HW116874   4.850   6.991   2.962
 5325SOL    HW216875   4.934   6.852   2.946
 5326SOL     OW16876   6.751   5.279   1.747
 5326SOL    HW116877   6.786   5.343   1.816
 5326SOL    HW216878   6.682   5.325   1.691
 5327SOL     OW16879   0.219   6.870   4.805
 5327SOL    HW116880   0.176   6.845   4.718
 5327SOL    HW216881   0.148   6.880   4.875
 5328SOL     OW16882   3.622   2.653   5.638
 5328SOL    HW116883   3.570   2.650   5.553
 5328SOL    HW216884   3.595   2.578   5.697
 5329SOL     OW16885   0.111   4.545   0.466
 5329SOL    HW116886   0.059   4.512   0.387
 5329SOL    HW216887   0.183   4.480   0.489
 5330SOL     OW16888   3.764   3.642   0.283
 5330SOL    HW116889   3.744   3.639   0.381
 5330SOL    HW216890   3.857   3.675   0.268
 5331SOL     OW16891   4.324   2.424   0.702
 5331SOL    HW116892   4.341   2.390   0.610
 5331SOL    HW216893   4.316   2.347   0.765
 5332SOL     OW16894   6.015   5.386   0.703
 5332SOL    HW116895   5.961   5.415   0.624
 5332SOL    HW216896   5.993   5.291   0.725
 5333SOL     OW16897   2.064   0.973   3.816
 5333SOL    HW116898   2.085   0.903   3.748
 5333SOL    HW216899   2.010   1.046   3.774
 5334SOL     OW16900   4.644   4.862   4.258
 5334SOL    HW116901   4.557   4.910   4.254
 5334SOL    HW216902   4.681   4.850   4.166
 5335SOL     OW16903   6.442   3.891   2.506
 5335SOL    HW116904   6.348   3.879   2.474
 5335SOL    HW216905   6.446   3.874   2.604
 5336SOL     OW16906   2.218   1.662   3.928
 5336SOL    HW116907   2.257   1.747   3.892
 5336SOL    HW216908   2.287   1.614   3.982
 5337SOL     OW16909   6.042   4.767   1.398
 5337SOL    HW116910   5.969   4.811   1.346
 5337SOL    HW216911   6.117   4.832   1.411
 5338SOL     OW16912   5.762   2.828   0.070
 5338SOL    HW116913   5.803   2.916   0.097
 5338SOL    HW216914   5.673   2.818   0.114
 5339SOL     OW16915   5.851   1.828   2.046
 5339SOL    HW116916   5.817   1.805   1.954
 5339SOL    HW216917   5.778   1.816   2.112
 5340SOL     OW16918   5.172   3.140   1.813
 5340SOL    HW116919   5.172   3.233   1.850
 5340SOL    HW216920   5.266   3.104   1.815
 5341SOL     OW16921   4.654   4.857   3.587
 5341SOL    HW116922   4.733   4.810   3.548
 5341SOL    HW216923   4.570   4.818   3.549
 5342SOL     OW16924   5.674   6.568   5.701
 5342SOL    HW116925   5.643   6.663   5.694
 5342SOL    HW216926   5.772   6.564   5.680
 5343SOL     OW16927   3.622   3.620   4.874
 5343SOL    HW116928   3.708   3.616   4.822
 5343SOL    HW216929   3.547   3.584   4.818
 5344SOL     OW16930   0.677   1.367   0.617
 5344SOL    HW116931   0.625   1.398   0.537
 5344SOL    HW216932   0.726   1.283   0.595
 5345SOL     OW16933   4.640   1.301   6.861
 5345SOL    HW116934   4.604   1.361   6.790
 5345SOL    HW216935   4.712   1.243   6.823
 5346SOL     OW16936   2.508   5.123   4.192
 5346SOL    HW116937   2.501   5.064   4.112
 5346SOL    HW216938   2.449   5.203   4.180
 5347SOL     OW16939   0.171   2.333   3.627
 5347SOL    HW116940   0.172   2.252   3.568
 5347SOL    HW216941   0.138   2.307   3.718
 5348SOL     OW16942   6.287   1.508   4.960
 5348SOL    HW116943   6.274   1.549   4.870
 5348SOL    HW216944   6.249   1.568   5.030
 5349SOL     OW16945   0.829   2.753   1.769
 5349SOL    HW116946   0.873   2.679   1.820
 5349SOL    HW216947   0.766   2.801   1.829
 5350SOL     OW16948   1.603   0.099   5.227
 5350SOL    HW116949   1.571   0.155   5.304
 5350SOL    HW216950   1.700   0.076   5.241
 5351SOL     OW16951   0.078   5.397   1.820
 5351SOL    HW116952   0.079   5.320   1.756
 5351SOL    HW216953   7.004   5.405   1.860
 5352SOL     OW16954   1.923   4.283   3.018
 5352SOL    HW116955   2.017   4.252   3.005
 5352SOL    HW216956   1.863   4.236   2.954
 5353SOL     OW16957   3.597   5.660   3.682
 5353SOL    HW116958   3.544   5.580   3.656
 5353SOL    HW216959   3.689   5.632   3.709
 5354SOL     OW16960   3.536   4.431   0.413
 5354SOL    HW116961   3.441   4.445   0.387
 5354SOL    HW216962   3.593   4.499   0.368
 5355SOL     OW16963   5.063   5.302   5.349
 5355SOL    HW116964   5.014   5.242   5.286
 5355SOL    HW216965   5.161   5.299   5.328
 5356SOL     OW16966   6.386   3.576   1.739
 5356SOL    HW116967   6.362   3.671   1.718
 5356SOL    HW216968   6.462   3.547   1.681
 5357SOL     OW16969   4.251   4.751   1.839
 5357SOL    HW116970   4.258   4.820   1.911
 5357SOL    HW216971   4.307   4.778   1.761
 5358SOL     OW16972   4.386   1.639   0.412
 5358SOL    HW116973   4.401   1.728   0.370
 5358SOL    HW216974   4.313   1.646   0.479
 5359SOL     OW16975   2.120   2.343   0.410
 5359SOL    HW116976   2.139   2.303   0.321
 5359SOL    HW216977   2.059   2.422   0.399
 5360SOL     OW16978   5.818   5.546   3.875
 5360SOL    HW116979   5.774   5.458   3.858
 5360SOL    HW216980   5.847   5.586   3.788
 5361SOL     OW16981   3.203   6.230   2.824
 5361SOL    HW116982   3.184   6.135   2.796
 5361SOL    HW216983   3.282   6.264   2.773
 5362SOL     OW16984   5.563   6.759   2.612
 5362SOL    HW116985   5.647   6.707   2.601
 5362SOL    HW216986   5.488   6.697   2.636
 5363SOL     OW16987   5.340   6.723   5.025
 5363SOL    HW116988   5.323   6.773   4.940
 5363SOL    HW216989   5.404   6.648   5.007
 5364SOL     OW16990   5.377   0.850   2.090
 5364SOL    HW116991   5.403   0.802   2.005
 5364SOL    HW216992   5.379   0.948   2.074
 5365SOL     OW16993   2.954   3.603   3.077
 5365SOL    HW116994   2.862   3.593   3.039
 5365SOL    HW216995   3.017   3.541   3.029
 5366SOL     OW16996   6.862   0.525   1.723
 5366SOL    HW116997   6.794   0.475   1.669
 5366SOL    HW216998   6.912   0.461   1.780
 5367SOL     OW16999   5.826   7.003   0.394
 5367SOL    HW117000   5.817   6.973   0.299
 5367SOL    HW217001   5.921   0.012   0.412
 5368SOL     OW17002   6.493   6.107   2.334
 5368SOL    HW117003   6.437   6.031   2.299
 5368SOL    HW217004   6.589   6.091   2.311
 5369SOL     OW17005   2.995   5.280   1.235
 5369SOL    HW117006   2.907   5.312   1.269
 5369SOL    HW217007   2.981   5.214   1.162
 5370SOL     OW17008   4.045   3.643   1.823
 5370SOL    HW117009   3.946   3.656   1.815
 5370SOL    HW217010   4.092   3.728   1.800
 5371SOL     OW17011   6.893   5.107   5.015
 5371SOL    HW117012   6.890   5.069   4.923
 5371SOL    HW217013   6.803   5.142   5.041
 5372SOL     OW17014   2.085   6.938   2.935
 5372SOL    HW117015   2.029   6.910   3.013
 5372SOL    HW217016   2.026   6.962   2.858
 5373SOL     OW17017   4.067   6.482   6.539
 5373SOL    HW117018   4.165   6.490   6.522
 5373SOL    HW217019   4.050   6.483   6.637
 5374SOL     OW17020   2.579   4.661   1.384
 5374SOL    HW117021   2.551   4.622   1.296
 5374SOL    HW217022   2.511   4.640   1.453
 5375SOL     OW17023   0.952   6.604   5.427
 5375SOL    HW117024   1.016   6.637   5.497
 5375SOL    HW217025   0.865   6.582   5.470
 5376SOL     OW17026   1.218   2.141   1.906
 5376SOL    HW117027   1.175   2.089   1.832
 5376SOL    HW217028   1.168   2.124   1.991
 5377SOL     OW17029   2.226   0.824   2.927
 5377SOL    HW117030   2.219   0.887   2.850
 5377SOL    HW217031   2.152   0.757   2.921
 5378SOL     OW17032   5.746   0.336   0.929
 5378SOL    HW117033   5.789   0.418   0.892
 5378SOL    HW217034   5.756   0.334   1.029
 5379SOL     OW17035   1.495   2.377   6.064
 5379SOL    HW117036   1.545   2.394   6.149
 5379SOL    HW217037   1.465   2.464   6.025
 5380SOL     OW17038   3.438   6.816   1.059
 5380SOL    HW117039   3.389   6.819   1.145
 5380SOL    HW217040   3.375   6.836   0.984
 5381SOL     OW17041   5.801   6.644   2.537
 5381SOL    HW117042   5.849   6.705   2.599
 5381SOL    HW217043   5.822   6.670   2.442
 5382SOL     OW17044   3.859   2.106   2.739
 5382SOL    HW117045   3.790   2.109   2.667
 5382SOL    HW217046   3.935   2.166   2.716
 5383SOL     OW17047   1.133   2.760   4.638
 5383SOL    HW117048   1.053   2.778   4.581
 5383SOL    HW217049   1.196   2.700   4.588
 5384SOL     OW17050   4.415   5.479   5.489
 5384SOL    HW117051   4.466   5.518   5.411
 5384SOL    HW217052   4.336   5.537   5.509
 5385SOL     OW17053   6.578   3.091   6.190
 5385SOL    HW117054   6.541   3.005   6.227
 5385SOL    HW217055   6.672   3.103   6.221
 5386SOL     OW17056   5.867   3.301   3.928
 5386SOL    HW117057   5.809   3.262   3.999
 5386SOL    HW217058   5.852   3.252   3.842
 5387SOL     OW17059   2.635   0.082   3.099
 5387SOL    HW117060   2.682   0.010   3.152
 5387SOL    HW217061   2.594   0.148   3.162
 5388SOL     OW17062   1.128   6.512   2.975
 5388SOL    HW117063   1.159   6.430   2.926
 5388SOL    HW217064   1.098   6.581   2.909
 5389SOL     OW17065   4.558   2.254   4.510
 5389SOL    HW117066   4.624   2.265   4.585
 5389SOL    HW217067   4.533   2.157   4.503
 5390SOL     OW17068   6.033   3.631   4.245
 5390SOL    HW117069   5.945   3.648   4.289
 5390SOL    HW217070   6.027   3.655   4.148
 5391SOL     OW17071   2.520   2.444   0.244
 5391SOL    HW117072   2.491   2.369   0.303
 5391SOL    HW217073   2.443   2.506   0.230
 5392SOL     OW17074   4.873   2.572   3.307
 5392SOL    HW117075   4.794   2.523   3.270
 5392SOL    HW217076   4.842   2.643   3.369
 5393SOL     OW17077   4.472   7.008   5.319
 5393SOL    HW117078   4.407   6.946   5.273
 5393SOL    HW217079   4.441   0.008   5.412
 5394SOL     OW17080   1.027   6.634   1.143
 5394SOL    HW117081   1.006   6.730   1.160
 5394SOL    HW217082   0.956   6.576   1.183
 5395SOL     OW17083   4.840   1.571   1.005
 5395SOL    HW117084   4.786   1.556   0.923
 5395SOL    HW217085   4.781   1.608   1.077
 5396SOL     OW17086   5.477   5.706   2.606
 5396SOL    HW117087   5.451   5.640   2.536
 5396SOL    HW217088   5.500   5.657   2.691
 5397SOL     OW17089   6.435   1.515   2.512
 5397SOL    HW117090   6.376   1.592   2.535
 5397SOL    HW217091   6.529   1.536   2.540
 5398SOL     OW17092   4.526   1.915   3.957
 5398SOL    HW117093   4.548   1.900   4.053
 5398SOL    HW217094   4.549   2.009   3.932
 5399SOL     OW17095   1.500   6.764   5.318
 5399SOL    HW117096   1.465   6.673   5.297
 5399SOL    HW217097   1.563   6.793   5.246
 5400SOL     OW17098   3.554   3.304   0.957
 5400SOL    HW117099   3.598   3.216   0.971
 5400SOL    HW217100   3.460   3.300   0.991
 5401SOL     OW17101   5.010   5.002   3.697
 5401SOL    HW117102   5.085   4.986   3.633
 5401SOL    HW217103   4.945   4.926   3.692
 5402SOL     OW17104   2.905   6.858   0.832
 5402SOL    HW117105   2.948   6.783   0.882
 5402SOL    HW217106   2.965   6.938   0.834
 5403SOL     OW17107   5.453   3.065   0.072
 5403SOL    HW117108   5.501   2.994   0.123
 5403SOL    HW217109   5.389   3.022   0.008
 5404SOL     OW17110   0.992   1.079   1.082
 5404SOL    HW117111   1.044   0.996   1.099
 5404SOL    HW217112   1.000   1.140   1.161
 5405SOL     OW17113   5.211   5.451   6.918
 5405SOL    HW117114   5.208   5.551   6.911
 5405SOL    HW217115   5.291   5.417   6.868
 5406SOL     OW17116   2.640   1.051   5.117
 5406SOL    HW117117   2.729   1.022   5.082
 5406SOL    HW217118   2.605   1.127   5.062
 5407SOL     OW17119   2.686   0.833   1.297
 5407SOL    HW117120   2.697   0.893   1.217
 5407SOL    HW217121   2.639   0.749   1.269
 5408SOL     OW17122   3.464   1.856   4.233
 5408SOL    HW117123   3.399   1.876   4.307
 5408SOL    HW217124   3.442   1.768   4.192
 5409SOL     OW17125   6.253   2.585   1.542
 5409SOL    HW117126   6.179   2.520   1.556
 5409SOL    HW217127   6.301   2.601   1.628
 5410SOL     OW17128   6.778   3.235   0.864
 5410SOL    HW117129   6.868   3.276   0.877
 5410SOL    HW217130   6.787   3.135   0.857
 5411SOL     OW17131   5.253   4.649   0.129
 5411SOL    HW117132   5.348   4.625   0.151
 5411SOL    HW217133   5.201   4.566   0.112
 5412SOL     OW17134   1.587   1.427   5.966
 5412SOL    HW117135   1.604   1.500   6.032
 5412SOL    HW217136   1.516   1.455   5.902
 5413SOL     OW17137   6.197   0.142   5.434
 5413SOL    HW117138   6.267   0.077   5.465
 5413SOL    HW217139   6.106   0.100   5.444
 5414SOL     OW17140   0.290   4.351   5.161
 5414SOL    HW117141   0.337   4.358   5.072
 5414SOL    HW217142   0.354   4.314   5.228
 5415SOL     OW17143   2.873   5.833   0.444
 5415SOL    HW117144   2.774   5.839   0.457
 5415SOL    HW217145   2.909   5.923   0.422
 5416SOL     OW17146   2.800   4.995   4.988
 5416SOL    HW117147   2.744   5.072   4.956
 5416SOL    HW217148   2.742   4.931   5.039
 5417SOL     OW17149   5.080   6.023   3.797
 5417SOL    HW117150   5.063   5.933   3.838
 5417SOL    HW217151   5.178   6.036   3.782
 5418SOL     OW17152   5.732   4.560   4.354
 5418SOL    HW117153   5.648   4.598   4.313
 5418SOL    HW217154   5.812   4.603   4.312
 5419SOL     OW17155   4.090   6.741   6.796
 5419SOL    HW117156   4.018   6.792   6.843
 5419SOL    HW217157   4.171   6.798   6.785
 5420SOL     OW17158   1.550   1.647   1.999
 5420SOL    HW117159   1.509   1.639   1.908
 5420SOL    HW217160   1.507   1.722   2.049
 5421SOL     OW17161   3.600   5.431   2.200
 5421SOL    HW117162   3.585   5.406   2.104
 5421SOL    HW217163   3.655   5.361   2.244
 5422SOL     OW17164   2.012   6.367   3.917
 5422SOL    HW117165   2.075   6.330   3.848
 5422SOL    HW217166   2.008   6.466   3.908
 5423SOL     OW17167   6.768   5.757   2.290
 5423SOL    HW117168   6.748   5.765   2.387
 5423SOL    HW217169   6.850   5.808   2.268
 5424SOL     OW17170   5.016   4.208   4.990
 5424SOL    HW117171   5.017   4.242   5.084
 5424SOL    HW217172   4.962   4.125   4.984
 5425SOL     OW17173   6.937   3.297   4.984
 5425SOL    HW117174   6.876   3.270   4.909
 5425SOL    HW217175   6.962   3.393   4.974
 5426SOL     OW17176   5.179   5.196   2.066
 5426SOL    HW117177   5.237   5.243   2.133
 5426SOL    HW217178   5.124   5.127   2.113
 5427SOL     OW17179   4.577   2.811   6.481
 5427SOL    HW117180   4.593   2.842   6.387
 5427SOL    HW217181   4.654   2.754   6.511
 5428SOL     OW17182   6.050   5.743   2.951
 5428SOL    HW117183   6.003   5.723   2.865
 5428SOL    HW217184   5.985   5.784   3.015
 5429SOL     OW17185   3.015   0.262   3.917
 5429SOL    HW117186   3.084   0.255   3.989
 5429SOL    HW217187   2.969   0.350   3.924
 5430SOL     OW17188   2.241   3.544   6.113
 5430SOL    HW117189   2.230   3.621   6.050
 5430SOL    HW217190   2.332   3.548   6.154
 5431SOL     OW17191   3.640   5.046   6.318
 5431SOL    HW117192   3.676   5.025   6.409
 5431SOL    HW217193   3.597   5.137   6.320
 5432SOL     OW17194   5.275   5.891   1.228
 5432SOL    HW117195   5.178   5.879   1.252
 5432SOL    HW217196   5.294   5.989   1.217
 5433SOL     OW17197   0.997   0.771   0.938
 5433SOL    HW117198   1.075   0.799   0.882
 5433SOL    HW217199   0.913   0.809   0.899
 5434SOL     OW17200   4.884   1.040   4.820
 5434SOL    HW117201   4.953   1.051   4.748
 5434SOL    HW217202   4.928   1.047   4.909
 5435SOL     OW17203   6.248   4.346   0.775
 5435SOL    HW117204   6.286   4.437   0.795
 5435SOL    HW217205   6.321   4.286   0.742
 5436SOL     OW17206   0.952   5.958   2.569
 5436SOL    HW117207   0.987   5.986   2.480
 5436SOL    HW217208   0.855   5.982   2.576
 5437SOL     OW17209   2.786   5.031   6.562
 5437SOL    HW117210   2.694   5.000   6.585
 5437SOL    HW217211   2.781   5.106   6.496
 5438SOL     OW17212   4.838   4.085   2.100
 5438SOL    HW117213   4.880   4.073   2.190
 5438SOL    HW217214   4.847   4.001   2.047
 5439SOL     OW17215   0.444   4.179   0.423
 5439SOL    HW117216   0.522   4.149   0.478
 5439SOL    HW217217   0.387   4.241   0.478
 5440SOL     OW17218   5.826   6.912   3.554
 5440SOL    HW117219   5.908   6.862   3.583
 5440SOL    HW217220   5.838   6.944   3.460
 5441SOL     OW17221   4.990   3.266   4.028
 5441SOL    HW117222   4.949   3.175   4.030
 5441SOL    HW217223   5.008   3.296   4.122
 5442SOL     OW17224   5.570   0.140   4.038
 5442SOL    HW117225   5.522   0.148   4.126
 5442SOL    HW217226   5.668   0.141   4.054
 5443SOL     OW17227   5.128   6.879   5.090
 5443SOL    HW117228   5.203   6.813   5.080
 5443SOL    HW217229   5.165   6.966   5.122
 5444SOL     OW17230   0.516   1.873   3.759
 5444SOL    HW117231   0.511   1.897   3.661
 5444SOL    HW217232   0.470   1.944   3.812
 5445SOL     OW17233   5.075   5.018   5.250
 5445SOL    HW117234   5.056   4.921   5.265
 5445SOL    HW217235   5.014   5.054   5.180
 5446SOL     OW17236   0.012   4.679   5.034
 5446SOL    HW117237   0.021   4.706   4.938
 5446SOL    HW217238   6.965   4.739   5.081
 5447SOL     OW17239   1.799   1.854   1.421
 5447SOL    HW117240   1.803   1.925   1.351
 5447SOL    HW217241   1.876   1.866   1.484
 5448SOL     OW17242   4.559   5.993   4.053
 5448SOL    HW117243   4.464   5.966   4.035
 5448SOL    HW217244   4.619   5.915   4.035
 5449SOL     OW17245   3.303   1.769   2.248
 5449SOL    HW117246   3.233   1.739   2.314
 5449SOL    HW217247   3.265   1.842   2.191
 5450SOL     OW17248   3.784   5.948   1.938
 5450SOL    HW117249   3.821   5.913   1.852
 5450SOL    HW217250   3.717   5.883   1.975
 5451SOL     OW17251   1.247   6.961   2.935
 5451SOL    HW117252   1.261   0.017   3.002
 5451SOL    HW217253   1.300   6.880   2.961
 5452SOL     OW17254   1.716   5.018   0.883
 5452SOL    HW117255   1.714   4.933   0.831
 5452SOL    HW217256   1.691   4.999   0.978
 5453SOL     OW17257   5.597   4.525   2.713
 5453SOL    HW117258   5.666   4.454   2.696
 5453SOL    HW217259   5.507   4.491   2.687
 5454SOL     OW17260   5.537   5.517   2.789
 5454SOL    HW117261   5.605   5.473   2.730
 5454SOL    HW217262   5.555   5.492   2.885
 5455SOL     OW17263   0.690   1.424   2.611
 5455SOL    HW117264   0.677   1.401   2.707
 5455SOL    HW217265   0.788   1.438   2.593
 5456SOL     OW17266   4.850   1.164   6.750
 5456SOL    HW117267   4.843   1.094   6.678
 5456SOL    HW217268   4.901   1.127   6.827
 5457SOL     OW17269   6.402   2.428   0.190
 5457SOL    HW117270   6.426   2.517   0.229
 5457SOL    HW217271   6.308   2.406   0.215
 5458SOL     OW17272   6.238   4.844   0.714
 5458SOL    HW117273   6.217   4.922   0.774
 5458SOL    HW217274   6.337   4.833   0.709
 5459SOL     OW17275   1.568   4.571   5.531
 5459SOL    HW117276   1.493   4.543   5.590
 5459SOL    HW217277   1.608   4.656   5.565
 5460SOL     OW17278   2.050   1.617   1.201
 5460SOL    HW117279   1.996   1.690   1.161
 5460SOL    HW217280   2.009   1.528   1.177
 5461SOL     OW17281   0.493   1.530   5.749
 5461SOL    HW117282   0.437   1.504   5.670
 5461SOL    HW217283   0.469   1.623   5.777
 5462SOL     OW17284   5.568   6.178   6.589
 5462SOL    HW117285   5.580   6.188   6.688
 5462SOL    HW217286   5.621   6.100   6.557
 5463SOL     OW17287   6.454   2.368   6.553
 5463SOL    HW117288   6.447   2.418   6.639
 5463SOL    HW217289   6.521   2.414   6.494
 5464SOL     OW17290   6.330   5.870   5.440
 5464SOL    HW117291   6.303   5.847   5.346
 5464SOL    HW217292   6.379   5.792   5.480
 5465SOL     OW17293   6.156   6.667   3.152
 5465SOL    HW117294   6.173   6.647   3.249
 5465SOL    HW217295   6.151   6.766   3.138
 5466SOL     OW17296   5.746   2.527   4.969
 5466SOL    HW117297   5.794   2.567   5.047
 5466SOL    HW217298   5.812   2.503   4.898
 5467SOL     OW17299   5.760   3.840   3.737
 5467SOL    HW117300   5.759   3.747   3.774
 5467SOL    HW217301   5.815   3.899   3.796
 5468SOL     OW17302   6.900   1.972   3.252
 5468SOL    HW117303   6.977   1.914   3.279
 5468SOL    HW217304   6.830   1.915   3.207
 5469SOL     OW17305   2.215   0.893   5.950
 5469SOL    HW117306   2.213   0.849   5.860
 5469SOL    HW217307   2.289   0.960   5.953
 5470SOL     OW17308   3.989   5.202   4.601
 5470SOL    HW117309   3.920   5.227   4.670
 5470SOL    HW217310   4.012   5.105   4.611
 5471SOL     OW17311   5.468   0.267   3.053
 5471SOL    HW117312   5.490   0.288   2.958
 5471SOL    HW217313   5.539   0.304   3.113
 5472SOL     OW17314   3.231   2.230   6.198
 5472SOL    HW117315   3.181   2.316   6.207
 5472SOL    HW217316   3.172   2.161   6.155
 5473SOL     OW17317   1.896   4.227   0.356
 5473SOL    HW117318   1.957   4.157   0.395
 5473SOL    HW217319   1.813   4.233   0.412
 5474SOL     OW17320   1.315   5.555   3.106
 5474SOL    HW117321   1.367   5.475   3.135
 5474SOL    HW217322   1.328   5.569   3.008
 5475SOL     OW17323   1.496   1.998   0.652
 5475SOL    HW117324   1.411   1.975   0.698
 5475SOL    HW217325   1.573   1.966   0.706
 5476SOL     OW17326   2.226   4.587   5.626
 5476SOL    HW117327   2.278   4.659   5.580
 5476SOL    HW217328   2.258   4.577   5.720
 5477SOL     OW17329   1.554   4.216   2.796
 5477SOL    HW117330   1.586   4.144   2.735
 5477SOL    HW217331   1.464   4.249   2.765
 5478SOL     OW17332   5.367   5.755   6.570
 5478SOL    HW117333   5.376   5.837   6.514
 5478SOL    HW217334   5.377   5.674   6.512
 5479SOL     OW17335   4.458   1.135   4.115
 5479SOL    HW117336   4.418   1.075   4.046
 5479SOL    HW217337   4.447   1.094   4.205
 5480SOL     OW17338   6.098   4.422   4.902
 5480SOL    HW117339   6.074   4.363   4.824
 5480SOL    HW217340   6.032   4.497   4.908
 5481SOL     OW17341   4.496   0.789   5.756
 5481SOL    HW117342   4.490   0.811   5.659
 5481SOL    HW217343   4.496   0.690   5.767
 5482SOL     OW17344   3.264   3.746   2.228
 5482SOL    HW117345   3.182   3.699   2.194
 5482SOL    HW217346   3.297   3.698   2.310
 5483SOL     OW17347   6.720   2.702   5.596
 5483SOL    HW117348   6.763   2.790   5.577
 5483SOL    HW217349   6.626   2.717   5.629
 5484SOL     OW17350   6.310   6.704   3.716
 5484SOL    HW117351   6.305   6.795   3.758
 5484SOL    HW217352   6.300   6.634   3.786
 5485SOL     OW17353   2.894   0.368   4.367
 5485SOL    HW117354   2.908   0.454   4.417
 5485SOL    HW217355   2.815   0.378   4.305
 5486SOL     OW17356   1.968   0.312   4.187
 5486SOL    HW117357   2.024   0.301   4.105
 5486SOL    HW217358   1.871   0.315   4.162
 5487SOL     OW17359   5.868   3.770   6.778
 5487SOL    HW117360   5.833   3.830   6.850
 5487SOL    HW217361   5.917   3.825   6.710
 5488SOL     OW17362   4.404   1.524   0.165
 5488SOL    HW117363   4.487   1.538   0.111
 5488SOL    HW217364   4.410   1.576   0.250
 5489SOL     OW17365   1.743   4.055   1.675
 5489SOL    HW117366   1.672   4.122   1.696
 5489SOL    HW217367   1.703   3.983   1.617
 5490SOL     OW17368   3.476   6.802   0.459
 5490SOL    HW117369   3.560   6.846   0.491
 5490SOL    HW217370   3.456   6.833   0.366
 5491SOL     OW17371   1.551   4.306   6.657
 5491SOL    HW117372   1.612   4.384   6.638
 5491SOL    HW217373   1.514   4.271   6.571
 5492SOL     OW17374   0.943   1.002   6.123
 5492SOL    HW117375   0.949   1.065   6.046
 5492SOL    HW217376   0.882   1.040   6.192
 5493SOL     OW17377   3.577   2.844   5.053
 5493SOL    HW117378   3.508   2.812   5.118
 5493SOL    HW217379   3.636   2.768   5.027
 5494SOL     OW17380   6.268   3.159   0.470
 5494SOL    HW117381   6.347   3.114   0.429
 5494SOL    HW217382   6.278   3.258   0.462
 5495SOL     OW17383   3.182   3.425   1.364
 5495SOL    HW117384   3.272   3.411   1.322
 5495SOL    HW217385   3.111   3.394   1.302
 5496SOL     OW17386   3.570   6.118   1.676
 5496SOL    HW117387   3.484   6.075   1.647
 5496SOL    HW217388   3.577   6.113   1.775
 5497SOL     OW17389   0.393   2.079   3.423
 5497SOL    HW117390   0.460   2.032   3.480
 5497SOL    HW217391   0.437   2.112   3.339
 5498SOL     OW17392   4.741   0.548   0.495
 5498SOL    HW117393   4.641   0.553   0.491
 5498SOL    HW217394   4.772   0.589   0.581
 5499SOL     OW17395   0.950   1.612   3.781
 5499SOL    HW117396   0.893   1.532   3.762
 5499SOL    HW217397   0.892   1.686   3.815
 5500SOL     OW17398   2.099   6.151   6.920
 5500SOL    HW117399   2.156   6.157   6.838
 5500SOL    HW217400   2.123   6.068   6.971
 5501SOL     OW17401   3.037   6.715   1.369
 5501SOL    HW117402   2.978   6.771   1.312
 5501SOL    HW217403   3.050   6.625   1.327
 5502SOL     OW17404   5.926   4.453   6.065
 5502SOL    HW117405   6.017   4.494   6.073
 5502SOL    HW217406   5.920   4.403   5.979
 5503SOL     OW17407   0.801   4.852   2.651
 5503SOL    HW117408   0.774   4.762   2.618
 5503SOL    HW217409   0.723   4.896   2.696
 5504SOL     OW17410   2.737   1.429   5.233
 5504SOL    HW117411   2.820   1.395   5.189
 5504SOL    HW217412   2.749   1.526   5.256
 5505SOL     OW17413   2.410   5.630   4.942
 5505SOL    HW117414   2.400   5.687   4.861
 5505SOL    HW217415   2.467   5.551   4.921
 5506SOL     OW17416   6.591   6.966   5.408
 5506SOL    HW117417   6.614   6.926   5.320
 5506SOL    HW217418   6.579   0.048   5.397
 5507SOL     OW17419   2.738   6.781   2.961
 5507SOL    HW117420   2.750   6.832   3.046
 5507SOL    HW217421   2.650   6.733   2.963
 5508SOL     OW17422   2.555   1.028   0.341
 5508SOL    HW117423   2.625   1.002   0.407
 5508SOL    HW217424   2.560   0.967   0.262
 5509SOL     OW17425   0.708   6.429   0.621
 5509SOL    HW117426   0.670   6.341   0.592
 5509SOL    HW217427   0.808   6.425   0.619
 5510SOL     OW17428   5.437   6.380   0.694
 5510SOL    HW117429   5.425   6.437   0.613
 5510SOL    HW217430   5.374   6.410   0.765
 5511SOL     OW17431   2.182   0.450   3.985
 5511SOL    HW117432   2.210   0.542   4.011
 5511SOL    HW217433   2.263   0.397   3.958
 5512SOL     OW17434   6.228   2.338   0.542
 5512SOL    HW117435   6.137   2.326   0.503
 5512SOL    HW217436   6.231   2.424   0.592
 5513SOL     OW17437   4.728   4.488   5.513
 5513SOL    HW117438   4.656   4.513   5.577
 5513SOL    HW217439   4.757   4.394   5.529
 5514SOL     OW17440   5.001   5.703   2.615
 5514SOL    HW117441   5.090   5.743   2.637
 5514SOL    HW217442   5.015   5.624   2.554
 5515SOL     OW17443   6.698   4.008   1.047
 5515SOL    HW117444   6.619   3.956   1.078
 5515SOL    HW217445   6.735   3.966   0.964
 5516SOL     OW17446   0.986   3.133   0.516
 5516SOL    HW117447   0.955   3.090   0.601
 5516SOL    HW217448   0.918   3.120   0.445
 5517SOL     OW17449   2.539   2.452   2.427
 5517SOL    HW117450   2.482   2.386   2.476
 5517SOL    HW217451   2.498   2.474   2.338
 5518SOL     OW17452   6.524   5.821   6.057
 5518SOL    HW117453   6.464   5.852   5.983
 5518SOL    HW217454   6.572   5.738   6.028
 5519SOL     OW17455   4.952   3.536   2.895
 5519SOL    HW117456   4.909   3.572   2.813
 5519SOL    HW217457   4.924   3.440   2.909
 5520SOL     OW17458   1.091   4.549   2.951
 5520SOL    HW117459   1.049   4.630   2.911
 5520SOL    HW217460   1.020   4.491   2.992
 5521SOL     OW17461   3.899   5.875   2.611
 5521SOL    HW117462   3.962   5.851   2.685
 5521SOL    HW217463   3.817   5.916   2.651
 5522SOL     OW17464   1.290   4.141   1.064
 5522SOL    HW117465   1.285   4.046   1.032
 5522SOL    HW217466   1.332   4.144   1.155
 5523SOL     OW17467   3.074   6.794   2.812
 5523SOL    HW117468   3.093   6.812   2.716
 5523SOL    HW217469   3.125   6.860   2.868
 5524SOL     OW17470   0.123   5.534   4.809
 5524SOL    HW117471   0.096   5.482   4.890
 5524SOL    HW217472   0.223   5.530   4.799
 5525SOL     OW17473   6.755   4.375   0.546
 5525SOL    HW117474   6.705   4.396   0.630
 5525SOL    HW217475   6.829   4.311   0.566
 5526SOL     OW17476   5.929   3.375   4.899
 5526SOL    HW117477   5.848   3.323   4.928
 5526SOL    HW217478   5.927   3.388   4.800
 5527SOL     OW17479   1.149   3.786   3.073
 5527SOL    HW117480   1.050   3.781   3.084
 5527SOL    HW217481   1.176   3.882   3.060
 5528SOL     OW17482   1.070   2.131   5.942
 5528SOL    HW117483   1.109   2.039   5.937
 5528SOL    HW217484   1.118   2.184   6.012
 5529SOL     OW17485   2.547   0.214   4.450
 5529SOL    HW117486   2.552   0.121   4.414
 5529SOL    HW217487   2.593   0.218   4.539
 5530SOL     OW17488   0.251   2.304   2.200
 5530SOL    HW117489   0.224   2.365   2.274
 5530SOL    HW217490   0.329   2.343   2.151
 5531SOL     OW17491   3.810   4.022   3.630
 5531SOL    HW117492   3.886   4.082   3.657
 5531SOL    HW217493   3.745   4.015   3.705
 5532SOL     OW17494   1.457   1.505   1.526
 5532SOL    HW117495   1.447   1.414   1.486
 5532SOL    HW217496   1.549   1.540   1.507
 5533SOL     OW17497   2.750   0.905   2.176
 5533SOL    HW117498   2.664   0.856   2.189
 5533SOL    HW217499   2.750   0.948   2.085
 5534SOL     OW17500   0.766   3.338   6.079
 5534SOL    HW117501   0.736   3.341   6.174
 5534SOL    HW217502   0.849   3.392   6.069
 5535SOL     OW17503   0.279   3.144   3.188
 5535SOL    HW117504   0.329   3.098   3.262
 5535SOL    HW217505   0.187   3.105   3.180
 5536SOL     OW17506   3.481   0.893   4.239
 5536SOL    HW117507   3.384   0.918   4.238
 5536SOL    HW217508   3.537   0.975   4.223
 5537SOL     OW17509   3.530   0.645   4.174
 5537SOL    HW117510   3.504   0.737   4.204
 5537SOL    HW217511   3.599   0.652   4.103
 5538SOL     OW17512   3.641   6.988   4.959
 5538SOL    HW117513   3.560   0.009   4.915
 5538SOL    HW217514   3.676   6.912   4.904
 5539SOL     OW17515   0.794   2.186   1.200
 5539SOL    HW117516   0.712   2.136   1.229
 5539SOL    HW217517   0.874   2.150   1.247
 5540SOL     OW17518   5.003   3.758   2.447
 5540SOL    HW117519   5.007   3.854   2.418
 5540SOL    HW217520   4.982   3.700   2.368
 5541SOL     OW17521   5.493   2.484   6.205
 5541SOL    HW117522   5.513   2.426   6.126
 5541SOL    HW217523   5.573   2.537   6.230
 5542SOL     OW17524   5.869   6.050   5.746
 5542SOL    HW117525   5.805   6.034   5.821
 5542SOL    HW217526   5.963   6.036   5.779
 5543SOL     OW17527   1.928   5.254   6.374
 5543SOL    HW117528   1.952   5.288   6.465
 5543SOL    HW217529   1.956   5.321   6.305
 5544SOL     OW17530   5.037   5.673   5.941
 5544SOL    HW117531   5.076   5.742   5.881
 5544SOL    HW217532   5.046   5.583   5.899
 5545SOL     OW17533   4.864   1.219   2.762
 5545SOL    HW117534   4.909   1.237   2.675
 5545SOL    HW217535   4.867   1.122   2.782
 5546SOL     OW17536   1.042   6.622   4.498
 5546SOL    HW117537   0.949   6.621   4.533
 5546SOL    HW217538   1.099   6.558   4.550
 5547SOL     OW17539   4.216   0.377   4.853
 5547SOL    HW117540   4.298   0.405   4.803
 5547SOL    HW217541   4.217   0.416   4.945
 5548SOL     OW17542   6.448   3.317   5.093
 5548SOL    HW117543   6.470   3.412   5.115
 5548SOL    HW217544   6.373   3.314   5.027
 5549SOL     OW17545   3.609   4.698   1.073
 5549SOL    HW117546   3.679   4.645   1.026
 5549SOL    HW217547   3.600   4.665   1.167
 5550SOL     OW17548   2.468   4.443   2.273
 5550SOL    HW117549   2.530   4.383   2.222
 5550SOL    HW217550   2.383   4.396   2.292
 5551SOL     OW17551   1.223   6.022   3.196
 5551SOL    HW117552   1.190   6.107   3.237
 5551SOL    HW217553   1.319   6.008   3.221
 5552SOL     OW17554   6.616   0.879   6.685
 5552SOL    HW117555   6.632   0.787   6.720
 5552SOL    HW217556   6.520   0.891   6.662
 5553SOL     OW17557   5.086   6.209   6.568
 5553SOL    HW117558   5.180   6.199   6.536
 5553SOL    HW217559   5.076   6.163   6.657
 5554SOL     OW17560   4.944   2.207   6.879
 5554SOL    HW117561   4.964   2.235   6.973
 5554SOL    HW217562   5.026   2.168   6.837
 5555SOL     OW17563   0.904   3.947   2.281
 5555SOL    HW117564   0.880   3.942   2.185
 5555SOL    HW217565   0.866   3.869   2.330
 5556SOL     OW17566   6.171   1.942   3.571
 5556SOL    HW117567   6.214   1.944   3.661
 5556SOL    HW217568   6.100   2.012   3.566
 5557SOL     OW17569   4.020   6.317   2.430
 5557SOL    HW117570   3.927   6.343   2.454
 5557SOL    HW217571   4.051   6.243   2.490
 5558SOL     OW17572   2.929   3.435   6.460
 5558SOL    HW117573   2.844   3.383   6.471
 5558SOL    HW217574   2.911   3.517   6.407
 5559SOL     OW17575   1.914   0.048   1.300
 5559SOL    HW117576   1.919   0.035   1.201
 5559SOL    HW217577   1.902   0.145   1.320
 5560SOL     OW17578   0.170   5.483   1.487
 5560SOL    HW117579   0.267   5.463   1.468
 5560SOL    HW217580   0.133   5.413   1.548
 5561SOL     OW17581   1.827   1.312   4.111
 5561SOL    HW117582   1.742   1.337   4.158
 5561SOL    HW217583   1.805   1.258   4.030
 5562SOL     OW17584   4.293   2.733   6.257
 5562SOL    HW117585   4.278   2.751   6.160
 5562SOL    HW217586   4.272   2.637   6.277
 5563SOL     OW17587   3.286   4.963   2.637
 5563SOL    HW117588   3.211   4.928   2.582
 5563SOL    HW217589   3.370   4.912   2.615
 5564SOL     OW17590   4.645   0.196   0.964
 5564SOL    HW117591   4.555   0.164   0.933
 5564SOL    HW217592   4.672   0.276   0.911
 5565SOL     OW17593   4.324   2.291   5.911
 5565SOL    HW117594   4.254   2.221   5.926
 5565SOL    HW217595   4.283   2.367   5.860
 5566SOL     OW17596   1.151   4.343   6.539
 5566SOL    HW117597   1.161   4.360   6.637
 5566SOL    HW217598   1.154   4.430   6.490
 5567SOL     OW17599   6.727   3.596   1.227
 5567SOL    HW117600   6.801   3.591   1.295
 5567SOL    HW217601   6.658   3.526   1.248
 5568SOL     OW17602   4.837   0.949   3.624
 5568SOL    HW117603   4.757   0.999   3.590
 5568SOL    HW217604   4.920   0.993   3.590
 5569SOL     OW17605   2.070   1.564   2.493
 5569SOL    HW117606   2.016   1.576   2.577
 5569SOL    HW217607   2.136   1.490   2.507
 5570SOL     OW17608   6.767   3.748   4.415
 5570SOL    HW117609   6.699   3.809   4.456
 5570SOL    HW217610   6.719   3.675   4.367
 5571SOL     OW17611   6.274   6.065   1.243
 5571SOL    HW117612   6.260   5.967   1.234
 5571SOL    HW217613   6.227   6.113   1.169
 5572SOL     OW17614   1.509   3.783   4.302
 5572SOL    HW117615   1.507   3.758   4.206
 5572SOL    HW217616   1.535   3.703   4.357
 5573SOL     OW17617   1.703   5.275   5.079
 5573SOL    HW117618   1.744   5.277   4.987
 5573SOL    HW217619   1.625   5.212   5.079
 5574SOL     OW17620   0.146   1.792   2.679
 5574SOL    HW117621   0.118   1.788   2.583
 5574SOL    HW217622   0.222   1.729   2.694
 5575SOL     OW17623   0.067   1.239   1.009
 5575SOL    HW117624   6.993   1.226   0.970
 5575SOL    HW217625   0.101   1.151   1.043
 5576SOL     OW17626   0.693   4.733   1.609
 5576SOL    HW117627   0.707   4.726   1.510
 5576SOL    HW217628   0.772   4.693   1.656
 5577SOL     OW17629   2.751   2.996   6.098
 5577SOL    HW117630   2.666   2.989   6.046
 5577SOL    HW217631   2.813   2.923   6.071
 5578SOL     OW17632   3.296   3.671   1.439
 5578SOL    HW117633   3.391   3.661   1.411
 5578SOL    HW217634   3.240   3.601   1.395
 5579SOL     OW17635   0.279   3.536   0.913
 5579SOL    HW117636   0.268   3.446   0.955
 5579SOL    HW217637   0.313   3.601   0.981
 5580SOL     OW17638   5.152   2.314   5.373
 5580SOL    HW117639   5.226   2.312   5.305
 5580SOL    HW217640   5.189   2.342   5.461
 5581SOL     OW17641   1.589   0.427   1.762
 5581SOL    HW117642   1.563   0.378   1.845
 5581SOL    HW217643   1.652   0.502   1.785
 5582SOL     OW17644   3.071   3.522   5.902
 5582SOL    HW117645   3.144   3.494   5.964
 5582SOL    HW217646   2.999   3.568   5.954
 5583SOL     OW17647   5.530   0.940   2.975
 5583SOL    HW117648   5.533   1.009   2.902
 5583SOL    HW217649   5.447   0.952   3.029
 5584SOL     OW17650   6.569   5.089   4.061
 5584SOL    HW117651   6.612   5.058   3.976
 5584SOL    HW217652   6.634   5.143   4.114
 5585SOL     OW17653   5.283   5.336   3.301
 5585SOL    HW117654   5.324   5.354   3.391
 5585SOL    HW217655   5.349   5.287   3.245
 5586SOL     OW17656   0.562   2.677   6.042
 5586SOL    HW117657   0.526   2.766   6.015
 5586SOL    HW217658   0.661   2.675   6.026
 5587SOL     OW17659   4.365   6.676   1.397
 5587SOL    HW117660   4.442   6.732   1.367
 5587SOL    HW217661   4.396   6.582   1.414
 5588SOL     OW17662   2.694   5.107   2.853
 5588SOL    HW117663   2.705   5.179   2.921
 5588SOL    HW217664   2.657   5.025   2.897
 5589SOL     OW17665   6.725   3.024   5.763
 5589SOL    HW117666   6.691   3.112   5.730
 5589SOL    HW217667   6.815   3.036   5.803
 5590SOL     OW17668   0.076   6.599   3.660
 5590SOL    HW117669   0.083   6.549   3.573
 5590SOL    HW217670   7.003   6.642   3.666
 5591SOL     OW17671   5.495   1.549   1.234
 5591SOL    HW117672   5.537   1.526   1.147
 5591SOL    HW217673   5.490   1.467   1.291
 5592SOL     OW17674   0.893   5.664   2.239
 5592SOL    HW117675   0.964   5.638   2.305
 5592SOL    HW217676   0.804   5.667   2.284
 5593SOL     OW17677   0.921   3.100   0.920
 5593SOL    HW117678   0.932   3.035   0.845
 5593SOL    HW217679   0.922   3.051   1.007
 5594SOL     OW17680   4.482   0.948   6.538
 5594SOL    HW117681   4.452   1.043   6.537
 5594SOL    HW217682   4.430   0.896   6.471
 5595SOL     OW17683   0.289   0.895   4.586
 5595SOL    HW117684   0.360   0.941   4.534
 5595SOL    HW217685   0.280   0.800   4.554
 5596SOL     OW17686   4.838   0.881   2.527
 5596SOL    HW117687   4.789   0.890   2.440
 5596SOL    HW217688   4.852   0.785   2.548
 5597SOL     OW17689   5.148   2.739   4.836
 5597SOL    HW117690   5.168   2.815   4.896
 5597SOL    HW217691   5.192   2.656   4.870
 5598SOL     OW17692   5.412   4.168   3.930
 5598SOL    HW117693   5.471   4.249   3.926
 5598SOL    HW217694   5.338   4.184   3.996
 5599SOL     OW17695   0.787   2.098   2.310
 5599SOL    HW117696   0.773   1.999   2.311
 5599SOL    HW217697   0.818   2.126   2.219
 5600SOL     OW17698   1.781   1.603   1.839
 5600SOL    HW117699   1.703   1.593   1.902
 5600SOL    HW217700   1.835   1.682   1.866
 5601SOL     OW17701   2.062   0.852   6.349
 5601SOL    HW117702   2.076   0.840   6.251
 5601SOL    HW217703   1.981   0.908   6.365
 5602SOL     OW17704   0.039   1.903   1.569
 5602SOL    HW117705   6.994   1.857   1.505
 5602SOL    HW217706   0.011   1.883   1.663
 5603SOL     OW17707   6.141   3.004   0.963
 5603SOL    HW117708   6.098   2.996   0.873
 5603SOL    HW217709   6.236   3.032   0.952
 5604SOL     OW17710   6.227   2.318   4.675
 5604SOL    HW117711   6.263   2.404   4.713
 5604SOL    HW217712   6.232   2.322   4.575
 5605SOL     OW17713   0.074   1.119   4.944
 5605SOL    HW117714   0.124   1.066   5.012
 5605SOL    HW217715   0.096   1.216   4.955
 5606SOL     OW17716   5.186   6.693   0.509
 5606SOL    HW117717   5.149   6.780   0.541
 5606SOL    HW217718   5.220   6.641   0.586
 5607SOL     OW17719   5.419   1.365   2.862
 5607SOL    HW117720   5.320   1.350   2.860
 5607SOL    HW217721   5.443   1.415   2.945
 5608SOL     OW17722   5.561   0.627   3.802
 5608SOL    HW117723   5.533   0.715   3.839
 5608SOL    HW217724   5.559   0.558   3.875
 5609SOL     OW17725   3.095   5.775   1.380
 5609SOL    HW117726   3.191   5.772   1.349
 5609SOL    HW217727   3.054   5.862   1.353
 5610SOL     OW17728   4.708   5.992   0.439
 5610SOL    HW117729   4.615   5.977   0.471
 5610SOL    HW217730   4.719   5.954   0.347
 5611SOL     OW17731   0.982   5.768   2.807
 5611SOL    HW117732   0.999   5.805   2.716
 5611SOL    HW217733   1.048   5.806   2.872
 5612SOL     OW17734   3.892   2.178   5.796
 5612SOL    HW117735   3.816   2.140   5.744
 5612SOL    HW217736   3.860   2.207   5.886
 5613SOL     OW17737   6.629   4.570   3.590
 5613SOL    HW117738   6.563   4.627   3.540
 5613SOL    HW217739   6.721   4.589   3.557
 5614SOL     OW17740   4.523   2.232   4.194
 5614SOL    HW117741   4.438   2.219   4.142
 5614SOL    HW217742   4.508   2.298   4.267
 5615SOL     OW17743   0.136   2.008   3.846
 5615SOL    HW117744   0.066   2.077   3.866
 5615SOL    HW217745   0.147   2.000   3.747
 5616SOL     OW17746   2.427   2.192   4.385
 5616SOL    HW117747   2.334   2.159   4.401
 5616SOL    HW217748   2.425   2.270   4.323
 5617SOL     OW17749   2.947   6.050   5.992
 5617SOL    HW117750   2.999   6.134   5.976
 5617SOL    HW217751   2.868   6.048   5.930
 5618SOL     OW17752   0.294   4.568   3.340
 5618SOL    HW117753   0.340   4.504   3.279
 5618SOL    HW217754   0.363   4.615   3.396
 5619SOL     OW17755   3.319   3.791   4.832
 5619SOL    HW117756   3.352   3.701   4.803
 5619SOL    HW217757   3.242   3.819   4.775
 5620SOL     OW17758   4.346   3.377   0.626
 5620SOL    HW117759   4.278   3.336   0.686
 5620SOL    HW217760   4.340   3.336   0.535
 5621SOL     OW17761   2.375   2.742   0.276
 5621SOL    HW117762   2.283   2.774   0.299
 5621SOL    HW217763   2.420   2.711   0.360
 5622SOL     OW17764   4.774   0.729   5.793
 5622SOL    HW117765   4.817   0.722   5.703
 5622SOL    HW217766   4.681   0.763   5.784
 5623SOL     OW17767   3.419   5.351   5.831
 5623SOL    HW117768   3.475   5.395   5.761
 5623SOL    HW217769   3.325   5.341   5.797
 5624SOL     OW17770   1.150   4.674   3.575
 5624SOL    HW117771   1.198   4.587   3.558
 5624SOL    HW217772   1.051   4.658   3.572
 5625SOL     OW17773   5.691   0.928   5.656
 5625SOL    HW117774   5.592   0.916   5.669
 5625SOL    HW217775   5.718   1.019   5.689
 5626SOL     OW17776   2.446   6.090   4.628
 5626SOL    HW117777   2.407   6.182   4.628
 5626SOL    HW217778   2.435   6.050   4.719
 5627SOL     OW17779   0.404   5.904   6.333
 5627SOL    HW117780   0.407   5.844   6.412
 5627SOL    HW217781   0.361   5.991   6.358
 5628SOL     OW17782   1.132   1.975   1.689
 5628SOL    HW117783   1.216   1.985   1.635
 5628SOL    HW217784   1.054   1.960   1.628
 5629SOL     OW17785   3.665   3.759   2.586
 5629SOL    HW117786   3.566   3.744   2.586
 5629SOL    HW217787   3.705   3.721   2.670
 5630SOL     OW17788   1.125   3.612   6.579
 5630SOL    HW117789   1.189   3.650   6.513
 5630SOL    HW217790   1.075   3.536   6.536
 5631SOL     OW17791   4.703   1.898   1.047
 5631SOL    HW117792   4.690   1.968   0.978
 5631SOL    HW217793   4.617   1.848   1.061
 5632SOL     OW17794   3.058   2.454   6.256
 5632SOL    HW117795   3.030   2.448   6.352
 5632SOL    HW217796   3.044   2.547   6.223
 5633SOL     OW17797   6.185   4.105   4.578
 5633SOL    HW117798   6.143   4.026   4.533
 5633SOL    HW217799   6.234   4.160   4.510
 5634SOL     OW17800   2.445   4.844   4.505
 5634SOL    HW117801   2.404   4.874   4.419
 5634SOL    HW217802   2.468   4.747   4.499
 5635SOL     OW17803   1.711   4.510   5.140
 5635SOL    HW117804   1.751   4.583   5.196
 5635SOL    HW217805   1.733   4.421   5.179
 5636SOL     OW17806   4.900   6.680   4.228
 5636SOL    HW117807   4.868   6.625   4.150
 5636SOL    HW217808   4.834   6.672   4.303
 5637SOL     OW17809   5.528   0.575   3.333
 5637SOL    HW117810   5.544   0.483   3.368
 5637SOL    HW217811   5.431   0.587   3.313
 5638SOL     OW17812   5.911   3.679   0.855
 5638SOL    HW117813   5.981   3.744   0.828
 5638SOL    HW217814   5.839   3.677   0.786
 5639SOL     OW17815   0.593   0.813   2.276
 5639SOL    HW117816   0.668   0.764   2.231
 5639SOL    HW217817   0.510   0.757   2.271
 5640SOL     OW17818   3.714   6.943   3.609
 5640SOL    HW117819   3.717   0.017   3.652
 5640SOL    HW217820   3.770   6.944   3.527
 5641SOL     OW17821   0.949   4.770   5.371
 5641SOL    HW117822   0.946   4.840   5.442
 5641SOL    HW217823   1.035   4.718   5.379
 5642SOL     OW17824   1.473   6.500   5.330
 5642SOL    HW117825   1.489   6.481   5.233
 5642SOL    HW217826   1.434   6.419   5.374
 5643SOL     OW17827   4.013   0.820   5.404
 5643SOL    HW117828   3.944   0.758   5.366
 5643SOL    HW217829   3.974   0.911   5.417
 5644SOL     OW17830   2.994   0.432   5.338
 5644SOL    HW117831   2.961   0.427   5.432
 5644SOL    HW217832   3.007   0.528   5.312
 5645SOL     OW17833   6.582   4.907   3.845
 5645SOL    HW117834   6.669   4.900   3.795
 5645SOL    HW217835   6.529   4.824   3.832
 5646SOL     OW17836   1.656   5.138   3.205
 5646SOL    HW117837   1.656   5.219   3.264
 5646SOL    HW217838   1.670   5.057   3.262
 5647SOL     OW17839   4.470   5.549   1.703
 5647SOL    HW117840   4.383   5.544   1.655
 5647SOL    HW217841   4.469   5.488   1.782
 5648SOL     OW17842   1.983   6.305   2.285
 5648SOL    HW117843   2.002   6.303   2.383
 5648SOL    HW217844   2.066   6.335   2.236
 5649SOL     OW17845   0.729   6.587   4.103
 5649SOL    HW117846   0.764   6.666   4.054
 5649SOL    HW217847   0.802   6.544   4.155
 5650SOL     OW17848   0.313   5.535   0.961
 5650SOL    HW117849   0.216   5.551   0.941
 5650SOL    HW217850   0.350   5.613   1.011
 5651SOL     OW17851   1.459   0.758   1.351
 5651SOL    HW117852   1.512   0.744   1.267
 5651SOL    HW217853   1.493   0.696   1.422
 5652SOL     OW17854   6.227   6.799   1.695
 5652SOL    HW117855   6.259   6.889   1.666
 5652SOL    HW217856   6.299   6.755   1.750
 5653SOL     OW17857   6.193   6.258   6.449
 5653SOL    HW117858   6.204   6.352   6.481
 5653SOL    HW217859   6.108   6.220   6.485
 5654SOL     OW17860   0.811   6.741   4.820
 5654SOL    HW117861   0.768   6.797   4.749
 5654SOL    HW217862   0.776   6.768   4.910
 5655SOL     OW17863   0.788   3.078   3.818
 5655SOL    HW117864   0.805   3.099   3.721
 5655SOL    HW217865   0.858   3.013   3.850
 5656SOL     OW17866   6.992   4.065   6.470
 5656SOL    HW117867   0.061   4.117   6.468
 5656SOL    HW217868   6.965   4.042   6.377
 5657SOL     OW17869   5.960   2.929   6.577
 5657SOL    HW117870   5.973   2.994   6.503
 5657SOL    HW217871   5.932   2.977   6.660
 5658SOL     OW17872   3.162   2.952   6.281
 5658SOL    HW117873   3.110   3.036   6.266
 5658SOL    HW217874   3.224   2.964   6.359
 5659SOL     OW17875   3.226   3.347   5.400
 5659SOL    HW117876   3.291   3.419   5.426
 5659SOL    HW217877   3.153   3.342   5.468
 5660SOL     OW17878   4.223   6.756   6.244
 5660SOL    HW117879   4.177   6.844   6.257
 5660SOL    HW217880   4.269   6.729   6.328
 5661SOL     OW17881   1.781   5.713   4.989
 5661SOL    HW117882   1.710   5.647   4.963
 5661SOL    HW217883   1.754   5.759   5.074
 5662SOL     OW17884   2.904   6.615   3.187
 5662SOL    HW117885   2.891   6.714   3.199
 5662SOL    HW217886   2.924   6.573   3.276
 5663SOL     OW17887   2.473   2.288   0.751
 5663SOL    HW117888   2.483   2.313   0.848
 5663SOL    HW217889   2.564   2.277   0.710
 5664SOL     OW17890   6.810   3.370   4.123
 5664SOL    HW117891   6.772   3.278   4.124
 5664SOL    HW217892   6.898   3.369   4.075
 5665SOL     OW17893   1.683   0.579   0.261
 5665SOL    HW117894   1.665   0.483   0.240
 5665SOL    HW217895   1.705   0.628   0.177
 5666SOL     OW17896   6.774   0.101   3.705
 5666SOL    HW117897   6.761   0.122   3.608
 5666SOL    HW217898   6.844   0.161   3.743
 5667SOL     OW17899   1.533   4.748   4.831
 5667SOL    HW117900   1.558   4.660   4.871
 5667SOL    HW217901   1.616   4.800   4.810
 5668SOL     OW17902   5.654   3.063   2.929
 5668SOL    HW117903   5.726   3.132   2.937
 5668SOL    HW217904   5.608   3.053   3.017
 5669SOL     OW17905   6.493   3.838   1.122
 5669SOL    HW117906   6.559   3.793   1.182
 5669SOL    HW217907   6.410   3.782   1.117
 5670SOL     OW17908   1.316   3.730   3.965
 5670SOL    HW117909   1.225   3.691   3.983
 5670SOL    HW217910   1.385   3.671   4.005
 5671SOL     OW17911   5.877   5.820   5.518
 5671SOL    HW117912   5.933   5.737   5.507
 5671SOL    HW217913   5.924   5.883   5.580
 5672SOL     OW17914   4.720   3.793   6.710
 5672SOL    HW117915   4.720   3.821   6.806
 5672SOL    HW217916   4.628   3.807   6.671
 5673SOL     OW17917   1.512   6.877   0.721
 5673SOL    HW117918   1.593   6.934   0.711
 5673SOL    HW217919   1.441   6.927   0.770
 5674SOL     OW17920   1.220   4.642   5.393
 5674SOL    HW117921   1.294   4.578   5.369
 5674SOL    HW217922   1.238   4.731   5.351
 5675SOL     OW17923   4.725   2.997   6.312
 5675SOL    HW117924   4.770   2.920   6.266
 5675SOL    HW217925   4.786   3.035   6.381
 5676SOL     OW17926   2.298   1.739   2.764
 5676SOL    HW117927   2.237   1.711   2.838
 5676SOL    HW217928   2.279   1.834   2.739
 5677SOL     OW17929   1.097   1.079   0.735
 5677SOL    HW117930   1.047   1.165   0.726
 5677SOL    HW217931   1.190   1.098   0.764
 5678SOL     OW17932   3.982   6.972   2.933
 5678SOL    HW117933   3.932   6.887   2.916
 5678SOL    HW217934   4.043   6.959   3.012
 5679SOL     OW17935   6.113   1.507   3.869
 5679SOL    HW117936   6.092   1.592   3.916
 5679SOL    HW217937   6.032   1.449   3.867
 5680SOL     OW17938   1.477   5.185   6.736
 5680SOL    HW117939   1.522   5.117   6.794
 5680SOL    HW217940   1.422   5.139   6.666
 5681SOL     OW17941   0.695   3.721   2.067
 5681SOL    HW117942   0.743   3.796   2.021
 5681SOL    HW217943   0.612   3.698   2.016
 5682SOL     OW17944   2.077   5.310   4.480
 5682SOL    HW117945   1.996   5.364   4.457
 5682SOL    HW217946   2.148   5.370   4.517
 5683SOL     OW17947   3.869   1.455   5.776
 5683SOL    HW117948   3.801   1.410   5.834
 5683SOL    HW217949   3.954   1.466   5.828
 5684SOL     OW17950   2.314   3.773   6.447
 5684SOL    HW117951   2.244   3.706   6.422
 5684SOL    HW217952   2.366   3.799   6.365
 5685SOL     OW17953   2.715   1.116   3.383
 5685SOL    HW117954   2.793   1.056   3.400
 5685SOL    HW217955   2.727   1.201   3.434
 5686SOL     OW17956   2.932   1.823   6.145
 5686SOL    HW117957   2.832   1.821   6.147
 5686SOL    HW217958   2.965   1.748   6.089
 5687SOL     OW17959   0.462   5.163   6.352
 5687SOL    HW117960   0.524   5.233   6.387
 5687SOL    HW217961   0.368   5.187   6.376
 5688SOL     OW17962   1.556   2.344   2.583
 5688SOL    HW117963   1.502   2.349   2.499
 5688SOL    HW217964   1.639   2.399   2.572
 5689SOL     OW17965   2.832   1.272   1.756
 5689SOL    HW117966   2.853   1.289   1.659
 5689SOL    HW217967   2.915   1.286   1.810
 5690SOL     OW17968   1.827   6.085   6.897
 5690SOL    HW117969   1.925   6.102   6.892
 5690SOL    HW217970   1.778   6.173   6.903
 5691SOL     OW17971   3.913   0.522   1.817
 5691SOL    HW117972   3.980   0.596   1.820
 5691SOL    HW217973   3.899   0.494   1.722
 5692SOL     OW17974   5.715   4.366   0.507
 5692SOL    HW117975   5.694   4.309   0.428
 5692SOL    HW217976   5.800   4.334   0.549
 5693SOL     OW17977   4.360   1.365   2.267
 5693SOL    HW117978   4.335   1.296   2.199
 5693SOL    HW217979   4.460   1.368   2.277
 5694SOL     OW17980   1.305   0.819   2.656
 5694SOL    HW117981   1.393   0.797   2.698
 5694SOL    HW217982   1.319   0.842   2.560
 5695SOL     OW17983   1.458   1.766   3.866
 5695SOL    HW117984   1.541   1.732   3.910
 5695SOL    HW217985   1.476   1.780   3.768
 5696SOL     OW17986   0.873   0.201   3.931
 5696SOL    HW117987   0.818   0.229   4.010
 5696SOL    HW217988   0.961   0.248   3.934
 5697SOL     OW17989   5.893   2.089   1.928
 5697SOL    HW117990   5.807   2.140   1.937
 5697SOL    HW217991   5.887   2.004   1.981
 5698SOL     OW17992   0.880   4.629   3.522
 5698SOL    HW117993   0.825   4.617   3.605
 5698SOL    HW217994   0.824   4.667   3.449
 5699SOL     OW17995   1.070   2.648   2.814
 5699SOL    HW117996   1.109   2.566   2.856
 5699SOL    HW217997   1.134   2.724   2.823
 5700SOL     OW17998   6.551   7.012   3.949
 5700SOL    HW117999   6.635   6.969   3.916
 5700SOL    HW218000   6.526   6.971   4.037
 5701SOL     OW18001   0.933   0.303   1.183
 5701SOL    HW118002   0.897   0.222   1.137
 5701SOL    HW218003   0.861   0.342   1.241
 5702SOL     OW18004   2.624   5.458   4.812
 5702SOL    HW118005   2.696   5.519   4.778
 5702SOL    HW218006   2.641   5.436   4.908
 5703SOL     OW18007   6.445   4.556   0.349
 5703SOL    HW118008   6.466   4.462   0.325
 5703SOL    HW218009   6.364   4.559   0.408
 5704SOL     OW18010   4.950   4.141   3.261
 5704SOL    HW118011   4.871   4.099   3.217
 5704SOL    HW218012   4.978   4.085   3.339
 5705SOL     OW18013   5.245   6.199   6.922
 5705SOL    HW118014   5.164   6.256   6.907
 5705SOL    HW218015   5.258   6.138   6.843
 5706SOL     OW18016   5.959   2.683   2.160
 5706SOL    HW118017   5.898   2.696   2.083
 5706SOL    HW218018   5.906   2.653   2.240
 5707SOL     OW18019   6.316   6.952   0.975
 5707SOL    HW118020   6.238   7.008   0.950
 5707SOL    HW218021   6.338   6.966   1.072
 5708SOL     OW18022   5.025   5.626   2.289
 5708SOL    HW118023   5.040   5.566   2.368
 5708SOL    HW218024   5.013   5.570   2.207
 5709SOL     OW18025   0.854   1.138   2.331
 5709SOL    HW118026   0.951   1.163   2.335
 5709SOL    HW218027   0.830   1.109   2.239
 5710SOL     OW18028   3.430   2.632   0.489
 5710SOL    HW118029   3.365   2.704   0.515
 5710SOL    HW218030   3.516   2.646   0.538
 5711SOL     OW18031   5.057   1.156   2.200
 5711SOL    HW118032   4.992   1.184   2.271
 5711SOL    HW218033   5.018   1.173   2.110
 5712SOL     OW18034   6.114   6.585   0.092
 5712SOL    HW118035   6.209   6.601   0.066
 5712SOL    HW218036   6.084   6.656   0.155
 5713SOL     OW18037   2.714   4.017   1.651
 5713SOL    HW118038   2.755   4.053   1.567
 5713SOL    HW218039   2.617   4.040   1.653
 5714SOL     OW18040   7.007   6.214   1.016
 5714SOL    HW118041   6.976   6.123   1.044
 5714SOL    HW218042   0.014   6.267   1.097
 5715SOL     OW18043   0.651   0.421   2.406
 5715SOL    HW118044   0.648   0.326   2.436
 5715SOL    HW218045   0.598   0.432   2.322
 5716SOL     OW18046   1.498   5.142   5.710
 5716SOL    HW118047   1.452   5.177   5.629
 5716SOL    HW218048   1.531   5.049   5.691
 5717SOL     OW18049   1.793   4.793   0.661
 5717SOL    HW118050   1.695   4.772   0.664
 5717SOL    HW218051   1.829   4.767   0.571
 5718SOL     OW18052   0.788   3.487   0.573
 5718SOL    HW118053   0.830   3.561   0.520
 5718SOL    HW218054   0.849   3.461   0.648
 5719SOL     OW18055   2.273   3.248   0.433
 5719SOL    HW118056   2.238   3.296   0.353
 5719SOL    HW218057   2.341   3.180   0.403
 5720SOL     OW18058   1.888   6.451   4.775
 5720SOL    HW118059   1.836   6.492   4.700
 5720SOL    HW218060   1.825   6.410   4.841
 5721SOL     OW18061   5.556   4.101   0.695
 5721SOL    HW118062   5.491   4.084   0.621
 5721SOL    HW218063   5.570   4.199   0.706
 5722SOL     OW18064   6.774   2.265   5.240
 5722SOL    HW118065   6.680   2.268   5.208
 5722SOL    HW218066   6.825   2.198   5.186
 5723SOL     OW18067   4.019   3.163   0.118
 5723SOL    HW118068   3.945   3.230   0.112
 5723SOL    HW218069   3.988   3.083   0.169
 5724SOL     OW18070   5.844   2.496   4.226
 5724SOL    HW118071   5.782   2.485   4.149
 5724SOL    HW218072   5.935   2.522   4.192
 5725SOL     OW18073   6.214   5.139   3.693
 5725SOL    HW118074   6.158   5.127   3.775
 5725SOL    HW218075   6.262   5.227   3.699
 5726SOL     OW18076   0.094   5.592   4.230
 5726SOL    HW118077   0.041   5.540   4.162
 5726SOL    HW218078   0.086   5.547   4.319
 5727SOL     OW18079   6.084   2.382   4.451
 5727SOL    HW118080   5.993   2.363   4.414
 5727SOL    HW218081   6.154   2.357   4.384
 5728SOL     OW18082   4.567   6.480   5.650
 5728SOL    HW118083   4.584   6.391   5.609
 5728SOL    HW218084   4.483   6.476   5.705
 5729SOL     OW18085   1.961   0.708   0.153
 5729SOL    HW118086   1.980   0.704   0.055
 5729SOL    HW218087   1.956   0.615   0.190
 5730SOL     OW18088   5.229   4.692   6.093
 5730SOL    HW118089   5.305   4.753   6.071
 5730SOL    HW218090   5.211   4.696   6.191
 5731SOL     OW18091   0.252   0.130   3.060
 5731SOL    HW118092   0.244   0.049   3.001
 5731SOL    HW218093   0.348   0.151   3.074
 5732SOL     OW18094   0.937   5.729   3.879
 5732SOL    HW118095   0.997   5.650   3.863
 5732SOL    HW218096   0.894   5.757   3.793
 5733SOL     OW18097   3.041   6.522   5.251
 5733SOL    HW118098   3.099   6.523   5.169
 5733SOL    HW218099   3.026   6.427   5.279
 5734SOL     OW18100   1.398   0.354   5.216
 5734SOL    HW118101   1.339   0.435   5.212
 5734SOL    HW218102   1.342   0.274   5.238
 5735SOL     OW18103   3.923   1.799   1.166
 5735SOL    HW118104   3.953   1.831   1.076
 5735SOL    HW218105   3.897   1.703   1.160
 5736SOL     OW18106   6.145   4.405   0.224
 5736SOL    HW118107   6.210   4.468   0.265
 5736SOL    HW218108   6.127   4.329   0.287
 5737SOL     OW18109   5.923   6.473   0.245
 5737SOL    HW118110   5.845   6.506   0.192
 5737SOL    HW218111   6.008   6.507   0.205
 5738SOL     OW18112   2.218   2.799   6.299
 5738SOL    HW118113   2.139   2.822   6.355
 5738SOL    HW218114   2.228   2.699   6.295
 5739SOL     OW18115   1.823   1.025   5.869
 5739SOL    HW118116   1.862   1.024   5.961
 5739SOL    HW218117   1.726   1.001   5.873
 5740SOL     OW18118   4.374   4.729   0.799
 5740SOL    HW118119   4.384   4.776   0.711
 5740SOL    HW218120   4.351   4.796   0.870
 5741SOL     OW18121   0.582   5.562   4.356
 5741SOL    HW118122   0.500   5.511   4.383
 5741SOL    HW218123   0.662   5.502   4.358
 5742SOL     OW18124   5.472   5.912   2.882
 5742SOL    HW118125   5.429   5.829   2.919
 5742SOL    HW218126   5.411   5.990   2.896
 5743SOL     OW18127   2.411   6.499   4.784
 5743SOL    HW118128   2.491   6.488   4.725
 5743SOL    HW218129   2.423   6.446   4.868
 5744SOL     OW18130   4.499   6.876   1.936
 5744SOL    HW118131   4.594   6.896   1.961
 5744SOL    HW218132   4.448   6.962   1.930
 5745SOL     OW18133   3.919   0.802   4.334
 5745SOL    HW118134   3.982   0.771   4.405
 5745SOL    HW218135   3.833   0.831   4.376
 5746SOL     OW18136   4.882   0.446   0.968
 5746SOL    HW118137   4.958   0.510   0.979
 5746SOL    HW218138   4.842   0.426   1.058
 5747SOL     OW18139   0.388   5.256   2.450
 5747SOL    HW118140   0.438   5.171   2.464
 5747SOL    HW218141   0.305   5.257   2.505
 5748SOL     OW18142   1.472   5.167   0.838
 5748SOL    HW118143   1.416   5.084   0.833
 5748SOL    HW218144   1.569   5.142   0.837
 5749SOL     OW18145   3.039   0.902   4.716
 5749SOL    HW118146   3.046   0.854   4.804
 5749SOL    HW218147   3.122   0.885   4.663
 5750SOL     OW18148   6.242   4.953   4.956
 5750SOL    HW118149   6.223   4.927   5.050
 5750SOL    HW218150   6.206   4.884   4.894
 5751SOL     OW18151   2.326   2.753   4.578
 5751SOL    HW118152   2.373   2.667   4.559
 5751SOL    HW218153   2.346   2.781   4.673
 5752SOL     OW18154   6.521   0.549   6.414
 5752SOL    HW118155   6.580   0.520   6.489
 5752SOL    HW218156   6.520   0.649   6.408
 5753SOL     OW18157   2.737   3.631   6.245
 5753SOL    HW118158   2.832   3.614   6.220
 5753SOL    HW218159   2.706   3.715   6.201
 5754SOL     OW18160   5.699   5.391   1.306
 5754SOL    HW118161   5.661   5.479   1.336
 5754SOL    HW218162   5.638   5.350   1.238
 5755SOL     OW18163   2.515   3.492   5.662
 5755SOL    HW118164   2.585   3.557   5.633
 5755SOL    HW218165   2.551   3.399   5.653
 5756SOL     OW18166   6.322   5.440   3.440
 5756SOL    HW118167   6.396   5.373   3.442
 5756SOL    HW218168   6.283   5.449   3.531
 5757SOL     OW18169   6.512   6.286   2.931
 5757SOL    HW118170   6.440   6.233   2.977
 5757SOL    HW218171   6.484   6.382   2.927
 5758SOL     OW18172   3.171   1.641   3.644
 5758SOL    HW118173   3.162   1.677   3.737
 5758SOL    HW218174   3.221   1.554   3.646
 5759SOL     OW18175   4.947   1.580   6.051
 5759SOL    HW118176   4.948   1.674   6.084
 5759SOL    HW218177   4.863   1.563   5.999
 5760SOL     OW18178   1.666   5.599   1.852
 5760SOL    HW118179   1.661   5.687   1.900
 5760SOL    HW218180   1.603   5.534   1.896
 5761SOL     OW18181   5.308   0.822   6.149
 5761SOL    HW118182   5.294   0.791   6.243
 5761SOL    HW218183   5.304   0.922   6.147
 5762SOL     OW18184   4.863   6.717   6.999
 5762SOL    HW118185   4.802   6.640   7.017
 5762SOL    HW218186   4.867   6.775   0.064
 5763SOL     OW18187   0.396   0.190   0.647
 5763SOL    HW118188   0.373   0.191   0.745
 5763SOL    HW218189   0.338   0.256   0.600
 5764SOL     OW18190   5.661   4.608   6.481
 5764SOL    HW118191   5.666   4.518   6.438
 5764SOL    HW218192   5.703   4.604   6.572
 5765SOL     OW18193   6.790   4.313   6.582
 5765SOL    HW118194   6.889   4.320   6.566
 5765SOL    HW218195   6.751   4.246   6.519
 5766SOL     OW18196   2.754   1.663   1.184
 5766SOL    HW118197   2.685   1.599   1.152
 5766SOL    HW218198   2.792   1.713   1.107
 5767SOL     OW18199   2.541   6.896   0.102
 5767SOL    HW118200   2.581   6.983   0.076
 5767SOL    HW218201   2.503   6.850   0.022
 5768SOL     OW18202   0.039   6.913   3.209
 5768SOL    HW118203   0.074   6.907   3.116
 5768SOL    HW218204   0.115   6.925   3.273
 5769SOL     OW18205   2.784   7.007   3.469
 5769SOL    HW118206   2.812   6.969   3.557
 5769SOL    HW218207   2.810   0.086   3.464
 5770SOL     OW18208   0.124   6.647   1.053
 5770SOL    HW118209   0.050   6.583   1.076
 5770SOL    HW218210   0.185   6.603   0.987
 5771SOL     OW18211   1.170   5.844   1.548
 5771SOL    HW118212   1.234   5.912   1.511
 5771SOL    HW218213   1.103   5.891   1.605
 5772SOL     OW18214   5.884   2.892   0.572
 5772SOL    HW118215   5.949   2.967   0.562
 5772SOL    HW218216   5.867   2.875   0.669
 5773SOL     OW18217   5.581   0.444   4.050
 5773SOL    HW118218   5.671   0.465   4.088
 5773SOL    HW218219   5.579   0.350   4.018
 5774SOL     OW18220   2.391   5.375   4.186
 5774SOL    HW118221   2.431   5.440   4.251
 5774SOL    HW218222   2.447   5.372   4.103
 5775SOL     OW18223   1.452   0.213   1.203
 5775SOL    HW118224   1.369   0.212   1.148
 5775SOL    HW218225   1.518   0.147   1.167
 5776SOL     OW18226   0.073   0.583   6.152
 5776SOL    HW118227   0.087   0.665   6.096
 5776SOL    HW218228   6.992   0.561   6.154
 5777SOL     OW18229   5.842   0.883   4.297
 5777SOL    HW118230   5.930   0.847   4.328
 5777SOL    HW218231   5.857   0.951   4.225
 5778SOL     OW18232   1.956   0.125   1.771
 5778SOL    HW118233   1.996   0.213   1.795
 5778SOL    HW218234   2.028   0.057   1.758
 5779SOL     OW18235   4.089   0.427   1.025
 5779SOL    HW118236   4.159   0.357   1.037
 5779SOL    HW218237   4.071   0.472   1.113
 5780SOL     OW18238   6.345   5.201   2.191
 5780SOL    HW118239   6.253   5.203   2.153
 5780SOL    HW218240   6.359   5.281   2.250
 5781SOL     OW18241   1.904   4.290   4.980
 5781SOL    HW118242   1.988   4.344   4.980
 5781SOL    HW218243   1.851   4.310   4.898
 5782SOL     OW18244   1.678   1.239   2.016
 5782SOL    HW118245   1.754   1.200   2.069
 5782SOL    HW218246   1.657   1.179   1.939
 5783SOL     OW18247   1.540   1.556   1.163
 5783SOL    HW118248   1.608   1.494   1.124
 5783SOL    HW218249   1.584   1.615   1.231
 5784SOL     OW18250   0.456   6.558   0.031
 5784SOL    HW118251   0.436   6.616   6.969
 5784SOL    HW218252   0.541   6.590   0.074
 5785SOL     OW18253   1.258   1.880   1.210
 5785SOL    HW118254   1.325   1.949   1.239
 5785SOL    HW218255   1.278   1.851   1.116
 5786SOL     OW18256   1.351   3.701   1.241
 5786SOL    HW118257   1.302   3.635   1.183
 5786SOL    HW218258   1.437   3.660   1.272
 5787SOL     OW18259   5.253   2.385   4.093
 5787SOL    HW118260   5.224   2.295   4.062
 5787SOL    HW218261   5.231   2.453   4.023
 5788SOL     OW18262   3.008   0.212   1.160
 5788SOL    HW118263   3.019   0.245   1.254
 5788SOL    HW218264   2.932   0.148   1.156
 5789SOL     OW18265   4.063   2.866   6.284
 5789SOL    HW118266   3.994   2.806   6.244
 5789SOL    HW218267   4.148   2.815   6.297
 5790SOL     OW18268   6.788   5.737   5.269
 5790SOL    HW118269   6.768   5.721   5.172
 5790SOL    HW218270   6.737   5.672   5.325
 5791SOL     OW18271   3.578   1.191   2.377
 5791SOL    HW118272   3.504   1.204   2.311
 5791SOL    HW218273   3.565   1.254   2.454
 5792SOL     OW18274   5.046   3.740   3.046
 5792SOL    HW118275   5.002   3.808   2.988
 5792SOL    HW218276   5.032   3.649   3.008
 5793SOL     OW18277   6.106   2.171   5.569
 5793SOL    HW118278   6.147   2.247   5.518
 5793SOL    HW218279   6.163   2.149   5.648
 5794SOL     OW18280   3.171   6.929   6.382
 5794SOL    HW118281   3.214   6.869   6.450
 5794SOL    HW218282   3.087   6.967   6.421
 5795SOL     OW18283   0.767   6.055   1.810
 5795SOL    HW118284   0.824   6.104   1.876
 5795SOL    HW218285   0.676   6.041   1.848
 5796SOL     OW18286   4.814   1.014   6.516
 5796SOL    HW118287   4.716   1.003   6.505
 5796SOL    HW218288   4.858   0.924   6.524
 5797SOL     OW18289   5.607   1.270   0.271
 5797SOL    HW118290   5.652   1.306   0.353
 5797SOL    HW218291   5.594   1.171   0.281
 5798SOL     OW18292   1.069   4.142   4.527
 5798SOL    HW118293   1.141   4.155   4.459
 5798SOL    HW218294   1.079   4.211   4.599
 5799SOL     OW18295   0.740   6.805   2.904
 5799SOL    HW118296   0.804   6.746   2.954
 5799SOL    HW218297   0.649   6.764   2.906
 5800SOL     OW18298   0.793   0.108   1.044
 5800SOL    HW118299   0.727   0.049   1.091
 5800SOL    HW218300   0.748   0.151   0.965
 5801SOL     OW18301   2.584   2.526   3.135
 5801SOL    HW118302   2.589   2.620   3.167
 5801SOL    HW218303   2.676   2.492   3.116
 5802SOL     OW18304   6.025   3.109   2.763
 5802SOL    HW118305   6.090   3.147   2.697
 5802SOL    HW218306   5.989   3.023   2.729
 5803SOL     OW18307   1.001   4.598   3.927
 5803SOL    HW118308   1.033   4.691   3.941
 5803SOL    HW218309   0.951   4.567   4.008
 5804SOL     OW18310   6.795   6.893   3.860
 5804SOL    HW118311   6.793   6.973   3.800
 5804SOL    HW218312   6.856   6.912   3.937
 5805SOL     OW18313   1.193   3.022   1.044
 5805SOL    HW118314   1.133   3.028   1.124
 5805SOL    HW218315   1.236   2.932   1.041
 5806SOL     OW18316   0.108   4.090   4.321
 5806SOL    HW118317   0.090   4.012   4.261
 5806SOL    HW218318   0.057   4.079   4.406
 5807SOL     OW18319   0.942   6.326   0.955
 5807SOL    HW118320   0.897   6.268   1.022
 5807SOL    HW218321   1.019   6.373   0.997
 5808SOL     OW18322   6.933   6.778   4.185
 5808SOL    HW118323   0.010   6.752   4.163
 5808SOL    HW218324   6.919   6.874   4.162
 5809SOL     OW18325   0.305   2.104   5.862
 5809SOL    HW118326   0.212   2.073   5.886
 5809SOL    HW218327   0.334   2.175   5.925
 5810SOL     OW18328   4.221   6.764   4.964
 5810SOL    HW118329   4.182   6.675   4.988
 5810SOL    HW218330   4.299   6.751   4.903
 5811SOL     OW18331   2.813   2.601   5.705
 5811SOL    HW118332   2.749   2.575   5.777
 5811SOL    HW218333   2.838   2.520   5.651
 5812SOL     OW18334   6.396   3.471   0.183
 5812SOL    HW118335   6.330   3.402   0.156
 5812SOL    HW218336   6.488   3.443   0.153
 5813SOL     OW18337   3.675   6.157   1.208
 5813SOL    HW118338   3.716   6.068   1.187
 5813SOL    HW218339   3.747   6.221   1.236
 5814SOL     OW18340   6.938   2.105   2.213
 5814SOL    HW118341   0.020   2.096   2.205
 5814SOL    HW218342   6.894   2.017   2.194
 5815SOL     OW18343   5.942   2.199   4.183
 5815SOL    HW118344   5.961   2.101   4.188
 5815SOL    HW218345   5.951   2.230   4.088
 5816SOL     OW18346   0.384   4.948   2.115
 5816SOL    HW118347   0.321   4.983   2.185
 5816SOL    HW218348   0.435   4.870   2.152
 5817SOL     OW18349   5.379   3.897   5.246
 5817SOL    HW118350   5.330   3.913   5.160
 5817SOL    HW218351   5.313   3.894   5.322
 5818SOL     OW18352   1.228   5.814   5.291
 5818SOL    HW118353   1.148   5.765   5.327
 5818SOL    HW218354   1.204   5.910   5.275
 5819SOL     OW18355   2.714   5.208   0.259
 5819SOL    HW118356   2.808   5.189   0.233
 5819SOL    HW218357   2.678   5.283   0.203
 5820SOL     OW18358   5.172   4.759   2.581
 5820SOL    HW118359   5.264   4.750   2.619
 5820SOL    HW218360   5.115   4.814   2.642
 5821SOL     OW18361   6.664   1.144   1.218
 5821SOL    HW118362   6.614   1.058   1.207
 5821SOL    HW218363   6.760   1.124   1.240
 5822SOL     OW18364   1.424   2.204   2.782
 5822SOL    HW118365   1.476   2.232   2.702
 5822SOL    HW218366   1.327   2.228   2.769
 5823SOL     OW18367   2.337   6.220   4.215
 5823SOL    HW118368   2.239   6.237   4.218
 5823SOL    HW218369   2.374   6.218   4.308
 5824SOL     OW18370   1.121   6.958   2.335
 5824SOL    HW118371   1.078   6.987   2.420
 5824SOL    HW218372   1.155   0.021   2.285
 5825SOL     OW18373   0.284   6.061   4.806
 5825SOL    HW118374   0.222   6.049   4.884
 5825SOL    HW218375   0.289   5.977   4.753
 5826SOL     OW18376   6.904   0.096   5.328
 5826SOL    HW118377   6.835   0.153   5.283
 5826SOL    HW218378   6.884   7.016   5.310
 5827SOL     OW18379   1.406   3.744   4.760
 5827SOL    HW118380   1.503   3.766   4.746
 5827SOL    HW218381   1.388   3.652   4.724
 5828SOL     OW18382   5.270   0.237   4.150
 5828SOL    HW118383   5.353   0.276   4.111
 5828SOL    HW218384   5.259   0.143   4.119
 5829SOL     OW18385   1.632   0.839   4.726
 5829SOL    HW118386   1.578   0.890   4.659
 5829SOL    HW218387   1.572   0.802   4.797
 5830SOL     OW18388   3.987   5.011   5.536
 5830SOL    HW118389   3.895   5.019   5.498
 5830SOL    HW218390   4.011   4.914   5.546
 5831SOL     OW18391   0.543   1.393   5.309
 5831SOL    HW118392   0.569   1.309   5.261
 5831SOL    HW218393   0.502   1.456   5.244
 5832SOL     OW18394   3.387   4.551   1.264
 5832SOL    HW118395   3.454   4.618   1.296
 5832SOL    HW218396   3.407   4.462   1.303
 5833SOL     OW18397   4.126   3.774   5.146
 5833SOL    HW118398   4.100   3.870   5.161
 5833SOL    HW218399   4.211   3.754   5.196
 5834SOL     OW18400   6.671   3.734   6.452
 5834SOL    HW118401   6.615   3.776   6.381
 5834SOL    HW218402   6.766   3.729   6.421
 5835SOL     OW18403   5.805   1.163   2.831
 5835SOL    HW118404   5.758   1.081   2.799
 5835SOL    HW218405   5.904   1.149   2.826
 5836SOL     OW18406   3.244   6.556   2.522
 5836SOL    HW118407   3.163   6.563   2.464
 5836SOL    HW218408   3.311   6.625   2.495
 5837SOL     OW18409   3.664   4.149   0.340
 5837SOL    HW118410   3.672   4.236   0.291
 5837SOL    HW218411   3.596   4.158   0.413
 5838SOL     OW18412   2.831   1.932   1.661
 5838SOL    HW118413   2.875   1.843   1.658
 5838SOL    HW218414   2.735   1.923   1.633
 5839SOL     OW18415   0.547   2.974   1.454
 5839SOL    HW118416   0.588   3.022   1.376
 5839SOL    HW218417   0.561   2.875   1.443
 5840SOL     OW18418   6.927   3.577   2.053
 5840SOL    HW118419   6.911   3.659   2.108
 5840SOL    HW218420   6.884   3.590   1.963
 5841SOL     OW18421   4.652   0.492   1.730
 5841SOL    HW118422   4.686   0.500   1.636
 5841SOL    HW218423   4.726   0.511   1.794
 5842SOL     OW18424   3.884   2.283   0.215
 5842SOL    HW118425   3.811   2.346   0.190
 5842SOL    HW218426   3.881   2.265   0.314
 5843SOL     OW18427   2.239   3.566   1.274
 5843SOL    HW118428   2.325   3.516   1.274
 5843SOL    HW218429   2.163   3.502   1.289
 5844SOL     OW18430   0.394   6.646   5.102
 5844SOL    HW118431   0.427   6.732   5.063
 5844SOL    HW218432   0.424   6.639   5.197
 5845SOL     OW18433   0.129   6.915   1.914
 5845SOL    HW118434   0.093   6.830   1.876
 5845SOL    HW218435   0.063   6.952   1.980
 5846SOL     OW18436   6.543   4.136   5.318
 5846SOL    HW118437   6.606   4.059   5.323
 5846SOL    HW218438   6.450   4.102   5.303
 5847SOL     OW18439   2.527   2.662   1.716
 5847SOL    HW118440   2.604   2.606   1.743
 5847SOL    HW218441   2.463   2.671   1.793
 5848SOL     OW18442   2.340   5.981   4.092
 5848SOL    HW118443   2.343   6.053   4.161
 5848SOL    HW218444   2.363   5.893   4.135
 5849SOL     OW18445   2.194   6.637   5.197
 5849SOL    HW118446   2.179   6.608   5.291
 5849SOL    HW218447   2.116   6.610   5.141
 5850SOL     OW18448   1.195   2.597   1.668
 5850SOL    HW118449   1.186   2.612   1.767
 5850SOL    HW218450   1.286   2.628   1.639
 5851SOL     OW18451   5.313   3.615   4.086
 5851SOL    HW118452   5.263   3.683   4.139
 5851SOL    HW218453   5.383   3.661   4.031
 5852SOL     OW18454   4.351   5.716   3.346
 5852SOL    HW118455   4.401   5.656   3.284
 5852SOL    HW218456   4.296   5.661   3.409
 5853SOL     OW18457   4.034   4.834   4.919
 5853SOL    HW118458   3.995   4.797   5.004
 5853SOL    HW218459   4.115   4.888   4.940
 5854SOL     OW18460   3.754   4.147   5.348
 5854SOL    HW118461   3.771   4.241   5.375
 5854SOL    HW218462   3.743   4.142   5.248
 5855SOL     OW18463   2.227   2.560   3.819
 5855SOL    HW118464   2.240   2.595   3.911
 5855SOL    HW218465   2.188   2.631   3.761
 5856SOL     OW18466   1.513   6.777   2.505
 5856SOL    HW118467   1.481   6.698   2.453
 5856SOL    HW218468   1.484   6.861   2.460
 5857SOL     OW18469   0.031   3.188   5.641
 5857SOL    HW118470   0.039   3.090   5.622
 5857SOL    HW218471   0.011   3.202   5.737
 5858SOL     OW18472   2.543   2.019   2.512
 5858SOL    HW118473   2.542   1.924   2.543
 5858SOL    HW218474   2.626   2.064   2.544
 5859SOL     OW18475   5.623   6.457   2.009
 5859SOL    HW118476   5.580   6.528   1.952
 5859SOL    HW218477   5.710   6.492   2.044
 5860SOL     OW18478   0.362   4.438   3.107
 5860SOL    HW118479   0.281   4.438   3.049
 5860SOL    HW218480   0.378   4.345   3.141
 5861SOL     OW18481   5.788   0.567   5.050
 5861SOL    HW118482   5.843   0.587   5.132
 5861SOL    HW218483   5.734   0.647   5.025
 5862SOL     OW18484   6.074   5.774   2.313
 5862SOL    HW118485   5.982   5.783   2.275
 5862SOL    HW218486   6.112   5.865   2.330
 5863SOL     OW18487   3.100   1.044   4.218
 5863SOL    HW118488   3.156   1.032   4.299
 5863SOL    HW218489   3.159   1.044   4.137
 5864SOL     OW18490   3.346   3.740   3.041
 5864SOL    HW118491   3.442   3.762   3.023
 5864SOL    HW218492   3.340   3.652   3.088
 5865SOL     OW18493   5.572   1.296   5.671
 5865SOL    HW118494   5.547   1.259   5.581
 5865SOL    HW218495   5.620   1.383   5.659
 5866SOL     OW18496   3.329   2.912   1.009
 5866SOL    HW118497   3.311   2.945   1.101
 5866SOL    HW218498   3.390   2.833   1.012
 5867SOL     OW18499   2.027   2.133   1.725
 5867SOL    HW118500   2.076   2.219   1.740
 5867SOL    HW218501   1.932   2.153   1.700
 5868SOL     OW18502   1.230   1.895   5.968
 5868SOL    HW118503   1.294   1.906   6.044
 5868SOL    HW218504   1.168   1.819   5.988
 5869SOL     OW18505   1.551   4.419   3.326
 5869SOL    HW118506   1.629   4.383   3.275
 5869SOL    HW218507   1.550   4.519   3.318
 5870SOL     OW18508   3.902   4.784   5.857
 5870SOL    HW118509   3.822   4.838   5.883
 5870SOL    HW218510   3.883   4.738   5.770
 5871SOL     OW18511   4.041   3.881   3.023
 5871SOL    HW118512   3.988   3.893   2.939
 5871SOL    HW218513   3.988   3.914   3.101
 5872SOL     OW18514   4.077   6.126   1.354
 5872SOL    HW118515   4.058   6.034   1.318
 5872SOL    HW218516   4.011   6.190   1.317
 5873SOL     OW18517   2.791   5.376   2.135
 5873SOL    HW118518   2.785   5.305   2.206
 5873SOL    HW218519   2.878   5.426   2.145
 5874SOL     OW18520   2.270   4.251   5.146
 5874SOL    HW118521   2.273   4.254   5.046
 5874SOL    HW218522   2.289   4.158   5.177
 5875SOL     OW18523   3.223   2.319   0.219
 5875SOL    HW118524   3.128   2.346   0.206
 5875SOL    HW218525   3.249   2.253   0.148
 5876SOL     OW18526   3.826   3.458   2.549
 5876SOL    HW118527   3.908   3.402   2.537
 5876SOL    HW218528   3.749   3.414   2.503
 5877SOL     OW18529   5.970   6.045   0.900
 5877SOL    HW118530   5.895   5.983   0.925
 5877SOL    HW218531   5.972   6.055   0.801
 5878SOL     OW18532   1.368   6.213   3.713
 5878SOL    HW118533   1.441   6.234   3.777
 5878SOL    HW218534   1.303   6.151   3.755
 5879SOL     OW18535   6.746   3.706   0.526
 5879SOL    HW118536   6.728   3.765   0.447
 5879SOL    HW218537   6.718   3.754   0.610
 5880SOL     OW18538   2.939   5.397   0.790
 5880SOL    HW118539   3.036   5.376   0.802
 5880SOL    HW218540   2.895   5.324   0.738
 5881SOL     OW18541   0.465   5.013   3.462
 5881SOL    HW118542   0.527   5.074   3.511
 5881SOL    HW218543   0.518   4.951   3.404
 5882SOL     OW18544   6.202   6.614   1.046
 5882SOL    HW118545   6.293   6.647   1.072
 5882SOL    HW218546   6.203   6.582   0.951
 5883SOL     OW18547   0.641   2.314   6.688
 5883SOL    HW118548   0.571   2.254   6.727
 5883SOL    HW218549   0.718   2.321   6.751
 5884SOL     OW18550   2.446   1.122   3.425
 5884SOL    HW118551   2.540   1.135   3.393
 5884SOL    HW218552   2.422   1.025   3.420
 5885SOL     OW18553   6.555   6.710   1.666
 5885SOL    HW118554   6.548   6.610   1.674
 5885SOL    HW218555   6.623   6.733   1.596
 5886SOL     OW18556   0.319   1.939   5.087
 5886SOL    HW118557   0.381   2.016   5.094
 5886SOL    HW218558   0.308   1.913   4.991
 5887SOL     OW18559   3.982   1.013   3.376
 5887SOL    HW118560   4.045   1.068   3.320
 5887SOL    HW218561   3.888   1.044   3.360
 5888SOL     OW18562   2.639   0.007   2.637
 5888SOL    HW118563   2.736   0.011   2.660
 5888SOL    HW218564   2.584   0.019   2.720
 5889SOL     OW18565   1.416   6.796   1.277
 5889SOL    HW118566   1.378   6.840   1.359
 5889SOL    HW218567   1.342   6.770   1.216
 5890SOL     OW18568   1.142   0.337   5.455
 5890SOL    HW118569   1.180   0.252   5.419
 5890SOL    HW218570   1.185   0.415   5.410
 5891SOL     OW18571   3.683   2.993   6.005
 5891SOL    HW118572   3.604   2.976   5.946
 5891SOL    HW218573   3.767   2.984   5.951
 5892SOL     OW18574   0.599   6.291   1.113
 5892SOL    HW118575   0.600   6.242   1.026
 5892SOL    HW218576   0.692   6.292   1.151
 5893SOL     OW18577   1.512   4.098   3.495
 5893SOL    HW118578   1.443   4.043   3.542
 5893SOL    HW218579   1.527   4.183   3.546
 5894SOL     OW18580   1.046   5.538   3.155
 5894SOL    HW118581   1.065   5.443   3.179
 5894SOL    HW218582   1.129   5.579   3.116
 5895SOL     OW18583   5.239   3.171   3.830
 5895SOL    HW118584   5.222   3.153   3.927
 5895SOL    HW218585   5.337   3.164   3.812
 5896SOL     OW18586   4.002   1.683   0.170
 5896SOL    HW118587   4.053   1.693   0.085
 5896SOL    HW218588   4.039   1.606   0.222
 5897SOL     OW18589   3.239   0.281   1.740
 5897SOL    HW118590   3.184   0.228   1.805
 5897SOL    HW218591   3.289   0.219   1.680
 5898SOL     OW18592   2.005   0.298   3.206
 5898SOL    HW118593   2.021   0.380   3.262
 5898SOL    HW218594   2.092   0.266   3.170
 5899SOL     OW18595   5.322   6.805   5.688
 5899SOL    HW118596   5.417   6.809   5.717
 5899SOL    HW218597   5.282   6.897   5.690
 5900SOL     OW18598   4.529   5.165   3.897
 5900SOL    HW118599   4.502   5.139   3.990
 5900SOL    HW218600   4.627   5.151   3.887
 5901SOL     OW18601   3.190   0.511   6.469
 5901SOL    HW118602   3.180   0.607   6.443
 5901SOL    HW218603   3.140   0.495   6.554
 5902SOL     OW18604   7.016   2.670   0.586
 5902SOL    HW118605   6.937   2.621   0.623
 5902SOL    HW218606   0.082   2.616   0.597
 5903SOL     OW18607   4.229   4.166   0.718
 5903SOL    HW118608   4.250   4.177   0.815
 5903SOL    HW218609   4.161   4.094   0.706
 5904SOL     OW18610   0.519   3.713   1.841
 5904SOL    HW118611   0.513   3.812   1.828
 5904SOL    HW218612   0.430   3.678   1.870
 5905SOL     OW18613   6.591   5.783   3.071
 5905SOL    HW118614   6.589   5.691   3.111
 5905SOL    HW218615   6.498   5.807   3.040
 5906SOL     OW18616   4.728   1.199   4.399
 5906SOL    HW118617   4.782   1.136   4.454
 5906SOL    HW218618   4.725   1.167   4.304
 5907SOL     OW18619   1.949   5.769   2.299
 5907SOL    HW118620   1.897   5.684   2.293
 5907SOL    HW218621   1.979   5.796   2.208
 5908SOL     OW18622   0.963   2.181   5.655
 5908SOL    HW118623   1.023   2.168   5.734
 5908SOL    HW218624   0.923   2.272   5.657
 5909SOL     OW18625   0.113   5.337   0.862
 5909SOL    HW118626   0.175   5.267   0.897
 5909SOL    HW218627   0.019   5.302   0.864
 5910SOL     OW18628   0.732   3.104   3.212
 5910SOL    HW118629   0.763   3.197   3.232
 5910SOL    HW218630   0.690   3.101   3.121
 5911SOL     OW18631   6.529   5.744   6.661
 5911SOL    HW118632   6.586   5.695   6.727
 5911SOL    HW218633   6.531   5.842   6.682
 5912SOL     OW18634   6.468   0.933   5.188
 5912SOL    HW118635   6.455   1.028   5.161
 5912SOL    HW218636   6.550   0.926   5.245
 5913SOL     OW18637   4.602   3.052   6.667
 5913SOL    HW118638   4.627   3.054   6.764
 5913SOL    HW218639   4.599   2.957   6.635
 5914SOL     OW18640   0.784   6.644   6.652
 5914SOL    HW118641   0.715   6.598   6.708
 5914SOL    HW218642   0.851   6.576   6.620
 5915SOL     OW18643   4.030   6.078   0.672
 5915SOL    HW118644   4.096   6.092   0.598
 5915SOL    HW218645   3.984   6.165   0.691
 5916SOL     OW18646   6.543   6.574   2.610
 5916SOL    HW118647   6.470   6.506   2.603
 5916SOL    HW218648   6.632   6.528   2.603
 5917SOL     OW18649   3.266   3.734   5.106
 5917SOL    HW118650   3.220   3.645   5.105
 5917SOL    HW218651   3.291   3.759   5.013
 5918SOL     OW18652   1.749   5.133   6.144
 5918SOL    HW118653   1.836   5.113   6.189
 5918SOL    HW218654   1.690   5.052   6.148
 5919SOL     OW18655   2.942   3.762   2.799
 5919SOL    HW118656   2.933   3.785   2.702
 5919SOL    HW218657   2.890   3.679   2.818
 5920SOL     OW18658   5.237   1.020   6.504
 5920SOL    HW118659   5.282   0.941   6.461
 5920SOL    HW218660   5.246   1.013   6.604
 5921SOL     OW18661   3.967   5.160   5.963
 5921SOL    HW118662   4.024   5.082   5.936
 5921SOL    HW218663   3.904   5.132   6.036
 5922SOL     OW18664   6.118   3.924   4.396
 5922SOL    HW118665   6.162   3.837   4.419
 5922SOL    HW218666   6.179   3.978   4.339
 5923SOL     OW18667   6.669   0.740   1.621
 5923SOL    HW118668   6.712   0.737   1.531
 5923SOL    HW218669   6.717   0.677   1.683
 5924SOL     OW18670   5.836   0.070   2.317
 5924SOL    HW118671   5.934   0.054   2.304
 5924SOL    HW218672   5.802   0.130   2.245
 5925SOL     OW18673   3.443   5.945   1.978
 5925SOL    HW118674   3.503   5.942   2.057
 5925SOL    HW218675   3.439   5.854   1.935
 5926SOL     OW18676   4.966   4.345   2.534
 5926SOL    HW118677   4.996   4.370   2.625
 5926SOL    HW218678   5.045   4.319   2.478
 5927SOL     OW18679   1.316   4.099   1.696
 5927SOL    HW118680   1.401   4.149   1.711
 5927SOL    HW218681   1.240   4.153   1.733
 5928SOL     OW18682   3.733   6.556   1.821
 5928SOL    HW118683   3.827   6.583   1.802
 5928SOL    HW218684   3.697   6.502   1.745
 5929SOL     OW18685   5.750   0.681   5.836
 5929SOL    HW118686   5.744   0.690   5.737
 5929SOL    HW218687   5.707   0.760   5.880
 5930SOL     OW18688   0.711   2.652   2.937
 5930SOL    HW118689   0.788   2.712   2.961
 5930SOL    HW218690   0.712   2.572   2.997
 5931SOL     OW18691   6.173   5.998   2.758
 5931SOL    HW118692   6.237   5.945   2.813
 5931SOL    HW218693   6.086   6.005   2.807
 5932SOL     OW18694   3.344   0.314   0.370
 5932SOL    HW118695   3.428   0.362   0.397
 5932SOL    HW218696   3.278   0.379   0.333
 5933SOL     OW18697   6.934   4.579   4.270
 5933SOL    HW118698   7.010   4.603   4.209
 5933SOL    HW218699   6.916   4.655   4.332
 5934SOL     OW18700   3.566   2.895   5.343
 5934SOL    HW118701   3.539   2.975   5.290
 5934SOL    HW218702   3.653   2.914   5.389
 5935SOL     OW18703   0.336   5.574   5.979
 5935SOL    HW118704   0.358   5.483   5.944
 5935SOL    HW218705   0.266   5.616   5.921
 5936SOL     OW18706   3.004   3.824   2.138
 5936SOL    HW118707   3.003   3.900   2.072
 5936SOL    HW218708   2.942   3.752   2.107
 5937SOL     OW18709   5.828   3.189   1.884
 5937SOL    HW118710   5.822   3.197   1.984
 5937SOL    HW218711   5.753   3.131   1.851
 5938SOL     OW18712   6.542   6.152   4.826
 5938SOL    HW118713   6.445   6.125   4.830
 5938SOL    HW218714   6.549   6.248   4.802
 5939SOL     OW18715   3.150   6.170   4.378
 5939SOL    HW118716   3.143   6.269   4.361
 5939SOL    HW218717   3.182   6.125   4.295
 5940SOL     OW18718   3.894   5.113   4.061
 5940SOL    HW118719   3.854   5.037   4.009
 5940SOL    HW218720   3.960   5.077   4.127
 5941SOL     OW18721   5.666   2.852   2.758
 5941SOL    HW118722   5.615   2.885   2.678
 5941SOL    HW218723   5.670   2.925   2.826
 5942SOL     OW18724   5.181   3.652   6.729
 5942SOL    HW118725   5.151   3.636   6.823
 5942SOL    HW218726   5.235   3.736   6.724
 5943SOL     OW18727   3.178   3.040   5.940
 5943SOL    HW118728   3.223   3.087   5.865
 5943SOL    HW218729   3.231   3.053   6.024
 5944SOL     OW18730   1.257   2.647   0.541
 5944SOL    HW118731   1.202   2.701   0.477
 5944SOL    HW218732   1.255   2.691   0.631
 5945SOL     OW18733   0.474   5.555   5.318
 5945SOL    HW118734   0.533   5.507   5.382
 5945SOL    HW218735   0.462   5.650   5.347
 5946SOL     OW18736   3.287   4.741   0.228
 5946SOL    HW118737   3.207   4.684   0.245
 5946SOL    HW218738   3.261   4.819   0.171
 5947SOL     OW18739   3.236   3.431   3.517
 5947SOL    HW118740   3.209   3.519   3.477
 5947SOL    HW218741   3.307   3.447   3.586
 5948SOL     OW18742   4.548   4.667   2.540
 5948SOL    HW118743   4.644   4.654   2.515
 5948SOL    HW218744   4.493   4.678   2.457
 5949SOL     OW18745   4.920   5.121   0.988
 5949SOL    HW118746   4.909   5.023   1.003
 5949SOL    HW218747   4.867   5.150   0.908
 5950SOL     OW18748   5.027   2.047   5.274
 5950SOL    HW118749   5.056   2.133   5.316
 5950SOL    HW218750   5.067   1.970   5.323
 5951SOL     OW18751   1.021   5.675   5.468
 5951SOL    HW118752   0.945   5.733   5.440
 5951SOL    HW218753   0.990   5.611   5.539
 5952SOL     OW18754   4.935   5.473   3.849
 5952SOL    HW118755   4.907   5.424   3.766
 5952SOL    HW218756   4.875   5.449   3.925
 5953SOL     OW18757   6.571   4.238   4.855
 5953SOL    HW118758   6.498   4.217   4.791
 5953SOL    HW218759   6.658   4.204   4.819
 5954SOL     OW18760   0.265   5.512   5.137
 5954SOL    HW118761   0.315   5.551   5.214
 5954SOL    HW218762   0.245   5.584   5.070
 5955SOL     OW18763   4.292   4.894   2.344
 5955SOL    HW118764   4.335   4.805   2.332
 5955SOL    HW218765   4.235   4.916   2.265
 5956SOL     OW18766   5.763   2.040   3.842
 5956SOL    HW118767   5.679   2.082   3.808
 5956SOL    HW218768   5.814   2.107   3.896
 5957SOL     OW18769   2.620   1.774   4.119
 5957SOL    HW118770   2.616   1.865   4.159
 5957SOL    HW218771   2.620   1.781   4.019
 5958SOL     OW18772   4.031   0.346   2.630
 5958SOL    HW118773   4.072   0.418   2.685
 5958SOL    HW218774   4.072   0.346   2.538
 5959SOL     OW18775   4.513   2.742   5.543
 5959SOL    HW118776   4.450   2.815   5.518
 5959SOL    HW218777   4.567   2.716   5.463
 5960SOL     OW18778   3.266   6.051   4.149
 5960SOL    HW118779   3.257   6.024   4.053
 5960SOL    HW218780   3.363   6.061   4.172
 5961SOL     OW18781   4.357   1.617   2.533
 5961SOL    HW118782   4.429   1.677   2.497
 5961SOL    HW218783   4.289   1.601   2.462
 5962SOL     OW18784   5.286   5.882   5.794
 5962SOL    HW118785   5.199   5.901   5.749
 5962SOL    HW218786   5.314   5.962   5.848
 5963SOL     OW18787   3.129   3.700   6.576
 5963SOL    HW118788   3.226   3.697   6.601
 5963SOL    HW218789   3.082   3.620   6.613
 5964SOL     OW18790   2.528   6.730   4.536
 5964SOL    HW118791   2.469   6.652   4.517
 5964SOL    HW218792   2.473   6.813   4.543
 5965SOL     OW18793   2.431   0.892   0.141
 5965SOL    HW118794   2.353   0.903   0.079
 5965SOL    HW218795   2.498   0.830   0.099
 5966SOL     OW18796   1.114   6.626   6.197
 5966SOL    HW118797   1.104   6.569   6.115
 5966SOL    HW218798   1.076   6.578   6.276
 5967SOL     OW18799   2.036   0.620   5.941
 5967SOL    HW118800   1.987   0.583   5.862
 5967SOL    HW218801   2.094   0.696   5.912
 5968SOL     OW18802   5.639   2.315   0.239
 5968SOL    HW118803   5.640   2.410   0.272
 5968SOL    HW218804   5.627   2.314   0.140
 5969SOL     OW18805   5.294   1.327   6.866
 5969SOL    HW118806   5.384   1.356   6.899
 5969SOL    HW218807   5.293   1.329   6.766
 5970SOL     OW18808   0.556   4.809   0.732
 5970SOL    HW118809   0.642   4.758   0.725
 5970SOL    HW218810   0.576   4.905   0.756
 5971SOL     OW18811   6.734   7.008   1.092
 5971SOL    HW118812   6.688   6.961   1.016
 5971SOL    HW218813   6.673   0.060   1.130
 5972SOL     OW18814   4.590   5.612   6.548
 5972SOL    HW118815   4.553   5.566   6.467
 5972SOL    HW218816   4.585   5.711   6.534
 5973SOL     OW18817   1.587   2.978   2.909
 5973SOL    HW118818   1.650   3.042   2.864
 5973SOL    HW218819   1.639   2.918   2.970
 5974SOL     OW18820   4.864   0.019   6.977
 5974SOL    HW118821   4.827   6.979   6.903
 5974SOL    HW218822   4.842   6.995   0.048
 5975SOL     OW18823   3.969   6.201   0.988
 5975SOL    HW118824   4.020   6.116   0.981
 5975SOL    HW218825   3.986   6.258   0.907
 5976SOL     OW18826   3.172   2.852   5.418
 5976SOL    HW118827   3.210   2.939   5.387
 5976SOL    HW218828   3.204   2.832   5.510
 5977SOL     OW18829   0.997   5.791   0.151
 5977SOL    HW118830   0.903   5.814   0.175
 5977SOL    HW218831   1.057   5.807   0.229
 5978SOL     OW18832   3.545   5.746   1.550
 5978SOL    HW118833   3.633   5.785   1.521
 5978SOL    HW218834   3.483   5.819   1.575
 5979SOL     OW18835   0.004   0.826   1.815
 5979SOL    HW118836   6.964   0.744   1.808
 5979SOL    HW218837   0.054   0.839   1.729
 5980SOL     OW18838   4.065   3.413   1.679
 5980SOL    HW118839   4.040   3.327   1.724
 5980SOL    HW218840   4.093   3.480   1.749
 5981SOL     OW18841   4.986   1.600   0.009
 5981SOL    HW118842   4.936   1.583   0.093
 5981SOL    HW218843   5.047   1.523   7.007
 5982SOL     OW18844   6.246   1.693   2.620
 5982SOL    HW118845   6.211   1.776   2.663
 5982SOL    HW218846   6.174   1.623   2.619
 5983SOL     OW18847   1.454   1.225   3.991
 5983SOL    HW118848   1.488   1.313   3.959
 5983SOL    HW218849   1.424   1.234   4.086
 5984SOL     OW18850   5.223   6.727   3.424
 5984SOL    HW118851   5.162   6.652   3.449
 5984SOL    HW218852   5.306   6.723   3.481
 5985SOL     OW18853   6.868   2.939   3.477
 5985SOL    HW118854   6.776   2.974   3.461
 5985SOL    HW218855   6.894   2.877   3.403
 5986SOL     OW18856   3.517   3.859   5.374
 5986SOL    HW118857   3.486   3.935   5.317
 5986SOL    HW218858   3.612   3.875   5.401
 5987SOL     OW18859   5.379   0.565   5.123
 5987SOL    HW118860   5.428   0.551   5.037
 5987SOL    HW218861   5.290   0.608   5.105
 5988SOL     OW18862   3.844   0.621   6.670
 5988SOL    HW118863   3.935   0.581   6.662
 5988SOL    HW218864   3.846   0.698   6.734
 5989SOL     OW18865   1.672   5.337   6.014
 5989SOL    HW118866   1.709   5.251   6.049
 5989SOL    HW218867   1.742   5.408   6.021
 5990SOL     OW18868   3.481   3.607   0.123
 5990SOL    HW118869   3.568   3.622   0.171
 5990SOL    HW218870   3.447   3.695   0.088
 5991SOL     OW18871   4.224   6.265   6.840
 5991SOL    HW118872   4.262   6.183   6.883
 5991SOL    HW218873   4.130   6.246   6.811
 5992SOL     OW18874   3.551   6.912   1.984
 5992SOL    HW118875   3.651   6.916   1.991
 5992SOL    HW218876   3.517   6.991   1.933
 5993SOL     OW18877   5.087   3.788   6.363
 5993SOL    HW118878   5.129   3.715   6.310
 5993SOL    HW218879   5.020   3.748   6.426
 5994SOL     OW18880   6.715   2.531   0.519
 5994SOL    HW118881   6.645   2.460   0.519
 5994SOL    HW218882   6.680   2.612   0.568
 5995SOL     OW18883   4.995   2.937   1.945
 5995SOL    HW118884   4.903   2.973   1.961
 5995SOL    HW218885   5.038   2.987   1.871
 5996SOL     OW18886   0.797   5.771   1.234
 5996SOL    HW118887   0.856   5.693   1.212
 5996SOL    HW218888   0.705   5.739   1.253
 5997SOL     OW18889   1.268   6.681   3.143
 5997SOL    HW118890   1.211   6.610   3.102
 5997SOL    HW218891   1.357   6.643   3.167
 5998SOL     OW18892   6.229   1.069   2.038
 5998SOL    HW118893   6.293   1.006   2.083
 5998SOL    HW218894   6.140   1.025   2.030
 5999SOL     OW18895   3.060   3.095   1.356
 5999SOL    HW118896   3.052   3.115   1.259
 5999SOL    HW218897   2.980   3.130   1.405
 6000SOL     OW18898   1.092   6.378   0.355
 6000SOL    HW118899   1.187   6.360   0.327
 6000SOL    HW218900   1.080   6.350   0.450
 6001SOL     OW18901   6.296   5.198   7.014
 6001SOL    HW118902   6.267   5.272   6.954
 6001SOL    HW218903   6.255   5.210   0.087
 6002SOL     OW18904   6.495   0.116   5.704
 6002SOL    HW118905   6.566   0.073   5.761
 6002SOL    HW218906   6.405   0.091   5.740
 6003SOL     OW18907   5.449   2.206   4.750
 6003SOL    HW118908   5.353   2.181   4.764
 6003SOL    HW218909   5.487   2.240   4.835
 6004SOL     OW18910   6.111   2.590   3.783
 6004SOL    HW118911   6.142   2.557   3.694
 6004SOL    HW218912   6.186   2.582   3.850
 6005SOL     OW18913   6.169   4.733   4.833
 6005SOL    HW118914   6.193   4.647   4.788
 6005SOL    HW218915   6.091   4.717   4.894
 6006SOL     OW18916   3.033   0.762   4.950
 6006SOL    HW118917   2.999   0.683   4.899
 6006SOL    HW218918   3.099   0.732   5.018
 6007SOL     OW18919   0.053   3.193   6.119
 6007SOL    HW118920   0.054   3.282   6.075
 6007SOL    HW218921   0.147   3.159   6.128
 6008SOL     OW18922   2.560   4.949   5.553
 6008SOL    HW118923   2.528   4.880   5.488
 6008SOL    HW218924   2.643   4.992   5.519
 6009SOL     OW18925   3.939   6.570   3.579
 6009SOL    HW118926   3.851   6.560   3.532
 6009SOL    HW218927   3.966   6.666   3.579
 6010SOL     OW18928   0.982   4.393   3.384
 6010SOL    HW118929   0.950   4.467   3.444
 6010SOL    HW218930   0.945   4.306   3.416
 6011SOL     OW18931   4.863   3.270   2.938
 6011SOL    HW118932   4.776   3.320   2.936
 6011SOL    HW218933   4.885   3.245   3.032
 6012SOL     OW18934   6.256   0.337   0.253
 6012SOL    HW118935   6.343   0.310   0.294
 6012SOL    HW218936   6.210   0.256   0.217
 6013SOL     OW18937   5.009   0.991   2.823
 6013SOL    HW118938   4.967   0.906   2.854
 6013SOL    HW218939   5.083   0.971   2.758
 6014SOL     OW18940   3.226   4.128   3.604
 6014SOL    HW118941   3.225   4.059   3.532
 6014SOL    HW218942   3.163   4.202   3.580
 6015SOL     OW18943   5.943   3.656   4.672
 6015SOL    HW118944   5.927   3.570   4.624
 6015SOL    HW218945   5.938   3.732   4.608
 6016SOL     OW18946   5.832   1.497   5.982
 6016SOL    HW118947   5.913   1.517   6.038
 6016SOL    HW218948   5.803   1.580   5.934
 6017SOL     OW18949   6.834   4.830   4.432
 6017SOL    HW118950   6.742   4.797   4.453
 6017SOL    HW218951   6.833   4.929   4.422
 6018SOL     OW18952   3.397   1.388   5.287
 6018SOL    HW118953   3.389   1.362   5.191
 6018SOL    HW218954   3.306   1.406   5.324
 6019SOL     OW18955   0.696   3.021   5.440
 6019SOL    HW118956   0.665   3.056   5.529
 6019SOL    HW218957   0.650   3.071   5.367
 6020SOL     OW18958   1.193   5.665   0.347
 6020SOL    HW118959   1.110   5.611   0.332
 6020SOL    HW218960   1.272   5.614   0.313
 6021SOL     OW18961   4.626   0.340   3.041
 6021SOL    HW118962   4.540   0.327   2.991
 6021SOL    HW218963   4.633   0.435   3.070
 6022SOL     OW18964   0.373   1.697   3.520
 6022SOL    HW118965   0.428   1.614   3.523
 6022SOL    HW218966   0.276   1.673   3.507
 6023SOL     OW18967   4.975   0.500   2.092
 6023SOL    HW118968   4.906   0.436   2.125
 6023SOL    HW218969   5.062   0.481   2.136
 6024SOL     OW18970   0.979   4.679   0.876
 6024SOL    HW118971   1.075   4.675   0.902
 6024SOL    HW218972   0.944   4.772   0.890
 6025SOL     OW18973   3.231   1.618   3.066
 6025SOL    HW118974   3.278   1.696   3.107
 6025SOL    HW218975   3.261   1.606   2.971
 6026SOL     OW18976   0.373   5.547   4.746
 6026SOL    HW118977   0.373   5.532   4.647
 6026SOL    HW218978   0.462   5.522   4.784
 6027SOL     OW18979   0.117   3.599   6.146
 6027SOL    HW118980   0.203   3.584   6.194
 6027SOL    HW218981   0.101   3.523   6.083
 6028SOL     OW18982   5.240   4.860   1.020
 6028SOL    HW118983   5.233   4.865   0.921
 6028SOL    HW218984   5.278   4.771   1.046
 6029SOL     OW18985   2.820   0.060   3.773
 6029SOL    HW118986   2.874   0.144   3.781
 6029SOL    HW218987   2.839   0.001   3.851
 6030SOL     OW18988   5.190   4.257   4.146
 6030SOL    HW118989   5.213   4.206   4.228
 6030SOL    HW218990   5.128   4.203   4.089
 6031SOL     OW18991   2.442   5.560   4.424
 6031SOL    HW118992   2.380   5.620   4.374
 6031SOL    HW218993   2.537   5.587   4.405
 6032SOL     OW18994   2.647   5.014   2.586
 6032SOL    HW118995   2.663   4.917   2.571
 6032SOL    HW218996   2.663   5.036   2.682
 6033SOL     OW18997   2.038   3.088   2.739
 6033SOL    HW118998   2.063   3.095   2.642
 6033SOL    HW218999   1.991   3.001   2.754
 6034SOL     OW19000   0.918   0.723   6.097
 6034SOL    HW119001   0.876   0.720   6.187
 6034SOL    HW219002   0.932   0.818   6.069
 6035SOL     OW19003   1.685   0.542   2.217
 6035SOL    HW119004   1.594   0.531   2.258
 6035SOL    HW219005   1.694   0.633   2.178
 6036SOL     OW19006   5.356   4.578   1.797
 6036SOL    HW119007   5.351   4.676   1.780
 6036SOL    HW219008   5.414   4.534   1.727
 6037SOL     OW19009   4.048   0.123   0.576
 6037SOL    HW119010   4.138   0.084   0.597
 6037SOL    HW219011   3.976   0.066   0.615
 6038SOL     OW19012   0.870   2.353   6.817
 6038SOL    HW119013   0.906   2.277   6.762
 6038SOL    HW219014   0.946   2.406   6.855
 6039SOL     OW19015   3.757   3.039   3.394
 6039SOL    HW119016   3.762   3.006   3.488
 6039SOL    HW219017   3.850   3.045   3.356
 6040SOL     OW19018   1.705   1.050   0.471
 6040SOL    HW119019   1.761   0.976   0.432
 6040SOL    HW219020   1.716   1.050   0.571
 6041SOL     OW19021   3.204   2.125   5.281
 6041SOL    HW119022   3.151   2.173   5.351
 6041SOL    HW219023   3.196   2.175   5.194
 6042SOL     OW19024   3.756   6.625   2.701
 6042SOL    HW119025   3.742   6.530   2.674
 6042SOL    HW219026   3.846   6.635   2.744
 6043SOL     OW19027   0.974   0.522   4.851
 6043SOL    HW119028   1.046   0.534   4.919
 6043SOL    HW219029   0.999   0.446   4.790
 6044SOL     OW19030   2.740   2.476   1.726
 6044SOL    HW119031   2.815   2.457   1.791
 6044SOL    HW219032   2.776   2.474   1.633
 6045SOL     OW19033   5.746   3.243   3.680
 6045SOL    HW119034   5.691   3.311   3.632
 6045SOL    HW219035   5.811   3.202   3.616
 6046SOL     OW19036   3.602   2.729   0.724
 6046SOL    HW119037   3.671   2.660   0.745
 6046SOL    HW219038   3.645   2.818   0.716
 6047SOL     OW19039   5.093   2.330   1.574
 6047SOL    HW119040   5.090   2.386   1.491
 6047SOL    HW219041   5.045   2.378   1.647
 6048SOL     OW19042   5.141   5.387   5.013
 6048SOL    HW119043   5.176   5.474   5.048
 6048SOL    HW219044   5.204   5.314   5.039
 6049SOL     OW19045   4.676   4.266   6.564
 6049SOL    HW119046   4.764   4.223   6.579
 6049SOL    HW219047   4.685   4.336   6.493
 6050SOL     OW19048   1.863   5.140   0.515
 6050SOL    HW119049   1.802   5.072   0.555
 6050SOL    HW219050   1.816   5.228   0.507
 6051SOL     OW19051   1.828   6.357   2.648
 6051SOL    HW119052   1.906   6.321   2.596
 6051SOL    HW219053   1.824   6.313   2.738
 6052SOL     OW19054   5.150   1.728   1.829
 6052SOL    HW119055   5.233   1.735   1.774
 6052SOL    HW219056   5.147   1.638   1.872
 6053SOL     OW19057   4.048   0.773   5.751
 6053SOL    HW119058   4.095   0.814   5.829
 6053SOL    HW219059   4.113   0.718   5.698
 6054SOL     OW19060   2.649   4.190   0.590
 6054SOL    HW119061   2.634   4.195   0.689
 6054SOL    HW219062   2.745   4.207   0.570
 6055SOL     OW19063   3.734   5.624   5.770
 6055SOL    HW119064   3.730   5.724   5.773
 6055SOL    HW219065   3.812   5.592   5.823
 6056SOL     OW19066   4.829   3.379   5.282
 6056SOL    HW119067   4.783   3.455   5.236
 6056SOL    HW219068   4.813   3.295   5.230
 6057SOL     OW19069   6.223   0.388   2.736
 6057SOL    HW119070   6.182   0.303   2.770
 6057SOL    HW219071   6.314   0.368   2.698
 6058SOL     OW19072   5.009   4.313   0.395
 6058SOL    HW119073   4.950   4.243   0.354
 6058SOL    HW219074   5.033   4.286   0.488
 6059SOL     OW19075   4.717   4.446   5.917
 6059SOL    HW119076   4.783   4.489   5.978
 6059SOL    HW219077   4.696   4.354   5.950
 6060SOL     OW19078   2.215   3.310   6.853
 6060SOL    HW119079   2.139   3.245   6.850
 6060SOL    HW219080   2.297   3.268   6.815
 6061SOL     OW19081   4.605   4.137   0.465
 6061SOL    HW119082   4.656   4.174   0.543
 6061SOL    HW219083   4.634   4.183   0.381
 6062SOL     OW19084   2.753   1.915   6.600
 6062SOL    HW119085   2.772   1.914   6.698
 6062SOL    HW219086   2.654   1.915   6.585
 6063SOL     OW19087   3.797   2.891   5.517
 6063SOL    HW119088   3.845   2.977   5.501
 6063SOL    HW219089   3.825   2.853   5.605
 6064SOL     OW19090   1.355   1.176   0.799
 6064SOL    HW119091   1.409   1.248   0.843
 6064SOL    HW219092   1.332   1.205   0.706
 6065SOL     OW19093   0.507   6.042   1.841
 6065SOL    HW119094   0.497   5.943   1.843
 6065SOL    HW219095   0.418   6.085   1.824
 6066SOL     OW19096   5.627   1.150   5.895
 6066SOL    HW119097   5.582   1.218   5.953
 6066SOL    HW219098   5.617   1.176   5.799
 6067SOL     OW19099   4.767   0.819   5.380
 6067SOL    HW119100   4.805   0.764   5.454
 6067SOL    HW219101   4.726   0.760   5.311
 6068SOL     OW19102   5.196   2.885   4.596
 6068SOL    HW119103   5.196   2.834   4.682
 6068SOL    HW219104   5.136   2.964   4.604
 6069SOL     OW19105   6.630   3.506   4.811
 6069SOL    HW119106   6.531   3.506   4.804
 6069SOL    HW219107   6.657   3.483   4.905
 6070SOL     OW19108   2.789   2.925   1.207
 6070SOL    HW119109   2.733   2.842   1.212
 6070SOL    HW219110   2.885   2.899   1.193
 6071SOL     OW19111   0.861   5.975   4.562
 6071SOL    HW119112   0.795   6.050   4.561
 6071SOL    HW219113   0.843   5.915   4.484
 6072SOL     OW19114   0.303   0.742   1.541
 6072SOL    HW119115   0.369   0.717   1.612
 6072SOL    HW219116   0.239   0.810   1.579
 6073SOL     OW19117   5.006   3.235   0.891
 6073SOL    HW119118   4.960   3.170   0.830
 6073SOL    HW219119   4.958   3.237   0.979
 6074SOL     OW19120   1.816   5.987   1.905
 6074SOL    HW119121   1.723   6.021   1.898
 6074SOL    HW219122   1.854   5.974   1.814
 6075SOL     OW19123   4.849   0.190   5.032
 6075SOL    HW119124   4.936   0.225   5.067
 6075SOL    HW219125   4.858   0.093   5.012
 6076SOL     OW19126   2.731   5.314   3.043
 6076SOL    HW119127   2.758   5.298   3.139
 6076SOL    HW219128   2.795   5.378   3.001
 6077SOL     OW19129   6.336   5.311   0.940
 6077SOL    HW119130   6.365   5.396   0.984
 6077SOL    HW219131   6.254   5.277   0.985
 6078SOL     OW19132   4.496   5.196   6.949
 6078SOL    HW119133   4.422   5.258   6.924
 6078SOL    HW219134   4.573   5.248   6.985
 6079SOL     OW19135   5.280   4.402   6.786
 6079SOL    HW119136   5.250   4.460   6.862
 6079SOL    HW219137   5.337   4.329   6.821
 6080SOL     OW19138   0.177   5.706   0.465
 6080SOL    HW119139   0.239   5.663   0.531
 6080SOL    HW219140   0.180   5.805   0.477
 6081SOL     OW19141   0.163   2.608   5.697
 6081SOL    HW119142   0.215   2.556   5.765
 6081SOL    HW219143   0.072   2.628   5.732
 6082SOL     OW19144   3.161   6.839   2.547
 6082SOL    HW119145   3.089   6.851   2.478
 6082SOL    HW219146   3.237   6.790   2.506
 6083SOL     OW19147   5.794   5.845   0.991
 6083SOL    HW119148   5.825   5.750   0.987
 6083SOL    HW219149   5.702   5.848   1.031
 6084SOL     OW19150   0.793   6.822   2.365
 6084SOL    HW119151   0.825   6.738   2.321
 6084SOL    HW219152   0.793   6.810   2.464
 6085SOL     OW19153   6.770   6.142   6.784
 6085SOL    HW119154   6.805   6.066   6.839
 6085SOL    HW219155   6.834   6.163   6.710
 6086SOL     OW19156   2.435   2.219   6.013
 6086SOL    HW119157   2.530   2.202   5.987
 6086SOL    HW219158   2.430   2.237   6.111
 6087SOL     OW19159   3.579   5.759   1.196
 6087SOL    HW119160   3.615   5.762   1.290
 6087SOL    HW219161   3.654   5.772   1.132
 6088SOL     OW19162   5.891   6.969   4.322
 6088SOL    HW119163   5.838   6.974   4.407
 6088SOL    HW219164   5.972   6.912   4.336
 6089SOL     OW19165   6.106   2.477   3.150
 6089SOL    HW119166   6.090   2.446   3.244
 6089SOL    HW219167   6.019   2.485   3.102
 6090SOL     OW19168   2.272   4.949   4.723
 6090SOL    HW119169   2.280   4.907   4.632
 6090SOL    HW219170   2.295   4.882   4.793
 6091SOL     OW19171   2.531   1.625   0.132
 6091SOL    HW119172   2.598   1.641   0.059
 6091SOL    HW219173   2.555   1.542   0.182
 6092SOL     OW19174   4.494   1.043   2.214
 6092SOL    HW119175   4.427   0.991   2.161
 6092SOL    HW219176   4.465   1.048   2.309
 6093SOL     OW19177   2.151   2.425   1.681
 6093SOL    HW119178   2.226   2.398   1.620
 6093SOL    HW219179   2.084   2.479   1.629
 6094SOL     OW19180   1.479   5.950   3.311
 6094SOL    HW119181   1.461   5.958   3.409
 6094SOL    HW219182   1.573   5.919   3.296
 6095SOL     OW19183   4.669   4.899   0.151
 6095SOL    HW119184   4.573   4.891   0.179
 6095SOL    HW219185   4.674   4.898   0.051
 6096SOL     OW19186   6.408   6.824   2.261
 6096SOL    HW119187   6.328   6.792   2.211
 6096SOL    HW219188   6.489   6.772   2.231
 6097SOL     OW19189   2.172   5.278   2.273
 6097SOL    HW119190   2.128   5.209   2.215
 6097SOL    HW219191   2.107   5.351   2.293
 6098SOL     OW19192   0.206   1.458   6.039
 6098SOL    HW119193   0.110   1.476   6.055
 6098SOL    HW219194   0.226   1.363   6.062
 6099SOL     OW19195   5.108   6.001   5.528
 6099SOL    HW119196   5.157   6.075   5.480
 6099SOL    HW219197   5.144   5.913   5.497
 6100SOL     OW19198   6.076   6.166   2.079
 6100SOL    HW119199   6.070   6.140   1.983
 6100SOL    HW219200   6.009   6.237   2.099
 6101SOL     OW19201   6.868   2.951   2.937
 6101SOL    HW119202   6.785   3.006   2.937
 6101SOL    HW219203   6.911   2.954   2.847
 6102SOL     OW19204   4.298   5.712   2.997
 6102SOL    HW119205   4.390   5.710   3.037
 6102SOL    HW219206   4.232   5.739   3.067
 6103SOL     OW19207   6.086   0.938   1.357
 6103SOL    HW119208   6.112   1.034   1.368
 6103SOL    HW219209   6.022   0.913   1.429
 6104SOL     OW19210   5.705   6.794   5.287
 6104SOL    HW119211   5.741   6.843   5.367
 6104SOL    HW219212   5.606   6.783   5.297
 6105SOL     OW19213   2.030   5.664   5.872
 6105SOL    HW119214   1.974   5.631   5.796
 6105SOL    HW219215   2.068   5.753   5.848
 6106SOL     OW19216   1.438   5.025   6.428
 6106SOL    HW119217   1.468   4.932   6.405
 6106SOL    HW219218   1.517   5.082   6.449
 6107SOL     OW19219   5.066   5.579   5.267
 6107SOL    HW119220   5.045   5.482   5.280
 6107SOL    HW219221   5.147   5.588   5.209
 6108SOL     OW19222   2.575   2.553   3.468
 6108SOL    HW119223   2.485   2.596   3.469
 6108SOL    HW219224   2.583   2.494   3.388
 6109SOL     OW19225   5.659   1.573   5.679
 6109SOL    HW119226   5.664   1.666   5.715
 6109SOL    HW219227   5.724   1.563   5.603
 6110SOL     OW19228   2.402   3.151   1.039
 6110SOL    HW119229   2.326   3.087   1.032
 6110SOL    HW219230   2.387   3.227   0.975
 6111SOL     OW19231   1.139   3.237   2.373
 6111SOL    HW119232   1.189   3.246   2.459
 6111SOL    HW219233   1.052   3.191   2.390
 6112SOL     OW19234   4.106   0.608   2.568
 6112SOL    HW119235   4.014   0.636   2.540
 6112SOL    HW219236   4.166   0.603   2.488
 6113SOL     OW19237   2.570   2.503   6.659
 6113SOL    HW119238   2.538   2.563   6.586
 6113SOL    HW219239   2.604   2.559   6.735
 6114SOL     OW19240   4.762   4.011   3.110
 6114SOL    HW119241   4.753   3.936   3.176
 6114SOL    HW219242   4.817   3.980   3.032
 6115SOL     OW19243   6.065   0.790   4.458
 6115SOL    HW119244   6.146   0.733   4.467
 6115SOL    HW219245   6.058   0.852   4.536
 6116SOL     OW19246   3.747   1.416   6.243
 6116SOL    HW119247   3.664   1.462   6.275
 6116SOL    HW219248   3.746   1.320   6.272
 6117SOL     OW19249   2.327   1.707   3.550
 6117SOL    HW119250   2.390   1.740   3.479
 6117SOL    HW219251   2.244   1.672   3.507
 6118SOL     OW19252   5.789   1.324   1.270
 6118SOL    HW119253   5.805   1.277   1.183
 6118SOL    HW219254   5.735   1.407   1.253
 6119SOL     OW19255   1.203   4.046   0.300
 6119SOL    HW119256   1.208   4.119   0.368
 6119SOL    HW219257   1.251   3.966   0.334
 6120SOL     OW19258   2.124   6.522   5.456
 6120SOL    HW119259   2.173   6.435   5.458
 6120SOL    HW219260   2.042   6.515   5.513
 6121SOL     OW19261   1.486   3.302   5.196
 6121SOL    HW119262   1.555   3.234   5.170
 6121SOL    HW219263   1.499   3.385   5.141
 6122SOL     OW19264   4.213   5.601   6.701
 6122SOL    HW119265   4.229   5.552   6.615
 6122SOL    HW219266   4.116   5.598   6.724
 6123SOL     OW19267   5.088   6.788   5.985
 6123SOL    HW119268   5.166   6.727   5.976
 6123SOL    HW219269   5.003   6.737   5.975
 6124SOL     OW19270   1.014   6.896   6.221
 6124SOL    HW119271   1.046   6.805   6.192
 6124SOL    HW219272   0.978   6.890   6.314
 6125SOL     OW19273   2.302   3.783   0.239
 6125SOL    HW119274   2.301   3.828   0.328
 6125SOL    HW219275   2.391   3.798   0.195
 6126SOL     OW19276   0.049   0.634   4.846
 6126SOL    HW119277   0.088   0.611   4.935
 6126SOL    HW219278   0.051   0.733   4.833
 6127SOL     OW19279   3.747   0.072   1.544
 6127SOL    HW119280   3.739   0.148   1.609
 6127SOL    HW219281   3.743   7.002   1.593
 6128SOL     OW19282   5.415   5.531   1.080
 6128SOL    HW119283   5.382   5.599   1.146
 6128SOL    HW219284   5.422   5.442   1.124
 6129SOL     OW19285   0.720   3.304   2.592
 6129SOL    HW119286   0.656   3.239   2.634
 6129SOL    HW219287   0.804   3.308   2.646
 6130SOL     OW19288   4.953   2.660   2.637
 6130SOL    HW119289   4.932   2.564   2.617
 6130SOL    HW219290   5.026   2.691   2.576
 6131SOL     OW19291   0.997   1.606   3.272
 6131SOL    HW119292   0.948   1.690   3.251
 6131SOL    HW219293   1.046   1.616   3.359
 6132SOL     OW19294   3.527   1.797   6.645
 6132SOL    HW119295   3.591   1.836   6.578
 6132SOL    HW219296   3.529   1.697   6.638
 6133SOL     OW19297   2.205   3.163   3.287
 6133SOL    HW119298   2.264   3.083   3.302
 6133SOL    HW219299   2.161   3.155   3.197
 6134SOL     OW19300   4.542   6.568   6.781
 6134SOL    HW119301   4.566   6.596   6.689
 6134SOL    HW219302   4.447   6.594   6.800
 6135SOL     OW19303   0.403   5.786   1.034
 6135SOL    HW119304   0.450   5.783   0.946
 6135SOL    HW219305   0.374   5.880   1.053
 6136SOL     OW19306   0.926   2.211   1.804
 6136SOL    HW119307   0.985   2.264   1.743
 6136SOL    HW219308   0.843   2.186   1.755
 6137SOL     OW19309   6.734   4.174   2.528
 6137SOL    HW119310   6.791   4.137   2.602
 6137SOL    HW219311   6.696   4.098   2.475
 6138SOL     OW19312   3.155   6.754   3.308
 6138SOL    HW119313   3.132   6.699   3.229
 6138SOL    HW219314   3.118   6.846   3.297
 6139SOL     OW19315   1.046   0.073   5.669
 6139SOL    HW119316   1.092   0.094   5.583
 6139SOL    HW219317   0.975   0.004   5.652
 6140SOL     OW19318   0.748   0.440   1.915
 6140SOL    HW119319   0.839   0.465   1.948
 6140SOL    HW219320   0.741   0.340   1.909
 6141SOL     OW19321   0.196   0.109   6.494
 6141SOL    HW119322   0.131   0.050   6.446
 6141SOL    HW219323   0.183   0.204   6.465
 6142SOL     OW19324   6.989   5.509   6.487
 6142SOL    HW119325   6.966   5.574   6.559
 6142SOL    HW219326   6.962   5.546   6.398
 6143SOL     OW19327   6.598   4.480   0.777
 6143SOL    HW119328   6.574   4.384   0.792
 6143SOL    HW219329   6.521   4.538   0.803
 6144SOL     OW19330   5.232   4.882   4.185
 6144SOL    HW119331   5.189   4.972   4.181
 6144SOL    HW219332   5.244   4.855   4.281
 6145SOL     OW19333   5.301   4.808   4.437
 6145SOL    HW119334   5.392   4.815   4.477
 6145SOL    HW219335   5.232   4.813   4.510
 6146SOL     OW19336   3.167   5.498   3.883
 6146SOL    HW119337   3.134   5.566   3.948
 6146SOL    HW219338   3.233   5.540   3.821
 6147SOL     OW19339   2.358   2.360   5.165
 6147SOL    HW119340   2.390   2.313   5.082
 6147SOL    HW219341   2.280   2.418   5.143
 6148SOL     OW19342   4.472   6.166   5.138
 6148SOL    HW119343   4.472   6.215   5.226
 6148SOL    HW219344   4.447   6.230   5.065
 6149SOL     OW19345   2.709   6.898   1.468
 6149SOL    HW119346   2.705   6.849   1.555
 6149SOL    HW219347   2.679   6.993   1.482
 6150SOL     OW19348   6.095   4.220   6.921
 6150SOL    HW119349   6.068   4.216   6.824
 6150SOL    HW219350   6.144   4.305   6.939
 6151SOL     OW19351   6.299   4.878   5.631
 6151SOL    HW119352   6.338   4.914   5.546
 6151SOL    HW219353   6.225   4.814   5.610
 6152SOL     OW19354   0.621   6.270   4.630
 6152SOL    HW119355   0.533   6.299   4.592
 6152SOL    HW219356   0.612   6.180   4.670
 6153SOL     OW19357   5.712   4.943   1.138
 6153SOL    HW119358   5.732   4.943   1.236
 6153SOL    HW219359   5.767   5.013   1.093
 6154SOL     OW19360   5.698   2.913   2.227
 6154SOL    HW119361   5.732   3.006   2.222
 6154SOL    HW219362   5.670   2.883   2.136
 6155SOL     OW19363   3.055   1.378   2.745
 6155SOL    HW119364   2.971   1.386   2.690
 6155SOL    HW219365   3.036   1.328   2.829
 6156SOL     OW19366   4.628   4.731   1.801
 6156SOL    HW119367   4.607   4.763   1.893
 6156SOL    HW219368   4.634   4.631   1.801
 6157SOL     OW19369   0.170   2.579   3.210
 6157SOL    HW119370   0.110   2.586   3.130
 6157SOL    HW219371   0.175   2.669   3.255
 6158SOL     OW19372   3.880   2.299   6.449
 6158SOL    HW119373   3.918   2.295   6.541
 6158SOL    HW219374   3.876   2.394   6.418
 6159SOL     OW19375   4.244   2.068   0.163
 6159SOL    HW119376   4.332   2.111   0.145
 6159SOL    HW219377   4.174   2.108   0.105
 6160SOL     OW19378   5.758   0.460   6.465
 6160SOL    HW119379   5.671   0.472   6.418
 6160SOL    HW219380   5.774   0.537   6.527
 6161SOL     OW19381   5.614   1.182   6.994
 6161SOL    HW119382   5.610   1.263   6.935
 6161SOL    HW219383   5.648   1.208   0.067
 6162SOL     OW19384   6.164   6.734   4.275
 6162SOL    HW119385   6.092   6.679   4.316
 6162SOL    HW219386   6.251   6.713   4.319
 6163SOL     OW19387   4.974   5.792   1.953
 6163SOL    HW119388   4.989   5.862   2.023
 6163SOL    HW219389   4.930   5.712   1.994
 6164SOL     OW19390   3.363   4.065   4.422
 6164SOL    HW119391   3.265   4.071   4.401
 6164SOL    HW219392   3.379   4.104   4.513
 6165SOL     OW19393   4.632   1.488   6.116
 6165SOL    HW119394   4.583   1.493   6.203
 6165SOL    HW219395   4.641   1.392   6.089
 6166SOL     OW19396   5.671   1.668   0.228
 6166SOL    HW119397   5.631   1.682   0.319
 6166SOL    HW219398   5.764   1.704   0.227
 6167SOL     OW19399   1.300   4.573   2.751
 6167SOL    HW119400   1.368   4.577   2.823
 6167SOL    HW219401   1.210   4.552   2.791
 6168SOL     OW19402   0.880   3.609   3.440
 6168SOL    HW119403   0.897   3.697   3.484
 6168SOL    HW219404   0.782   3.597   3.425
 6169SOL     OW19405   1.345   1.924   0.442
 6169SOL    HW119406   1.412   1.917   0.515
 6169SOL    HW219407   1.256   1.893   0.475
 6170SOL     OW19408   3.010   3.804   6.001
 6170SOL    HW119409   2.949   3.738   6.044
 6170SOL    HW219410   2.992   3.895   6.039
 6171SOL     OW19411   1.953   3.746   1.443
 6171SOL    HW119412   2.038   3.782   1.480
 6171SOL    HW219413   1.876   3.778   1.498
 6172SOL     OW19414   1.224   1.139   3.636
 6172SOL    HW119415   1.248   1.042   3.644
 6172SOL    HW219416   1.154   1.161   3.703
 6173SOL     OW19417   6.603   5.025   2.384
 6173SOL    HW119418   6.559   5.024   2.293
 6173SOL    HW219419   6.571   5.104   2.435
 6174SOL     OW19420   6.369   5.349   3.052
 6174SOL    HW119421   6.344   5.291   3.129
 6174SOL    HW219422   6.341   5.305   2.967
 6175SOL     OW19423   5.217   0.795   3.862
 6175SOL    HW119424   5.266   0.809   3.776
 6175SOL    HW219425   5.249   0.711   3.906
 6176SOL     OW19426   6.591   3.133   0.084
 6176SOL    HW119427   6.680   3.098   0.056
 6176SOL    HW219428   6.590   3.232   0.074
 6177SOL     OW19429   5.773   1.712   1.796
 6177SOL    HW119430   5.856   1.680   1.751
 6177SOL    HW219431   5.730   1.637   1.846
 6178SOL     OW19432   4.620   5.013   2.807
 6178SOL    HW119433   4.705   4.965   2.828
 6178SOL    HW219434   4.625   5.053   2.716
 6179SOL     OW19435   6.408   4.623   4.497
 6179SOL    HW119436   6.435   4.687   4.425
 6179SOL    HW219437   6.312   4.599   4.485
 6180SOL     OW19438   3.372   6.210   6.567
 6180SOL    HW119439   3.361   6.167   6.657
 6180SOL    HW219440   3.420   6.147   6.506
 6181SOL     OW19441   3.955   6.679   1.397
 6181SOL    HW119442   4.037   6.726   1.363
 6181SOL    HW219443   3.874   6.731   1.370
 6182SOL     OW19444   5.748   3.378   5.649
 6182SOL    HW119445   5.799   3.464   5.643
 6182SOL    HW219446   5.656   3.396   5.683
 6183SOL     OW19447   2.459   0.316   2.724
 6183SOL    HW119448   2.486   0.387   2.789
 6183SOL    HW219449   2.471   0.226   2.765
 6184SOL     OW19450   1.535   6.912   6.842
 6184SOL    HW119451   1.574   6.957   6.923
 6184SOL    HW219452   1.463   6.969   6.804
 6185SOL     OW19453   0.200   4.624   6.326
 6185SOL    HW119454   0.236   4.701   6.275
 6185SOL    HW219455   0.267   4.550   6.328
 6186SOL     OW19456   6.079   6.524   5.495
 6186SOL    HW119457   6.063   6.436   5.451
 6186SOL    HW219458   6.031   6.526   5.583
 6187SOL     OW19459   4.361   4.733   4.372
 6187SOL    HW119460   4.383   4.652   4.318
 6187SOL    HW219461   4.331   4.705   4.463
 6188SOL     OW19462   2.430   0.402   0.529
 6188SOL    HW119463   2.418   0.322   0.588
 6188SOL    HW219464   2.505   0.458   0.564
 6189SOL     OW19465   4.595   4.323   4.048
 6189SOL    HW119466   4.605   4.225   4.030
 6189SOL    HW219467   4.680   4.359   4.088
 6190SOL     OW19468   6.643   3.828   6.074
 6190SOL    HW119469   6.582   3.873   6.009
 6190SOL    HW219470   6.598   3.747   6.111
 6191SOL     OW19471   4.251   3.006   6.573
 6191SOL    HW119472   4.245   2.910   6.600
 6191SOL    HW219473   4.160   3.044   6.564
 6192SOL     OW19474   2.726   3.267   6.484
 6192SOL    HW119475   2.645   3.238   6.433
 6192SOL    HW219476   2.724   3.227   6.575
 6193SOL     OW19477   5.251   0.953   2.659
 6193SOL    HW119478   5.315   1.017   2.702
 6193SOL    HW219479   5.244   0.974   2.562
 6194SOL     OW19480   1.170   6.954   0.614
 6194SOL    HW119481   1.106   6.971   0.688
 6194SOL    HW219482   1.123   6.962   0.526
 6195SOL     OW19483   3.936   6.044   5.616
 6195SOL    HW119484   4.011   6.032   5.551
 6195SOL    HW219485   3.853   6.069   5.567
 6196SOL     OW19486   6.023   1.866   1.234
 6196SOL    HW119487   6.017   1.823   1.324
 6196SOL    HW219488   6.015   1.965   1.244
 6197SOL     OW19489   4.151   4.858   0.314
 6197SOL    HW119490   4.053   4.859   0.290
 6197SOL    HW219491   4.160   4.846   0.413
 6198SOL     OW19492   3.216   5.416   2.192
 6198SOL    HW119493   3.260   5.440   2.279
 6198SOL    HW219494   3.228   5.490   2.126
 6199SOL     OW19495   1.201   0.217   1.050
 6199SOL    HW119496   1.133   0.177   1.111
 6199SOL    HW219497   1.158   0.244   0.964
 6200SOL     OW19498   2.116   1.137   5.142
 6200SOL    HW119499   2.171   1.053   5.150
 6200SOL    HW219500   2.077   1.159   5.231
 6201SOL     OW19501   1.614   3.873   5.025
 6201SOL    HW119502   1.594   3.842   4.932
 6201SOL    HW219503   1.651   3.966   5.022
 6202SOL     OW19504   3.943   1.509   1.592
 6202SOL    HW119505   4.005   1.439   1.627
 6202SOL    HW219506   3.927   1.577   1.664
 6203SOL     OW19507   5.835   6.804   3.174
 6203SOL    HW119508   5.819   6.732   3.242
 6203SOL    HW219509   5.786   6.782   3.090
 6204SOL     OW19510   1.006   5.188   4.621
 6204SOL    HW119511   0.990   5.097   4.584
 6204SOL    HW219512   1.010   5.184   4.721
 6205SOL     OW19513   6.243   6.210   0.306
 6205SOL    HW119514   6.166   6.252   0.354
 6205SOL    HW219515   6.308   6.173   0.372
 6206SOL     OW19516   0.036   0.507   2.687
 6206SOL    HW119517   0.044   0.498   2.786
 6206SOL    HW219518   0.015   0.602   2.663
 6207SOL     OW19519   1.611   4.980   3.918
 6207SOL    HW119520   1.620   4.881   3.927
 6207SOL    HW219521   1.670   5.025   3.985
 6208SOL     OW19522   6.064   1.654   6.435
 6208SOL    HW119523   6.159   1.646   6.465
 6208SOL    HW219524   6.010   1.696   6.508
 6209SOL     OW19525   4.371   5.703   6.884
 6209SOL    HW119526   4.322   5.668   6.804
 6209SOL    HW219527   4.428   5.780   6.858
 6210SOL     OW19528   5.972   4.365   4.061
 6210SOL    HW119529   6.039   4.291   4.063
 6210SOL    HW219530   5.923   4.363   3.973
 6211SOL     OW19531   3.008   5.969   5.277
 6211SOL    HW119532   2.924   5.944   5.230
 6211SOL    HW219533   3.010   6.068   5.291
 6212SOL     OW19534   2.237   4.958   2.623
 6212SOL    HW119535   2.175   5.023   2.665
 6212SOL    HW219536   2.273   4.896   2.693
 6213SOL     OW19537   5.196   0.298   0.176
 6213SOL    HW119538   5.115   0.288   0.118
 6213SOL    HW219539   5.269   0.343   0.125
 6214SOL     OW19540   4.391   4.926   4.098
 6214SOL    HW119541   4.447   4.844   4.091
 6214SOL    HW219542   4.298   4.901   4.124
 6215SOL     OW19543   4.396   1.929   0.676
 6215SOL    HW119544   4.425   1.983   0.597
 6215SOL    HW219545   4.301   1.900   0.663
 6216SOL     OW19546   6.232   1.978   2.295
 6216SOL    HW119547   6.323   2.003   2.327
 6216SOL    HW219548   6.185   2.059   2.261
 6217SOL     OW19549   0.241   3.045   2.642
 6217SOL    HW119550   0.236   2.946   2.640
 6217SOL    HW219551   0.150   3.084   2.630
 6218SOL     OW19552   3.425   4.962   5.703
 6218SOL    HW119553   3.455   4.990   5.612
 6218SOL    HW219554   3.327   4.978   5.712
 6219SOL     OW19555   1.140   2.202   4.403
 6219SOL    HW119556   1.209   2.130   4.411
 6219SOL    HW219557   1.183   2.291   4.414
 6220SOL     OW19558   1.657   2.826   5.089
 6220SOL    HW119559   1.651   2.839   4.990
 6220SOL    HW219560   1.581   2.768   5.120
 6221SOL     OW19561   6.046   5.752   6.830
 6221SOL    HW119562   6.090   5.726   6.744
 6221SOL    HW219563   5.947   5.750   6.818
 6222SOL     OW19564   0.777   5.948   0.966
 6222SOL    HW119565   0.748   5.871   1.023
 6222SOL    HW219566   0.874   5.966   0.982
 6223SOL     OW19567   0.541   4.707   4.415
 6223SOL    HW119568   0.565   4.646   4.491
 6223SOL    HW219569   0.452   4.679   4.377
 6224SOL     OW19570   2.678   1.936   6.168
 6224SOL    HW119571   2.710   2.029   6.181
 6224SOL    HW219572   2.583   1.928   6.200
 6225SOL     OW19573   3.419   3.619   0.887
 6225SOL    HW119574   3.447   3.703   0.841
 6225SOL    HW219575   3.501   3.567   0.913
 6226SOL     OW19576   5.862   1.531   5.503
 6226SOL    HW119577   5.933   1.574   5.559
 6226SOL    HW219578   5.904   1.474   5.433
 6227SOL     OW19579   3.705   5.296   5.933
 6227SOL    HW119580   3.769   5.239   5.881
 6227SOL    HW219581   3.615   5.292   5.890
 6228SOL     OW19582   1.449   2.743   2.909
 6228SOL    HW119583   1.511   2.815   2.878
 6228SOL    HW219584   1.437   2.750   3.008
 6229SOL     OW19585   0.561   2.579   2.606
 6229SOL    HW119586   0.620   2.596   2.527
 6229SOL    HW219587   0.603   2.511   2.665
 6230SOL     OW19588   1.303   1.375   3.819
 6230SOL    HW119589   1.258   1.441   3.879
 6230SOL    HW219590   1.347   1.304   3.875
 6231SOL     OW19591   6.548   4.998   1.301
 6231SOL    HW119592   6.567   4.948   1.216
 6231SOL    HW219593   6.614   4.972   1.371
 6232SOL     OW19594   6.744   1.508   0.761
 6232SOL    HW119595   6.652   1.470   0.767
 6232SOL    HW219596   6.761   1.540   0.668
 6233SOL     OW19597   6.047   0.577   0.217
 6233SOL    HW119598   6.100   0.494   0.235
 6233SOL    HW219599   6.087   0.624   0.138
 6234SOL     OW19600   6.095   1.575   5.683
 6234SOL    HW119601   6.102   1.643   5.756
 6234SOL    HW219602   6.162   1.502   5.700
 6235SOL     OW19603   1.205   0.863   1.475
 6235SOL    HW119604   1.247   0.798   1.412
 6235SOL    HW219605   1.129   0.819   1.524
 6236SOL     OW19606   0.031   3.709   0.391
 6236SOL    HW119607   0.063   3.780   0.328
 6236SOL    HW219608   6.957   3.679   0.364
 6237SOL     OW19609   3.339   6.117   6.833
 6237SOL    HW119610   3.401   6.179   6.881
 6237SOL    HW219611   3.250   6.117   6.879
 6238SOL     OW19612   4.076   4.784   2.827
 6238SOL    HW119613   4.126   4.698   2.839
 6238SOL    HW219614   4.119   4.837   2.754
 6239SOL     OW19615   3.402   6.207   1.906
 6239SOL    HW119616   3.430   6.114   1.931
 6239SOL    HW219617   3.375   6.257   1.988
 6240SOL     OW19618   2.809   2.988   6.371
 6240SOL    HW119619   2.819   2.980   6.272
 6240SOL    HW219620   2.787   3.083   6.394
 6241SOL     OW19621   3.391   0.088   1.867
 6241SOL    HW119622   3.294   0.078   1.846
 6241SOL    HW219623   3.436   0.136   1.792
 6242SOL     OW19624   5.429   1.481   3.375
 6242SOL    HW119625   5.356   1.531   3.329
 6242SOL    HW219626   5.401   1.460   3.469
 6243SOL     OW19627   6.275   6.978   3.836
 6243SOL    HW119628   6.364   6.997   3.879
 6243SOL    HW219629   6.207   6.960   3.907
 6244SOL     OW19630   1.016   2.483   2.380
 6244SOL    HW119631   1.052   2.392   2.359
 6244SOL    HW219632   1.090   2.542   2.412
 6245SOL     OW19633   1.851   3.934   0.046
 6245SOL    HW119634   1.801   3.880   6.995
 6245SOL    HW219635   1.805   4.021   0.060
 6246SOL     OW19636   1.901   2.610   5.666
 6246SOL    HW119637   1.852   2.550   5.730
 6246SOL    HW219638   1.962   2.670   5.718
 6247SOL     OW19639   1.569   6.327   4.316
 6247SOL    HW119640   1.662   6.341   4.350
 6247SOL    HW219641   1.568   6.249   4.253
 6248SOL     OW19642   3.293   3.700   0.411
 6248SOL    HW119643   3.354   3.648   0.471
 6248SOL    HW219644   3.281   3.792   0.447
 6249SOL     OW19645   0.310   3.938   0.592
 6249SOL    HW119646   0.405   3.906   0.592
 6249SOL    HW219647   0.286   3.970   0.500
 6250SOL     OW19648   0.164   5.966   0.473
 6250SOL    HW119649   0.118   5.944   0.387
 6250SOL    HW219650   0.124   6.050   0.512
 6251SOL     OW19651   3.713   5.229   6.995
 6251SOL    HW119652   3.783   5.298   6.979
 6251SOL    HW219653   3.734   5.147   6.942
 6252SOL     OW19654   1.095   6.913   5.944
 6252SOL    HW119655   1.153   6.979   5.897
 6252SOL    HW219656   1.117   6.915   6.042
 6253SOL     OW19657   2.193   4.267   2.986
 6253SOL    HW119658   2.253   4.310   3.053
 6253SOL    HW219659   2.246   4.239   2.906
 6254SOL     OW19660   4.927   1.592   0.503
 6254SOL    HW119661   4.896   1.529   0.433
 6254SOL    HW219662   5.001   1.551   0.556
 6255SOL     OW19663   2.915   0.488   1.109
 6255SOL    HW119664   2.951   0.397   1.087
 6255SOL    HW219665   2.851   0.517   1.038
 6256SOL     OW19666   3.326   5.203   2.545
 6256SOL    HW119667   3.250   5.209   2.480
 6256SOL    HW219668   3.324   5.113   2.590
 6257SOL     OW19669   4.581   2.078   0.843
 6257SOL    HW119670   4.509   2.077   0.773
 6257SOL    HW219671   4.543   2.110   0.930
 6258SOL     OW19672   4.114   0.126   3.627
 6258SOL    HW119673   4.151   0.201   3.681
 6258SOL    HW219674   4.176   0.105   3.551
 6259SOL     OW19675   2.649   2.596   0.587
 6259SOL    HW119676   2.665   2.507   0.629
 6259SOL    HW219677   2.725   2.658   0.609
 6260SOL     OW19678   3.376   5.472   0.391
 6260SOL    HW119679   3.297   5.426   0.351
 6260SOL    HW219680   3.401   5.551   0.334
 6261SOL     OW19681   3.876   0.474   6.048
 6261SOL    HW119682   3.972   0.451   6.029
 6261SOL    HW219683   3.836   0.406   6.108
 6262SOL     OW19684   1.701   5.661   0.915
 6262SOL    HW119685   1.677   5.668   0.818
 6262SOL    HW219686   1.751   5.576   0.931
 6263SOL     OW19687   6.594   0.255   5.476
 6263SOL    HW119688   6.551   0.202   5.549
 6263SOL    HW219689   6.654   0.324   5.516
 6264SOL     OW19690   1.061   6.416   1.908
 6264SOL    HW119691   1.007   6.344   1.951
 6264SOL    HW219692   1.073   6.491   1.973
 6265SOL     OW19693   3.210   3.921   0.557
 6265SOL    HW119694   3.202   4.019   0.572
 6265SOL    HW219695   3.137   3.874   0.607
 6266SOL     OW19696   4.069   6.762   4.653
 6266SOL    HW119697   4.042   6.769   4.750
 6266SOL    HW219698   4.024   6.684   4.611
 6267SOL     OW19699   2.741   0.887   6.660
 6267SOL    HW119700   2.700   0.967   6.703
 6267SOL    HW219701   2.726   0.807   6.716
 6268SOL     OW19702   3.589   6.704   3.626
 6268SOL    HW119703   3.625   6.797   3.622
 6268SOL    HW219704   3.545   6.689   3.715
 6269SOL     OW19705   6.315   5.769   2.099
 6269SOL    HW119706   6.346   5.701   2.032
 6269SOL    HW219707   6.247   5.729   2.160
 6270SOL     OW19708   1.828   0.614   4.663
 6270SOL    HW119709   1.860   0.577   4.750
 6270SOL    HW219710   1.746   0.669   4.678
 6271SOL     OW19711   5.789   2.282   6.225
 6271SOL    HW119712   5.698   2.312   6.197
 6271SOL    HW219713   5.806   2.189   6.192
 6272SOL     OW19714   0.164   2.085   0.373
 6272SOL    HW119715   0.260   2.076   0.347
 6272SOL    HW219716   0.157   2.128   0.463
 6273SOL     OW19717   1.470   6.260   2.755
 6273SOL    HW119718   1.504   6.293   2.843
 6273SOL    HW219719   1.497   6.323   2.683
 6274SOL     OW19720   2.153   5.902   5.802
 6274SOL    HW119721   2.230   5.918   5.741
 6274SOL    HW219722   2.159   5.963   5.880
 6275SOL     OW19723   2.107   6.207   5.165
 6275SOL    HW119724   2.153   6.119   5.179
 6275SOL    HW219725   2.037   6.197   5.094
 6276SOL     OW19726   2.034   4.544   2.929
 6276SOL    HW119727   2.043   4.445   2.939
 6276SOL    HW219728   2.064   4.588   3.013
 6277SOL     OW19729   5.666   3.508   1.716
 6277SOL    HW119730   5.610   3.432   1.681
 6277SOL    HW219731   5.759   3.475   1.734
 6278SOL     OW19732   5.465   6.642   4.647
 6278SOL    HW119733   5.406   6.713   4.686
 6278SOL    HW219734   5.515   6.679   4.569
 6279SOL     OW19735   3.855   0.260   6.595
 6279SOL    HW119736   3.785   0.242   6.526
 6279SOL    HW219737   3.917   0.182   6.601
 6280SOL     OW19738   0.945   1.939   4.908
 6280SOL    HW119739   0.938   1.886   4.823
 6280SOL    HW219740   0.930   2.036   4.888
 6281SOL     OW19741   1.353   4.997   3.424
 6281SOL    HW119742   1.381   4.978   3.330
 6281SOL    HW219743   1.377   4.920   3.483
 6282SOL     OW19744   1.307   6.850   4.740
 6282SOL    HW119745   1.222   6.866   4.789
 6282SOL    HW219746   1.288   6.838   4.642
 6283SOL     OW19747   6.972   3.010   5.891
 6283SOL    HW119748   0.002   3.071   5.955
 6283SOL    HW219749   6.958   2.921   5.935
 6284SOL     OW19750   1.834   5.254   4.731
 6284SOL    HW119751   1.934   5.248   4.725
 6284SOL    HW219752   1.798   5.291   4.646
 6285SOL     OW19753   0.737   3.616   4.152
 6285SOL    HW119754   0.827   3.658   4.143
 6285SOL    HW219755   0.680   3.643   4.075
 6286SOL     OW19756   6.354   1.857   3.785
 6286SOL    HW119757   6.351   1.799   3.703
 6286SOL    HW219758   6.437   1.912   3.784
 6287SOL     OW19759   3.531   5.224   3.963
 6287SOL    HW119760   3.436   5.253   3.976
 6287SOL    HW219761   3.588   5.305   3.948
 6288SOL     OW19762   5.417   4.736   2.748
 6288SOL    HW119763   5.341   4.714   2.809
 6288SOL    HW219764   5.486   4.663   2.753
 6289SOL     OW19765   1.811   4.853   1.686
 6289SOL    HW119766   1.811   4.899   1.598
 6289SOL    HW219767   1.778   4.915   1.757
 6290SOL     OW19768   6.308   4.021   4.239
 6290SOL    HW119769   6.272   4.089   4.175
 6290SOL    HW219770   6.383   3.971   4.195
 6291SOL     OW19771   3.340   2.900   4.657
 6291SOL    HW119772   3.382   2.822   4.609
 6291SOL    HW219773   3.287   2.954   4.591
 6292SOL     OW19774   1.731   2.152   3.755
 6292SOL    HW119775   1.757   2.099   3.836
 6292SOL    HW219776   1.634   2.137   3.736
 6293SOL     OW19777   4.011   0.433   7.001
 6293SOL    HW119778   3.957   0.517   7.008
 6293SOL    HW219779   4.042   0.405   0.075
 6294SOL     OW19780   3.540   4.927   4.489
 6294SOL    HW119781   3.571   4.832   4.496
 6294SOL    HW219782   3.526   4.950   4.393
 6295SOL     OW19783   5.612   4.969   5.657
 6295SOL    HW119784   5.566   4.997   5.572
 6295SOL    HW219785   5.608   5.044   5.723
 6296SOL     OW19786   0.088   6.722   5.813
 6296SOL    HW119787   0.039   6.694   5.896
 6296SOL    HW219788   0.077   6.821   5.799
 6297SOL     OW19789   4.842   6.410   4.395
 6297SOL    HW119790   4.874   6.339   4.459
 6297SOL    HW219791   4.885   6.396   4.306
 6298SOL     OW19792   1.571   2.706   6.599
 6298SOL    HW119793   1.595   2.788   6.651
 6298SOL    HW219794   1.480   2.719   6.558
 6299SOL     OW19795   5.117   1.396   0.047
 6299SOL    HW119796   5.183   1.375   6.992
 6299SOL    HW219797   5.156   1.463   0.111
 6300SOL     OW19798   5.589   0.253   0.213
 6300SOL    HW119799   5.643   0.254   0.297
 6300SOL    HW219800   5.547   0.342   0.199
 6301SOL     OW19801   3.733   0.897   0.498
 6301SOL    HW119802   3.713   0.816   0.552
 6301SOL    HW219803   3.650   0.954   0.492
 6302SOL     OW19804   1.865   0.031   3.489
 6302SOL    HW119805   1.831   0.119   3.522
 6302SOL    HW219806   1.799   7.008   3.426
 6303SOL     OW19807   1.598   1.381   4.276
 6303SOL    HW119808   1.531   1.447   4.243
 6303SOL    HW219809   1.555   1.318   4.340
 6304SOL     OW19810   2.504   1.539   1.226
 6304SOL    HW119811   2.508   1.588   1.313
 6304SOL    HW219812   2.420   1.563   1.177
 6305SOL     OW19813   5.464   6.820   1.663
 6305SOL    HW119814   5.524   6.899   1.674
 6305SOL    HW219815   5.487   6.773   1.578
 6306SOL     OW19816   1.067   3.611   3.995
 6306SOL    HW119817   1.050   3.660   4.081
 6306SOL    HW219818   1.014   3.653   3.921
 6307SOL     OW19819   4.077   4.339   5.531
 6307SOL    HW119820   4.117   4.348   5.622
 6307SOL    HW219821   3.978   4.349   5.537
 6308SOL     OW19822   2.282   2.293   4.715
 6308SOL    HW119823   2.261   2.381   4.757
 6308SOL    HW219824   2.198   2.240   4.704
 6309SOL     OW19825   5.411   4.200   4.870
 6309SOL    HW119826   5.461   4.115   4.851
 6309SOL    HW219827   5.424   4.225   4.966
 6310SOL     OW19828   1.971   6.097   3.390
 6310SOL    HW119829   1.967   6.032   3.466
 6310SOL    HW219830   1.889   6.154   3.391
 6311SOL     OW19831   4.922   0.659   5.585
 6311SOL    HW119832   4.910   0.581   5.524
 6311SOL    HW219833   5.014   0.657   5.624
 6312SOL     OW19834   5.582   5.314   5.266
 6312SOL    HW119835   5.650   5.383   5.241
 6312SOL    HW219836   5.620   5.223   5.251
 6313SOL     OW19837   1.391   6.320   4.097
 6313SOL    HW119838   1.430   6.360   4.014
 6313SOL    HW219839   1.431   6.364   4.177
 6314SOL     OW19840   3.930   6.308   1.701
 6314SOL    HW119841   3.924   6.300   1.800
 6314SOL    HW219842   3.841   6.333   1.663
 6315SOL     OW19843   2.409   2.618   6.047
 6315SOL    HW119844   2.342   2.588   6.115
 6315SOL    HW219845   2.362   2.641   5.962
 6316SOL     OW19846   4.746   1.651   6.810
 6316SOL    HW119847   4.802   1.716   6.758
 6316SOL    HW219848   4.784   1.559   6.799
 6317SOL     OW19849   4.785   5.478   3.129
 6317SOL    HW119850   4.815   5.393   3.173
 6317SOL    HW219851   4.852   5.505   3.060
 6318SOL     OW19852   3.699   1.526   4.488
 6318SOL    HW119853   3.746   1.577   4.415
 6318SOL    HW219854   3.640   1.588   4.539
 6319SOL     OW19855   0.205   1.771   4.019
 6319SOL    HW119856   0.183   1.864   3.989
 6319SOL    HW219857   0.245   1.720   3.943
 6320SOL     OW19858   6.058   5.445   4.902
 6320SOL    HW119859   5.983   5.484   4.849
 6320SOL    HW219860   6.023   5.404   4.986
 6321SOL     OW19861   3.174   3.485   0.889
 6321SOL    HW119862   3.185   3.388   0.908
 6321SOL    HW219863   3.261   3.532   0.902
 6322SOL     OW19864   1.856   2.284   0.232
 6322SOL    HW119865   1.846   2.185   0.228
 6322SOL    HW219866   1.827   2.324   0.145
 6323SOL     OW19867   2.893   2.497   1.045
 6323SOL    HW119868   2.930   2.449   1.124
 6323SOL    HW219869   2.954   2.572   1.019
 6324SOL     OW19870   5.197   0.041   6.528
 6324SOL    HW119871   5.132   0.029   6.453
 6324SOL    HW219872   5.156   0.097   6.600
 6325SOL     OW19873   2.489   1.754   2.555
 6325SOL    HW119874   2.439   1.719   2.634
 6325SOL    HW219875   2.438   1.733   2.471
 6326SOL     OW19876   4.959   5.230   1.790
 6326SOL    HW119877   4.878   5.182   1.824
 6326SOL    HW219878   4.931   5.310   1.738
 6327SOL     OW19879   0.073   0.175   4.720
 6327SOL    HW119880   0.012   0.147   4.794
 6327SOL    HW219881   0.046   0.266   4.687
 6328SOL     OW19882   2.583   3.852   0.770
 6328SOL    HW119883   2.567   3.793   0.690
 6328SOL    HW219884   2.499   3.856   0.825
 6329SOL     OW19885   2.611   1.984   3.684
 6329SOL    HW119886   2.693   2.028   3.645
 6329SOL    HW219887   2.532   2.044   3.671
 6330SOL     OW19888   4.458   1.289   1.115
 6330SOL    HW119889   4.522   1.212   1.108
 6330SOL    HW219890   4.418   1.307   1.025
 6331SOL     OW19891   6.746   2.294   6.659
 6331SOL    HW119892   6.826   2.303   6.717
 6331SOL    HW219893   6.666   2.332   6.706
 6332SOL     OW19894   6.005   3.633   1.611
 6332SOL    HW119895   6.051   3.722   1.615
 6332SOL    HW219896   5.969   3.610   1.701
 6333SOL     OW19897   4.480   5.760   5.053
 6333SOL    HW119898   4.398   5.717   5.090
 6333SOL    HW219899   4.524   5.816   5.124
 6334SOL     OW19900   2.887   0.022   1.681
 6334SOL    HW119901   2.859   0.102   1.629
 6334SOL    HW219902   2.938   6.976   1.622
 6335SOL     OW19903   4.300   1.030   0.395
 6335SOL    HW119904   4.268   1.022   0.300
 6335SOL    HW219905   4.379   1.092   0.398
 6336SOL     OW19906   0.836   1.848   6.135
 6336SOL    HW119907   0.858   1.769   6.078
 6336SOL    HW219908   0.919   1.881   6.179
 6337SOL     OW19909   4.486   4.087   6.543
 6337SOL    HW119910   4.546   4.167   6.536
 6337SOL    HW219911   4.512   4.020   6.474
 6338SOL     OW19912   3.576   1.486   3.721
 6338SOL    HW119913   3.665   1.461   3.759
 6338SOL    HW219914   3.560   1.435   3.636
 6339SOL     OW19915   1.487   3.284   2.535
 6339SOL    HW119916   1.515   3.361   2.593
 6339SOL    HW219917   1.388   3.272   2.542
 6340SOL     OW19918   1.844   4.728   2.373
 6340SOL    HW119919   1.804   4.805   2.422
 6340SOL    HW219920   1.913   4.762   2.308
 6341SOL     OW19921   0.937   4.535   4.204
 6341SOL    HW119922   0.921   4.440   4.178
 6341SOL    HW219923   1.005   4.538   4.277
 6342SOL     OW19924   2.848   1.821   2.101
 6342SOL    HW119925   2.793   1.878   2.162
 6342SOL    HW219926   2.887   1.745   2.153
 6343SOL     OW19927   4.763   1.948   6.213
 6343SOL    HW119928   4.710   1.882   6.267
 6343SOL    HW219929   4.702   1.997   6.151
 6344SOL     OW19930   6.022   2.854   5.236
 6344SOL    HW119931   6.008   2.934   5.294
 6344SOL    HW219932   6.116   2.820   5.247
 6345SOL     OW19933   5.117   2.256   2.271
 6345SOL    HW119934   5.173   2.334   2.300
 6345SOL    HW219935   5.176   2.178   2.253
 6346SOL     OW19936   6.960   4.656   3.839
 6346SOL    HW119937   6.997   4.679   3.930
 6346SOL    HW219938   6.909   4.571   3.844
 6347SOL     OW19939   2.504   0.267   0.868
 6347SOL    HW119940   2.447   0.264   0.786
 6347SOL    HW219941   2.457   0.320   0.939
 6348SOL     OW19942   1.660   4.121   4.885
 6348SOL    HW119943   1.617   4.199   4.841
 6348SOL    HW219944   1.759   4.137   4.892
 6349SOL     OW19945   3.314   0.241   1.099
 6349SOL    HW119946   3.236   0.191   1.137
 6349SOL    HW219947   3.295   0.339   1.102
 6350SOL     OW19948   2.514   4.930   3.991
 6350SOL    HW119949   2.604   4.887   3.999
 6350SOL    HW219950   2.443   4.862   4.008
 6351SOL     OW19951   6.549   3.697   3.349
 6351SOL    HW119952   6.561   3.644   3.265
 6351SOL    HW219953   6.468   3.666   3.397
 6352SOL     OW19954   3.288   5.289   5.497
 6352SOL    HW119955   3.278   5.306   5.399
 6352SOL    HW219956   3.219   5.342   5.547
 6353SOL     OW19957   0.566   0.473   5.685
 6353SOL    HW119958   0.539   0.434   5.772
 6353SOL    HW219959   0.526   0.564   5.675
 6354SOL     OW19960   1.736   5.842   3.338
 6354SOL    HW119961   1.678   5.764   3.359
 6354SOL    HW219962   1.793   5.864   3.418
 6355SOL     OW19963   0.945   5.667   6.358
 6355SOL    HW119964   0.958   5.708   6.449
 6355SOL    HW219965   0.850   5.638   6.348
 6356SOL     OW19966   3.680   5.064   2.737
 6356SOL    HW119967   3.688   5.029   2.830
 6356SOL    HW219968   3.747   5.019   2.678
 6357SOL     OW19969   5.085   3.266   2.325
 6357SOL    HW119970   5.021   3.192   2.305
 6357SOL    HW219971   5.102   3.269   2.424
 6358SOL     OW19972   1.101   2.144   6.435
 6358SOL    HW119973   1.023   2.206   6.441
 6358SOL    HW219974   1.183   2.191   6.466
 6359SOL     OW19975   6.417   6.502   6.162
 6359SOL    HW119976   6.445   6.431   6.227
 6359SOL    HW219977   6.434   6.592   6.202
 6360SOL     OW19978   1.183   3.974   3.914
 6360SOL    HW119979   1.213   3.992   3.821
 6360SOL    HW219980   1.247   3.912   3.959
 6361SOL     OW19981   6.057   0.060   0.603
 6361SOL    HW119982   6.015   6.986   0.614
 6361SOL    HW219983   5.999   0.129   0.646
 6362SOL     OW19984   0.632   6.190   0.523
 6362SOL    HW119985   0.541   6.178   0.563
 6362SOL    HW219986   0.681   6.103   0.524
 6363SOL     OW19987   2.077   4.512   3.408
 6363SOL    HW119988   2.155   4.461   3.445
 6363SOL    HW219989   2.102   4.549   3.318
 6364SOL     OW19990   2.840   1.272   6.039
 6364SOL    HW119991   2.767   1.340   6.030
 6364SOL    HW219992   2.799   1.182   6.057
 6365SOL     OW19993   5.535   0.515   4.436
 6365SOL    HW119994   5.576   0.607   4.432
 6365SOL    HW219995   5.595   0.450   4.391
 6366SOL     OW19996   0.936   5.989   6.188
 6366SOL    HW119997   0.882   6.061   6.144
 6366SOL    HW219998   0.895   5.900   6.167
 6367SOL     OW19999   4.197   0.107   4.924
 6367SOL    HW120000   4.268   0.060   4.872
 6367SOL    HW220001   4.184   0.199   4.887
 6368SOL     OW20002   3.524   5.397   3.611
 6368SOL    HW120003   3.600   5.337   3.634
 6368SOL    HW220004   3.533   5.428   3.517
 6369SOL     OW20005   1.631   4.668   3.955
 6369SOL    HW120006   1.627   4.577   3.997
 6369SOL    HW220007   1.664   4.660   3.861
 6370SOL     OW20008   0.415   3.265   2.681
 6370SOL    HW120009   0.374   3.174   2.677
 6370SOL    HW220010   0.394   3.315   2.597
 6371SOL     OW20011   5.149   3.809   4.531
 6371SOL    HW120012   5.059   3.765   4.535
 6371SOL    HW220013   5.160   3.869   4.610
 6372SOL     OW20014   2.954   0.382   1.912
 6372SOL    HW120015   2.990   0.290   1.893
 6372SOL    HW220016   2.915   0.420   1.828
 6373SOL     OW20017   5.494   4.310   3.605
 6373SOL    HW120018   5.469   4.313   3.508
 6373SOL    HW220019   5.481   4.217   3.640
 6374SOL     OW20020   3.077   4.033   4.377
 6374SOL    HW120021   3.007   4.072   4.437
 6374SOL    HW220022   3.056   3.936   4.360
 6375SOL     OW20023   6.476   1.734   3.985
 6375SOL    HW120024   6.563   1.782   3.972
 6375SOL    HW220025   6.406   1.774   3.926
 6376SOL     OW20026   6.298   2.772   5.271
 6376SOL    HW120027   6.341   2.856   5.238
 6376SOL    HW220028   6.299   2.703   5.199
 6377SOL     OW20029   6.140   1.775   5.476
 6377SOL    HW120030   6.146   1.712   5.553
 6377SOL    HW220031   6.048   1.770   5.436
 6378SOL     OW20032   5.219   5.476   4.334
 6378SOL    HW120033   5.287   5.538   4.294
 6378SOL    HW220034   5.141   5.467   4.272
 6379SOL     OW20035   2.283   4.188   4.395
 6379SOL    HW120036   2.296   4.212   4.299
 6379SOL    HW220037   2.263   4.270   4.448
 6380SOL     OW20038   0.687   1.922   6.351
 6380SOL    HW120039   0.692   1.884   6.258
 6380SOL    HW220040   0.700   2.021   6.347
 6381SOL     OW20041   3.875   3.064   2.174
 6381SOL    HW120042   3.883   3.042   2.076
 6381SOL    HW220043   3.892   3.162   2.187
 6382SOL     OW20044   1.078   2.115   0.651
 6382SOL    HW120045   1.104   2.211   0.639
 6382SOL    HW220046   1.118   2.080   0.736
 6383SOL     OW20047   1.655   2.219   3.048
 6383SOL    HW120048   1.705   2.304   3.068
 6383SOL    HW220049   1.671   2.193   2.953
 6384SOL     OW20050   5.338   4.124   1.439
 6384SOL    HW120051   5.294   4.168   1.360
 6384SOL    HW220052   5.362   4.030   1.416
 6385SOL     OW20053   6.833   4.878   3.732
 6385SOL    HW120054   6.892   4.913   3.659
 6385SOL    HW220055   6.865   4.788   3.761
 6386SOL     OW20056   2.699   4.445   6.363
 6386SOL    HW120057   2.689   4.484   6.454
 6386SOL    HW220058   2.620   4.469   6.308
 6387SOL     OW20059   0.593   2.010   6.916
 6387SOL    HW120060   0.669   2.027   6.853
 6387SOL    HW220061   0.518   2.073   6.896
 6388SOL     OW20062   4.288   4.494   1.145
 6388SOL    HW120063   4.336   4.503   1.058
 6388SOL    HW220064   4.211   4.557   1.148
 6389SOL     OW20065   1.221   6.355   2.799
 6389SOL    HW120066   1.155   6.283   2.778
 6389SOL    HW220067   1.313   6.325   2.772
 6390SOL     OW20068   0.771   1.965   5.136
 6390SOL    HW120069   0.844   1.952   5.070
 6390SOL    HW220070   0.748   1.877   5.178
 6391SOL     OW20071   2.563   6.570   5.470
 6391SOL    HW120072   2.523   6.625   5.397
 6391SOL    HW220073   2.594   6.630   5.544
 6392SOL     OW20074   2.139   6.777   3.336
 6392SOL    HW120075   2.188   6.690   3.332
 6392SOL    HW220076   2.193   6.844   3.387
 6393SOL     OW20077   6.412   0.156   1.335
 6393SOL    HW120078   6.474   0.198   1.268
 6393SOL    HW220079   6.439   0.183   1.427
 6394SOL     OW20080   2.490   4.491   0.889
 6394SOL    HW120081   2.413   4.448   0.937
 6394SOL    HW220082   2.566   4.426   0.884
 6395SOL     OW20083   6.235   2.750   2.027
 6395SOL    HW120084   6.160   2.798   1.982
 6395SOL    HW220085   6.200   2.666   2.068
 6396SOL     OW20086   5.668   3.339   6.298
 6396SOL    HW120087   5.629   3.351   6.389
 6396SOL    HW220088   5.737   3.410   6.282
 6397SOL     OW20089   5.731   2.795   6.506
 6397SOL    HW120090   5.653   2.804   6.568
 6397SOL    HW220091   5.803   2.859   6.534
 6398SOL     OW20092   3.272   0.881   0.596
 6398SOL    HW120093   3.206   0.921   0.658
 6398SOL    HW220094   3.326   0.954   0.554
 6399SOL     OW20095   1.560   5.689   6.905
 6399SOL    HW120096   1.617   5.756   6.952
 6399SOL    HW220097   1.465   5.700   6.934
 6400SOL     OW20098   2.251   6.429   2.268
 6400SOL    HW120099   2.287   6.379   2.189
 6400SOL    HW220100   2.327   6.456   2.327
 6401SOL     OW20101   0.462   4.688   3.486
 6401SOL    HW120102   0.483   4.647   3.574
 6401SOL    HW220103   0.540   4.743   3.455
 6402SOL     OW20104   4.185   1.645   2.775
 6402SOL    HW120105   4.214   1.727   2.824
 6402SOL    HW220106   4.232   1.641   2.687
 6403SOL     OW20107   6.760   6.360   6.004
 6403SOL    HW120108   6.747   6.457   6.027
 6403SOL    HW220109   6.674   6.311   6.017
 6404SOL     OW20110   3.974   1.174   2.593
 6404SOL    HW120111   3.963   1.118   2.675
 6404SOL    HW220112   4.066   1.213   2.591
 6405SOL     OW20113   2.608   0.196   3.619
 6405SOL    HW120114   2.686   0.139   3.642
 6405SOL    HW220115   2.566   0.164   3.535
 6406SOL     OW20116   1.108   2.563   3.472
 6406SOL    HW120117   1.056   2.562   3.387
 6406SOL    HW220118   1.146   2.472   3.488
 6407SOL     OW20119   2.977   6.477   3.748
 6407SOL    HW120120   3.068   6.440   3.731
 6407SOL    HW220121   2.982   6.576   3.756
 6408SOL     OW20122   5.800   2.101   0.281
 6408SOL    HW120123   5.821   2.099   0.379
 6408SOL    HW220124   5.752   2.186   0.259
 6409SOL     OW20125   0.492   4.661   2.982
 6409SOL    HW120126   0.455   4.583   3.033
 6409SOL    HW220127   0.484   4.744   3.037
 6410SOL     OW20128   2.038   1.792   0.633
 6410SOL    HW120129   1.956   1.735   0.637
 6410SOL    HW220130   2.038   1.845   0.548
 6411SOL     OW20131   0.458   2.786   3.230
 6411SOL    HW120132   0.373   2.810   3.278
 6411SOL    HW220133   0.464   2.838   3.146
 6412SOL     OW20134   0.141   2.055   5.512
 6412SOL    HW120135   0.154   2.143   5.559
 6412SOL    HW220136   0.224   2.000   5.523
 6413SOL     OW20137   4.288   4.980   3.806
 6413SOL    HW120138   4.316   4.890   3.773
 6413SOL    HW220139   4.360   5.018   3.864
 6414SOL     OW20140   5.778   1.012   0.771
 6414SOL    HW120141   5.705   1.053   0.717
 6414SOL    HW220142   5.746   0.996   0.864
 6415SOL     OW20143   2.126   2.498   3.348
 6415SOL    HW120144   2.034   2.468   3.321
 6415SOL    HW220145   2.193   2.428   3.324
 6416SOL     OW20146   1.000   0.953   6.465
 6416SOL    HW120147   1.012   0.878   6.531
 6416SOL    HW220148   0.912   0.942   6.418
 6417SOL     OW20149   6.829   4.862   2.304
 6417SOL    HW120150   6.850   4.875   2.208
 6417SOL    HW220151   6.753   4.921   2.331
 6418SOL     OW20152   4.651   4.693   2.081
 6418SOL    HW120153   4.718   4.626   2.111
 6418SOL    HW220154   4.562   4.649   2.070
 6419SOL     OW20155   2.557   4.595   2.676
 6419SOL    HW120156   2.585   4.504   2.707
 6419SOL    HW220157   2.473   4.588   2.622
 6420SOL     OW20158   3.063   3.856   5.534
 6420SOL    HW120159   3.077   3.766   5.492
 6420SOL    HW220160   3.010   3.913   5.471
 6421SOL     OW20161   5.851   0.906   2.676
 6421SOL    HW120162   5.815   0.854   2.599
 6421SOL    HW220163   5.932   0.859   2.713
 6422SOL     OW20164   0.143   0.701   3.779
 6422SOL    HW120165   0.178   0.608   3.786
 6422SOL    HW220166   0.188   0.758   3.848
 6423SOL     OW20167   5.027   4.919   2.766
 6423SOL    HW120168   5.037   5.009   2.807
 6423SOL    HW220169   4.956   4.868   2.815
 6424SOL     OW20170   6.636   5.894   5.729
 6424SOL    HW120171   6.728   5.883   5.767
 6424SOL    HW220172   6.589   5.805   5.728
 6425SOL     OW20173   6.172   5.554   3.116
 6425SOL    HW120174   6.139   5.607   3.038
 6425SOL    HW220175   6.251   5.499   3.088
 6426SOL     OW20176   0.647   4.967   3.028
 6426SOL    HW120177   0.552   4.952   3.053
 6426SOL    HW220178   0.706   4.905   3.080
 6427SOL     OW20179   2.415   2.721   5.587
 6427SOL    HW120180   2.478   2.670   5.527
 6427SOL    HW220181   2.417   2.818   5.562
 6428SOL     OW20182   6.172   3.268   6.724
 6428SOL    HW120183   6.113   3.342   6.758
 6428SOL    HW220184   6.184   3.200   6.796
 6429SOL     OW20185   1.276   1.642   5.811
 6429SOL    HW120186   1.217   1.690   5.745
 6429SOL    HW220187   1.264   1.544   5.801
 6430SOL     OW20188   5.656   0.959   1.933
 6430SOL    HW120189   5.752   0.953   1.909
 6430SOL    HW220190   5.609   0.875   1.905
 6431SOL     OW20191   5.075   6.548   3.553
 6431SOL    HW120192   4.991   6.549   3.607
 6431SOL    HW220193   5.154   6.535   3.613
 6432SOL     OW20194   3.902   3.583   6.483
 6432SOL    HW120195   3.925   3.643   6.560
 6432SOL    HW220196   3.888   3.638   6.401
 6433SOL     OW20197   3.443   4.322   0.620
 6433SOL    HW120198   3.475   4.373   0.700
 6433SOL    HW220199   3.482   4.363   0.537
 6434SOL     OW20200   1.812   3.751   6.846
 6434SOL    HW120201   1.749   3.674   6.853
 6434SOL    HW220202   1.902   3.724   6.881
 6435SOL     OW20203   4.203   6.452   0.104
 6435SOL    HW120204   4.270   6.482   0.172
 6435SOL    HW220205   4.242   6.464   0.012
 6436SOL     OW20206   2.161   3.103   3.550
 6436SOL    HW120207   2.068   3.132   3.571
 6436SOL    HW220208   2.185   3.132   3.458
 6437SOL     OW20209   2.617   1.082   1.082
 6437SOL    HW120210   2.628   1.180   1.099
 6437SOL    HW220211   2.703   1.043   1.050
 6438SOL     OW20212   0.560   4.423   6.153
 6438SOL    HW120213   0.567   4.424   6.053
 6438SOL    HW220214   0.629   4.484   6.191
 6439SOL     OW20215   5.699   1.207   1.501
 6439SOL    HW120216   5.668   1.112   1.495
 6439SOL    HW220217   5.713   1.243   1.409
 6440SOL     OW20218   2.300   1.821   0.367
 6440SOL    HW120219   2.364   1.878   0.418
 6440SOL    HW220220   2.325   1.725   0.378
 6441SOL     OW20221   1.198   6.205   2.455
 6441SOL    HW120222   1.272   6.145   2.486
 6441SOL    HW220223   1.231   6.262   2.379
 6442SOL     OW20224   2.844   1.090   4.137
 6442SOL    HW120225   2.783   1.092   4.216
 6442SOL    HW220226   2.939   1.081   4.168
 6443SOL     OW20227   4.156   2.607   6.006
 6443SOL    HW120228   4.170   2.569   5.914
 6443SOL    HW220229   4.075   2.665   6.006
 6444SOL     OW20230   6.897   2.454   3.719
 6444SOL    HW120231   6.933   2.541   3.753
 6444SOL    HW220232   6.956   2.379   3.751
 6445SOL     OW20233   5.048   3.213   5.965
 6445SOL    HW120234   5.040   3.306   5.927
 6445SOL    HW220235   4.960   3.166   5.958
 6446SOL     OW20236   1.186   0.851   5.880
 6446SOL    HW120237   1.186   0.819   5.786
 6446SOL    HW220238   1.150   0.779   5.940
 6447SOL     OW20239   0.530   5.473   2.791
 6447SOL    HW120240   0.616   5.434   2.758
 6447SOL    HW220241   0.545   5.517   2.880
 6448SOL     OW20242   4.994   5.525   2.892
 6448SOL    HW120243   5.027   5.555   2.802
 6448SOL    HW220244   5.065   5.542   2.960
 6449SOL     OW20245   2.876   4.788   0.408
 6449SOL    HW120246   2.814   4.853   0.451
 6449SOL    HW220247   2.915   4.728   0.477
 6450SOL     OW20248   0.263   3.943   1.433
 6450SOL    HW120249   0.224   3.966   1.522
 6450SOL    HW220250   0.332   4.011   1.408
 6451SOL     OW20251   2.568   0.074   5.016
 6451SOL    HW120252   2.646   0.070   5.078
 6451SOL    HW220253   2.497   0.133   5.055
 6452SOL     OW20254   3.432   6.790   4.458
 6452SOL    HW120255   3.482   6.713   4.418
 6452SOL    HW220256   3.334   6.777   4.443
 6453SOL     OW20257   1.496   6.536   0.536
 6453SOL    HW120258   1.429   6.607   0.555
 6453SOL    HW220259   1.588   6.576   0.538
 6454SOL     OW20260   2.765   1.677   3.439
 6454SOL    HW120261   2.836   1.745   3.458
 6454SOL    HW220262   2.716   1.656   3.524
 6455SOL     OW20263   0.545   2.274   3.989
 6455SOL    HW120264   0.610   2.210   4.030
 6455SOL    HW220265   0.570   2.367   4.013
 6456SOL     OW20266   1.847   0.678   3.485
 6456SOL    HW120267   1.849   0.777   3.496
 6456SOL    HW220268   1.901   0.652   3.405
 6457SOL     OW20269   4.816   1.828   0.461
 6457SOL    HW120270   4.860   1.740   0.478
 6457SOL    HW220271   4.854   1.897   0.523
 6458SOL     OW20272   0.767   6.832   3.535
 6458SOL    HW120273   0.835   6.888   3.583
 6458SOL    HW220274   0.791   6.735   3.546
 6459SOL     OW20275   5.495   5.366   0.698
 6459SOL    HW120276   5.518   5.391   0.603
 6459SOL    HW220277   5.492   5.449   0.753
 6460SOL     OW20278   5.018   5.423   5.872
 6460SOL    HW120279   4.918   5.414   5.878
 6460SOL    HW220280   5.049   5.390   5.783
 6461SOL     OW20281   2.711   4.562   5.337
 6461SOL    HW120282   2.631   4.506   5.316
 6461SOL    HW220283   2.790   4.528   5.286
 6462SOL     OW20284   2.317   2.738   4.854
 6462SOL    HW120285   2.333   2.816   4.915
 6462SOL    HW220286   2.388   2.670   4.868
 6463SOL     OW20287   0.216   3.964   0.017
 6463SOL    HW120288   0.222   3.881   6.978
 6463SOL    HW220289   0.182   3.939   0.108
 6464SOL     OW20290   1.353   4.958   4.717
 6464SOL    HW120291   1.293   4.888   4.755
 6464SOL    HW220292   1.380   5.022   4.790
 6465SOL     OW20293   6.572   2.609   3.237
 6465SOL    HW120294   6.660   2.606   3.283
 6465SOL    HW220295   6.579   2.667   3.155
 6466SOL     OW20296   0.806   1.596   6.694
 6466SOL    HW120297   0.810   1.645   6.607
 6466SOL    HW220298   0.883   1.533   6.700
 6467SOL     OW20299   3.283   0.719   6.930
 6467SOL    HW120300   3.364   0.777   6.934
 6467SOL    HW220301   3.297   0.637   6.986
 6468SOL     OW20302   4.139   0.019   1.676
 6468SOL    HW120303   4.056   0.051   1.722
 6468SOL    HW220304   4.138   6.936   1.672
 6469SOL     OW20305   4.191   0.647   5.525
 6469SOL    HW120306   4.279   0.694   5.524
 6469SOL    HW220307   4.131   0.687   5.456
 6470SOL     OW20308   6.276   4.801   6.634
 6470SOL    HW120309   6.313   4.827   6.723
 6470SOL    HW220310   6.349   4.765   6.576
 6471SOL     OW20311   6.160   5.877   5.648
 6471SOL    HW120312   6.175   5.964   5.695
 6471SOL    HW220313   6.229   5.864   5.578
 6472SOL     OW20314   0.593   4.756   1.117
 6472SOL    HW120315   0.499   4.722   1.125
 6472SOL    HW220316   0.647   4.691   1.063
 6473SOL     OW20317   2.766   1.571   4.225
 6473SOL    HW120318   2.805   1.535   4.141
 6473SOL    HW220319   2.720   1.658   4.207
 6474SOL     OW20320   1.596   3.931   6.037
 6474SOL    HW120321   1.674   3.916   6.098
 6474SOL    HW220322   1.511   3.921   6.090
 6475SOL     OW20323   6.746   5.124   4.375
 6475SOL    HW120324   6.801   5.131   4.292
 6475SOL    HW220325   6.659   5.172   4.361
 6476SOL     OW20326   4.411   2.933   1.260
 6476SOL    HW120327   4.484   2.941   1.328
 6476SOL    HW220328   4.337   2.996   1.284
 6477SOL     OW20329   6.191   4.813   1.058
 6477SOL    HW120330   6.179   4.857   1.147
 6477SOL    HW220331   6.288   4.789   1.046
 6478SOL     OW20332   3.541   6.481   2.313
 6478SOL    HW120333   3.601   6.462   2.235
 6478SOL    HW220334   3.587   6.545   2.375
 6479SOL     OW20335   3.943   6.316   3.906
 6479SOL    HW120336   4.019   6.270   3.860
 6479SOL    HW220337   3.938   6.285   4.001
 6480SOL     OW20338   3.087   2.174   5.803
 6480SOL    HW120339   3.063   2.127   5.888
 6480SOL    HW220340   3.154   2.246   5.823
 6481SOL     OW20341   3.525   2.038   2.124
 6481SOL    HW120342   3.429   2.053   2.104
 6481SOL    HW220343   3.581   2.099   2.068
 6482SOL     OW20344   0.579   0.310   5.919
 6482SOL    HW120345   0.670   0.330   5.954
 6482SOL    HW220346   0.511   0.334   5.988
 6483SOL     OW20347   1.321   6.087   1.499
 6483SOL    HW120348   1.282   6.178   1.512
 6483SOL    HW220349   1.400   6.093   1.439
 6484SOL     OW20350   3.436   0.168   1.598
 6484SOL    HW120351   3.512   0.228   1.620
 6484SOL    HW220352   3.434   0.150   1.500
 6485SOL     OW20353   1.738   4.253   3.205
 6485SOL    HW120354   1.702   4.160   3.217
 6485SOL    HW220355   1.817   4.249   3.143
 6486SOL     OW20356   2.034   4.550   4.653
 6486SOL    HW120357   2.067   4.571   4.745
 6486SOL    HW220358   2.112   4.528   4.594
 6487SOL     OW20359   0.078   5.969   5.581
 6487SOL    HW120360   7.004   6.009   5.597
 6487SOL    HW220361   0.068   5.876   5.547
 6488SOL     OW20362   3.428   5.910   5.737
 6488SOL    HW120363   3.346   5.872   5.781
 6488SOL    HW220364   3.455   5.851   5.661
 6489SOL     OW20365   2.470   3.178   6.758
 6489SOL    HW120366   2.425   3.155   6.672
 6489SOL    HW220367   2.554   3.124   6.767
 6490SOL     OW20368   4.444   1.694   6.105
 6490SOL    HW120369   4.495   1.780   6.096
 6490SOL    HW220370   4.495   1.620   6.061
 6491SOL     OW20371   4.055   1.074   6.851
 6491SOL    HW120372   4.057   1.026   6.763
 6491SOL    HW220373   4.148   1.091   6.882
 6492SOL     OW20374   5.274   5.948   0.038
 6492SOL    HW120375   5.242   6.039   0.010
 6492SOL    HW220376   5.277   5.942   0.137
 6493SOL     OW20377   0.889   5.600   4.677
 6493SOL    HW120378   0.918   5.590   4.772
 6493SOL    HW220379   0.868   5.510   4.639
 6494SOL     OW20380   0.687   0.941   3.182
 6494SOL    HW120381   0.677   1.040   3.168
 6494SOL    HW220382   0.639   0.914   3.265
 6495SOL     OW20383   4.772   6.136   4.494
 6495SOL    HW120384   4.700   6.106   4.556
 6495SOL    HW220385   4.734   6.145   4.402
 6496SOL     OW20386   6.987   6.979   2.122
 6496SOL    HW120387   6.968   0.058   2.141
 6496SOL    HW220388   0.004   6.934   2.205
 6497SOL     OW20389   2.527   3.032   0.382
 6497SOL    HW120390   2.552   3.036   0.285
 6497SOL    HW220391   2.576   3.103   0.432
 6498SOL     OW20392   2.116   4.170   3.766
 6498SOL    HW120393   2.108   4.139   3.671
 6498SOL    HW220394   2.136   4.092   3.825
 6499SOL     OW20395   5.204   1.867   4.520
 6499SOL    HW120396   5.213   1.953   4.470
 6499SOL    HW220397   5.111   1.856   4.553
 6500SOL     OW20398   0.119   4.782   3.539
 6500SOL    HW120399   0.217   4.773   3.558
 6500SOL    HW220400   0.071   4.701   3.573
 6501SOL     OW20401   6.408   2.910   6.781
 6501SOL    HW120402   6.474   2.928   6.709
 6501SOL    HW220403   6.329   2.861   6.743
 6502SOL     OW20404   5.947   3.900   1.628
 6502SOL    HW120405   6.005   3.929   1.703
 6502SOL    HW220406   5.880   3.971   1.607
 6503SOL     OW20407   5.043   0.860   3.340
 6503SOL    HW120408   4.948   0.889   3.326
 6503SOL    HW220409   5.060   0.776   3.289
 6504SOL     OW20410   5.026   6.390   6.366
 6504SOL    HW120411   5.046   6.315   6.428
 6504SOL    HW220412   5.087   6.386   6.287
 6505SOL     OW20413   5.178   5.087   1.736
 6505SOL    HW120414   5.259   5.145   1.742
 6505SOL    HW220415   5.101   5.133   1.779
 6506SOL     OW20416   6.067   3.380   1.474
 6506SOL    HW120417   6.148   3.351   1.525
 6506SOL    HW220418   6.025   3.459   1.518
 6507SOL     OW20419   1.943   5.276   5.733
 6507SOL    HW120420   1.871   5.211   5.754
 6507SOL    HW220421   1.995   5.245   5.654
 6508SOL     OW20422   2.545   0.484   2.969
 6508SOL    HW120423   2.510   0.578   2.964
 6508SOL    HW220424   2.641   0.483   2.941
 6509SOL     OW20425   3.159   1.959   4.087
 6509SOL    HW120426   3.062   1.978   4.073
 6509SOL    HW220427   3.170   1.894   4.163
 6510SOL     OW20428   6.474   4.258   6.990
 6510SOL    HW120429   6.422   4.173   6.995
 6510SOL    HW220430   6.512   4.269   6.898
 6511SOL     OW20431   4.869   0.782   4.695
 6511SOL    HW120432   4.868   0.865   4.751
 6511SOL    HW220433   4.803   0.791   4.620
 6512SOL     OW20434   5.032   6.878   1.943
 6512SOL    HW120435   5.103   6.917   2.002
 6512SOL    HW220436   5.074   6.841   1.861
 6513SOL     OW20437   3.484   4.927   3.115
 6513SOL    HW120438   3.472   4.856   3.185
 6513SOL    HW220439   3.564   4.906   3.060
 6514SOL     OW20440   5.401   0.920   3.684
 6514SOL    HW120441   5.423   0.909   3.781
 6514SOL    HW220442   5.477   0.964   3.638
 6515SOL     OW20443   0.629   4.871   4.185
 6515SOL    HW120444   0.707   4.921   4.145
 6515SOL    HW220445   0.636   4.873   4.284
 6516SOL     OW20446   0.062   3.344   1.526
 6516SOL    HW120447   0.061   3.421   1.590
 6516SOL    HW220448   0.152   3.302   1.527
 6517SOL     OW20449   6.921   0.953   0.269
 6517SOL    HW120450   6.982   0.899   0.212
 6517SOL    HW220451   6.935   0.929   0.365
 6518SOL     OW20452   6.780   0.506   6.968
 6518SOL    HW120453   6.789   0.583   0.014
 6518SOL    HW220454   6.747   0.539   6.879
 6519SOL     OW20455   2.636   1.752   3.846
 6519SOL    HW120456   2.592   1.677   3.795
 6519SOL    HW220457   2.623   1.837   3.796
 6520SOL     OW20458   5.399   5.538   2.122
 6520SOL    HW120459   5.463   5.595   2.071
 6520SOL    HW220460   5.347   5.481   2.059
 6521SOL     OW20461   1.632   2.282   4.305
 6521SOL    HW120462   1.603   2.344   4.231
 6521SOL    HW220463   1.567   2.206   4.312
 6522SOL     OW20464   3.659   4.390   6.898
 6522SOL    HW120465   3.695   4.481   6.877
 6522SOL    HW220466   3.639   4.342   6.813
 6523SOL     OW20467   3.346   0.696   6.620
 6523SOL    HW120468   3.280   0.744   6.677
 6523SOL    HW220469   3.299   0.651   6.544
 6524SOL     OW20470   2.897   3.467   1.991
 6524SOL    HW120471   2.976   3.503   1.941
 6524SOL    HW220472   2.821   3.452   1.927
 6525SOL     OW20473   1.471   3.683   3.277
 6525SOL    HW120474   1.563   3.699   3.313
 6525SOL    HW220475   1.407   3.675   3.354
 6526SOL     OW20476   2.279   0.482   6.080
 6526SOL    HW120477   2.192   0.487   6.031
 6526SOL    HW220478   2.351   0.523   6.024
 6527SOL     OW20479   1.196   2.411   4.770
 6527SOL    HW120480   1.227   2.438   4.861
 6527SOL    HW220481   1.267   2.431   4.703
 6528SOL     OW20482   0.255   1.124   3.670
 6528SOL    HW120483   0.263   1.088   3.577
 6528SOL    HW220484   0.340   1.171   3.696
 6529SOL     OW20485   0.121   1.571   3.189
 6529SOL    HW120486   0.027   1.580   3.157
 6529SOL    HW220487   0.182   1.556   3.111
 6530SOL     OW20488   6.325   3.584   2.010
 6530SOL    HW120489   6.361   3.573   1.917
 6530SOL    HW220490   6.389   3.638   2.064
 6531SOL     OW20491   5.568   3.643   4.729
 6531SOL    HW120492   5.568   3.546   4.752
 6531SOL    HW220493   5.637   3.691   4.782
 6532SOL     OW20494   6.102   0.396   6.706
 6532SOL    HW120495   6.168   0.388   6.781
 6532SOL    HW220496   6.037   0.320   6.712
 6533SOL     OW20497   4.533   6.180   0.849
 6533SOL    HW120498   4.597   6.112   0.812
 6533SOL    HW220499   4.570   6.218   0.933
 6534SOL     OW20500   3.444   4.317   1.394
 6534SOL    HW120501   3.424   4.345   1.487
 6534SOL    HW220502   3.375   4.253   1.362
 6535SOL     OW20503   6.451   3.046   4.055
 6535SOL    HW120504   6.447   2.967   3.993
 6535SOL    HW220505   6.363   3.057   4.100
 6536SOL     OW20506   0.639   2.147   5.833
 6536SOL    HW120507   0.641   2.117   5.738
 6536SOL    HW220508   0.605   2.072   5.890
 6537SOL     OW20509   5.571   5.528   0.181
 6537SOL    HW120510   5.629   5.557   0.105
 6537SOL    HW220511   5.481   5.570   0.172
 6538SOL     OW20512   3.449   4.280   6.998
 6538SOL    HW120513   3.452   4.186   6.965
 6538SOL    HW220514   3.533   4.328   6.974
 6539SOL     OW20515   3.554   0.698   5.882
 6539SOL    HW120516   3.608   0.782   5.871
 6539SOL    HW220517   3.614   0.619   5.872
 6540SOL     OW20518   5.145   1.396   5.009
 6540SOL    HW120519   5.184   1.455   4.939
 6540SOL    HW220520   5.120   1.451   5.089
 6541SOL     OW20521   3.675   1.348   5.006
 6541SOL    HW120522   3.603   1.284   4.979
 6541SOL    HW220523   3.635   1.422   5.061
 6542SOL     OW20524   6.987   4.328   3.668
 6542SOL    HW120525   6.983   4.233   3.637
 6542SOL    HW220526   0.035   4.335   3.744
 6543SOL     OW20527   6.293   3.973   6.604
 6543SOL    HW120528   6.248   3.918   6.534
 6543SOL    HW220529   6.238   4.054   6.624
 6544SOL     OW20530   0.336   6.460   2.797
 6544SOL    HW120531   0.386   6.376   2.777
 6544SOL    HW220532   0.261   6.471   2.731
 6545SOL     OW20533   5.603   2.327   6.613
 6545SOL    HW120534   5.645   2.283   6.692
 6545SOL    HW220535   5.664   2.398   6.578
 6546SOL     OW20536   3.859   4.064   6.857
 6546SOL    HW120537   3.953   4.040   6.878
 6546SOL    HW220538   3.814   4.099   6.939
 6547SOL     OW20539   4.834   1.444   5.819
 6547SOL    HW120540   4.798   1.537   5.822
 6547SOL    HW220541   4.872   1.425   5.728
 6548SOL     OW20542   0.784   3.092   0.364
 6548SOL    HW120543   0.738   3.011   0.400
 6548SOL    HW220544   0.728   3.173   0.381
 6549SOL     OW20545   4.295   1.641   0.924
 6549SOL    HW120546   4.198   1.647   0.904
 6549SOL    HW220547   4.322   1.545   0.930
 6550SOL     OW20548   0.593   6.268   3.869
 6550SOL    HW120549   0.684   6.294   3.900
 6550SOL    HW220550   0.524   6.322   3.919
 6551SOL     OW20551   1.845   4.616   2.014
 6551SOL    HW120552   1.750   4.642   2.028
 6551SOL    HW220553   1.891   4.687   1.959
 6552SOL     OW20554   2.348   0.109   5.512
 6552SOL    HW120555   2.390   0.080   5.426
 6552SOL    HW220556   2.249   0.109   5.502
 6553SOL     OW20557   0.873   1.684   2.735
 6553SOL    HW120558   0.879   1.586   2.716
 6553SOL    HW220559   0.943   1.733   2.683
 6554SOL     OW20560   6.409   1.693   5.920
 6554SOL    HW120561   6.469   1.620   5.886
 6554SOL    HW220562   6.428   1.708   6.017
 6555SOL     OW20563   0.524   2.474   1.994
 6555SOL    HW120564   0.618   2.442   1.984
 6555SOL    HW220565   0.465   2.427   1.929
 6556SOL     OW20566   4.480   4.724   5.326
 6556SOL    HW120567   4.420   4.792   5.369
 6556SOL    HW220568   4.567   4.768   5.302
 6557SOL     OW20569   4.098   5.462   1.638
 6557SOL    HW120570   4.069   5.463   1.733
 6557SOL    HW220571   4.143   5.549   1.615
 6558SOL     OW20572   6.161   5.277   0.220
 6558SOL    HW120573   6.212   5.233   0.294
 6558SOL    HW220574   6.067   5.293   0.248
 6559SOL     OW20575   6.173   4.219   6.645
 6559SOL    HW120576   6.088   4.218   6.591
 6559SOL    HW220577   6.228   4.298   6.620
 6560SOL     OW20578   3.957   4.106   1.256
 6560SOL    HW120579   3.992   4.198   1.238
 6560SOL    HW220580   3.948   4.093   1.355
 6561SOL     OW20581   3.701   3.937   2.313
 6561SOL    HW120582   3.677   3.855   2.365
 6561SOL    HW220583   3.623   4.000   2.311
 6562SOL     OW20584   5.707   4.932   0.101
 6562SOL    HW120585   5.648   4.900   0.175
 6562SOL    HW220586   5.752   4.853   0.058
 6563SOL     OW20587   0.134   6.138   0.053
 6563SOL    HW120588   0.202   6.200   0.014
 6563SOL    HW220589   0.079   6.187   0.121
 6564SOL     OW20590   6.862   4.031   2.742
 6564SOL    HW120591   6.926   4.033   2.819
 6564SOL    HW220592   6.803   3.951   2.750
 6565SOL     OW20593   6.528   2.403   4.225
 6565SOL    HW120594   6.579   2.464   4.285
 6565SOL    HW220595   6.497   2.454   4.145
 6566SOL     OW20596   2.791   6.285   1.720
 6566SOL    HW120597   2.871   6.254   1.670
 6566SOL    HW220598   2.750   6.207   1.769
 6567SOL     OW20599   3.907   2.689   1.187
 6567SOL    HW120600   3.960   2.656   1.265
 6567SOL    HW220601   3.913   2.789   1.182
 6568SOL     OW20602   4.898   6.702   3.382
 6568SOL    HW120603   4.969   6.658   3.438
 6568SOL    HW220604   4.810   6.661   3.402
 6569SOL     OW20605   2.930   4.176   0.558
 6569SOL    HW120606   3.024   4.181   0.590
 6569SOL    HW220607   2.900   4.080   0.556
 6570SOL     OW20608   4.540   6.310   2.232
 6570SOL    HW120609   4.467   6.244   2.217
 6570SOL    HW220610   4.624   6.279   2.188
 6571SOL     OW20611   2.581   6.068   1.863
 6571SOL    HW120612   2.482   6.078   1.875
 6571SOL    HW220613   2.599   5.991   1.802
 6572SOL     OW20614   6.976   5.735   5.541
 6572SOL    HW120615   6.978   5.718   5.442
 6572SOL    HW220616   6.885   5.717   5.576
 6573SOL     OW20617   2.585   1.590   2.238
 6573SOL    HW120618   2.626   1.527   2.172
 6573SOL    HW220619   2.519   1.649   2.191
 6574SOL     OW20620   3.023   6.139   2.333
 6574SOL    HW120621   3.005   6.042   2.316
 6574SOL    HW220622   3.049   6.184   2.248
 6575SOL     OW20623   0.690   0.953   2.488
 6575SOL    HW120624   0.652   0.903   2.411
 6575SOL    HW220625   0.749   1.027   2.455
 6576SOL     OW20626   1.581   6.502   6.298
 6576SOL    HW120627   1.503   6.446   6.270
 6576SOL    HW220628   1.609   6.476   6.391
 6577SOL     OW20629   0.894   2.288   3.845
 6577SOL    HW120630   0.940   2.227   3.780
 6577SOL    HW220631   0.828   2.345   3.797
 6578SOL     OW20632   0.674   4.395   2.400
 6578SOL    HW120633   0.747   4.398   2.332
 6578SOL    HW220634   0.715   4.400   2.492
 6579SOL     OW20635   0.325   3.608   4.641
 6579SOL    HW120636   0.352   3.512   4.633
 6579SOL    HW220637   0.259   3.618   4.715
 6580SOL     OW20638   6.653   1.525   1.337
 6580SOL    HW120639   6.554   1.530   1.351
 6580SOL    HW220640   6.672   1.503   1.241
 6581SOL     OW20641   3.196   1.415   6.752
 6581SOL    HW120642   3.102   1.447   6.758
 6581SOL    HW220643   3.256   1.476   6.805
 6582SOL     OW20644   1.809   1.144   2.225
 6582SOL    HW120645   1.843   1.227   2.269
 6582SOL    HW220646   1.882   1.076   2.221
 6583SOL     OW20647   4.352   0.188   5.157
 6583SOL    HW120648   4.391   0.108   5.204
 6583SOL    HW220649   4.308   0.159   5.073
 6584SOL     OW20650   4.921   1.866   6.719
 6584SOL    HW120651   4.872   1.953   6.721
 6584SOL    HW220652   5.013   1.879   6.756
 6585SOL     OW20653   6.640   0.623   6.741
 6585SOL    HW120654   6.671   0.570   6.663
 6585SOL    HW220655   6.553   0.585   6.774
 6586SOL     OW20656   6.170   2.384   5.903
 6586SOL    HW120657   6.214   2.417   5.986
 6586SOL    HW220658   6.071   2.380   5.917
 6587SOL     OW20659   2.689   5.883   4.862
 6587SOL    HW120660   2.755   5.946   4.821
 6587SOL    HW220661   2.596   5.910   4.837
 6588SOL     OW20662   1.696   3.839   1.479
 6588SOL    HW120663   1.663   3.850   1.386
 6588SOL    HW220664   1.649   3.762   1.523
 6589SOL     OW20665   4.884   0.357   6.778
 6589SOL    HW120666   4.905   0.348   6.875
 6589SOL    HW220667   4.871   0.454   6.756
 6590SOL     OW20668   0.940   1.193   5.750
 6590SOL    HW120669   0.906   1.102   5.728
 6590SOL    HW220670   0.865   1.259   5.741
 6591SOL     OW20671   4.781   6.362   2.525
 6591SOL    HW120672   4.775   6.411   2.612
 6591SOL    HW220673   4.860   6.395   2.473
 6592SOL     OW20674   5.877   6.743   3.868
 6592SOL    HW120675   5.845   6.680   3.797
 6592SOL    HW220676   5.916   6.824   3.826
 6593SOL     OW20677   2.418   1.405   3.848
 6593SOL    HW120678   2.430   1.467   3.925
 6593SOL    HW220679   2.329   1.420   3.806
 6594SOL     OW20680   3.803   1.503   7.017
 6594SOL    HW120681   3.846   1.504   0.091
 6594SOL    HW220682   3.815   1.412   6.976
 6595SOL     OW20683   0.684   3.252   0.908
 6595SOL    HW120684   0.670   3.259   0.809
 6595SOL    HW220685   0.763   3.194   0.927
 6596SOL     OW20686   3.158   6.715   4.427
 6596SOL    HW120687   3.113   6.752   4.345
 6596SOL    HW220688   3.120   6.758   4.508
 6597SOL     OW20689   1.746   6.324   3.327
 6597SOL    HW120690   1.783   6.410   3.363
 6597SOL    HW220691   1.689   6.280   3.397
 6598SOL     OW20692   0.946   0.184   4.318
 6598SOL    HW120693   0.925   0.275   4.353
 6598SOL    HW220694   1.038   0.158   4.345
 6599SOL     OW20695   3.633   5.990   5.326
 6599SOL    HW120696   3.576   5.918   5.365
 6599SOL    HW220697   3.627   6.072   5.382
 6600SOL     OW20698   4.834   5.054   5.896
 6600SOL    HW120699   4.799   5.114   5.824
 6600SOL    HW220700   4.913   5.003   5.861
 6601SOL     OW20701   0.726   1.548   6.431
 6601SOL    HW120702   0.678   1.514   6.512
 6601SOL    HW220703   0.684   1.508   6.349
 6602SOL     OW20704   0.007   1.277   2.076
 6602SOL    HW120705   6.930   1.292   2.045
 6602SOL    HW220706   0.011   1.278   2.176
 6603SOL     OW20707   0.587   2.891   4.223
 6603SOL    HW120708   0.682   2.876   4.196
 6603SOL    HW220709   0.579   2.881   4.323
 6604SOL     OW20710   2.470   6.677   0.263
 6604SOL    HW120711   2.511   6.753   0.212
 6604SOL    HW220712   2.432   6.711   0.349
 6605SOL     OW20713   5.447   4.444   1.563
 6605SOL    HW120714   5.428   4.348   1.545
 6605SOL    HW220715   5.388   4.501   1.505
 6606SOL     OW20716   5.303   0.214   2.724
 6606SOL    HW120717   5.347   0.125   2.734
 6606SOL    HW220718   5.369   0.286   2.742
 6607SOL     OW20719   1.791   2.245   1.572
 6607SOL    HW120720   1.802   2.212   1.478
 6607SOL    HW220721   1.765   2.341   1.572
 6608SOL     OW20722   4.762   5.670   2.145
 6608SOL    HW120723   4.829   5.734   2.183
 6608SOL    HW220724   4.792   5.576   2.161
 6609SOL     OW20725   4.760   0.914   6.025
 6609SOL    HW120726   4.841   0.927   6.083
 6609SOL    HW220727   4.769   0.828   5.974
 6610SOL     OW20728   2.672   1.536   6.375
 6610SOL    HW120729   2.588   1.533   6.430
 6610SOL    HW220730   2.742   1.587   6.424
 6611SOL     OW20731   6.162   3.054   4.159
 6611SOL    HW120732   6.103   2.977   4.134
 6611SOL    HW220733   6.148   3.076   4.256
 6612SOL     OW20734   6.999   2.579   6.989
 6612SOL    HW120735   0.059   2.545   0.027
 6612SOL    HW220736   6.971   2.510   6.923
 6613SOL     OW20737   6.298   6.032   4.720
 6613SOL    HW120738   6.333   5.943   4.690
 6613SOL    HW220739   6.208   6.020   4.761
 6614SOL     OW20740   5.603   6.035   0.163
 6614SOL    HW120741   5.656   6.100   0.218
 6614SOL    HW220742   5.574   5.958   0.221
 6615SOL     OW20743   0.686   4.819   3.405
 6615SOL    HW120744   0.738   4.883   3.462
 6615SOL    HW220745   0.740   4.797   3.323
 6616SOL     OW20746   4.305   1.320   5.899
 6616SOL    HW120747   4.385   1.373   5.871
 6616SOL    HW220748   4.328   1.223   5.898
 6617SOL     OW20749   3.480   5.357   3.290
 6617SOL    HW120750   3.512   5.451   3.305
 6617SOL    HW220751   3.391   5.360   3.245
 6618SOL     OW20752   1.190   3.281   2.933
 6618SOL    HW120753   1.209   3.278   2.835
 6618SOL    HW220754   1.169   3.375   2.960
 6619SOL     OW20755   6.888   0.133   4.895
 6619SOL    HW120756   6.901   0.233   4.894
 6619SOL    HW220757   6.799   0.112   4.935
 6620SOL     OW20758   2.469   2.518   5.381
 6620SOL    HW120759   2.426   2.448   5.323
 6620SOL    HW220760   2.472   2.604   5.330
 6621SOL     OW20761   1.932   3.230   6.314
 6621SOL    HW120762   1.865   3.157   6.300
 6621SOL    HW220763   1.936   3.289   6.234
 6622SOL     OW20764   5.787   6.117   1.585
 6622SOL    HW120765   5.798   6.042   1.651
 6622SOL    HW220766   5.808   6.204   1.630
 6623SOL     OW20767   2.565   3.732   0.530
 6623SOL    HW120768   2.512   3.647   0.531
 6623SOL    HW220769   2.618   3.737   0.445
 6624SOL     OW20770   1.635   0.437   4.577
 6624SOL    HW120771   1.702   0.511   4.575
 6624SOL    HW220772   1.599   0.426   4.670
 6625SOL     OW20773   5.728   1.799   5.891
 6625SOL    HW120774   5.748   1.832   5.799
 6625SOL    HW220775   5.760   1.866   5.958
 6626SOL     OW20776   4.013   4.761   5.194
 6626SOL    HW120777   4.091   4.823   5.201
 6626SOL    HW220778   4.029   4.681   5.251
 6627SOL     OW20779   2.495   1.152   5.942
 6627SOL    HW120780   2.400   1.178   5.957
 6627SOL    HW220781   2.540   1.222   5.886
 6628SOL     OW20782   4.697   4.698   4.504
 6628SOL    HW120783   4.688   4.780   4.448
 6628SOL    HW220784   4.645   4.710   4.588
 6629SOL     OW20785   3.039   5.920   6.730
 6629SOL    HW120786   3.120   5.879   6.772
 6629SOL    HW220787   2.984   5.849   6.687
 6630SOL     OW20788   3.132   1.490   1.455
 6630SOL    HW120789   3.180   1.563   1.406
 6630SOL    HW220790   3.188   1.460   1.533
 6631SOL     OW20791   3.583   0.410   2.517
 6631SOL    HW120792   3.663   0.374   2.567
 6631SOL    HW220793   3.581   0.372   2.425
 6632SOL     OW20794   0.731   6.516   2.081
 6632SOL    HW120795   0.795   6.447   2.047
 6632SOL    HW220796   0.758   6.606   2.049
 6633SOL     OW20797   0.696   3.975   5.393
 6633SOL    HW120798   0.764   3.932   5.453
 6633SOL    HW220799   0.641   3.904   5.349
 6634SOL     OW20800   6.119   2.904   4.662
 6634SOL    HW120801   6.218   2.904   4.649
 6634SOL    HW220802   6.086   2.810   4.671
 6635SOL     OW20803   3.953   4.956   3.401
 6635SOL    HW120804   3.927   5.052   3.411
 6635SOL    HW220805   3.962   4.914   3.491
 6636SOL     OW20806   4.022   1.546   5.521
 6636SOL    HW120807   3.974   1.527   5.606
 6636SOL    HW220808   4.121   1.543   5.538
 6637SOL     OW20809   1.690   0.716   5.669
 6637SOL    HW120810   1.711   0.695   5.765
 6637SOL    HW220811   1.697   0.815   5.654
 6638SOL     OW20812   3.371   4.119   4.694
 6638SOL    HW120813   3.298   4.085   4.753
 6638SOL    HW220814   3.449   4.148   4.750
 6639SOL     OW20815   5.399   5.403   6.710
 6639SOL    HW120816   5.405   5.497   6.743
 6639SOL    HW220817   5.486   5.376   6.670
 6640SOL     OW20818   0.694   1.356   4.889
 6640SOL    HW120819   0.721   1.404   4.806
 6640SOL    HW220820   0.598   1.374   4.909
 6641SOL     OW20821   2.171   2.220   0.134
 6641SOL    HW120822   2.267   2.199   0.116
 6641SOL    HW220823   2.118   2.209   0.050
 6642SOL     OW20824   2.598   5.690   0.172
 6642SOL    HW120825   2.579   5.787   0.161
 6642SOL    HW220826   2.666   5.677   0.244
 6643SOL     OW20827   6.527   5.067   6.535
 6643SOL    HW120828   6.574   5.149   6.570
 6643SOL    HW220829   6.432   5.089   6.514
 6644SOL     OW20830   3.054   4.777   2.076
 6644SOL    HW120831   3.101   4.785   1.988
 6644SOL    HW220832   2.989   4.701   2.072
 6645SOL     OW20833   6.976   5.305   0.114
 6645SOL    HW120834   0.008   5.222   0.140
 6645SOL    HW220835   6.942   5.296   0.020
 6646SOL     OW20836   4.238   0.007   4.355
 6646SOL    HW120837   4.230   0.002   4.256
 6646SOL    HW220838   4.237   6.932   4.394
 6647SOL     OW20839   4.092   0.428   2.307
 6647SOL    HW120840   4.051   0.503   2.255
 6647SOL    HW220841   4.191   0.428   2.291
 6648SOL     OW20842   3.319   5.677   2.520
 6648SOL    HW120843   3.330   5.583   2.488
 6648SOL    HW220844   3.310   5.738   2.441
 6649SOL     OW20845   4.843   1.338   0.061
 6649SOL    HW120846   4.939   1.336   0.033
 6649SOL    HW220847   4.784   1.339   6.997
 6650SOL     OW20848   3.061   1.244   4.947
 6650SOL    HW120849   3.072   1.279   4.854
 6650SOL    HW220850   3.148   1.205   4.978
 6651SOL     OW20851   1.919   1.598   6.557
 6651SOL    HW120852   1.935   1.691   6.524
 6651SOL    HW220853   1.966   1.585   6.644
 6652SOL     OW20854   6.242   5.138   0.431
 6652SOL    HW120855   6.285   5.170   0.516
 6652SOL    HW220856   6.159   5.086   0.453
 6653SOL     OW20857   3.143   2.954   2.162
 6653SOL    HW120858   3.047   2.941   2.185
 6653SOL    HW220859   3.193   2.870   2.183
 6654SOL     OW20860   1.398   3.333   1.239
 6654SOL    HW120861   1.367   3.264   1.304
 6654SOL    HW220862   1.451   3.290   1.167
 6655SOL     OW20863   2.835   6.875   1.219
 6655SOL    HW120864   2.763   6.879   1.287
 6655SOL    HW220865   2.828   6.955   1.158
 6656SOL     OW20866   6.100   1.675   2.046
 6656SOL    HW120867   6.117   1.693   1.950
 6656SOL    HW220868   6.026   1.735   2.079
 6657SOL     OW20869   5.536   5.922   6.213
 6657SOL    HW120870   5.517   6.011   6.172
 6657SOL    HW220871   5.475   5.907   6.291
 6658SOL     OW20872   5.906   1.666   4.945
 6658SOL    HW120873   5.906   1.754   4.992
 6658SOL    HW220874   5.812   1.636   4.931
 6659SOL     OW20875   2.264   2.407   0.627
 6659SOL    HW120876   2.250   2.372   0.534
 6659SOL    HW220877   2.343   2.361   0.668
 6660SOL     OW20878   0.778   5.931   0.602
 6660SOL    HW120879   0.858   5.984   0.631
 6660SOL    HW220880   0.792   5.834   0.623
 6661SOL     OW20881   0.827   5.930   3.704
 6661SOL    HW120882   0.846   5.947   3.607
 6661SOL    HW220883   0.822   6.017   3.752
 6662SOL     OW20884   1.220   1.159   6.498
 6662SOL    HW120885   1.295   1.110   6.543
 6662SOL    HW220886   1.147   1.095   6.476
 6663SOL     OW20887   6.815   5.264   3.104
 6663SOL    HW120888   6.777   5.223   3.187
 6663SOL    HW220889   6.826   5.363   3.118
 6664SOL     OW20890   1.696   6.731   0.524
 6664SOL    HW120891   1.795   6.742   0.534
 6664SOL    HW220892   1.649   6.810   0.563
 6665SOL     OW20893   1.312   0.185   3.070
 6665SOL    HW120894   1.298   0.284   3.081
 6665SOL    HW220895   1.397   0.170   3.018
 6666SOL     OW20896   5.657   0.314   6.179
 6666SOL    HW120897   5.688   0.347   6.090
 6666SOL    HW220898   5.705   0.229   6.201
 6667SOL     OW20899   6.988   5.415   6.111
 6667SOL    HW120900   6.898   5.377   6.132
 6667SOL    HW220901   0.040   5.366   6.164
 6668SOL     OW20902   5.846   5.762   1.987
 6668SOL    HW120903   5.885   5.831   2.048
 6668SOL    HW220904   5.920   5.706   1.949
 6669SOL     OW20905   2.199   2.802   3.620
 6669SOL    HW120906   2.245   2.802   3.709
 6669SOL    HW220907   2.211   2.891   3.576
 6670SOL     OW20908   3.538   2.244   5.566
 6670SOL    HW120909   3.529   2.318   5.632
 6670SOL    HW220910   3.520   2.280   5.474
 6671SOL     OW20911   5.114   5.524   1.380
 6671SOL    HW120912   5.101   5.478   1.292
 6671SOL    HW220913   5.121   5.623   1.365
 6672SOL     OW20914   0.419   2.033   5.616
 6672SOL    HW120915   0.362   2.042   5.698
 6672SOL    HW220916   0.478   1.953   5.625
 6673SOL     OW20917   5.009   6.089   3.363
 6673SOL    HW120918   5.070   6.161   3.330
 6673SOL    HW220919   4.923   6.091   3.312
 6674SOL     OW20920   0.595   4.448   5.862
 6674SOL    HW120921   0.666   4.518   5.857
 6674SOL    HW220922   0.625   4.366   5.813
 6675SOL     OW20923   4.282   4.042   1.703
 6675SOL    HW120924   4.213   4.001   1.762
 6675SOL    HW220925   4.329   4.115   1.753
 6676SOL     OW20926   0.656   4.217   5.742
 6676SOL    HW120927   0.645   4.148   5.814
 6676SOL    HW220928   0.579   4.213   5.679
 6677SOL     OW20929   0.536   1.866   0.140
 6677SOL    HW120930   0.542   1.769   0.115
 6677SOL    HW220931   0.539   1.921   0.057
 6678SOL     OW20932   2.657   2.654   6.884
 6678SOL    HW120933   2.717   2.595   6.938
 6678SOL    HW220934   2.606   2.714   6.945
 6679SOL     OW20935   2.947   1.724   3.866
 6679SOL    HW120936   2.969   1.653   3.933
 6679SOL    HW220937   2.853   1.712   3.834
 6680SOL     OW20938   4.766   6.506   6.394
 6680SOL    HW120939   4.860   6.482   6.373
 6680SOL    HW220940   4.760   6.604   6.414
 6681SOL     OW20941   4.610   5.400   0.063
 6681SOL    HW120942   4.693   5.373   0.112
 6681SOL    HW220943   4.633   5.469   7.011
 6682SOL     OW20944   1.436   4.528   2.487
 6682SOL    HW120945   1.412   4.593   2.559
 6682SOL    HW220946   1.358   4.467   2.471
 6683SOL     OW20947   5.139   2.822   5.627
 6683SOL    HW120948   5.126   2.758   5.552
 6683SOL    HW220949   5.232   2.813   5.662
 6684SOL     OW20950   3.156   6.751   0.515
 6684SOL    HW120951   3.246   6.765   0.474
 6684SOL    HW220952   3.165   6.747   0.615
 6685SOL     OW20953   6.041   2.644   5.797
 6685SOL    HW120954   6.085   2.555   5.790
 6685SOL    HW220955   5.992   2.650   5.885
 6686SOL     OW20956   5.021   6.058   4.439
 6686SOL    HW120957   5.054   5.966   4.459
 6686SOL    HW220958   4.930   6.071   4.477
 6687SOL     OW20959   6.777   2.206   1.341
 6687SOL    HW120960   6.797   2.123   1.288
 6687SOL    HW220961   6.841   2.212   1.418
 6688SOL     OW20962   6.852   4.503   2.135
 6688SOL    HW120963   6.776   4.454   2.178
 6688SOL    HW220964   6.894   4.444   2.065
 6689SOL     OW20965   4.254   3.275   0.347
 6689SOL    HW120966   4.352   3.256   0.354
 6689SOL    HW220967   4.202   3.196   0.380
 6690SOL     OW20968   2.662   1.324   1.207
 6690SOL    HW120969   2.600   1.393   1.244
 6690SOL    HW220970   2.756   1.356   1.215
 6691SOL     OW20971   2.502   6.367   1.208
 6691SOL    HW120972   2.566   6.436   1.242
 6691SOL    HW220973   2.524   6.346   1.113
 6692SOL     OW20974   3.248   3.946   5.743
 6692SOL    HW120975   3.204   3.924   5.656
 6692SOL    HW220976   3.245   4.045   5.757
 6693SOL     OW20977   4.296   2.950   5.787
 6693SOL    HW120978   4.234   3.013   5.834
 6693SOL    HW220979   4.352   2.902   5.855
 6694SOL     OW20980   5.019   6.335   0.468
 6694SOL    HW120981   4.936   6.344   0.522
 6694SOL    HW220982   5.031   6.415   0.410
 6695SOL     OW20983   2.712   2.247   5.897
 6695SOL    HW120984   2.715   2.175   5.827
 6695SOL    HW220985   2.805   2.265   5.930
 6696SOL     OW20986   1.641   2.750   0.223
 6696SOL    HW120987   1.643   2.655   0.192
 6696SOL    HW220988   1.615   2.753   0.320
 6697SOL     OW20989   5.393   2.775   3.025
 6697SOL    HW120990   5.470   2.746   3.082
 6697SOL    HW220991   5.403   2.736   2.934
 6698SOL     OW20992   2.888   2.730   0.625
 6698SOL    HW120993   2.987   2.715   0.618
 6698SOL    HW220994   2.860   2.800   0.560
 6699SOL     OW20995   2.973   5.147   6.754
 6699SOL    HW120996   2.993   5.245   6.755
 6699SOL    HW220997   2.918   5.125   6.672
 6700SOL     OW20998   6.912   6.012   1.453
 6700SOL    HW120999   6.924   5.961   1.367
 6700SOL    HW221000   6.845   5.965   1.510
 6701SOL     OW21001   5.538   3.222   0.716
 6701SOL    HW121002   5.560   3.311   0.676
 6701SOL    HW221003   5.524   3.155   0.643
 6702SOL     OW21004   2.520   2.742   0.815
 6702SOL    HW121005   2.564   2.763   0.727
 6702SOL    HW221006   2.514   2.826   0.869
 6703SOL     OW21007   6.363   1.096   6.811
 6703SOL    HW121008   6.352   1.046   6.725
 6703SOL    HW221009   6.458   1.125   6.821
 6704SOL     OW21010   4.214   2.165   2.528
 6704SOL    HW121011   4.160   2.129   2.452
 6704SOL    HW221012   4.297   2.208   2.493
 6705SOL     OW21013   0.025   2.558   2.355
 6705SOL    HW121014   0.068   2.520   2.437
 6705SOL    HW221015   6.979   2.491   2.316
 6706SOL     OW21016   1.060   3.853   1.110
 6706SOL    HW121017   1.151   3.844   1.070
 6706SOL    HW221018   1.049   3.945   1.148
 6707SOL     OW21019   0.119   6.029   4.249
 6707SOL    HW121020   0.144   5.964   4.177
 6707SOL    HW221021   0.024   6.058   4.235
 6708SOL     OW21022   1.166   5.283   2.590
 6708SOL    HW121023   1.159   5.231   2.504
 6708SOL    HW221024   1.235   5.354   2.581
 6709SOL     OW21025   3.403   5.706   1.886
 6709SOL    HW121026   3.441   5.651   1.812
 6709SOL    HW221027   3.305   5.686   1.896
 6710SOL     OW21028   2.725   1.611   5.687
 6710SOL    HW121029   2.735   1.684   5.755
 6710SOL    HW221030   2.790   1.538   5.707
 6711SOL     OW21031   5.364   4.982   6.444
 6711SOL    HW121032   5.272   5.020   6.437
 6711SOL    HW221033   5.408   5.016   6.527
 6712SOL     OW21034   4.702   5.832   0.214
 6712SOL    HW121035   4.603   5.825   0.203
 6712SOL    HW221036   4.747   5.799   0.131
 6713SOL     OW21037   2.016   1.714   2.001
 6713SOL    HW121038   2.057   1.795   1.961
 6713SOL    HW221039   2.032   1.635   1.942
 6714SOL     OW21040   5.557   0.538   6.300
 6714SOL    HW121041   5.588   0.629   6.271
 6714SOL    HW221042   5.584   0.470   6.232
 6715SOL     OW21043   0.390   0.574   6.431
 6715SOL    HW121044   0.405   0.578   6.530
 6715SOL    HW221045   0.457   0.512   6.390
 6716SOL     OW21046   0.501   5.872   2.347
 6716SOL    HW121047   0.534   5.791   2.299
 6716SOL    HW221048   0.406   5.888   2.323
 6717SOL     OW21049   4.527   3.014   0.452
 6717SOL    HW121050   4.436   3.031   0.491
 6717SOL    HW221051   4.597   3.055   0.510
 6718SOL     OW21052   4.243   6.020   6.217
 6718SOL    HW121053   4.173   5.962   6.257
 6718SOL    HW221054   4.332   5.975   6.225
 6719SOL     OW21055   0.664   0.114   5.593
 6719SOL    HW121056   0.664   0.207   5.628
 6719SOL    HW221057   0.731   0.059   5.643
 6720SOL     OW21058   1.474   5.970   2.250
 6720SOL    HW121059   1.508   6.063   2.236
 6720SOL    HW221060   1.517   5.930   2.331
 6721SOL     OW21061   6.727   6.631   4.663
 6721SOL    HW121062   6.796   6.652   4.594
 6721SOL    HW221063   6.658   6.703   4.664
 6722SOL     OW21064   5.614   3.422   1.388
 6722SOL    HW121065   5.673   3.500   1.409
 6722SOL    HW221066   5.566   3.393   1.471
 6723SOL     OW21067   2.369   6.442   2.833
 6723SOL    HW121068   2.283   6.493   2.838
 6723SOL    HW221069   2.363   6.374   2.760
 6724SOL     OW21070   0.950   3.108   6.012
 6724SOL    HW121071   0.868   3.086   5.959
 6724SOL    HW221072   1.031   3.094   5.955
 6725SOL     OW21073   0.716   4.213   1.635
 6725SOL    HW121074   0.802   4.259   1.611
 6725SOL    HW221075   0.722   4.116   1.609
 6726SOL     OW21076   0.940   2.518   4.681
 6726SOL    HW121077   1.027   2.473   4.704
 6726SOL    HW221078   0.900   2.555   4.765
 6727SOL     OW21079   6.398   3.582   5.199
 6727SOL    HW121080   6.485   3.627   5.218
 6727SOL    HW221081   6.324   3.635   5.240
 6728SOL     OW21082   5.335   1.443   4.517
 6728SOL    HW121083   5.347   1.523   4.458
 6728SOL    HW221084   5.238   1.431   4.537
 6729SOL     OW21085   6.867   1.249   2.629
 6729SOL    HW121086   6.898   1.331   2.677
 6729SOL    HW221087   6.779   1.220   2.667
 6730SOL     OW21088   1.864   6.706   5.866
 6730SOL    HW121089   1.854   6.805   5.877
 6730SOL    HW221090   1.822   6.659   5.944
 6731SOL     OW21091   1.736   4.387   0.884
 6731SOL    HW121092   1.797   4.440   0.942
 6731SOL    HW221093   1.777   4.375   0.794
 6732SOL     OW21094   4.522   5.717   6.043
 6732SOL    HW121095   4.591   5.738   5.974
 6732SOL    HW221096   4.431   5.741   6.008
 6733SOL     OW21097   4.015   4.948   6.887
 6733SOL    HW121098   4.055   5.000   6.962
 6733SOL    HW221099   3.963   5.009   6.827
 6734SOL     OW21100   0.395   2.914   5.407
 6734SOL    HW121101   0.376   2.983   5.477
 6734SOL    HW221102   0.458   2.952   5.340
 6735SOL     OW21103   0.876   5.555   5.199
 6735SOL    HW121104   0.833   5.488   5.139
 6735SOL    HW221105   0.956   5.514   5.243
 6736SOL     OW21106   1.894   3.740   0.643
 6736SOL    HW121107   1.988   3.755   0.673
 6736SOL    HW221108   1.886   3.759   0.546
 6737SOL     OW21109   1.855   2.663   0.835
 6737SOL    HW121110   1.781   2.658   0.903
 6737SOL    HW221111   1.884   2.758   0.826
 6738SOL     OW21112   2.096   3.317   2.194
 6738SOL    HW121113   2.095   3.347   2.289
 6738SOL    HW221114   2.139   3.388   2.137
 6739SOL     OW21115   3.520   5.292   6.347
 6739SOL    HW121116   3.446   5.346   6.307
 6739SOL    HW221117   3.528   5.313   6.444
 6740SOL     OW21118   1.888   1.508   4.385
 6740SOL    HW121119   1.821   1.459   4.329
 6740SOL    HW221120   1.971   1.525   4.331
 6741SOL     OW21121   4.751   1.432   5.398
 6741SOL    HW121122   4.805   1.349   5.384
 6741SOL    HW221123   4.810   1.504   5.435
 6742SOL     OW21124   0.428   5.610   2.577
 6742SOL    HW121125   0.476   5.561   2.650
 6742SOL    HW221126   0.397   5.544   2.508
 6743SOL     OW21127   4.073   4.096   0.182
 6743SOL    HW121128   4.108   4.165   0.246
 6743SOL    HW221129   3.974   4.104   0.176
 6744SOL     OW21130   4.310   5.655   5.704
 6744SOL    HW121131   4.314   5.573   5.761
 6744SOL    HW221132   4.283   5.734   5.759
 6745SOL     OW21133   0.943   6.205   2.026
 6745SOL    HW121134   1.012   6.133   2.016
 6745SOL    HW221135   0.896   6.194   2.113
 6746SOL     OW21136   0.923   1.047   2.732
 6746SOL    HW121137   0.850   0.982   2.707
 6746SOL    HW221138   0.913   1.072   2.828
 6747SOL     OW21139   5.560   6.790   4.417
 6747SOL    HW121140   5.634   6.853   4.440
 6747SOL    HW221141   5.530   6.807   4.324
 6748SOL     OW21142   1.281   0.470   2.991
 6748SOL    HW121143   1.201   0.510   2.947
 6748SOL    HW221144   1.338   0.543   3.030
 6749SOL     OW21145   2.901   6.659   0.194
 6749SOL    HW121146   2.902   6.738   0.255
 6749SOL    HW221147   2.992   6.645   0.155
 6750SOL     OW21148   3.921   1.033   4.646
 6750SOL    HW121149   3.973   1.057   4.564
 6750SOL    HW221150   3.934   1.103   4.716
 6751SOL     OW21151   3.877   1.600   3.780
 6751SOL    HW121152   3.835   1.509   3.785
 6751SOL    HW221153   3.832   1.661   3.845
 6752SOL     OW21154   6.148   2.850   2.319
 6752SOL    HW121155   6.080   2.808   2.259
 6752SOL    HW221156   6.205   2.912   2.266
 6753SOL     OW21157   4.930   1.216   6.380
 6753SOL    HW121158   4.895   1.137   6.431
 6753SOL    HW221159   4.873   1.296   6.398
 6754SOL     OW21160   6.471   1.953   5.834
 6754SOL    HW121161   6.444   1.860   5.857
 6754SOL    HW221162   6.496   2.003   5.917
 6755SOL     OW21163   4.482   2.141   3.609
 6755SOL    HW121164   4.504   2.179   3.700
 6755SOL    HW221165   4.481   2.041   3.615
 6756SOL     OW21166   4.629   4.326   4.714
 6756SOL    HW121167   4.550   4.268   4.693
 6756SOL    HW221168   4.661   4.369   4.629
 6757SOL     OW21169   4.544   6.577   0.596
 6757SOL    HW121170   4.601   6.519   0.537
 6757SOL    HW221171   4.538   6.536   0.687
 6758SOL     OW21172   5.247   3.873   2.113
 6758SOL    HW121173   5.346   3.880   2.102
 6758SOL    HW221174   5.203   3.870   2.024
 6759SOL     OW21175   1.171   3.392   4.108
 6759SOL    HW121176   1.139   3.483   4.082
 6759SOL    HW221177   1.112   3.323   4.066
 6760SOL     OW21178   6.742   5.515   4.563
 6760SOL    HW121179   6.739   5.603   4.611
 6760SOL    HW221180   6.836   5.481   4.562
 6761SOL     OW21181   5.551   2.292   6.033
 6761SOL    HW121182   5.630   2.309   5.973
 6761SOL    HW221183   5.485   2.234   5.985
 6762SOL     OW21184   0.322   5.515   3.177
 6762SOL    HW121185   0.421   5.527   3.173
 6762SOL    HW221186   0.299   5.421   3.149
 6763SOL     OW21187   6.940   6.251   4.167
 6763SOL    HW121188   6.932   6.190   4.089
 6763SOL    HW221189   6.925   6.345   4.138
 6764SOL     OW21190   2.989   4.860   6.569
 6764SOL    HW121191   3.067   4.891   6.514
 6764SOL    HW221192   2.916   4.928   6.563
 6765SOL     OW21193   5.854   5.215   3.622
 6765SOL    HW121194   5.915   5.215   3.701
 6765SOL    HW221195   5.811   5.305   3.613
 6766SOL     OW21196   3.122   0.056   6.770
 6766SOL    HW121197   3.032   0.027   6.739
 6766SOL    HW221198   3.166   0.111   6.699
 6767SOL     OW21199   0.280   2.622   1.420
 6767SOL    HW121200   0.208   2.647   1.354
 6767SOL    HW221201   0.239   2.573   1.497
 6768SOL     OW21202   1.416   0.401   3.562
 6768SOL    HW121203   1.488   0.412   3.494
 6768SOL    HW221204   1.327   0.417   3.519
 6769SOL     OW21205   3.121   1.470   5.360
 6769SOL    HW121206   3.135   1.508   5.268
 6769SOL    HW221207   3.036   1.417   5.361
 6770SOL     OW21208   0.168   2.347   4.355
 6770SOL    HW121209   0.233   2.413   4.394
 6770SOL    HW221210   0.182   2.258   4.398
 6771SOL     OW21211   4.026   2.229   3.777
 6771SOL    HW121212   4.066   2.144   3.809
 6771SOL    HW221213   3.928   2.216   3.760
 6772SOL     OW21214   5.666   1.732   2.237
 6772SOL    HW121215   5.754   1.706   2.276
 6772SOL    HW221216   5.597   1.665   2.264
 6773SOL     OW21217   6.778   6.302   1.417
 6773SOL    HW121218   6.860   6.351   1.445
 6773SOL    HW221219   6.772   6.215   1.467
 6774SOL     OW21220   1.696   2.180   5.751
 6774SOL    HW121221   1.680   2.194   5.849
 6774SOL    HW221222   1.678   2.265   5.702
 6775SOL     OW21223   0.989   1.893   3.670
 6775SOL    HW121224   0.926   1.855   3.738
 6775SOL    HW221225   0.996   1.831   3.592
 6776SOL     OW21226   3.727   3.427   2.033
 6776SOL    HW121227   3.671   3.498   2.078
 6776SOL    HW221228   3.733   3.348   2.093
 6777SOL     OW21229   4.359   5.280   1.369
 6777SOL    HW121230   4.382   5.187   1.339
 6777SOL    HW221231   4.404   5.298   1.457
 6778SOL     OW21232   5.520   3.488   2.475
 6778SOL    HW121233   5.524   3.562   2.542
 6778SOL    HW221234   5.428   3.450   2.472
 6779SOL     OW21235   5.714   4.074   5.733
 6779SOL    HW121236   5.621   4.092   5.701
 6779SOL    HW221237   5.716   3.990   5.786
 6780SOL     OW21238   1.960   3.021   3.090
 6780SOL    HW121239   1.983   2.928   3.061
 6780SOL    HW221240   2.009   3.087   3.033
 6781SOL     OW21241   6.569   1.073   3.999
 6781SOL    HW121242   6.574   1.155   3.943
 6781SOL    HW221243   6.658   1.055   4.041
 6782SOL     OW21244   0.800   1.459   3.634
 6782SOL    HW121245   0.713   1.498   3.665
 6782SOL    HW221246   0.784   1.398   3.557
 6783SOL     OW21247   1.349   3.975   5.005
 6783SOL    HW121248   1.424   3.984   5.071
 6783SOL    HW221249   1.298   4.061   5.000
 6784SOL     OW21250   2.665   3.490   1.736
 6784SOL    HW121251   2.686   3.588   1.732
 6784SOL    HW221252   2.566   3.477   1.741
 6785SOL     OW21253   5.798   4.665   5.362
 6785SOL    HW121254   5.810   4.741   5.426
 6785SOL    HW221255   5.873   4.664   5.296
 6786SOL     OW21256   6.377   2.892   0.577
 6786SOL    HW121257   6.334   2.982   0.573
 6786SOL    HW221258   6.357   2.842   0.493
 6787SOL     OW21259   3.748   2.239   1.106
 6787SOL    HW121260   3.658   2.246   1.063
 6787SOL    HW221261   3.760   2.146   1.141
 6788SOL     OW21262   0.492   3.735   2.264
 6788SOL    HW121263   0.518   3.803   2.333
 6788SOL    HW221264   0.556   3.739   2.188
 6789SOL     OW21265   6.545   4.249   4.181
 6789SOL    HW121266   6.568   4.206   4.268
 6789SOL    HW221267   6.627   4.292   4.143
 6790SOL     OW21268   0.658   5.079   5.973
 6790SOL    HW121269   0.611   5.065   5.885
 6790SOL    HW221270   0.756   5.062   5.962
 6791SOL     OW21271   4.475   1.693   3.415
 6791SOL    HW121272   4.549   1.702   3.348
 6791SOL    HW221273   4.501   1.626   3.484
 6792SOL     OW21274   4.187   6.605   5.562
 6792SOL    HW121275   4.208   6.509   5.541
 6792SOL    HW221276   4.116   6.609   5.632
 6793SOL     OW21277   3.062   1.766   6.913
 6793SOL    HW121278   3.015   1.748   7.000
 6793SOL    HW221279   3.070   1.865   6.900
 6794SOL     OW21280   4.616   1.279   5.875
 6794SOL    HW121281   4.691   1.332   5.835
 6794SOL    HW221282   4.652   1.217   5.944
 6795SOL     OW21283   1.431   1.223   1.432
 6795SOL    HW121284   1.479   1.158   1.373
 6795SOL    HW221285   1.337   1.193   1.446
 6796SOL     OW21286   5.873   1.180   1.709
 6796SOL    HW121287   5.813   1.166   1.631
 6796SOL    HW221288   5.964   1.206   1.677
 6797SOL     OW21289   6.651   3.017   1.407
 6797SOL    HW121290   6.719   3.079   1.447
 6797SOL    HW221291   6.687   2.924   1.408
 6798SOL     OW21292   5.393   0.286   1.629
 6798SOL    HW121293   5.456   0.219   1.591
 6798SOL    HW221294   5.312   0.238   1.664
 6799SOL     OW21295   5.395   0.018   3.410
 6799SOL    HW121296   5.386   6.960   3.475
 6799SOL    HW221297   5.304   0.043   3.376
 6800SOL     OW21298   1.353   1.662   0.978
 6800SOL    HW121299   1.396   1.611   1.052
 6800SOL    HW221300   1.275   1.610   0.943
 6801SOL     OW21301   1.535   6.351   4.740
 6801SOL    HW121302   1.493   6.413   4.807
 6801SOL    HW221303   1.464   6.315   4.680
 6802SOL     OW21304   3.107   6.280   0.809
 6802SOL    HW121305   3.109   6.225   0.893
 6802SOL    HW221306   3.066   6.228   0.735
 6803SOL     OW21307   5.068   4.535   6.932
 6803SOL    HW121308   5.013   4.525   7.014
 6803SOL    HW221309   5.075   4.632   6.908
 6804SOL     OW21310   2.949   5.045   2.740
 6804SOL    HW121311   2.861   5.062   2.785
 6804SOL    HW221312   2.945   5.078   2.645
 6805SOL     OW21313   0.389   4.495   5.600
 6805SOL    HW121314   0.375   4.558   5.676
 6805SOL    HW221315   0.341   4.528   5.519
 6806SOL     OW21316   6.897   1.038   3.991
 6806SOL    HW121317   6.961   1.077   3.926
 6806SOL    HW221318   6.935   1.045   4.084
 6807SOL     OW21319   3.699   3.007   3.646
 6807SOL    HW121320   3.741   2.976   3.731
 6807SOL    HW221321   3.616   3.059   3.667
 6808SOL     OW21322   5.073   1.132   5.033
 6808SOL    HW121323   5.112   1.223   5.018
 6808SOL    HW221324   5.138   1.075   5.083
 6809SOL     OW21325   6.235   4.728   1.594
 6809SOL    HW121326   6.136   4.732   1.578
 6809SOL    HW221327   6.280   4.696   1.511
 6810SOL     OW21328   3.477   0.923   3.125
 6810SOL    HW121329   3.382   0.952   3.140
 6810SOL    HW221330   3.535   1.004   3.117
 6811SOL     OW21331   6.867   1.919   2.608
 6811SOL    HW121332   6.949   1.884   2.654
 6811SOL    HW221333   6.830   1.995   2.662
 6812SOL     OW21334   3.390   3.547   4.696
 6812SOL    HW121335   3.371   3.449   4.695
 6812SOL    HW221336   3.360   3.588   4.610
 6813SOL     OW21337   4.965   3.415   2.080
 6813SOL    HW121338   4.909   3.363   2.014
 6813SOL    HW221339   4.990   3.356   2.156
 6814SOL     OW21340   4.106   1.498   5.923
 6814SOL    HW121341   4.144   1.589   5.942
 6814SOL    HW221342   4.180   1.431   5.920
 6815SOL     OW21343   1.819   5.055   6.876
 6815SOL    HW121344   1.901   5.014   6.834
 6815SOL    HW221345   1.773   5.112   6.809
 6816SOL     OW21346   6.077   1.641   4.741
 6816SOL    HW121347   6.070   1.580   4.662
 6816SOL    HW221348   6.018   1.608   4.815
 6817SOL     OW21349   3.171   2.175   3.227
 6817SOL    HW121350   3.088   2.231   3.219
 6817SOL    HW221351   3.210   2.187   3.319
 6818SOL     OW21352   2.314   6.753   5.993
 6818SOL    HW121353   2.330   6.707   6.080
 6818SOL    HW221354   2.244   6.823   6.004
 6819SOL     OW21355   4.604   5.833   2.947
 6819SOL    HW121356   4.682   5.804   2.892
 6819SOL    HW221357   4.583   5.929   2.928
 6820SOL     OW21358   1.330   6.372   1.584
 6820SOL    HW121359   1.250   6.426   1.609
 6820SOL    HW221360   1.394   6.429   1.532
 6821SOL     OW21361   4.153   2.343   5.359
 6821SOL    HW121362   4.072   2.290   5.386
 6821SOL    HW221363   4.143   2.373   5.264
 6822SOL     OW21364   6.855   2.712   6.577
 6822SOL    HW121365   6.831   2.716   6.674
 6822SOL    HW221366   6.834   2.622   6.541
 6823SOL     OW21367   5.110   3.590   6.978
 6823SOL    HW121368   5.159   3.553   0.040
 6823SOL    HW221369   5.048   3.521   6.941
 6824SOL     OW21370   1.323   1.999   6.863
 6824SOL    HW121371   1.349   1.968   6.772
 6824SOL    HW221372   1.334   1.924   6.928
 6825SOL     OW21373   6.668   6.109   1.171
 6825SOL    HW121374   6.633   6.015   1.168
 6825SOL    HW221375   6.633   6.154   1.254
 6826SOL     OW21376   0.275   3.603   2.687
 6826SOL    HW121377   0.367   3.611   2.725
 6826SOL    HW221378   0.211   3.583   2.761
 6827SOL     OW21379   5.093   5.278   5.642
 6827SOL    HW121380   5.168   5.336   5.610
 6827SOL    HW221381   5.061   5.221   5.567
 6828SOL     OW21382   3.591   1.673   3.018
 6828SOL    HW121383   3.535   1.749   2.983
 6828SOL    HW221384   3.605   1.606   2.945
 6829SOL     OW21385   5.545   0.177   5.171
 6829SOL    HW121386   5.549   0.239   5.249
 6829SOL    HW221387   5.586   0.221   5.092
 6830SOL     OW21388   6.067   0.970   3.362
 6830SOL    HW121389   6.028   0.969   3.270
 6830SOL    HW221390   6.027   1.046   3.414
 6831SOL     OW21391   1.101   1.293   5.440
 6831SOL    HW121392   1.112   1.271   5.537
 6831SOL    HW221393   1.024   1.355   5.427
 6832SOL     OW21394   2.763   2.528   0.332
 6832SOL    HW121395   2.674   2.515   0.288
 6832SOL    HW221396   2.750   2.573   0.421
 6833SOL     OW21397   3.360   5.577   6.379
 6833SOL    HW121398   3.313   5.513   6.318
 6833SOL    HW221399   3.304   5.659   6.391
 6834SOL     OW21400   5.141   0.126   0.804
 6834SOL    HW121401   5.193   0.138   0.719
 6834SOL    HW221402   5.046   0.153   0.788
 6835SOL     OW21403   3.661   1.525   4.062
 6835SOL    HW121404   3.736   1.490   4.118
 6835SOL    HW221405   3.679   1.620   4.038
 6836SOL     OW21406   2.192   4.436   6.706
 6836SOL    HW121407   2.192   4.413   6.803
 6836SOL    HW221408   2.281   4.474   6.680
 6837SOL     OW21409   1.307   1.150   2.259
 6837SOL    HW121410   1.310   1.232   2.202
 6837SOL    HW221411   1.218   1.145   2.305
 6838SOL     OW21412   2.983   4.256   5.305
 6838SOL    HW121413   2.916   4.254   5.379
 6838SOL    HW221414   2.972   4.341   5.253
 6839SOL     OW21415   4.916   2.053   3.613
 6839SOL    HW121416   4.846   1.994   3.573
 6839SOL    HW221417   4.917   2.141   3.566
 6840SOL     OW21418   2.778   6.943   4.447
 6840SOL    HW121419   2.851   7.009   4.467
 6840SOL    HW221420   2.780   6.870   4.517
 6841SOL     OW21421   3.920   4.881   1.934
 6841SOL    HW121422   3.839   4.822   1.942
 6841SOL    HW221423   3.937   4.899   1.837
 6842SOL     OW21424   0.911   3.061   0.110
 6842SOL    HW121425   0.875   3.056   0.203
 6842SOL    HW221426   1.005   3.026   0.109
 6843SOL     OW21427   4.930   1.508   1.902
 6843SOL    HW121428   4.842   1.553   1.918
 6843SOL    HW221429   4.986   1.516   1.984
 6844SOL     OW21430   4.951   5.670   4.797
 6844SOL    HW121431   4.995   5.580   4.794
 6844SOL    HW221432   4.866   5.664   4.849
 6845SOL     OW21433   4.705   4.312   2.805
 6845SOL    HW121434   4.803   4.330   2.812
 6845SOL    HW221435   4.686   4.259   2.722
 6846SOL     OW21436   3.896   3.406   1.437
 6846SOL    HW121437   3.913   3.469   1.361
 6846SOL    HW221438   3.971   3.413   1.503
 6847SOL     OW21439   4.635   3.573   1.605
 6847SOL    HW121440   4.671   3.485   1.636
 6847SOL    HW221441   4.551   3.558   1.551
 6848SOL     OW21442   0.995   4.631   4.544
 6848SOL    HW121443   1.069   4.605   4.481
 6848SOL    HW221444   0.918   4.667   4.491
 6849SOL     OW21445   3.810   5.640   4.121
 6849SOL    HW121446   3.904   5.658   4.092
 6849SOL    HW221447   3.792   5.686   4.208
 6850SOL     OW21448   5.737   2.506   3.441
 6850SOL    HW121449   5.792   2.423   3.438
 6850SOL    HW221450   5.787   2.582   3.399
 6851SOL     OW21451   0.932   4.983   5.580
 6851SOL    HW121452   0.842   4.957   5.544
 6851SOL    HW221453   0.937   5.082   5.589
 6852SOL     OW21454   0.980   4.265   1.544
 6852SOL    HW121455   1.020   4.335   1.485
 6852SOL    HW221456   1.011   4.175   1.514
 6853SOL     OW21457   6.736   4.905   6.445
 6853SOL    HW121458   6.662   4.964   6.477
 6853SOL    HW221459   6.715   4.872   6.353
 6854SOL     OW21460   6.419   1.208   5.975
 6854SOL    HW121461   6.338   1.265   5.991
 6854SOL    HW221462   6.493   1.239   6.035
 6855SOL     OW21463   3.578   6.889   2.628
 6855SOL    HW121464   3.549   6.824   2.558
 6855SOL    HW221465   3.558   6.851   2.718
 6856SOL     OW21466   5.466   4.083   5.599
 6856SOL    HW121467   5.382   4.030   5.585
 6856SOL    HW221468   5.527   4.069   5.521
 6857SOL     OW21469   3.509   1.094   6.471
 6857SOL    HW121470   3.465   1.020   6.421
 6857SOL    HW221471   3.444   1.169   6.483
 6858SOL     OW21472   3.849   2.988   4.444
 6858SOL    HW121473   3.777   2.940   4.494
 6858SOL    HW221474   3.909   3.036   4.509
 6859SOL     OW21475   1.634   6.850   1.115
 6859SOL    HW121476   1.555   6.832   1.173
 6859SOL    HW221477   1.676   6.763   1.088
 6860SOL     OW21478   5.999   5.021   1.693
 6860SOL    HW121479   5.940   4.965   1.634
 6860SOL    HW221480   5.944   5.091   1.738
 6861SOL     OW21481   5.390   4.648   1.060
 6861SOL    HW121482   5.457   4.709   1.017
 6861SOL    HW221483   5.427   4.556   1.065
 6862SOL     OW21484   2.602   4.907   4.714
 6862SOL    HW121485   2.578   4.981   4.777
 6862SOL    HW221486   2.539   4.907   4.637
 6863SOL     OW21487   6.018   1.262   5.069
 6863SOL    HW121488   6.063   1.193   5.127
 6863SOL    HW221489   6.074   1.280   4.989
 6864SOL     OW21490   3.518   5.824   3.890
 6864SOL    HW121491   3.529   5.769   3.807
 6864SOL    HW221492   3.581   5.902   3.888
 6865SOL     OW21493   6.448   4.670   3.788
 6865SOL    HW121494   6.359   4.624   3.791
 6865SOL    HW221495   6.502   4.630   3.714
 6866SOL     OW21496   6.568   4.315   2.006
 6866SOL    HW121497   6.564   4.380   2.082
 6866SOL    HW221498   6.544   4.224   2.038
 6867SOL     OW21499   0.969   4.147   1.108
 6867SOL    HW121500   1.059   4.181   1.136
 6867SOL    HW221501   0.941   4.192   1.023
 6868SOL     OW21502   1.741   6.056   4.987
 6868SOL    HW121503   1.728   6.116   5.066
 6868SOL    HW221504   1.752   6.111   4.904
 6869SOL     OW21505   5.382   3.188   4.724
 6869SOL    HW121506   5.339   3.269   4.683
 6869SOL    HW221507   5.315   3.115   4.732
 6870SOL     OW21508   6.070   3.565   3.087
 6870SOL    HW121509   6.076   3.584   3.185
 6870SOL    HW221510   5.974   3.558   3.061
 6871SOL     OW21511   6.085   5.183   2.086
 6871SOL    HW121512   6.007   5.126   2.108
 6871SOL    HW221513   6.140   5.139   2.015
 6872SOL     OW21514   1.679   3.659   0.793
 6872SOL    HW121515   1.683   3.562   0.768
 6872SOL    HW221516   1.762   3.705   0.762
 6873SOL     OW21517   6.181   3.467   5.624
 6873SOL    HW121518   6.187   3.460   5.524
 6873SOL    HW221519   6.222   3.385   5.665
 6874SOL     OW21520   0.509   3.978   3.311
 6874SOL    HW121521   0.462   3.890   3.307
 6874SOL    HW221522   0.581   3.974   3.381
 6875SOL     OW21523   1.465   2.065   3.710
 6875SOL    HW121524   1.374   2.064   3.752
 6875SOL    HW221525   1.498   1.971   3.700
 6876SOL     OW21526   3.469   5.392   6.644
 6876SOL    HW121527   3.439   5.488   6.638
 6876SOL    HW221528   3.496   5.372   6.738
 6877SOL     OW21529   2.849   4.320   6.906
 6877SOL    HW121530   2.902   4.238   6.926
 6877SOL    HW221531   2.897   4.400   6.941
 6878SOL     OW21532   1.906   1.722   5.963
 6878SOL    HW121533   1.928   1.756   5.872
 6878SOL    HW221534   1.922   1.623   5.967
 6879SOL     OW21535   0.631   2.197   0.587
 6879SOL    HW121536   0.713   2.204   0.530
 6879SOL    HW221537   0.639   2.258   0.666
 6880SOL     OW21538   2.014   3.465   5.051
 6880SOL    HW121539   2.058   3.378   5.025
 6880SOL    HW221540   1.958   3.498   4.976
 6881SOL     OW21541   0.070   4.643   2.125
 6881SOL    HW121542   0.094   4.644   2.028
 6881SOL    HW221543   7.005   4.587   2.137
 6882SOL     OW21544   1.898   0.725   5.467
 6882SOL    HW121545   1.903   0.822   5.488
 6882SOL    HW221546   1.841   0.679   5.535
 6883SOL     OW21547   3.564   0.481   0.981
 6883SOL    HW121548   3.503   0.430   1.042
 6883SOL    HW221549   3.648   0.428   0.968
 6884SOL     OW21550   2.333   4.264   3.887
 6884SOL    HW121551   2.388   4.319   3.824
 6884SOL    HW221552   2.249   4.236   3.841
 6885SOL     OW21553   2.569   5.406   3.975
 6885SOL    HW121554   2.653   5.362   4.004
 6885SOL    HW221555   2.574   5.430   3.878
 6886SOL     OW21556   6.517   1.146   2.105
 6886SOL    HW121557   6.518   1.095   2.191
 6886SOL    HW221558   6.443   1.214   2.108
 6887SOL     OW21559   5.248   0.682   5.461
 6887SOL    HW121560   5.334   0.665   5.413
 6887SOL    HW221561   5.251   0.638   5.550
 6888SOL     OW21562   5.811   6.842   6.106
 6888SOL    HW121563   5.901   6.833   6.064
 6888SOL    HW221564   5.819   6.828   6.205
 6889SOL     OW21565   1.177   2.521   5.412
 6889SOL    HW121566   1.190   2.517   5.511
 6889SOL    HW221567   1.206   2.435   5.371
 6890SOL     OW21568   2.035   0.299   0.632
 6890SOL    HW121569   1.942   0.326   0.606
 6890SOL    HW221570   2.071   0.234   0.564
 6891SOL     OW21571   2.129   3.670   4.725
 6891SOL    HW121572   2.161   3.702   4.814
 6891SOL    HW221573   2.095   3.576   4.733
 6892SOL     OW21574   4.083   0.192   4.482
 6892SOL    HW121575   4.147   0.122   4.451
 6892SOL    HW221576   4.021   0.152   4.550
 6893SOL     OW21577   5.240   6.347   2.211
 6893SOL    HW121578   5.304   6.369   2.283
 6893SOL    HW221579   5.241   6.419   2.141
 6894SOL     OW21580   6.273   5.601   1.077
 6894SOL    HW121581   6.201   5.555   1.024
 6894SOL    HW221582   6.277   5.561   1.168
 6895SOL     OW21583   3.156   4.942   0.105
 6895SOL    HW121584   3.089   4.876   0.071
 6895SOL    HW221585   3.174   5.011   0.034
 6896SOL     OW21586   4.053   6.847   3.569
 6896SOL    HW121587   4.054   6.897   3.656
 6896SOL    HW221588   4.138   6.797   3.558
 6897SOL     OW21589   2.805   3.325   0.298
 6897SOL    HW121590   2.733   3.350   0.232
 6897SOL    HW221591   2.894   3.334   0.254
 6898SOL     OW21592   4.171   1.575   2.341
 6898SOL    HW121593   4.219   1.488   2.325
 6898SOL    HW221594   4.072   1.560   2.332
 6899SOL     OW21595   4.761   0.072   6.523
 6899SOL    HW121596   4.725   0.157   6.562
 6899SOL    HW221597   4.773   0.005   6.596
 6900SOL     OW21598   6.188   0.589   6.374
 6900SOL    HW121599   6.117   0.523   6.349
 6900SOL    HW221600   6.270   0.571   6.319
 6901SOL     OW21601   0.438   0.216   6.675
 6901SOL    HW121602   0.342   0.242   6.671
 6901SOL    HW221603   0.473   0.200   6.583
 6902SOL     OW21604   0.008   6.651   0.539
 6902SOL    HW121605   0.085   6.597   0.571
 6902SOL    HW221606   0.027   6.748   0.556
 6903SOL     OW21607   3.421   3.448   6.947
 6903SOL    HW121608   3.415   3.487   0.022
 6903SOL    HW221609   3.516   3.451   6.915
 6904SOL     OW21610   6.702   1.284   3.602
 6904SOL    HW121611   6.772   1.213   3.614
 6904SOL    HW221612   6.655   1.299   3.688
 6905SOL     OW21613   6.066   6.238   0.036
 6905SOL    HW121614   5.990   6.295   0.067
 6905SOL    HW221615   6.131   6.226   0.110
 6906SOL     OW21616   4.098   1.166   4.472
 6906SOL    HW121617   4.130   1.231   4.402
 6906SOL    HW221618   4.111   1.206   4.563
 6907SOL     OW21619   4.082   2.219   0.729
 6907SOL    HW121620   4.084   2.296   0.794
 6907SOL    HW221621   4.055   2.136   0.778
 6908SOL     OW21622   1.430   0.136   5.011
 6908SOL    HW121623   1.483   0.055   5.037
 6908SOL    HW221624   1.488   0.217   5.017
 6909SOL     OW21625   4.547   4.571   1.284
 6909SOL    HW121626   4.582   4.482   1.254
 6909SOL    HW221627   4.449   4.576   1.264
 6910SOL     OW21628   6.650   1.874   3.140
 6910SOL    HW121629   6.597   1.790   3.127
 6910SOL    HW221630   6.596   1.953   3.111
 6911SOL     OW21631   4.061   0.406   3.210
 6911SOL    HW121632   4.021   0.496   3.197
 6911SOL    HW221633   4.019   0.341   3.146
 6912SOL     OW21634   4.871   4.505   1.858
 6912SOL    HW121635   4.926   4.504   1.775
 6912SOL    HW221636   4.774   4.496   1.835
 6913SOL     OW21637   5.073   4.276   5.498
 6913SOL    HW121638   5.167   4.296   5.471
 6913SOL    HW221639   5.049   4.183   5.472
 6914SOL     OW21640   5.883   5.755   0.383
 6914SOL    HW121641   5.976   5.717   0.385
 6914SOL    HW221642   5.888   5.853   0.364
 6915SOL     OW21643   0.309   4.753   1.678
 6915SOL    HW121644   0.245   4.823   1.710
 6915SOL    HW221645   0.402   4.779   1.702
 6916SOL     OW21646   6.329   4.036   6.939
 6916SOL    HW121647   6.249   4.086   6.905
 6916SOL    HW221648   6.357   3.968   6.871
 6917SOL     OW21649   4.263   5.044   6.652
 6917SOL    HW121650   4.332   5.117   6.661
 6917SOL    HW221651   4.173   5.086   6.641
 6918SOL     OW21652   0.445   4.242   4.277
 6918SOL    HW121653   0.526   4.295   4.253
 6918SOL    HW221654   0.459   4.198   4.366
 6919SOL     OW21655   1.685   5.463   2.505
 6919SOL    HW121656   1.605   5.463   2.565
 6919SOL    HW221657   1.694   5.553   2.461
 6920SOL     OW21658   5.186   5.030   5.745
 6920SOL    HW121659   5.123   5.107   5.739
 6920SOL    HW221660   5.139   4.951   5.783
 6921SOL     OW21661   5.469   5.830   3.283
 6921SOL    HW121662   5.534   5.902   3.257
 6921SOL    HW221663   5.388   5.836   3.224
 6922SOL     OW21664   1.739   5.844   7.016
 6922SOL    HW121665   1.778   5.914   6.956
 6922SOL    HW221666   1.812   5.788   0.038
 6923SOL     OW21667   5.563   6.645   3.856
 6923SOL    HW121668   5.637   6.606   3.801
 6923SOL    HW221669   5.574   6.744   3.861
 6924SOL     OW21670   0.809   3.952   6.325
 6924SOL    HW121671   0.726   3.902   6.348
 6924SOL    HW221672   0.824   3.949   6.226
 6925SOL     OW21673   4.161   6.188   4.150
 6925SOL    HW121674   4.157   6.137   4.064
 6925SOL    HW221675   4.130   6.130   4.225
 6926SOL     OW21676   3.448   3.255   3.213
 6926SOL    HW121677   3.547   3.254   3.199
 6926SOL    HW221678   3.428   3.244   3.311
 6927SOL     OW21679   5.915   2.942   6.031
 6927SOL    HW121680   5.921   2.850   6.070
 6927SOL    HW221681   5.869   2.938   5.943
 6928SOL     OW21682   5.811   6.888   0.105
 6928SOL    HW121683   5.821   6.794   0.072
 6928SOL    HW221684   5.777   6.946   0.032
 6929SOL     OW21685   4.605   6.243   0.024
 6929SOL    HW121686   4.697   6.208   0.007
 6929SOL    HW221687   4.538   6.184   6.995
 6930SOL     OW21688   0.242   6.910   1.361
 6930SOL    HW121689   0.273   6.829   1.310
 6930SOL    HW221690   0.245   6.890   1.459
 6931SOL     OW21691   0.805   0.840   1.607
 6931SOL    HW121692   0.805   0.744   1.635
 6931SOL    HW221693   0.771   0.848   1.513
 6932SOL     OW21694   3.618   0.914   0.220
 6932SOL    HW121695   3.675   0.893   0.299
 6932SOL    HW221696   3.570   1.001   0.236
 6933SOL     OW21697   3.814   6.003   4.703
 6933SOL    HW121698   3.742   5.941   4.671
 6933SOL    HW221699   3.809   6.089   4.651
 6934SOL     OW21700   5.377   3.510   6.194
 6934SOL    HW121701   5.448   3.532   6.127
 6934SOL    HW221702   5.419   3.488   6.282
 6935SOL     OW21703   3.968   6.695   2.903
 6935SOL    HW121704   4.047   6.636   2.882
 6935SOL    HW221705   3.948   6.689   3.001
 6936SOL     OW21706   6.744   2.125   2.741
 6936SOL    HW121707   6.809   2.127   2.816
 6936SOL    HW221708   6.654   2.155   2.773
 6937SOL     OW21709   5.736   6.626   0.045
 6937SOL    HW121710   5.681   6.615   6.979
 6937SOL    HW221711   5.677   6.654   0.121
 6938SOL     OW21712   5.186   3.675   5.296
 6938SOL    HW121713   5.271   3.720   5.270
 6938SOL    HW221714   5.147   3.721   5.376
 6939SOL     OW21715   6.981   5.155   2.919
 6939SOL    HW121716   6.946   5.062   2.906
 6939SOL    HW221717   6.934   5.198   2.996
 6940SOL     OW21718   4.729   1.548   0.702
 6940SOL    HW121719   4.663   1.622   0.690
 6940SOL    HW221720   4.807   1.563   0.641
 6941SOL     OW21721   3.886   3.044   2.954
 6941SOL    HW121722   3.816   2.983   2.916
 6941SOL    HW221723   3.866   3.062   3.050
 6942SOL     OW21724   0.270   2.983   1.342
 6942SOL    HW121725   0.359   2.976   1.297
 6942SOL    HW221726   0.202   2.933   1.289
 6943SOL     OW21727   5.212   6.505   6.701
 6943SOL    HW121728   5.289   6.442   6.709
 6943SOL    HW221729   5.129   6.462   6.738
 6944SOL     OW21730   1.483   4.468   5.276
 6944SOL    HW121731   1.558   4.467   5.210
 6944SOL    HW221732   1.518   4.493   5.366
 6945SOL     OW21733   5.863   3.083   0.105
 6945SOL    HW121734   5.813   3.169   0.117
 6945SOL    HW221735   5.932   3.074   0.177
 6946SOL     OW21736   6.094   5.478   2.355
 6946SOL    HW121737   6.187   5.465   2.387
 6946SOL    HW221738   6.073   5.575   2.351
 6947SOL     OW21739   4.339   6.812   5.190
 6947SOL    HW121740   4.275   6.811   5.113
 6947SOL    HW221741   4.399   6.732   5.186
 6948SOL     OW21742   5.690   0.360   0.428
 6948SOL    HW121743   5.603   0.360   0.478
 6948SOL    HW221744   5.735   0.449   0.438
 6949SOL     OW21745   5.281   6.378   3.727
 6949SOL    HW121746   5.196   6.335   3.698
 6949SOL    HW221747   5.283   6.384   3.827
 6950SOL     OW21748   2.319   6.922   3.472
 6950SOL    HW121749   2.403   6.869   3.485
 6950SOL    HW221750   2.306   6.985   3.549
 6951SOL     OW21751   6.167   6.189   6.179
 6951SOL    HW121752   6.114   6.251   6.122
 6951SOL    HW221753   6.195   6.235   6.263
 6952SOL     OW21754   6.957   5.237   3.693
 6952SOL    HW121755   6.983   5.152   3.647
 6952SOL    HW221756   6.892   5.288   3.636
 6953SOL     OW21757   5.365   0.285   5.967
 6953SOL    HW121758   5.330   0.192   5.980
 6953SOL    HW221759   5.288   0.348   5.963
 6954SOL     OW21760   1.307   4.212   4.069
 6954SOL    HW121761   1.245   4.134   4.082
 6954SOL    HW221762   1.260   4.282   4.015
 6955SOL     OW21763   0.175   0.380   1.942
 6955SOL    HW121764   0.162   0.402   2.039
 6955SOL    HW221765   0.088   0.349   1.903
 6956SOL     OW21766   3.976   6.291   2.773
 6956SOL    HW121767   4.026   6.245   2.699
 6956SOL    HW221768   4.034   6.299   2.853
 6957SOL     OW21769   6.954   4.372   1.263
 6957SOL    HW121770   6.980   4.461   1.225
 6957SOL    HW221771   0.000   4.347   1.337
 6958SOL     OW21772   2.975   3.456   5.637
 6958SOL    HW121773   2.913   3.393   5.684
 6958SOL    HW221774   3.022   3.513   5.705
 6959SOL     OW21775   1.930   1.290   4.982
 6959SOL    HW121776   1.982   1.351   4.922
 6959SOL    HW221777   1.980   1.204   4.994
 6960SOL     OW21778   0.864   5.157   0.274
 6960SOL    HW121779   0.863   5.248   0.315
 6960SOL    HW221780   0.775   5.137   0.234
 6961SOL     OW21781   0.251   2.660   4.428
 6961SOL    HW121782   0.313   2.598   4.380
 6961SOL    HW221783   0.198   2.713   4.362
 6962SOL     OW21784   5.514   5.204   2.771
 6962SOL    HW121785   5.527   5.109   2.743
 6962SOL    HW221786   5.586   5.261   2.730
 6963SOL     OW21787   0.505   5.790   0.565
 6963SOL    HW121788   0.501   5.692   0.583
 6963SOL    HW221789   0.549   5.836   0.642
 6964SOL     OW21790   5.032   4.682   5.004
 6964SOL    HW121791   4.996   4.744   5.075
 6964SOL    HW221792   4.957   4.644   4.951
 6965SOL     OW21793   0.362   3.574   6.279
 6965SOL    HW121794   0.453   3.599   6.246
 6965SOL    HW221795   0.367   3.491   6.333
 6966SOL     OW21796   6.056   2.617   2.814
 6966SOL    HW121797   6.024   2.531   2.855
 6966SOL    HW221798   6.023   2.694   2.868
 6967SOL     OW21799   1.273   1.765   5.073
 6967SOL    HW121800   1.266   1.751   4.974
 6967SOL    HW221801   1.283   1.676   5.118
 6968SOL     OW21802   3.393   6.307   2.491
 6968SOL    HW121803   3.457   6.359   2.434
 6968SOL    HW221804   3.320   6.367   2.523
 6969SOL     OW21805   3.833   1.872   2.179
 6969SOL    HW121806   3.777   1.844   2.100
 6969SOL    HW221807   3.805   1.963   2.210
 6970SOL     OW21808   4.397   4.312   0.536
 6970SOL    HW121809   4.460   4.243   0.502
 6970SOL    HW221810   4.344   4.274   0.612
 6971SOL     OW21811   6.536   4.063   2.083
 6971SOL    HW121812   6.593   4.046   2.163
 6971SOL    HW221813   6.481   3.981   2.063
 6972SOL     OW21814   6.157   4.912   4.365
 6972SOL    HW121815   6.232   4.909   4.430
 6972SOL    HW221816   6.081   4.964   4.404
 6973SOL     OW21817   1.368   4.043   4.662
 6973SOL    HW121818   1.356   3.951   4.701
 6973SOL    HW221819   1.345   4.111   4.731
 6974SOL     OW21820   3.243   2.969   3.513
 6974SOL    HW121821   3.323   3.019   3.479
 6974SOL    HW221822   3.249   2.960   3.612
 6975SOL     OW21823   3.100   6.277   5.988
 6975SOL    HW121824   3.059   6.334   5.917
 6975SOL    HW221825   3.190   6.313   6.011
 6976SOL     OW21826   4.114   3.790   5.531
 6976SOL    HW121827   4.069   3.863   5.481
 6976SOL    HW221828   4.047   3.719   5.554
 6977SOL     OW21829   5.581   2.195   1.302
 6977SOL    HW121830   5.488   2.198   1.265
 6977SOL    HW221831   5.578   2.172   1.399
 6978SOL     OW21832   6.163   1.840   1.014
 6978SOL    HW121833   6.255   1.813   1.041
 6978SOL    HW221834   6.104   1.843   1.095
 6979SOL     OW21835   1.510   4.531   1.288
 6979SOL    HW121836   1.507   4.523   1.189
 6979SOL    HW221837   1.585   4.592   1.314
 6980SOL     OW21838   1.643   0.516   3.955
 6980SOL    HW121839   1.552   0.504   3.916
 6980SOL    HW221840   1.635   0.559   4.045
 6981SOL     OW21841   2.444   3.184   0.042
 6981SOL    HW121842   2.447   3.156   6.962
 6981SOL    HW221843   2.356   3.159   0.081
 6982SOL     OW21844   1.541   1.488   3.969
 6982SOL    HW121845   1.469   1.532   3.915
 6982SOL    HW221846   1.553   1.537   4.055
 6983SOL     OW21847   5.966   2.337   3.426
 6983SOL    HW121848   5.991   2.416   3.481
 6983SOL    HW221849   5.974   2.254   3.482
 6984SOL     OW21850   2.529   1.727   5.104
 6984SOL    HW121851   2.623   1.729   5.137
 6984SOL    HW221852   2.527   1.745   5.006
 6985SOL     OW21853   3.568   5.285   2.679
 6985SOL    HW121854   3.484   5.266   2.629
 6985SOL    HW221855   3.613   5.199   2.703
 6986SOL     OW21856   1.665   6.381   5.897
 6986SOL    HW121857   1.613   6.443   5.956
 6986SOL    HW221858   1.660   6.414   5.803
 6987SOL     OW21859   0.773   1.947   6.697
 6987SOL    HW121860   0.820   2.035   6.696
 6987SOL    HW221861   0.777   1.906   6.606
 6988SOL     OW21862   6.018   0.834   4.982
 6988SOL    HW121863   6.050   0.780   5.059
 6988SOL    HW221864   6.093   0.847   4.917
 6989SOL     OW21865   0.778   2.737   3.825
 6989SOL    HW121866   0.713   2.796   3.777
 6989SOL    HW221867   0.842   2.696   3.759
 6990SOL     OW21868   5.438   1.719   0.074
 6990SOL    HW121869   5.375   1.654   0.117
 6990SOL    HW221870   5.532   1.697   0.102
 6991SOL     OW21871   2.773   4.815   4.438
 6991SOL    HW121872   2.794   4.813   4.536
 6991SOL    HW221873   2.695   4.876   4.422
 6992SOL     OW21874   6.071   5.994   5.075
 6992SOL    HW121875   6.061   6.002   4.976
 6992SOL    HW221876   6.087   6.084   5.114
 6993SOL     OW21877   6.164   6.929   2.870
 6993SOL    HW121878   6.234   6.994   2.897
 6993SOL    HW221879   6.206   6.852   2.822
 6994SOL     OW21880   0.569   3.261   4.745
 6994SOL    HW121881   0.544   3.174   4.702
 6994SOL    HW221882   0.623   3.244   4.827
 6995SOL     OW21883   6.437   5.119   4.871
 6995SOL    HW121884   6.403   5.195   4.816
 6995SOL    HW221885   6.359   5.072   4.914
 6996SOL     OW21886   2.064   1.025   4.819
 6996SOL    HW121887   2.123   0.960   4.866
 6996SOL    HW221888   2.083   1.023   4.721
 6997SOL     OW21889   5.259   6.137   5.335
 6997SOL    HW121890   5.257   6.233   5.306
 6997SOL    HW221891   5.352   6.111   5.360
 6998SOL     OW21892   1.769   2.508   1.505
 6998SOL    HW121893   1.838   2.510   1.433
 6998SOL    HW221894   1.679   2.494   1.464
 6999SOL     OW21895   2.162   1.779   6.863
 6999SOL    HW121896   2.128   1.852   6.922
 6999SOL    HW221897   2.207   1.819   6.783
 7000SOL     OW21898   6.737   6.251   2.772
 7000SOL    HW121899   6.801   6.179   2.796
 7000SOL    HW221900   6.658   6.248   2.834
 7001SOL     OW21901   2.366   3.054   5.519
 7001SOL    HW121902   2.279   3.103   5.522
 7001SOL    HW221903   2.392   3.040   5.423
 7002SOL     OW21904   2.550   4.820   2.847
 7002SOL    HW121905   2.544   4.746   2.781
 7002SOL    HW221906   2.459   4.857   2.865
 7003SOL     OW21907   3.754   6.370   6.964
 7003SOL    HW121908   3.675   6.430   6.955
 7003SOL    HW221909   3.830   6.420   7.005
 7004SOL     OW21910   2.114   5.052   1.399
 7004SOL    HW121911   2.020   5.040   1.366
 7004SOL    HW221912   2.136   4.980   1.464
 7005SOL     OW21913   0.693   6.570   5.596
 7005SOL    HW121914   0.651   6.491   5.641
 7005SOL    HW221915   0.640   6.652   5.618
 7006SOL     OW21916   5.805   5.061   4.699
 7006SOL    HW121917   5.890   5.017   4.729
 7006SOL    HW221918   5.747   5.078   4.778
 7007SOL     OW21919   5.004   6.530   2.996
 7007SOL    HW121920   5.052   6.470   3.060
 7007SOL    HW221921   5.044   6.622   3.001
 7008SOL     OW21922   2.256   5.777   4.755
 7008SOL    HW121923   2.227   5.859   4.804
 7008SOL    HW221924   2.188   5.753   4.685
 7009SOL     OW21925   5.583   5.291   2.420
 7009SOL    HW121926   5.683   5.282   2.420
 7009SOL    HW221927   5.541   5.201   2.431
 7010SOL     OW21928   4.576   3.877   6.381
 7010SOL    HW121929   4.646   3.807   6.396
 7010SOL    HW221930   4.495   3.834   6.340
 7011SOL     OW21931   1.779   0.867   6.190
 7011SOL    HW121932   1.867   0.907   6.163
 7011SOL    HW221933   1.711   0.939   6.201
 7012SOL     OW21934   2.192   0.847   1.897
 7012SOL    HW121935   2.267   0.895   1.852
 7012SOL    HW221936   2.129   0.913   1.938
 7013SOL     OW21937   6.866   6.710   0.961
 7013SOL    HW121938   6.946   6.738   1.014
 7013SOL    HW221939   6.794   6.677   1.022
 7014SOL     OW21940   4.342   3.194   1.000
 7014SOL    HW121941   4.362   3.188   1.098
 7014SOL    HW221942   4.315   3.103   0.966
 7015SOL     OW21943   5.289   4.399   1.991
 7015SOL    HW121944   5.231   4.446   2.057
 7015SOL    HW221945   5.309   4.460   1.914
 7016SOL     OW21946   3.651   4.943   2.198
 7016SOL    HW121947   3.671   4.877   2.126
 7016SOL    HW221948   3.561   4.925   2.236
 7017SOL     OW21949   2.270   0.247   2.125
 7017SOL    HW121950   2.228   0.305   2.194
 7017SOL    HW221951   2.198   0.210   2.065
 7018SOL     OW21952   6.339   4.292   4.438
 7018SOL    HW121953   6.375   4.372   4.486
 7018SOL    HW221954   6.414   4.232   4.411
 7019SOL     OW21955   3.033   4.590   6.603
 7019SOL    HW121956   2.996   4.682   6.587
 7019SOL    HW221957   3.041   4.542   6.516
 7020SOL     OW21958   6.236   6.491   6.618
 7020SOL    HW121959   6.316   6.532   6.577
 7020SOL    HW221960   6.257   6.464   6.712
 7021SOL     OW21961   2.044   0.811   5.257
 7021SOL    HW121962   2.117   0.864   5.299
 7021SOL    HW221963   1.980   0.780   5.327
 7022SOL     OW21964   4.688   4.356   0.820
 7022SOL    HW121965   4.679   4.260   0.846
 7022SOL    HW221966   4.736   4.364   0.733
 7023SOL     OW21967   0.560   2.368   3.464
 7023SOL    HW121968   0.513   2.409   3.386
 7023SOL    HW221969   0.499   2.303   3.509
 7024SOL     OW21970   1.237   5.376   6.097
 7024SOL    HW121971   1.299   5.362   6.020
 7024SOL    HW221972   1.198   5.469   6.091
 7025SOL     OW21973   2.981   1.531   0.302
 7025SOL    HW121974   2.907   1.512   0.367
 7025SOL    HW221975   3.022   1.444   0.273
 7026SOL     OW21976   3.119   1.385   2.171
 7026SOL    HW121977   3.038   1.353   2.221
 7026SOL    HW221978   3.184   1.425   2.235
 7027SOL     OW21979   3.052   5.420   2.780
 7027SOL    HW121980   3.021   5.379   2.694
 7027SOL    HW221981   2.973   5.436   2.839
 7028SOL     OW21982   6.021   6.400   4.649
 7028SOL    HW121983   6.120   6.393   4.660
 7028SOL    HW221984   5.984   6.310   4.626
 7029SOL     OW21985   3.748   7.007   6.847
 7029SOL    HW121986   3.809   0.067   6.861
 7029SOL    HW221987   3.657   0.023   6.820
 7030SOL     OW21988   6.761   2.522   5.943
 7030SOL    HW121989   6.755   2.613   5.984
 7030SOL    HW221990   6.822   2.525   5.864
 7031SOL     OW21991   2.134   5.914   3.876
 7031SOL    HW121992   2.169   5.860   3.799
 7031SOL    HW221993   2.204   5.920   3.947
 7032SOL     OW21994   3.363   6.662   3.810
 7032SOL    HW121995   3.361   6.583   3.748
 7032SOL    HW221996   3.294   6.728   3.781
 7033SOL     OW21997   0.074   1.723   3.483
 7033SOL    HW121998   0.033   1.661   3.550
 7033SOL    HW221999   0.036   1.703   3.393
 7034SOL     OW22000   6.335   0.614   2.876
 7034SOL    HW122001   6.280   0.553   2.817
 7034SOL    HW222002   6.426   0.625   2.836
 7035SOL     OW22003   1.291   6.762   1.996
 7035SOL    HW122004   1.221   6.733   2.061
 7035SOL    HW222005   1.380   6.761   2.042
 7036SOL     OW22006   6.775   0.196   1.367
 7036SOL    HW122007   6.768   0.103   1.401
 7036SOL    HW222008   6.846   0.201   1.296
 7037SOL     OW22009   0.825   0.046   6.125
 7037SOL    HW122010   0.870   6.973   6.127
 7037SOL    HW222011   0.886   0.114   6.165
 7038SOL     OW22012   1.805   3.749   4.072
 7038SOL    HW122013   1.879   3.799   4.118
 7038SOL    HW222014   1.760   3.809   4.007
 7039SOL     OW22015   2.683   6.187   0.660
 7039SOL    HW122016   2.628   6.133   0.596
 7039SOL    HW222017   2.637   6.275   0.677
 7040SOL     OW22018   4.835   2.478   5.023
 7040SOL    HW122019   4.844   2.422   5.106
 7040SOL    HW222020   4.744   2.464   4.983
 7041SOL     OW22021   0.758   1.766   3.006
 7041SOL    HW122022   0.660   1.784   2.998
 7041SOL    HW222023   0.798   1.760   2.914
 7042SOL     OW22024   5.747   5.495   6.969
 7042SOL    HW122025   5.844   5.507   6.992
 7042SOL    HW222026   5.731   5.398   6.946
 7043SOL     OW22027   2.298   2.669   3.180
 7043SOL    HW122028   2.313   2.604   3.254
 7043SOL    HW222029   2.278   2.619   3.096
 7044SOL     OW22030   5.011   4.595   3.327
 7044SOL    HW122031   5.078   4.582   3.400
 7044SOL    HW222032   4.939   4.526   3.336
 7045SOL     OW22033   4.411   6.010   2.005
 7045SOL    HW122034   4.344   5.942   1.976
 7045SOL    HW222035   4.374   6.065   2.079
 7046SOL     OW22036   3.778   2.120   3.729
 7046SOL    HW122037   3.801   2.101   3.634
 7046SOL    HW222038   3.692   2.075   3.752
 7047SOL     OW22039   1.172   2.416   2.968
 7047SOL    HW122040   1.260   2.433   3.011
 7047SOL    HW222041   1.175   2.329   2.919
 7048SOL     OW22042   0.302   5.742   1.630
 7048SOL    HW122043   0.271   5.664   1.576
 7048SOL    HW222044   0.246   5.822   1.609
 7049SOL     OW22045   2.293   1.206   0.898
 7049SOL    HW122046   2.268   1.120   0.852
 7049SOL    HW222047   2.305   1.188   0.996
 7050SOL     OW22048   3.600   4.115   3.429
 7050SOL    HW122049   3.561   4.196   3.473
 7050SOL    HW222050   3.667   4.074   3.490
 7051SOL     OW22051   0.290   0.802   0.919
 7051SOL    HW122052   0.227   0.781   0.994
 7051SOL    HW222053   0.384   0.799   0.953
 7052SOL     OW22054   6.292   2.677   4.281
 7052SOL    HW122055   6.358   2.749   4.302
 7052SOL    HW222056   6.298   2.606   4.351
 7053SOL     OW22057   1.077   3.160   4.828
 7053SOL    HW122058   1.035   3.161   4.919
 7053SOL    HW222059   1.176   3.149   4.837
 7054SOL     OW22060   0.866   6.267   1.250
 7054SOL    HW122061   0.914   6.179   1.247
 7054SOL    HW222062   0.891   6.316   1.334
 7055SOL     OW22063   3.933   6.545   5.307
 7055SOL    HW122064   4.001   6.529   5.236
 7055SOL    HW222065   3.922   6.644   5.321
 7056SOL     OW22066   5.426   5.659   3.728
 7056SOL    HW122067   5.460   5.725   3.795
 7056SOL    HW222068   5.369   5.706   3.661
 7057SOL     OW22069   1.431   5.197   4.131
 7057SOL    HW122070   1.499   5.222   4.200
 7057SOL    HW222071   1.465   5.119   4.078
 7058SOL     OW22072   6.014   5.504   6.275
 7058SOL    HW122073   6.103   5.523   6.233
 7058SOL    HW222074   5.956   5.585   6.269
 7059SOL     OW22075   0.854   0.640   3.390
 7059SOL    HW122076   0.822   0.550   3.419
 7059SOL    HW222077   0.901   0.632   3.302
 7060SOL     OW22078   3.048   6.777   1.631
 7060SOL    HW122079   3.050   6.759   1.532
 7060SOL    HW222080   2.966   6.735   1.671
 7061SOL     OW22081   0.439   2.812   3.845
 7061SOL    HW122082   0.503   2.841   3.773
 7061SOL    HW222083   0.389   2.732   3.813
 7062SOL     OW22084   5.419   1.682   6.296
 7062SOL    HW122085   5.354   1.606   6.292
 7062SOL    HW222086   5.444   1.710   6.203
 7063SOL     OW22087   0.486   0.307   1.139
 7063SOL    HW122088   0.507   0.235   1.205
 7063SOL    HW222089   0.532   0.391   1.165
 7064SOL     OW22090   4.102   2.185   1.872
 7064SOL    HW122091   4.129   2.131   1.792
 7064SOL    HW222092   4.008   2.163   1.898
 7065SOL     OW22093   4.266   3.710   0.408
 7065SOL    HW122094   4.274   3.806   0.380
 7065SOL    HW222095   4.248   3.705   0.506
 7066SOL     OW22096   4.295   0.920   0.763
 7066SOL    HW122097   4.284   0.833   0.715
 7066SOL    HW222098   4.327   0.903   0.856
 7067SOL     OW22099   1.219   1.720   5.376
 7067SOL    HW122100   1.267   1.633   5.393
 7067SOL    HW222101   1.193   1.725   5.280
 7068SOL     OW22102   0.816   4.192   3.468
 7068SOL    HW122103   0.729   4.240   3.453
 7068SOL    HW222104   0.842   4.143   3.384
 7069SOL     OW22105   6.114   2.612   4.097
 7069SOL    HW122106   6.076   2.696   4.058
 7069SOL    HW222107   6.177   2.636   4.171
 7070SOL     OW22108   0.120   6.050   5.031
 7070SOL    HW122109   0.173   6.103   5.096
 7070SOL    HW222110   0.078   5.972   5.078
 7071SOL     OW22111   1.007   6.436   6.432
 7071SOL    HW122112   1.043   6.402   6.519
 7071SOL    HW222113   1.051   6.386   6.356
 7072SOL     OW22114   7.012   6.303   5.897
 7072SOL    HW122115   0.046   6.323   5.980
 7072SOL    HW222116   6.914   6.298   5.918
 7073SOL     OW22117   5.730   6.997   4.537
 7073SOL    HW122118   5.710   0.077   4.520
 7073SOL    HW222119   5.685   6.969   4.622
 7074SOL     OW22120   4.034   2.558   1.404
 7074SOL    HW122121   4.107   2.494   1.425
 7074SOL    HW222122   3.988   2.586   1.488
 7075SOL     OW22123   1.075   6.124   5.847
 7075SOL    HW122124   1.131   6.136   5.765
 7075SOL    HW222125   1.080   6.029   5.876
 7076SOL     OW22126   3.940   2.495   6.780
 7076SOL    HW122127   3.947   2.551   6.862
 7076SOL    HW222128   3.864   2.526   6.723
 7077SOL     OW22129   2.130   4.770   5.875
 7077SOL    HW122130   2.136   4.831   5.796
 7077SOL    HW222131   2.123   4.825   5.958
 7078SOL     OW22132   6.312   0.624   1.647
 7078SOL    HW122133   6.311   0.534   1.604
 7078SOL    HW222134   6.352   0.691   1.584
 7079SOL     OW22135   6.617   5.982   5.260
 7079SOL    HW122136   6.568   6.007   5.343
 7079SOL    HW222137   6.678   5.905   5.280
 7080SOL     OW22138   3.489   2.141   4.284
 7080SOL    HW122139   3.397   2.179   4.294
 7080SOL    HW222140   3.484   2.044   4.262
 7081SOL     OW22141   2.900   0.474   6.208
 7081SOL    HW122142   2.827   0.467   6.140
 7081SOL    HW222143   2.970   0.405   6.190
 7082SOL     OW22144   5.956   5.452   6.634
 7082SOL    HW122145   5.971   5.364   6.679
 7082SOL    HW222146   6.008   5.454   6.548
 7083SOL     OW22147   3.303   1.172   6.764
 7083SOL    HW122148   3.400   1.156   6.778
 7083SOL    HW222149   3.285   1.271   6.763
 7084SOL     OW22150   7.002   6.786   5.339
 7084SOL    HW122151   0.018   6.799   5.245
 7084SOL    HW222152   6.909   6.748   5.336
 7085SOL     OW22153   2.202   0.992   2.730
 7085SOL    HW122154   2.269   0.992   2.657
 7085SOL    HW222155   2.181   1.086   2.757
 7086SOL     OW22156   4.949   1.083   5.780
 7086SOL    HW122157   4.950   1.132   5.867
 7086SOL    HW222158   4.858   1.044   5.764
 7087SOL     OW22159   6.130   4.133   3.753
 7087SOL    HW122160   6.105   4.219   3.710
 7087SOL    HW222161   6.049   4.076   3.764
 7088SOL     OW22162   5.157   2.887   3.133
 7088SOL    HW122163   5.213   2.815   3.091
 7088SOL    HW222164   5.060   2.868   3.115
 7089SOL     OW22165   3.342   2.300   5.923
 7089SOL    HW122166   3.302   2.326   6.011
 7089SOL    HW222167   3.407   2.225   5.937
 7090SOL     OW22168   2.537   1.212   6.396
 7090SOL    HW122169   2.566   1.218   6.300
 7090SOL    HW222170   2.617   1.216   6.455
 7091SOL     OW22171   6.991   2.222   0.197
 7091SOL    HW122172   0.027   2.151   0.245
 7091SOL    HW222173   6.955   2.287   0.264
 7092SOL     OW22174   4.697   2.718   6.019
 7092SOL    HW122175   4.733   2.741   6.109
 7092SOL    HW222176   4.771   2.725   5.951
 7093SOL     OW22177   3.209   3.678   3.417
 7093SOL    HW122178   3.120   3.690   3.460
 7093SOL    HW222179   3.266   3.759   3.436
 7094SOL     OW22180   0.588   5.703   6.051
 7094SOL    HW122181   0.503   5.667   6.013
 7094SOL    HW222182   0.614   5.650   6.131
 7095SOL     OW22183   3.377   2.828   6.717
 7095SOL    HW122184   3.407   2.905   6.661
 7095SOL    HW222185   3.348   2.862   6.807
 7096SOL     OW22186   6.118   0.631   4.146
 7096SOL    HW122187   6.157   0.718   4.114
 7096SOL    HW222188   6.188   0.579   4.195
 7097SOL     OW22189   6.221   0.688   1.905
 7097SOL    HW122190   6.257   0.667   1.814
 7097SOL    HW222191   6.271   0.765   1.943
 7098SOL     OW22192   0.782   6.992   4.294
 7098SOL    HW122193   0.684   7.015   4.293
 7098SOL    HW222194   0.834   0.056   4.319
 7099SOL     OW22195   2.694   0.424   4.850
 7099SOL    HW122196   2.700   0.459   4.756
 7099SOL    HW222197   2.649   0.491   4.908
 7100SOL     OW22198   5.858   3.396   0.927
 7100SOL    HW122199   5.788   3.381   0.997
 7100SOL    HW222200   5.842   3.484   0.882
 7101SOL     OW22201   2.265   0.511   4.999
 7101SOL    HW122202   2.299   0.518   4.906
 7101SOL    HW222203   2.195   0.439   5.004
 7102SOL     OW22204   4.709   0.729   1.120
 7102SOL    HW122205   4.641   0.664   1.086
 7102SOL    HW222206   4.759   0.689   1.196
 7103SOL     OW22207   4.274   5.405   1.014
 7103SOL    HW122208   4.262   5.447   1.104
 7103SOL    HW222209   4.369   5.413   0.985
 7104SOL     OW22210   1.356   3.475   4.638
 7104SOL    HW122211   1.375   3.420   4.556
 7104SOL    HW222212   1.268   3.449   4.676
 7105SOL     OW22213   2.690   2.752   5.438
 7105SOL    HW122214   2.722   2.659   5.421
 7105SOL    HW222215   2.767   2.815   5.435
 7106SOL     OW22216   3.165   3.005   3.223
 7106SOL    HW122217   3.169   2.989   3.322
 7106SOL    HW222218   3.086   3.062   3.201
 7107SOL     OW22219   3.633   0.719   0.681
 7107SOL    HW122220   3.656   0.712   0.778
 7107SOL    HW222221   3.534   0.720   0.670
 7108SOL     OW22222   4.003   6.170   1.954
 7108SOL    HW122223   4.004   6.075   1.986
 7108SOL    HW222224   4.095   6.196   1.925
 7109SOL     OW22225   4.079   6.976   6.343
 7109SOL    HW122226   3.997   6.994   6.288
 7109SOL    HW222227   4.064   7.007   6.437
 7110SOL     OW22228   4.612   5.788   3.727
 7110SOL    HW122229   4.513   5.788   3.741
 7110SOL    HW222230   4.658   5.807   3.814
 7111SOL     OW22231   2.570   2.342   4.678
 7111SOL    HW122232   2.476   2.314   4.657
 7111SOL    HW222233   2.579   2.361   4.775
 7112SOL     OW22234   2.461   5.820   3.877
 7112SOL    HW122235   2.437   5.905   3.923
 7112SOL    HW222236   2.496   5.754   3.943
 7113SOL     OW22237   3.103   3.959   5.111
 7113SOL    HW122238   3.055   3.948   5.198
 7113SOL    HW222239   3.189   3.908   5.114
 7114SOL     OW22240   3.988   6.736   1.880
 7114SOL    HW122241   4.041   6.734   1.795
 7114SOL    HW222242   4.028   6.672   1.945
 7115SOL     OW22243   5.353   2.745   2.463
 7115SOL    HW122244   5.339   2.805   2.385
 7115SOL    HW222245   5.451   2.735   2.480
 7116SOL     OW22246   5.552   3.298   3.330
 7116SOL    HW122247   5.636   3.320   3.379
 7116SOL    HW222248   5.474   3.335   3.380
 7117SOL     OW22249   0.316   6.885   4.476
 7117SOL    HW122250   0.255   6.911   4.401
 7117SOL    HW222251   0.263   6.870   4.559
 7118SOL     OW22252   3.212   4.204   0.692
 7118SOL    HW122253   3.288   4.261   0.661
 7118SOL    HW222254   3.220   4.187   0.790
 7119SOL     OW22255   5.362   1.872   3.467
 7119SOL    HW122256   5.343   1.957   3.417
 7119SOL    HW222257   5.312   1.797   3.425
 7120SOL     OW22258   4.389   2.019   2.672
 7120SOL    HW122259   4.300   2.037   2.629
 7120SOL    HW222260   4.461   2.065   2.620
 7121SOL     OW22261   2.957   6.974   2.320
 7121SOL    HW122262   2.893   0.022   2.360
 7121SOL    HW222263   2.907   6.895   2.284
 7122SOL     OW22264   6.682   0.743   5.902
 7122SOL    HW122265   6.721   0.783   5.984
 7122SOL    HW222266   6.755   0.704   5.845
 7123SOL     OW22267   2.591   4.944   1.343
 7123SOL    HW122268   2.614   4.950   1.246
 7123SOL    HW222269   2.575   4.848   1.368
 7124SOL     OW22270   0.577   2.878   0.987
 7124SOL    HW122271   0.605   2.859   0.893
 7124SOL    HW222272   0.523   2.962   0.989
 7125SOL     OW22273   6.487   6.593   0.864
 7125SOL    HW122274   6.427   6.668   0.836
 7125SOL    HW222275   6.571   6.597   0.810
 7126SOL     OW22276   3.396   5.065   6.791
 7126SOL    HW122277   3.348   4.990   6.747
 7126SOL    HW222278   3.339   5.103   6.864
 7127SOL     OW22279   2.665   5.987   4.469
 7127SOL    HW122280   2.724   6.058   4.430
 7127SOL    HW222281   2.589   6.030   4.517
 7128SOL     OW22282   2.021   5.874   0.234
 7128SOL    HW122283   2.017   5.788   0.284
 7128SOL    HW222284   1.929   5.904   0.212
 7129SOL     OW22285   3.042   0.402   0.505
 7129SOL    HW122286   3.002   0.314   0.531
 7129SOL    HW222287   3.099   0.436   0.579
 7130SOL     OW22288   3.417   4.565   5.472
 7130SOL    HW122289   3.443   4.469   5.471
 7130SOL    HW222290   3.327   4.575   5.430
 7131SOL     OW22291   2.834   1.234   0.252
 7131SOL    HW122292   2.891   1.283   0.186
 7131SOL    HW222293   2.744   1.278   0.256
 7132SOL     OW22294   2.984   4.133   0.236
 7132SOL    HW122295   2.979   4.040   0.272
 7132SOL    HW222296   3.067   4.177   0.271
 7133SOL     OW22297   4.650   5.519   3.701
 7133SOL    HW122298   4.650   5.611   3.662
 7133SOL    HW222299   4.734   5.471   3.676
 7134SOL     OW22300   5.920   5.957   2.155
 7134SOL    HW122301   5.963   6.040   2.120
 7134SOL    HW222302   5.859   5.980   2.231
 7135SOL     OW22303   2.217   2.211   3.451
 7135SOL    HW122304   2.176   2.220   3.360
 7135SOL    HW222305   2.163   2.263   3.517
 7136SOL     OW22306   1.543   2.835   0.852
 7136SOL    HW122307   1.472   2.766   0.865
 7136SOL    HW222308   1.574   2.869   0.940
 7137SOL     OW22309   4.771   0.560   6.324
 7137SOL    HW122310   4.748   0.509   6.242
 7137SOL    HW222311   4.817   0.499   6.389
 7138SOL     OW22312   2.013   2.800   0.558
 7138SOL    HW122313   1.947   2.873   0.546
 7138SOL    HW222314   2.086   2.830   0.620
 7139SOL     OW22315   4.836   3.924   2.619
 7139SOL    HW122316   4.747   3.955   2.585
 7139SOL    HW222317   4.903   3.927   2.545
 7140SOL     OW22318   5.643   3.370   4.461
 7140SOL    HW122319   5.555   3.411   4.437
 7140SOL    HW222320   5.630   3.274   4.484
 7141SOL     OW22321   2.688   5.834   0.957
 7141SOL    HW122322   2.593   5.836   0.989
 7141SOL    HW222323   2.749   5.824   1.036
 7142SOL     OW22324   4.489   0.285   3.294
 7142SOL    HW122325   4.411   0.321   3.242
 7142SOL    HW222326   4.572   0.333   3.266
 7143SOL     OW22327   1.872   2.795   6.278
 7143SOL    HW122328   1.899   2.834   6.190
 7143SOL    HW222329   1.868   2.695   6.270
 7144SOL     OW22330   1.866   1.451   3.457
 7144SOL    HW122331   1.841   1.524   3.520
 7144SOL    HW222332   1.804   1.374   3.469
 7145SOL     OW22333   4.696   6.554   6.119
 7145SOL    HW122334   4.599   6.535   6.132
 7145SOL    HW222335   4.744   6.543   6.206
 7146SOL     OW22336   2.206   0.651   6.693
 7146SOL    HW122337   2.207   0.557   6.729
 7146SOL    HW222338   2.187   0.649   6.595
 7147SOL     OW22339   6.300   6.092   3.039
 7147SOL    HW122340   6.300   6.123   3.134
 7147SOL    HW222341   6.266   6.166   2.980
 7148SOL     OW22342   6.933   6.518   1.213
 7148SOL    HW122343   6.842   6.519   1.172
 7148SOL    HW222344   6.925   6.509   1.312
 7149SOL     OW22345   6.553   6.656   3.256
 7149SOL    HW122346   6.458   6.637   3.281
 7149SOL    HW222347   6.588   6.730   3.314
 7150SOL     OW22348   4.596   2.148   2.047
 7150SOL    HW122349   4.539   2.180   2.123
 7150SOL    HW222350   4.568   2.195   1.963
 7151SOL     OW22351   1.450   6.188   0.432
 7151SOL    HW122352   1.538   6.152   0.465
 7151SOL    HW222353   1.416   6.131   0.358
 7152SOL     OW22354   0.581   1.834   4.865
 7152SOL    HW122355   0.492   1.813   4.824
 7152SOL    HW222356   0.599   1.932   4.857
 7153SOL     OW22357   3.090   5.985   3.083
 7153SOL    HW122358   3.025   5.946   3.018
 7153SOL    HW222359   3.124   5.913   3.144
 7154SOL     OW22360   4.008   6.489   4.750
 7154SOL    HW122361   3.930   6.440   4.790
 7154SOL    HW222362   3.993   6.498   4.651
 7155SOL     OW22363   2.887   5.094   1.727
 7155SOL    HW122364   2.931   5.009   1.755
 7155SOL    HW222365   2.790   5.077   1.708
 7156SOL     OW22366   0.518   3.801   4.766
 7156SOL    HW122367   0.615   3.822   4.779
 7156SOL    HW222368   0.504   3.761   4.675
 7157SOL     OW22369   6.271   4.337   1.230
 7157SOL    HW122370   6.305   4.298   1.144
 7157SOL    HW222371   6.171   4.334   1.230
 7158SOL     OW22372   1.019   0.009   2.575
 7158SOL    HW122373   0.975   0.063   2.646
 7158SOL    HW222374   1.111   7.001   2.604
 7159SOL     OW22375   0.219   4.338   2.863
 7159SOL    HW122376   0.263   4.250   2.849
 7159SOL    HW222377   0.195   4.379   2.775
 7160SOL     OW22378   6.091   0.266   3.399
 7160SOL    HW122379   6.176   0.313   3.422
 7160SOL    HW222380   6.018   0.333   3.389
 7161SOL     OW22381   3.108   4.101   4.876
 7161SOL    HW122382   3.031   4.160   4.852
 7161SOL    HW222383   3.094   4.063   4.967
 7162SOL     OW22384   2.306   5.633   5.673
 7162SOL    HW122385   2.328   5.567   5.601
 7162SOL    HW222386   2.264   5.585   5.750
 7163SOL     OW22387   2.684   6.139   3.296
 7163SOL    HW122388   2.777   6.161   3.267
 7163SOL    HW222389   2.654   6.205   3.365
 7164SOL     OW22390   2.174   1.507   3.445
 7164SOL    HW122391   2.215   1.445   3.378
 7164SOL    HW222392   2.075   1.492   3.449
 7165SOL     OW22393   6.806   1.769   1.427
 7165SOL    HW122394   6.723   1.715   1.437
 7165SOL    HW222395   6.810   1.809   1.335
 7166SOL     OW22396   5.387   3.037   0.442
 7166SOL    HW122397   5.469   2.993   0.479
 7166SOL    HW222398   5.328   2.968   0.400
 7167SOL     OW22399   5.295   3.707   4.840
 7167SOL    HW122400   5.377   3.723   4.783
 7167SOL    HW222401   5.280   3.609   4.848
 7168SOL     OW22402   1.500   2.521   4.162
 7168SOL    HW122403   1.597   2.546   4.165
 7168SOL    HW222404   1.450   2.585   4.104
 7169SOL     OW22405   0.504   3.639   4.991
 7169SOL    HW122406   0.483   3.700   4.915
 7169SOL    HW222407   0.444   3.559   4.988
 7170SOL     OW22408   4.763   6.265   3.748
 7170SOL    HW122409   4.754   6.191   3.682
 7170SOL    HW222410   4.677   6.275   3.799
 7171SOL     OW22411   5.766   4.152   6.190
 7171SOL    HW122412   5.792   4.160   6.094
 7171SOL    HW222413   5.681   4.099   6.198
 7172SOL     OW22414   1.542   0.752   5.416
 7172SOL    HW122415   1.539   0.795   5.506
 7172SOL    HW222416   1.458   0.701   5.400
 7173SOL     OW22417   0.514   4.784   5.371
 7173SOL    HW122418   0.468   4.798   5.283
 7173SOL    HW222419   0.580   4.709   5.362
 7174SOL     OW22420   0.701   5.184   6.583
 7174SOL    HW122421   0.655   5.105   6.541
 7174SOL    HW222422   0.747   5.155   6.667
 7175SOL     OW22423   5.569   3.765   0.157
 7175SOL    HW122424   5.599   3.799   0.246
 7175SOL    HW222425   5.529   3.840   0.104
 7176SOL     OW22426   1.268   5.672   3.336
 7176SOL    HW122427   1.256   5.631   3.245
 7176SOL    HW222428   1.314   5.761   3.326
 7177SOL     OW22429   2.652   6.541   4.320
 7177SOL    HW122430   2.630   6.616   4.382
 7177SOL    HW222431   2.733   6.492   4.354
 7178SOL     OW22432   2.296   3.769   5.965
 7178SOL    HW122433   2.267   3.846   5.907
 7178SOL    HW222434   2.384   3.734   5.933
 7179SOL     OW22435   1.775   3.617   4.938
 7179SOL    HW122436   1.832   3.639   5.017
 7179SOL    HW222437   1.755   3.701   4.887
 7180SOL     OW22438   1.537   4.732   6.410
 7180SOL    HW122439   1.596   4.654   6.388
 7180SOL    HW222440   1.474   4.707   6.483
 7181SOL     OW22441   2.104   5.652   0.765
 7181SOL    HW122442   2.062   5.562   0.774
 7181SOL    HW222443   2.149   5.659   0.675
 7182SOL     OW22444   1.749   3.141   5.349
 7182SOL    HW122445   1.719   3.078   5.420
 7182SOL    HW222446   1.849   3.146   5.348
 7183SOL     OW22447   1.448   5.619   0.774
 7183SOL    HW122448   1.463   5.708   0.818
 7183SOL    HW222449   1.444   5.548   0.844
 7184SOL     OW22450   1.032   0.310   3.165
 7184SOL    HW122451   1.020   0.270   3.075
 7184SOL    HW222452   1.055   0.239   3.231
 7185SOL     OW22453   5.279   1.309   5.774
 7185SOL    HW122454   5.253   1.216   5.799
 7185SOL    HW222455   5.379   1.316   5.773
 7186SOL     OW22456   0.016   6.905   6.395
 7186SOL    HW122457   6.935   6.910   6.371
 7186SOL    HW222458   0.026   6.896   6.494
 7187SOL     OW22459   3.117   4.464   0.273
 7187SOL    HW122460   3.021   4.458   0.303
 7187SOL    HW222461   3.125   4.428   0.180
 7188SOL     OW22462   6.025   6.768   0.305
 7188SOL    HW122463   5.990   6.848   0.257
 7188SOL    HW222464   5.954   6.731   0.364
 7189SOL     OW22465   6.359   1.398   6.379
 7189SOL    HW122466   6.282   1.360   6.329
 7189SOL    HW222467   6.421   1.445   6.316
 7190SOL     OW22468   6.167   3.994   3.130
 7190SOL    HW122469   6.210   3.905   3.143
 7190SOL    HW222470   6.238   4.063   3.112
 7191SOL     OW22471   0.539   4.111   2.622
 7191SOL    HW122472   0.537   4.038   2.691
 7191SOL    HW222473   0.512   4.198   2.665
 7192SOL     OW22474   3.496   5.062   5.450
 7192SOL    HW122475   3.463   5.015   5.368
 7192SOL    HW222476   3.441   5.144   5.466
 7193SOL     OW22477   2.654   1.573   3.187
 7193SOL    HW122478   2.558   1.563   3.162
 7193SOL    HW222479   2.664   1.571   3.286
 7194SOL     OW22480   2.885   2.024   0.771
 7194SOL    HW122481   2.871   2.119   0.799
 7194SOL    HW222482   2.923   2.022   0.678
 7195SOL     OW22483   0.422   5.162   6.074
 7195SOL    HW122484   0.420   5.145   6.172
 7195SOL    HW222485   0.517   5.160   6.041
 7196SOL     OW22486   3.504   4.074   1.961
 7196SOL    HW122487   3.451   4.065   2.046
 7196SOL    HW222488   3.599   4.051   1.980
 7197SOL     OW22489   6.829   2.295   6.251
 7197SOL    HW122490   6.808   2.199   6.267
 7197SOL    HW222491   6.891   2.303   6.172
 7198SOL     OW22492   0.542   1.144   5.708
 7198SOL    HW122493   0.615   1.102   5.655
 7198SOL    HW222494   0.578   1.175   5.796
 7199SOL     OW22495   2.287   0.557   1.951
 7199SOL    HW122496   2.272   0.655   1.936
 7199SOL    HW222497   2.202   0.514   1.979
 7200SOL     OW22498   2.030   1.929   0.408
 7200SOL    HW122499   1.969   1.942   0.330
 7200SOL    HW222500   2.123   1.909   0.375
 7201SOL     OW22501   1.447   5.391   3.900
 7201SOL    HW122502   1.510   5.450   3.950
 7201SOL    HW222503   1.426   5.311   3.955
 7202SOL     OW22504   4.117   0.395   5.983
 7202SOL    HW122505   4.172   0.457   5.928
 7202SOL    HW222506   4.158   0.304   5.983
 7203SOL     OW22507   0.332   1.628   0.853
 7203SOL    HW122508   0.237   1.602   0.837
 7203SOL    HW222509   0.335   1.720   0.893
 7204SOL     OW22510   6.327   6.604   5.286
 7204SOL    HW122511   6.353   6.508   5.297
 7204SOL    HW222512   6.253   6.611   5.219
 7205SOL     OW22513   2.068   5.885   3.222
 7205SOL    HW122514   2.060   5.981   3.248
 7205SOL    HW222515   2.140   5.875   3.153
 7206SOL     OW22516   2.092   0.312   1.429
 7206SOL    HW122517   2.111   0.304   1.331
 7206SOL    HW222518   1.993   0.311   1.444
 7207SOL     OW22519   4.044   6.430   1.473
 7207SOL    HW122520   4.018   6.527   1.465
 7207SOL    HW222521   4.002   6.391   1.555
 7208SOL     OW22522   4.425   6.321   4.177
 7208SOL    HW122523   4.487   6.308   4.100
 7208SOL    HW222524   4.336   6.282   4.154
 7209SOL     OW22525   3.408   2.833   2.142
 7209SOL    HW122526   3.406   2.783   2.056
 7209SOL    HW222527   3.494   2.883   2.150
 7210SOL     OW22528   4.636   6.924   4.317
 7210SOL    HW122529   4.724   6.971   4.319
 7210SOL    HW222530   4.629   6.870   4.233
 7211SOL     OW22531   2.221   5.523   3.994
 7211SOL    HW122532   2.229   5.430   4.030
 7211SOL    HW222533   2.282   5.532   3.915
 7212SOL     OW22534   1.138   6.247   3.319
 7212SOL    HW122535   1.049   6.283   3.346
 7212SOL    HW222536   1.209   6.288   3.377
 7213SOL     OW22537   6.039   0.642   6.607
 7213SOL    HW122538   6.054   0.554   6.651
 7213SOL    HW222539   6.100   0.651   6.529
 7214SOL     OW22540   1.340   5.756   4.588
 7214SOL    HW122541   1.383   5.845   4.604
 7214SOL    HW222542   1.256   5.769   4.536
 7215SOL     OW22543   0.568   3.145   3.954
 7215SOL    HW122544   0.642   3.094   3.909
 7215SOL    HW222545   0.514   3.082   4.010
 7216SOL     OW22546   2.302   6.192   6.687
 7216SOL    HW122547   2.348   6.271   6.729
 7216SOL    HW222548   2.331   6.184   6.592
 7217SOL     OW22549   2.219   4.590   2.163
 7217SOL    HW122550   2.309   4.564   2.195
 7217SOL    HW222551   2.226   4.625   2.069
 7218SOL     OW22552   4.334   2.792   5.319
 7218SOL    HW122553   4.354   2.883   5.355
 7218SOL    HW222554   4.356   2.789   5.221
 7219SOL     OW22555   5.559   6.284   4.118
 7219SOL    HW122556   5.589   6.306   4.211
 7219SOL    HW222557   5.494   6.353   4.087
 7220SOL     OW22558   0.593   5.823   3.744
 7220SOL    HW122559   0.685   5.856   3.760
 7220SOL    HW222560   0.590   5.772   3.658
 7221SOL     OW22561   5.553   4.892   5.327
 7221SOL    HW122562   5.470   4.919   5.278
 7221SOL    HW222563   5.589   4.808   5.287
 7222SOL     OW22564   6.293   0.340   1.960
 7222SOL    HW122565   6.202   0.321   1.923
 7222SOL    HW222566   6.312   0.277   2.036
 7223SOL     OW22567   2.937   2.143   1.514
 7223SOL    HW122568   2.979   2.206   1.579
 7223SOL    HW222569   2.903   2.062   1.562
 7224SOL     OW22570   5.646   2.044   4.152
 7224SOL    HW122571   5.681   1.951   4.143
 7224SOL    HW222572   5.684   2.086   4.235
 7225SOL     OW22573   1.345   6.375   6.259
 7225SOL    HW122574   1.249   6.355   6.239
 7225SOL    HW222575   1.391   6.290   6.287
 7226SOL     OW22576   0.974   0.531   0.561
 7226SOL    HW122577   0.943   0.473   0.485
 7226SOL    HW222578   0.948   0.626   0.543
 7227SOL     OW22579   0.176   2.615   1.152
 7227SOL    HW122580   0.100   2.578   1.097
 7227SOL    HW222581   0.256   2.557   1.142
 7228SOL     OW22582   0.185   1.113   2.513
 7228SOL    HW122583   0.222   1.072   2.430
 7228SOL    HW222584   0.098   1.157   2.493
 7229SOL     OW22585   1.367   0.857   4.069
 7229SOL    HW122586   1.436   0.896   4.008
 7229SOL    HW222587   1.383   0.890   4.162
 7230SOL     OW22588   5.203   5.751   4.851
 7230SOL    HW122589   5.104   5.756   4.865
 7230SOL    HW222590   5.231   5.823   4.788
 7231SOL     OW22591   5.035   6.800   6.756
 7231SOL    HW122592   5.134   6.794   6.745
 7231SOL    HW222593   5.009   6.759   6.843
 7232SOL     OW22594   4.415   5.157   3.570
 7232SOL    HW122595   4.370   5.139   3.658
 7232SOL    HW222596   4.513   5.166   3.584
 7233SOL     OW22597   0.528   2.642   5.071
 7233SOL    HW122598   0.597   2.676   5.007
 7233SOL    HW222599   0.440   2.684   5.051
 7234SOL     OW22600   5.857   2.707   3.252
 7234SOL    HW122601   5.948   2.695   3.211
 7234SOL    HW222602   5.844   2.803   3.276
 7235SOL     OW22603   6.451   4.596   3.122
 7235SOL    HW122604   6.453   4.592   3.022
 7235SOL    HW222605   6.356   4.601   3.153
 7236SOL     OW22606   3.022   1.127   2.593
 7236SOL    HW122607   2.962   1.123   2.514
 7236SOL    HW222608   3.011   1.215   2.640
 7237SOL     OW22609   6.381   6.660   5.715
 7237SOL    HW122610   6.442   6.587   5.747
 7237SOL    HW222611   6.393   6.672   5.617
 7238SOL     OW22612   2.439   2.302   1.139
 7238SOL    HW122613   2.538   2.291   1.134
 7238SOL    HW222614   2.394   2.219   1.106
 7239SOL     OW22615   2.737   0.946   3.728
 7239SOL    HW122616   2.725   1.031   3.778
 7239SOL    HW222617   2.746   0.965   3.630
 7240SOL     OW22618   2.133   4.026   6.692
 7240SOL    HW122619   2.228   4.001   6.672
 7240SOL    HW222620   2.099   3.971   6.768
 7241SOL     OW22621   3.548   0.713   0.044
 7241SOL    HW122622   3.545   0.750   0.137
 7241SOL    HW222623   3.603   0.773   7.003
 7242SOL     OW22624   6.895   4.945   6.881
 7242SOL    HW122625   6.941   4.897   6.805
 7242SOL    HW222626   6.808   4.899   6.901
 7243SOL     OW22627   0.704   4.774   6.371
 7243SOL    HW122628   0.729   4.867   6.344
 7243SOL    HW222629   0.680   4.721   6.290
 7244SOL     OW22630   4.771   0.716   1.413
 7244SOL    HW122631   4.869   0.718   1.396
 7244SOL    HW222632   4.748   0.782   1.485
 7245SOL     OW22633   0.649   1.847   4.585
 7245SOL    HW122634   0.647   1.791   4.668
 7245SOL    HW222635   0.722   1.916   4.592
 7246SOL     OW22636   6.026   6.980   4.761
 7246SOL    HW122637   6.112   6.978   4.710
 7246SOL    HW222638   5.952   6.946   4.703
 7247SOL     OW22639   2.616   6.638   3.236
 7247SOL    HW122640   2.551   6.618   3.163
 7247SOL    HW222641   2.697   6.681   3.197
 7248SOL     OW22642   4.188   0.854   3.115
 7248SOL    HW122643   4.153   0.768   3.153
 7248SOL    HW222644   4.222   0.838   3.023
 7249SOL     OW22645   5.662   4.891   2.035
 7249SOL    HW122646   5.607   4.811   2.060
 7249SOL    HW222647   5.755   4.861   2.011
 7250SOL     OW22648   3.213   5.324   6.291
 7250SOL    HW122649   3.207   5.247   6.354
 7250SOL    HW222650   3.128   5.377   6.295
 7251SOL     OW22651   0.105   6.497   5.336
 7251SOL    HW122652   0.010   6.494   5.366
 7251SOL    HW222653   0.114   6.559   5.258
 7252SOL     OW22654   3.431   3.173   3.898
 7252SOL    HW122655   3.440   3.231   3.979
 7252SOL    HW222656   3.427   3.077   3.925
 7253SOL     OW22657   1.547   0.318   0.163
 7253SOL    HW122658   1.455   0.357   0.154
 7253SOL    HW222659   1.551   0.232   0.113
 7254SOL     OW22660   4.595   4.908   4.998
 7254SOL    HW122661   4.513   4.850   4.994
 7254SOL    HW222662   4.573   4.994   5.043
 7255SOL     OW22663   3.504   3.717   2.041
 7255SOL    HW122664   3.448   3.760   2.112
 7255SOL    HW222665   3.484   3.760   1.953
 7256SOL     OW22666   5.109   4.822   4.644
 7256SOL    HW122667   5.015   4.845   4.667
 7256SOL    HW222668   5.168   4.838   4.723
 7257SOL     OW22669   6.121   2.992   3.304
 7257SOL    HW122670   6.070   3.074   3.279
 7257SOL    HW222671   6.166   2.954   3.224
 7258SOL     OW22672   4.076   0.495   3.945
 7258SOL    HW122673   4.096   0.445   4.029
 7258SOL    HW222674   4.119   0.586   3.949
 7259SOL     OW22675   3.245   4.149   1.275
 7259SOL    HW122676   3.152   4.153   1.311
 7259SOL    HW222677   3.284   4.059   1.293
 7260SOL     OW22678   3.341   2.128   3.007
 7260SOL    HW122679   3.300   2.181   3.081
 7260SOL    HW222680   3.424   2.084   3.039
 7261SOL     OW22681   3.279   2.767   1.428
 7261SOL    HW122682   3.218   2.822   1.485
 7261SOL    HW222683   3.312   2.688   1.481
 7262SOL     OW22684   5.996   2.850   4.027
 7262SOL    HW122685   5.900   2.878   4.037
 7262SOL    HW222686   6.017   2.838   3.931
 7263SOL     OW22687   0.588   5.626   2.216
 7263SOL    HW122688   0.636   5.541   2.240
 7263SOL    HW222689   0.490   5.613   2.230
 7264SOL     OW22690   6.869   1.652   6.743
 7264SOL    HW122691   6.882   1.747   6.771
 7264SOL    HW222692   6.805   1.607   6.804
 7265SOL     OW22693   5.328   5.345   5.948
 7265SOL    HW122694   5.309   5.399   5.866
 7265SOL    HW222695   5.351   5.252   5.921
 7266SOL     OW22696   4.212   0.784   0.496
 7266SOL    HW122697   4.123   0.787   0.541
 7266SOL    HW222698   4.235   0.875   0.461
 7267SOL     OW22699   6.891   4.785   5.383
 7267SOL    HW122700   6.884   4.826   5.292
 7267SOL    HW222701   6.986   4.755   5.399
 7268SOL     OW22702   4.350   4.818   3.236
 7268SOL    HW122703   4.411   4.837   3.159
 7268SOL    HW222704   4.314   4.904   3.272
 7269SOL     OW22705   6.861   5.689   1.651
 7269SOL    HW122706   6.808   5.774   1.649
 7269SOL    HW222707   6.847   5.643   1.739
 7270SOL     OW22708   1.521   2.435   3.363
 7270SOL    HW122709   1.519   2.337   3.385
 7270SOL    HW222710   1.514   2.488   3.447
 7271SOL     OW22711   0.802   4.763   3.174
 7271SOL    HW122712   0.897   4.791   3.185
 7271SOL    HW222713   0.797   4.681   3.117
 7272SOL     OW22714   5.946   3.307   2.505
 7272SOL    HW122715   5.923   3.214   2.476
 7272SOL    HW222716   6.025   3.339   2.452
 7273SOL     OW22717   5.836   4.592   2.210
 7273SOL    HW122718   5.736   4.594   2.217
 7273SOL    HW222719   5.865   4.631   2.123
 7274SOL     OW22720   6.859   6.253   6.276
 7274SOL    HW122721   6.880   6.196   6.197
 7274SOL    HW222722   6.872   6.349   6.252
 7275SOL     OW22723   6.391   0.506   0.477
 7275SOL    HW122724   6.292   0.499   0.493
 7275SOL    HW222725   6.425   0.593   0.513
 7276SOL     OW22726   3.309   1.223   3.557
 7276SOL    HW122727   3.394   1.172   3.546
 7276SOL    HW222728   3.281   1.261   3.469
 7277SOL     OW22729   5.565   1.125   5.129
 7277SOL    HW122730   5.648   1.155   5.080
 7277SOL    HW222731   5.490   1.188   5.107
 7278SOL     OW22732   3.584   2.020   3.110
 7278SOL    HW122733   3.664   2.061   3.154
 7278SOL    HW222734   3.610   1.983   3.021
 7279SOL     OW22735   4.376   4.230   0.115
 7279SOL    HW122736   4.329   4.315   0.139
 7279SOL    HW222737   4.332   4.190   0.034
 7280SOL     OW22738   5.574   2.301   4.978
 7280SOL    HW122739   5.601   2.252   5.060
 7280SOL    HW222740   5.630   2.383   4.967
 7281SOL     OW22741   3.594   0.016   0.924
 7281SOL    HW122742   3.524   0.077   0.885
 7281SOL    HW222743   3.549   6.955   0.969
 7282SOL     OW22744   6.825   5.475   1.925
 7282SOL    HW122745   6.784   5.564   1.940
 7282SOL    HW222746   6.845   5.432   2.013
 7283SOL     OW22747   3.139   6.450   1.849
 7283SOL    HW122748   3.132   6.501   1.763
 7283SOL    HW222749   3.233   6.453   1.883
 7284SOL     OW22750   6.755   2.797   3.673
 7284SOL    HW122751   6.759   2.857   3.593
 7284SOL    HW222752   6.846   2.762   3.693
 7285SOL     OW22753   5.022   3.130   1.298
 7285SOL    HW122754   4.987   3.170   1.382
 7285SOL    HW222755   5.110   3.086   1.316
 7286SOL     OW22756   0.638   1.227   0.848
 7286SOL    HW122757   0.653   1.288   0.926
 7286SOL    HW222758   0.640   1.281   0.763
 7287SOL     OW22759   0.054   2.589   4.087
 7287SOL    HW122760   0.012   2.550   4.169
 7287SOL    HW222761   0.142   2.544   4.071
 7288SOL     OW22762   1.915   2.914   2.251
 7288SOL    HW122763   1.856   2.853   2.199
 7288SOL    HW222764   1.948   2.867   2.333
 7289SOL     OW22765   5.495   2.918   2.035
 7289SOL    HW122766   5.426   2.940   2.104
 7289SOL    HW222767   5.464   2.841   1.980
 7290SOL     OW22768   3.501   1.103   5.196
 7290SOL    HW122769   3.468   1.125   5.287
 7290SOL    HW222770   3.587   1.051   5.203
 7291SOL     OW22771   3.995   0.378   0.527
 7291SOL    HW122772   4.003   0.280   0.543
 7291SOL    HW222773   3.902   0.408   0.545
 7292SOL     OW22774   1.959   6.555   3.642
 7292SOL    HW122775   2.047   6.512   3.624
 7292SOL    HW222776   1.972   6.638   3.696
 7293SOL     OW22777   1.321   1.236   6.052
 7293SOL    HW122778   1.365   1.301   5.989
 7293SOL    HW222779   1.222   1.240   6.041
 7294SOL     OW22780   3.075   4.572   1.708
 7294SOL    HW122781   3.006   4.529   1.766
 7294SOL    HW222782   3.039   4.582   1.615
 7295SOL     OW22783   6.446   4.616   1.711
 7295SOL    HW122784   6.360   4.667   1.700
 7295SOL    HW222785   6.431   4.520   1.688
 7296SOL     OW22786   3.570   5.188   3.048
 7296SOL    HW122787   3.483   5.151   3.080
 7296SOL    HW222788   3.645   5.133   3.084
 7297SOL     OW22789   3.084   6.188   1.666
 7297SOL    HW122790   3.126   6.274   1.697
 7297SOL    HW222791   3.131   6.157   1.583
 7298SOL     OW22792   4.464   6.316   6.725
 7298SOL    HW122793   4.502   6.399   6.767
 7298SOL    HW222794   4.372   6.300   6.760
 7299SOL     OW22795   1.211   2.215   0.306
 7299SOL    HW122796   1.141   2.146   0.285
 7299SOL    HW222797   1.229   2.215   0.404
 7300SOL     OW22798   0.533   4.953   1.632
 7300SOL    HW122799   0.584   4.873   1.601
 7300SOL    HW222800   0.543   4.962   1.731
 7301SOL     OW22801   0.212   0.386   5.829
 7301SOL    HW122802   0.231   0.296   5.869
 7301SOL    HW222803   0.125   0.382   5.779
 7302SOL     OW22804   6.248   2.110   5.795
 7302SOL    HW122805   6.262   2.203   5.829
 7302SOL    HW222806   6.335   2.060   5.798
 7303SOL     OW22807   3.127   1.180   6.966
 7303SOL    HW122808   3.188   1.205   6.891
 7303SOL    HW222809   3.180   1.143   0.025
 7304SOL     OW22810   2.373   5.121   1.317
 7304SOL    HW122811   2.435   5.043   1.325
 7304SOL    HW222812   2.278   5.088   1.312
 7305SOL     OW22813   5.335   2.528   0.801
 7305SOL    HW122814   5.381   2.616   0.818
 7305SOL    HW222815   5.343   2.504   0.704
 7306SOL     OW22816   3.668   1.517   1.531
 7306SOL    HW122817   3.609   1.537   1.609
 7306SOL    HW222818   3.761   1.501   1.563
 7307SOL     OW22819   3.703   6.506   2.091
 7307SOL    HW122820   3.711   6.529   1.995
 7307SOL    HW222821   3.788   6.464   2.124
 7308SOL     OW22822   6.753   1.045   2.849
 7308SOL    HW122823   6.694   1.125   2.835
 7308SOL    HW222824   6.828   1.069   2.910
 7309SOL     OW22825   2.361   6.215   2.655
 7309SOL    HW122826   2.314   6.142   2.706
 7309SOL    HW222827   2.396   6.179   2.569
 7310SOL     OW22828   1.203   3.137   6.824
 7310SOL    HW122829   1.255   3.193   6.760
 7310SOL    HW222830   1.236   3.043   6.821
 7311SOL     OW22831   0.882   0.373   0.348
 7311SOL    HW122832   0.812   0.443   0.334
 7311SOL    HW222833   0.839   0.285   0.368
 7312SOL     OW22834   0.382   1.333   4.778
 7312SOL    HW122835   0.344   1.393   4.708
 7312SOL    HW222836   0.342   1.242   4.768
 7313SOL     OW22837   2.552   1.141   0.726
 7313SOL    HW122838   2.580   1.048   0.747
 7313SOL    HW222839   2.488   1.174   0.796
 7314SOL     OW22840   0.437   4.283   6.792
 7314SOL    HW122841   0.466   4.271   6.697
 7314SOL    HW222842   0.514   4.317   6.845
 7315SOL     OW22843   6.398   5.457   2.348
 7315SOL    HW122844   6.427   5.470   2.443
 7315SOL    HW222845   6.477   5.461   2.288
 7316SOL     OW22846   3.286   1.838   6.133
 7316SOL    HW122847   3.380   1.867   6.150
 7316SOL    HW222848   3.240   1.821   6.220
 7317SOL     OW22849   3.396   1.587   2.032
 7317SOL    HW122850   3.301   1.575   2.003
 7317SOL    HW222851   3.398   1.641   2.117
 7318SOL     OW22852   3.885   6.910   2.097
 7318SOL    HW122853   3.931   6.941   2.180
 7318SOL    HW222854   3.949   6.910   2.020
 7319SOL     OW22855   0.048   3.249   6.645
 7319SOL    HW122856   0.133   3.219   6.602
 7319SOL    HW222857   7.010   3.168   6.669
 7320SOL     OW22858   6.717   4.235   1.257
 7320SOL    HW122859   6.714   4.192   1.167
 7320SOL    HW222860   6.805   4.280   1.270
 7321SOL     OW22861   1.762   6.602   6.092
 7321SOL    HW122862   1.825   6.531   6.122
 7321SOL    HW222863   1.672   6.585   6.132
 7322SOL     OW22864   0.939   2.578   3.246
 7322SOL    HW122865   0.888   2.664   3.240
 7322SOL    HW222866   0.925   2.525   3.163
 7323SOL     OW22867   2.565   1.577   1.679
 7323SOL    HW122868   2.606   1.622   1.600
 7323SOL    HW222869   2.613   1.491   1.696
 7324SOL     OW22870   6.030   4.378   2.329
 7324SOL    HW122871   6.059   4.337   2.415
 7324SOL    HW222872   5.939   4.418   2.340
 7325SOL     OW22873   2.987   0.584   5.635
 7325SOL    HW122874   2.969   0.683   5.636
 7325SOL    HW222875   3.086   0.569   5.636
 7326SOL     OW22876   4.134   0.534   6.673
 7326SOL    HW122877   4.081   0.500   6.595
 7326SOL    HW222878   4.200   0.603   6.642
 7327SOL     OW22879   6.087   4.339   3.549
 7327SOL    HW122880   6.107   4.261   3.490
 7327SOL    HW222881   6.142   4.418   3.518
 7328SOL     OW22882   4.131   5.338   5.844
 7328SOL    HW122883   4.179   5.300   5.765
 7328SOL    HW222884   4.088   5.263   5.895
 7329SOL     OW22885   0.659   2.839   0.741
 7329SOL    HW122886   0.633   2.759   0.687
 7329SOL    HW222887   0.647   2.922   0.686
 7330SOL     OW22888   3.297   2.988   1.269
 7330SOL    HW122889   3.315   2.904   1.320
 7330SOL    HW222890   3.211   3.029   1.301
 7331SOL     OW22891   4.707   0.150   1.917
 7331SOL    HW122892   4.607   0.150   1.920
 7331SOL    HW222893   4.742   0.091   1.990
 7332SOL     OW22894   4.137   4.043   6.917
 7332SOL    HW122895   4.159   4.131   6.876
 7332SOL    HW222896   4.126   4.053   7.015
 7333SOL     OW22897   5.950   3.198   3.257
 7333SOL    HW122898   5.910   3.283   3.291
 7333SOL    HW222899   5.948   3.197   3.157
 7334SOL     OW22900   2.575   5.955   6.221
 7334SOL    HW122901   2.514   5.931   6.145
 7334SOL    HW222902   2.521   5.977   6.302
 7335SOL     OW22903   6.820   3.383   2.823
 7335SOL    HW122904   6.913   3.358   2.849
 7335SOL    HW222905   6.815   3.482   2.809
 7336SOL     OW22906   1.959   6.203   0.760
 7336SOL    HW122907   1.943   6.239   0.668
 7336SOL    HW222908   2.045   6.152   0.762
 7337SOL     OW22909   3.668   2.687   1.536
 7337SOL    HW122910   3.603   2.626   1.582
 7337SOL    HW222911   3.671   2.665   1.438
 7338SOL     OW22912   5.931   2.798   1.152
 7338SOL    HW122913   5.968   2.767   1.240
 7338SOL    HW222914   5.944   2.897   1.145
 7339SOL     OW22915   0.308   6.489   5.499
 7339SOL    HW122916   0.225   6.478   5.445
 7339SOL    HW222917   0.289   6.471   5.595
 7340SOL     OW22918   3.740   0.859   6.876
 7340SOL    HW122919   3.745   0.950   6.918
 7340SOL    HW222920   3.694   0.865   6.788
 7341SOL     OW22921   1.178   4.950   4.463
 7341SOL    HW122922   1.220   4.970   4.552
 7341SOL    HW222923   1.079   4.953   4.472
 7342SOL     OW22924   6.754   0.433   0.608
 7342SOL    HW122925   6.684   0.474   0.667
 7342SOL    HW222926   6.809   0.505   0.567
 7343SOL     OW22927   5.530   3.828   2.091
 7343SOL    HW122928   5.526   3.729   2.109
 7343SOL    HW222929   5.564   3.843   1.998
 7344SOL     OW22930   1.786   6.918   6.766
 7344SOL    HW122931   1.823   6.844   6.710
 7344SOL    HW222932   1.686   6.912   6.768
 7345SOL     OW22933   4.641   4.867   6.045
 7345SOL    HW122934   4.708   4.938   6.022
 7345SOL    HW222935   4.666   4.825   6.132
 7346SOL     OW22936   4.260   3.919   1.077
 7346SOL    HW122937   4.313   3.887   1.155
 7346SOL    HW222938   4.248   4.018   1.083
 7347SOL     OW22939   6.788   2.317   2.483
 7347SOL    HW122940   6.770   2.333   2.386
 7347SOL    HW222941   6.702   2.315   2.533
 7348SOL     OW22942   1.719   3.671   3.447
 7348SOL    HW122943   1.769   3.609   3.387
 7348SOL    HW222944   1.782   3.711   3.514
 7349SOL     OW22945   3.881   1.516   1.156
 7349SOL    HW122946   3.796   1.483   1.199
 7349SOL    HW222947   3.892   1.472   1.067
 7350SOL     OW22948   0.480   3.308   3.485
 7350SOL    HW122949   0.383   3.291   3.472
 7350SOL    HW222950   0.498   3.322   3.583
 7351SOL     OW22951   3.797   4.361   6.542
 7351SOL    HW122952   3.838   4.427   6.605
 7351SOL    HW222953   3.735   4.409   6.479
 7352SOL     OW22954   1.501   1.800   3.613
 7352SOL    HW122955   1.428   1.782   3.547
 7352SOL    HW222956   1.589   1.800   3.567
 7353SOL     OW22957   0.354   1.693   5.481
 7353SOL    HW122958   0.380   1.684   5.385
 7353SOL    HW222959   0.286   1.623   5.504
 7354SOL     OW22960   0.130   0.727   6.465
 7354SOL    HW122961   0.177   0.792   6.525
 7354SOL    HW222962   0.197   0.670   6.419
 7355SOL     OW22963   1.386   5.724   1.208
 7355SOL    HW122964   1.321   5.656   1.175
 7355SOL    HW222965   1.350   5.816   1.191
 7356SOL     OW22966   5.234   2.416   6.354
 7356SOL    HW122967   5.329   2.386   6.346
 7356SOL    HW222968   5.186   2.355   6.417
 7357SOL     OW22969   4.768   0.947   1.565
 7357SOL    HW122970   4.738   1.008   1.491
 7357SOL    HW222971   4.868   0.942   1.565
 7358SOL     OW22972   2.704   2.017   2.256
 7358SOL    HW122973   2.740   2.104   2.290
 7358SOL    HW222974   2.640   1.979   2.324
 7359SOL     OW22975   3.803   2.872   0.924
 7359SOL    HW122976   3.724   2.855   0.982
 7359SOL    HW222977   3.772   2.912   0.837
 7360SOL     OW22978   2.067   2.279   5.537
 7360SOL    HW122979   2.054   2.359   5.479
 7360SOL    HW222980   2.120   2.210   5.487
 7361SOL     OW22981   4.847   6.754   1.749
 7361SOL    HW122982   4.864   6.669   1.799
 7361SOL    HW222983   4.859   6.832   1.809
 7362SOL     OW22984   0.747   6.882   4.566
 7362SOL    HW122985   0.698   6.968   4.581
 7362SOL    HW222986   0.797   6.887   4.480
 7363SOL     OW22987   4.792   1.754   0.193
 7363SOL    HW122988   4.784   1.781   0.289
 7363SOL    HW222989   4.864   1.807   0.148
 7364SOL     OW22990   4.328   6.319   1.375
 7364SOL    HW122991   4.232   6.342   1.393
 7364SOL    HW222992   4.344   6.223   1.398
 7365SOL     OW22993   2.820   6.319   2.125
 7365SOL    HW122994   2.801   6.233   2.077
 7365SOL    HW222995   2.919   6.330   2.135
 7366SOL     OW22996   1.383   5.323   0.335
 7366SOL    HW122997   1.457   5.384   0.309
 7366SOL    HW222998   1.371   5.324   0.434
 7367SOL     OW22999   4.329   3.743   0.881
 7367SOL    HW123000   4.415   3.716   0.924
 7367SOL    HW223001   4.287   3.815   0.935
 7368SOL     OW23002   3.190   2.993   4.216
 7368SOL    HW123003   3.159   3.074   4.167
 7368SOL    HW223004   3.116   2.958   4.274
 7369SOL     OW23005   5.004   3.568   0.501
 7369SOL    HW123006   4.988   3.521   0.587
 7369SOL    HW223007   5.100   3.596   0.495
 7370SOL     OW23008   2.000   1.001   6.095
 7370SOL    HW123009   2.052   1.066   6.150
 7370SOL    HW223010   2.062   0.952   6.035
 7371SOL     OW23011   3.068   5.496   4.312
 7371SOL    HW123012   3.005   5.420   4.327
 7371SOL    HW223013   3.156   5.474   4.354
 7372SOL     OW23014   3.160   0.146   5.543
 7372SOL    HW123015   3.230   0.205   5.503
 7372SOL    HW223016   3.075   0.198   5.556
 7373SOL     OW23017   4.354   1.303   3.529
 7373SOL    HW123018   4.363   1.204   3.519
 7373SOL    HW223019   4.257   1.327   3.536
 7374SOL     OW23020   1.856   2.850   5.251
 7374SOL    HW123021   1.790   2.834   5.178
 7374SOL    HW223022   1.807   2.859   5.338
 7375SOL     OW23023   1.354   1.880   4.086
 7375SOL    HW123024   1.262   1.918   4.073
 7375SOL    HW223025   1.393   1.854   3.998
 7376SOL     OW23026   3.069   2.670   0.070
 7376SOL    HW123027   3.070   2.769   0.061
 7376SOL    HW223028   3.113   2.629   7.006
 7377SOL     OW23029   4.343   5.436   2.153
 7377SOL    HW123030   4.266   5.390   2.197
 7377SOL    HW223031   4.424   5.378   2.159
 7378SOL     OW23032   6.841   2.027   4.504
 7378SOL    HW123033   6.757   2.061   4.548
 7378SOL    HW223034   6.856   1.932   4.531
 7379SOL     OW23035   4.097   1.406   2.847
 7379SOL    HW123036   4.173   1.342   2.837
 7379SOL    HW223037   4.122   1.495   2.809
 7380SOL     OW23038   0.621   3.144   5.656
 7380SOL    HW123039   0.523   3.123   5.651
 7380SOL    HW223040   0.639   3.228   5.606
 7381SOL     OW23041   4.793   2.903   2.467
 7381SOL    HW123042   4.757   2.843   2.396
 7381SOL    HW223043   4.778   2.862   2.557
 7382SOL     OW23044   6.959   5.202   4.534
 7382SOL    HW123045   6.872   5.185   4.488
 7382SOL    HW223046   6.944   5.264   4.611
 7383SOL     OW23047   6.851   6.761   2.728
 7383SOL    HW123048   6.945   6.774   2.696
 7383SOL    HW223049   6.837   6.666   2.754
 7384SOL     OW23050   5.245   1.222   1.872
 7384SOL    HW123051   5.155   1.223   1.915
 7384SOL    HW223052   5.251   1.297   1.807
 7385SOL     OW23053   3.861   5.897   2.322
 7385SOL    HW123054   3.808   5.828   2.272
 7385SOL    HW223055   3.870   5.869   2.417
 7386SOL     OW23056   0.905   2.606   5.419
 7386SOL    HW123057   0.877   2.516   5.452
 7386SOL    HW223058   1.004   2.616   5.428
 7387SOL     OW23059   4.726   6.440   4.847
 7387SOL    HW123060   4.823   6.421   4.833
 7387SOL    HW223061   4.709   6.538   4.838
 7388SOL     OW23062   6.938   5.752   3.563
 7388SOL    HW123063   6.931   5.664   3.517
 7388SOL    HW223064   6.891   5.822   3.510
 7389SOL     OW23065   1.411   4.649   6.791
 7389SOL    HW123066   1.506   4.623   6.812
 7389SOL    HW223067   1.349   4.585   6.837
 7390SOL     OW23068   1.425   1.926   6.622
 7390SOL    HW123069   1.414   1.828   6.638
 7390SOL    HW223070   1.472   1.941   6.535
 7391SOL     OW23071   4.770   3.972   5.257
 7391SOL    HW123072   4.672   3.974   5.279
 7391SOL    HW223073   4.811   3.890   5.296
 7392SOL     OW23074   2.372   5.904   6.037
 7392SOL    HW123075   2.418   5.820   6.008
 7392SOL    HW223076   2.389   5.976   5.970
 7393SOL     OW23077   5.830   5.236   1.806
 7393SOL    HW123078   5.821   5.255   1.904
 7393SOL    HW223079   5.878   5.312   1.762
 7394SOL     OW23080   3.578   2.267   6.226
 7394SOL    HW123081   3.673   2.263   6.193
 7394SOL    HW223082   3.516   2.237   6.153
 7395SOL     OW23083   0.883   0.971   6.805
 7395SOL    HW123084   0.854   1.047   6.747
 7395SOL    HW223085   0.971   0.993   6.847
 7396SOL     OW23086   1.414   1.003   6.924
 7396SOL    HW123087   1.458   0.997   7.013
 7396SOL    HW223088   1.349   1.079   6.923
 7397SOL     OW23089   6.402   5.134   4.445
 7397SOL    HW123090   6.420   5.039   4.471
 7397SOL    HW223091   6.358   5.136   4.355
 7398SOL     OW23092   3.491   5.165   4.245
 7398SOL    HW123093   3.522   5.197   4.156
 7398SOL    HW223094   3.395   5.191   4.259
 7399SOL     OW23095   0.814   4.018   4.928
 7399SOL    HW123096   0.807   4.056   5.021
 7399SOL    HW223097   0.757   4.073   4.867
 7400SOL     OW23098   2.989   4.076   6.967
 7400SOL    HW123099   3.009   3.984   6.933
 7400SOL    HW223100   2.965   4.071   0.047
 7401SOL     OW23101   0.624   1.220   3.173
 7401SOL    HW123102   0.666   1.282   3.107
 7401SOL    HW223103   0.533   1.253   3.196
 7402SOL     OW23104   2.173   6.930   4.158
 7402SOL    HW123105   2.156   6.925   4.059
 7402SOL    HW223106   2.094   6.892   4.207
 7403SOL     OW23107   2.319   2.898   3.346
 7403SOL    HW123108   2.391   2.885   3.415
 7403SOL    HW223109   2.308   2.814   3.293
 7404SOL     OW23110   2.289   6.884   1.038
 7404SOL    HW123111   2.234   6.879   0.955
 7404SOL    HW223112   2.366   6.820   1.032
 7405SOL     OW23113   0.907   4.985   4.472
 7405SOL    HW123114   0.897   4.895   4.428
 7405SOL    HW223115   0.853   5.053   4.421
 7406SOL     OW23116   1.442   3.651   2.244
 7406SOL    HW123117   1.361   3.598   2.219
 7406SOL    HW223118   1.423   3.704   2.327
 7407SOL     OW23119   0.401   6.911   4.998
 7407SOL    HW123120   0.354   6.882   4.915
 7407SOL    HW223121   0.382   7.008   5.014
 7408SOL     OW23122   1.209   4.204   4.982
 7408SOL    HW123123   1.272   4.281   4.968
 7408SOL    HW223124   1.116   4.232   4.958
 7409SOL     OW23125   0.511   0.985   4.441
 7409SOL    HW123126   0.524   1.027   4.531
 7409SOL    HW223127   0.571   1.029   4.375
 7410SOL     OW23128   6.635   4.965   0.885
 7410SOL    HW123129   6.613   5.063   0.889
 7410SOL    HW223130   6.591   4.924   0.805
 7411SOL     OW23131   2.573   7.011   4.274
 7411SOL    HW123132   2.531   6.923   4.251
 7411SOL    HW223133   2.656   6.995   4.329
 7412SOL     OW23134   3.588   1.498   0.933
 7412SOL    HW123135   3.678   1.456   0.944
 7412SOL    HW223136   3.522   1.428   0.905
 7413SOL     OW23137   0.206   4.824   3.892
 7413SOL    HW123138   0.128   4.804   3.834
 7413SOL    HW223139   0.277   4.871   3.839
 7414SOL     OW23140   6.917   0.139   2.496
 7414SOL    HW123141   6.959   0.137   2.587
 7414SOL    HW223142   6.822   0.111   2.502
 7415SOL     OW23143   0.546   3.907   2.851
 7415SOL    HW123144   0.635   3.909   2.896
 7415SOL    HW223145   0.528   3.815   2.816
 7416SOL     OW23146   3.653   0.488   3.688
 7416SOL    HW123147   3.566   0.445   3.711
 7416SOL    HW223148   3.726   0.420   3.698
 7417SOL     OW23149   1.363   0.219   6.158
 7417SOL    HW123150   1.313   0.156   6.218
 7417SOL    HW223151   1.410   0.168   6.087
 7418SOL     OW23152   3.383   4.802   0.927
 7418SOL    HW123153   3.347   4.734   0.863
 7418SOL    HW223154   3.458   4.762   0.980
 7419SOL     OW23155   6.415   1.812   5.011
 7419SOL    HW123156   6.369   1.840   4.927
 7419SOL    HW223157   6.506   1.777   4.989
 7420SOL     OW23158   6.355   6.542   2.928
 7420SOL    HW123159   6.332   6.600   2.851
 7420SOL    HW223160   6.306   6.573   3.009
 7421SOL     OW23161   2.832   3.048   1.520
 7421SOL    HW123162   2.768   3.020   1.449
 7421SOL    HW223163   2.796   3.020   1.610
 7422SOL     OW23164   0.368   3.398   2.475
 7422SOL    HW123165   0.333   3.477   2.526
 7422SOL    HW223166   0.302   3.370   2.406
 7423SOL     OW23167   0.217   4.100   6.116
 7423SOL    HW123168   0.170   4.184   6.090
 7423SOL    HW223169   0.166   4.021   6.081
 7424SOL     OW23170   5.877   1.437   4.170
 7424SOL    HW123171   5.961   1.490   4.179
 7424SOL    HW223172   5.871   1.400   4.078
 7425SOL     OW23173   4.071   4.760   6.679
 7425SOL    HW123174   4.080   4.809   6.766
 7425SOL    HW223175   4.124   4.676   6.682
 7426SOL     OW23176   0.875   1.865   6.950
 7426SOL    HW123177   0.933   1.945   6.966
 7426SOL    HW223178   0.828   1.875   6.863
 7427SOL     OW23179   3.265   5.892   5.112
 7427SOL    HW123180   3.181   5.910   5.164
 7427SOL    HW223181   3.267   5.952   5.032
 7428SOL     OW23182   3.395   1.163   5.423
 7428SOL    HW123183   3.436   1.240   5.376
 7428SOL    HW223184   3.297   1.159   5.402
 7429SOL     OW23185   6.312   0.248   3.157
 7429SOL    HW123186   6.361   0.230   3.242
 7429SOL    HW223187   6.282   0.343   3.156
 7430SOL     OW23188   0.332   4.699   5.764
 7430SOL    HW123189   0.356   4.796   5.769
 7430SOL    HW223190   0.351   4.656   5.852
 7431SOL     OW23191   0.246   4.185   2.224
 7431SOL    HW123192   0.346   4.187   2.232
 7431SOL    HW223193   0.215   4.090   2.224
 7432SOL     OW23194   0.566   6.629   3.854
 7432SOL    HW123195   0.514   6.602   3.773
 7432SOL    HW223196   0.660   6.595   3.846
 7433SOL     OW23197   6.563   5.385   0.135
 7433SOL    HW123198   6.579   5.298   0.087
 7433SOL    HW223199   6.633   5.398   0.205
 7434SOL     OW23200   3.848   0.888   6.331
 7434SOL    HW123201   3.765   0.887   6.274
 7434SOL    HW223202   3.853   0.805   6.385
 7435SOL     OW23203   3.003   6.627   6.717
 7435SOL    HW123204   2.978   6.633   6.620
 7435SOL    HW223205   3.076   6.561   6.729
 7436SOL     OW23206   6.855   3.049   6.282
 7436SOL    HW123207   6.922   3.106   6.234
 7436SOL    HW223208   6.893   2.958   6.298
 7437SOL     OW23209   0.066   5.744   6.957
 7437SOL    HW123210   0.104   5.659   6.920
 7437SOL    HW223211   7.004   5.723   7.014
 7438SOL     OW23212   0.941   4.228   0.823
 7438SOL    HW123213   0.916   4.296   0.754
 7438SOL    HW223214   1.033   4.194   0.803
 7439SOL     OW23215   2.612   0.179   4.045
 7439SOL    HW123216   2.589   0.138   4.133
 7439SOL    HW223217   2.685   0.126   4.002
 7440SOL     OW23218   0.831   3.108   4.424
 7440SOL    HW123219   0.796   3.192   4.466
 7440SOL    HW223220   0.906   3.071   4.480
 7441SOL     OW23221   5.919   6.611   4.316
 7441SOL    HW123222   5.906   6.610   4.217
 7441SOL    HW223223   5.846   6.557   4.359
 7442SOL     OW23224   0.697   0.753   5.901
 7442SOL    HW123225   0.759   0.742   5.978
 7442SOL    HW223226   0.610   0.790   5.933
 7443SOL     OW23227   0.112   1.597   1.440
 7443SOL    HW123228   0.179   1.631   1.374
 7443SOL    HW223229   0.132   1.636   1.530
 7444SOL     OW23230   0.323   3.223   5.112
 7444SOL    HW123231   0.366   3.295   5.057
 7444SOL    HW223232   0.254   3.263   5.171
 7445SOL     OW23233   3.818   0.945   1.260
 7445SOL    HW123234   3.794   0.848   1.263
 7445SOL    HW223235   3.799   0.987   1.349
 7446SOL     OW23236   5.524   4.595   0.215
 7446SOL    HW123237   5.568   4.671   0.262
 7446SOL    HW223238   5.472   4.541   0.281
 7447SOL     OW23239   2.785   3.883   6.745
 7447SOL    HW123240   2.779   3.828   6.661
 7447SOL    HW223241   2.703   3.870   6.800
 7448SOL     OW23242   5.359   6.086   6.084
 7448SOL    HW123243   5.412   6.170   6.078
 7448SOL    HW223244   5.261   6.107   6.077
 7449SOL     OW23245   4.724   2.731   2.272
 7449SOL    HW123246   4.707   2.766   2.180
 7449SOL    HW223247   4.762   2.639   2.267
 7450SOL     OW23248   5.454   2.806   4.581
 7450SOL    HW123249   5.362   2.844   4.590
 7450SOL    HW223250   5.463   2.726   4.640
 7451SOL     OW23251   1.746   0.257   3.651
 7451SOL    HW123252   1.694   0.323   3.597
 7451SOL    HW223253   1.809   0.306   3.711
 7452SOL     OW23254   0.931   0.110   4.875
 7452SOL    HW123255   1.004   0.177   4.869
 7452SOL    HW223256   0.867   0.136   4.947
 7453SOL     OW23257   5.465   5.737   5.297
 7453SOL    HW123258   5.524   5.755   5.376
 7453SOL    HW223259   5.469   5.815   5.234
 7454SOL     OW23260   1.116   3.211   2.118
 7454SOL    HW123261   1.122   3.211   2.218
 7454SOL    HW223262   1.137   3.119   2.084
 7455SOL     OW23263   6.832   1.612   1.682
 7455SOL    HW123264   6.753   1.563   1.721
 7455SOL    HW223265   6.803   1.661   1.600
 7456SOL     OW23266   1.166   2.009   4.666
 7456SOL    HW123267   1.144   2.079   4.733
 7456SOL    HW223268   1.232   2.044   4.600
 7457SOL     OW23269   3.870   0.730   6.000
 7457SOL    HW123270   3.931   0.714   5.923
 7457SOL    HW223271   3.843   0.642   6.040
 7458SOL     OW23272   1.411   0.087   6.699
 7458SOL    HW123273   1.440   0.147   6.774
 7458SOL    HW223274   1.321   0.116   6.667
 7459SOL     OW23275   4.582   0.060   0.173
 7459SOL    HW123276   4.641   6.996   0.173
 7459SOL    HW223277   4.615   0.125   0.241
 7460SOL     OW23278   2.130   4.359   0.663
 7460SOL    HW123279   2.223   4.363   0.626
 7460SOL    HW223280   2.133   4.347   0.762
 7461SOL     OW23281   4.874   1.643   5.529
 7461SOL    HW123282   4.837   1.696   5.606
 7461SOL    HW223283   4.974   1.648   5.531
 7462SOL     OW23284   1.752   2.754   2.097
 7462SOL    HW123285   1.669   2.758   2.152
 7462SOL    HW223286   1.744   2.680   2.030
 7463SOL     OW23287   3.748   3.773   1.453
 7463SOL    HW123288   3.703   3.708   1.392
 7463SOL    HW223289   3.679   3.828   1.500
 7464SOL     OW23290   3.597   6.433   6.409
 7464SOL    HW123291   3.569   6.527   6.390
 7464SOL    HW223292   3.656   6.431   6.489
 7465SOL     OW23293   1.516   0.699   1.067
 7465SOL    HW123294   1.614   0.691   1.053
 7465SOL    HW223295   1.482   0.781   1.021
 7466SOL     OW23296   0.362   1.031   6.731
 7466SOL    HW123297   0.446   1.010   6.780
 7466SOL    HW223298   0.283   1.002   6.785
 7467SOL     OW23299   6.213   2.284   0.858
 7467SOL    HW123300   6.179   2.190   0.864
 7467SOL    HW223301   6.276   2.302   0.934
 7468SOL     OW23302   5.288   2.442   2.398
 7468SOL    HW123303   5.260   2.396   2.482
 7468SOL    HW223304   5.325   2.533   2.421
 7469SOL     OW23305   0.767   0.130   0.369
 7469SOL    HW123306   0.712   0.077   0.434
 7469SOL    HW223307   0.712   0.149   0.287
 7470SOL     OW23308   0.191   3.346   3.503
 7470SOL    HW123309   0.140   3.371   3.421
 7470SOL    HW223310   0.205   3.427   3.560
 7471SOL     OW23311   6.120   6.856   4.025
 7471SOL    HW123312   6.155   6.818   4.110
 7471SOL    HW223313   6.057   6.792   3.982
 7472SOL     OW23314   5.859   6.563   4.067
 7472SOL    HW123315   5.845   6.610   3.980
 7472SOL    HW223316   5.806   6.478   4.068
 7473SOL     OW23317   0.396   4.932   3.125
 7473SOL    HW123318   0.373   5.029   3.140
 7473SOL    HW223319   0.320   4.875   3.154
 7474SOL     OW23320   2.878   0.992   5.012
 7474SOL    HW123321   2.935   0.910   5.010
 7474SOL    HW223322   2.905   1.053   4.938
 7475SOL     OW23323   3.871   1.721   2.415
 7475SOL    HW123324   3.848   1.783   2.340
 7475SOL    HW223325   3.890   1.630   2.378
 7476SOL     OW23326   4.077   6.441   4.252
 7476SOL    HW123327   3.983   6.469   4.233
 7476SOL    HW223328   4.090   6.347   4.222
 7477SOL     OW23329   4.919   1.397   3.891
 7477SOL    HW123330   4.997   1.354   3.935
 7477SOL    HW223331   4.856   1.431   3.961
 7478SOL     OW23332   4.113   3.895   6.349
 7478SOL    HW123333   4.042   3.832   6.317
 7478SOL    HW223334   4.074   3.987   6.359
 7479SOL     OW23335   4.362   2.620   0.896
 7479SOL    HW123336   4.287   2.683   0.875
 7479SOL    HW223337   4.363   2.546   0.829
 7480SOL     OW23338   6.228   5.131   1.528
 7480SOL    HW123339   6.213   5.059   1.596
 7480SOL    HW223340   6.286   5.202   1.567
 7481SOL     OW23341   5.480   5.149   1.489
 7481SOL    HW123342   5.515   5.120   1.400
 7481SOL    HW223343   5.389   5.189   1.478
 7482SOL     OW23344   4.557   1.800   2.496
 7482SOL    HW123345   4.493   1.827   2.424
 7482SOL    HW223346   4.585   1.880   2.548
 7483SOL     OW23347   4.176   2.073   4.801
 7483SOL    HW123348   4.083   2.103   4.780
 7483SOL    HW223349   4.203   2.108   4.891
 7484SOL     OW23350   6.429   6.800   2.544
 7484SOL    HW123351   6.427   6.804   2.445
 7484SOL    HW223352   6.475   6.716   2.574
 7485SOL     OW23353   2.898   6.062   5.594
 7485SOL    HW123354   2.946   6.011   5.666
 7485SOL    HW223355   2.963   6.120   5.546
 7486SOL     OW23356   2.181   6.979   5.700
 7486SOL    HW123357   2.195   6.909   5.630
 7486SOL    HW223358   2.154   0.048   5.655
 7487SOL     OW23359   2.045   6.235   2.537
 7487SOL    HW123360   2.054   6.135   2.529
 7487SOL    HW223361   2.116   6.270   2.598
 7488SOL     OW23362   1.715   6.420   5.011
 7488SOL    HW123363   1.727   6.338   5.067
 7488SOL    HW223364   1.630   6.466   5.037
 7489SOL     OW23365   5.136   2.696   5.379
 7489SOL    HW123366   5.165   2.791   5.382
 7489SOL    HW223367   5.088   2.678   5.293
 7490SOL     OW23368   1.028   1.454   1.496
 7490SOL    HW123369   1.103   1.518   1.476
 7490SOL    HW223370   1.048   1.405   1.580
 7491SOL     OW23371   0.317   4.828   6.517
 7491SOL    HW123372   0.243   4.765   6.494
 7491SOL    HW223373   0.278   4.920   6.531
 7492SOL     OW23374   2.664   1.417   4.658
 7492SOL    HW123375   2.567   1.426   4.681
 7492SOL    HW223376   2.679   1.448   4.564
 7493SOL     OW23377   6.076   4.540   6.439
 7493SOL    HW123378   6.006   4.611   6.432
 7493SOL    HW223379   6.151   4.560   6.375
 7494SOL     OW23380   6.254   1.375   2.821
 7494SOL    HW123381   6.188   1.437   2.779
 7494SOL    HW223382   6.301   1.323   2.750
 7495SOL     OW23383   2.204   1.449   0.802
 7495SOL    HW123384   2.241   1.357   0.810
 7495SOL    HW223385   2.269   1.507   0.753
 7496SOL     OW23386   0.568   3.464   5.940
 7496SOL    HW123387   0.553   3.538   6.006
 7496SOL    HW223388   0.660   3.426   5.953
 7497SOL     OW23389   2.903   4.698   1.157
 7497SOL    HW123390   2.868   4.677   1.248
 7497SOL    HW223391   3.003   4.695   1.158
 7498SOL     OW23392   2.248   0.755   4.400
 7498SOL    HW123393   2.227   0.843   4.358
 7498SOL    HW223394   2.176   0.690   4.378
 7499SOL     OW23395   6.155   0.878   3.611
 7499SOL    HW123396   6.122   0.905   3.520
 7499SOL    HW223397   6.178   0.781   3.611
 7500SOL     OW23398   4.237   6.315   3.258
 7500SOL    HW123399   4.209   6.404   3.223
 7500SOL    HW223400   4.335   6.316   3.279
 7501SOL     OW23401   7.007   4.361   4.541
 7501SOL    HW123402   0.023   4.426   4.474
 7501SOL    HW223403   6.944   4.406   4.604
 7502SOL     OW23404   1.210   0.835   5.293
 7502SOL    HW123405   1.229   0.820   5.390
 7502SOL    HW223406   1.160   0.921   5.282
 7503SOL     OW23407   2.621   1.396   0.262
 7503SOL    HW123408   2.616   1.373   0.359
 7503SOL    HW223409   2.567   1.330   0.209
 7504SOL     OW23410   3.296   0.254   3.335
 7504SOL    HW123411   3.309   0.157   3.316
 7504SOL    HW223412   3.297   0.305   3.249
 7505SOL     OW23413   2.427   0.719   5.378
 7505SOL    HW123414   2.483   0.643   5.410
 7505SOL    HW223415   2.352   0.684   5.321
 7506SOL     OW23416   3.989   7.002   2.375
 7506SOL    HW123417   3.900   7.001   2.419
 7506SOL    HW223418   4.058   0.020   2.439
 7507SOL     OW23419   0.037   0.551   1.166
 7507SOL    HW123420   0.038   0.580   1.261
 7507SOL    HW223421   0.114   0.489   1.149
 7508SOL     OW23422   5.493   0.117   1.970
 7508SOL    HW123423   5.408   0.156   1.935
 7508SOL    HW223424   5.489   0.017   1.964
 7509SOL     OW23425   5.519   4.378   0.947
 7509SOL    HW123426   5.460   4.428   0.883
 7509SOL    HW223427   5.464   4.314   1.001
 7510SOL     OW23428   2.685   4.065   5.583
 7510SOL    HW123429   2.727   4.027   5.665
 7510SOL    HW223430   2.731   4.150   5.558
 7511SOL     OW23431   1.386   0.669   3.135
 7511SOL    HW123432   1.446   0.589   3.135
 7511SOL    HW223433   1.328   0.668   3.217
 7512SOL     OW23434   3.022   4.462   1.447
 7512SOL    HW123435   2.952   4.466   1.376
 7512SOL    HW223436   3.098   4.522   1.423
 7513SOL     OW23437   1.777   2.350   0.920
 7513SOL    HW123438   1.848   2.398   0.869
 7513SOL    HW223439   1.786   2.252   0.905
 7514SOL     OW23440   2.880   5.845   2.520
 7514SOL    HW123441   2.907   5.770   2.580
 7514SOL    HW223442   2.813   5.903   2.566
 7515SOL     OW23443   1.852   6.236   2.025
 7515SOL    HW123444   1.904   6.268   2.105
 7515SOL    HW223445   1.873   6.140   2.008
 7516SOL     OW23446   0.067   5.816   4.502
 7516SOL    HW123447   0.010   5.894   4.477
 7516SOL    HW223448   0.128   5.794   4.426
 7517SOL     OW23449   6.566   3.545   1.548
 7517SOL    HW123450   6.616   3.622   1.509
 7517SOL    HW223451   6.539   3.482   1.475
 7518SOL     OW23452   3.949   5.965   4.010
 7518SOL    HW123453   3.861   6.005   4.035
 7518SOL    HW223454   3.978   6.001   3.922
 7519SOL     OW23455   0.500   0.084   3.649
 7519SOL    HW123456   0.566   0.051   3.716
 7519SOL    HW223457   0.408   0.052   3.675
 7520SOL     OW23458   2.736   6.918   1.942
 7520SOL    HW123459   2.710   6.996   1.999
 7520SOL    HW223460   2.770   6.950   1.853
 7521SOL     OW23461   4.547   4.535   5.727
 7521SOL    HW123462   4.627   4.519   5.786
 7521SOL    HW223463   4.499   4.449   5.713
 7522SOL     OW23464   2.849   1.239   6.393
 7522SOL    HW123465   2.885   1.317   6.444
 7522SOL    HW223466   2.884   1.241   6.299
 7523SOL     OW23467   5.393   0.850   5.745
 7523SOL    HW123468   5.325   0.872   5.674
 7523SOL    HW223469   5.366   0.765   5.791
 7524SOL     OW23470   0.972   2.506   6.268
 7524SOL    HW123471   1.055   2.451   6.260
 7524SOL    HW223472   0.978   2.585   6.206
 7525SOL     OW23473   2.680   7.006   6.700
 7525SOL    HW123474   2.681   6.957   6.787
 7525SOL    HW223475   2.615   0.065   6.705
 7526SOL     OW23476   3.563   2.882   2.543
 7526SOL    HW123477   3.512   2.798   2.566
 7526SOL    HW223478   3.499   2.959   2.539
 7527SOL     OW23479   4.104   5.758   3.683
 7527SOL    HW123480   4.053   5.844   3.677
 7527SOL    HW223481   4.040   5.681   3.685
 7528SOL     OW23482   4.258   2.217   6.665
 7528SOL    HW123483   4.305   2.162   6.734
 7528SOL    HW223484   4.320   2.236   6.589
 7529SOL     OW23485   6.030   0.997   4.659
 7529SOL    HW123486   5.984   1.086   4.646
 7529SOL    HW223487   5.961   0.927   4.678
 7530SOL     OW23488   6.035   3.606   2.371
 7530SOL    HW123489   6.069   3.516   2.400
 7530SOL    HW223490   6.034   3.610   2.271
 7531SOL     OW23491   4.254   2.329   4.142
 7531SOL    HW123492   4.179   2.270   4.172
 7531SOL    HW223493   4.276   2.395   4.214
 7532SOL     OW23494   5.133   5.457   1.653
 7532SOL    HW123495   5.121   5.549   1.690
 7532SOL    HW223496   5.145   5.461   1.554
 7533SOL     OW23497   2.285   0.683   3.158
 7533SOL    HW123498   2.327   0.733   3.234
 7533SOL    HW223499   2.250   0.749   3.091
 7534SOL     OW23500   3.431   6.943   5.490
 7534SOL    HW123501   3.346   6.927   5.440
 7534SOL    HW223502   3.412   6.949   5.588
 7535SOL     OW23503   2.572   1.273   5.452
 7535SOL    HW123504   2.619   1.342   5.398
 7535SOL    HW223505   2.638   1.206   5.485
 7536SOL     OW23506   5.488   4.706   4.780
 7536SOL    HW123507   5.483   4.608   4.762
 7536SOL    HW223508   5.514   4.754   4.697
 7537SOL     OW23509   2.402   5.189   4.796
 7537SOL    HW123510   2.355   5.112   4.752
 7537SOL    HW223511   2.397   5.269   4.737
 7538SOL     OW23512   3.155   3.136   1.943
 7538SOL    HW123513   3.247   3.175   1.938
 7538SOL    HW223514   3.146   3.082   2.027
 7539SOL     OW23515   2.493   2.549   4.494
 7539SOL    HW123516   2.551   2.499   4.558
 7539SOL    HW223517   2.512   2.518   4.400
 7540SOL     OW23518   2.545   0.885   5.853
 7540SOL    HW123519   2.545   0.978   5.890
 7540SOL    HW223520   2.495   0.884   5.766
 7541SOL     OW23521   6.734   3.255   4.476
 7541SOL    HW123522   6.783   3.264   4.390
 7541SOL    HW223523   6.681   3.339   4.493
 7542SOL     OW23524   0.412   6.334   6.737
 7542SOL    HW123525   0.315   6.337   6.763
 7542SOL    HW223526   0.425   6.262   6.669
 7543SOL     OW23527   4.161   1.995   0.896
 7543SOL    HW123528   4.255   1.968   0.876
 7543SOL    HW223529   4.157   2.036   0.987
 7544SOL     OW23530   0.704   2.459   3.716
 7544SOL    HW123531   0.675   2.532   3.778
 7544SOL    HW223532   0.625   2.402   3.692
 7545SOL     OW23533   5.451   6.615   3.070
 7545SOL    HW123534   5.413   6.705   3.089
 7545SOL    HW223535   5.464   6.604   2.971
 7546SOL     OW23536   4.339   0.924   1.470
 7546SOL    HW123537   4.298   1.016   1.471
 7546SOL    HW223538   4.405   0.918   1.395
 7547SOL     OW23539   4.123   6.650   0.761
 7547SOL    HW123540   4.130   6.607   0.671
 7547SOL    HW223541   4.182   6.601   0.825
 7548SOL     OW23542   2.985   1.962   0.529
 7548SOL    HW123543   3.038   1.982   0.447
 7548SOL    HW223544   3.028   1.885   0.577
 7549SOL     OW23545   6.039   2.150   1.150
 7549SOL    HW123546   6.000   2.109   1.068
 7549SOL    HW223547   6.057   2.248   1.134
 7550SOL     OW23548   2.487   5.002   1.886
 7550SOL    HW123549   2.545   5.058   1.944
 7550SOL    HW223550   2.532   4.914   1.868
 7551SOL     OW23551   4.668   4.226   0.201
 7551SOL    HW123552   4.582   4.226   0.151
 7551SOL    HW223553   4.745   4.226   0.137
 7552SOL     OW23554   1.939   5.590   3.960
 7552SOL    HW123555   1.882   5.523   4.006
 7552SOL    HW223556   2.035   5.565   3.968
 7553SOL     OW23557   4.249   4.929   5.230
 7553SOL    HW123558   4.248   5.029   5.236
 7553SOL    HW223559   4.272   4.891   5.320
 7554SOL     OW23560   4.907   0.659   0.684
 7554SOL    HW123561   4.974   0.679   0.612
 7554SOL    HW223562   4.928   0.570   0.725
 7555SOL     OW23563   1.780   4.802   4.673
 7555SOL    HW123564   1.776   4.722   4.614
 7555SOL    HW223565   1.862   4.799   4.729
 7556SOL     OW23566   0.546   2.202   5.451
 7556SOL    HW123567   0.618   2.151   5.404
 7556SOL    HW223568   0.493   2.140   5.508
 7557SOL     OW23569   5.847   3.249   6.510
 7557SOL    HW123570   5.906   3.328   6.524
 7557SOL    HW223571   5.894   3.182   6.453
 7558SOL     OW23572   2.785   2.245   3.396
 7558SOL    HW123573   2.792   2.152   3.360
 7558SOL    HW223574   2.813   2.247   3.492
 7559SOL     OW23575   6.696   5.818   1.112
 7559SOL    HW123576   6.667   5.781   1.200
 7559SOL    HW223577   6.620   5.814   1.048
 7560SOL     OW23578   5.496   6.215   6.978
 7560SOL    HW123579   5.397   6.207   6.962
 7560SOL    HW223580   5.521   6.160   0.040
 7561SOL     OW23581   0.619   3.267   0.609
 7561SOL    HW123582   0.546   3.328   0.638
 7561SOL    HW223583   0.700   3.320   0.587
 7562SOL     OW23584   4.916   6.138   4.766
 7562SOL    HW123585   4.897   6.161   4.671
 7562SOL    HW223586   4.976   6.058   4.770
 7563SOL     OW23587   2.768   6.834   0.598
 7563SOL    HW123588   2.827   6.848   0.677
 7563SOL    HW223589   2.822   6.842   0.514
 7564SOL     OW23590   4.907   1.617   2.647
 7564SOL    HW123591   4.831   1.582   2.702
 7564SOL    HW223592   4.872   1.650   2.559
 7565SOL     OW23593   4.932   4.895   0.272
 7565SOL    HW123594   4.977   4.879   0.185
 7565SOL    HW223595   4.834   4.911   0.257
 7566SOL     OW23596   1.103   4.974   2.956
 7566SOL    HW123597   1.099   4.921   3.041
 7566SOL    HW223598   1.108   5.071   2.978
 7567SOL     OW23599   1.924   2.235   4.822
 7567SOL    HW123600   1.978   2.215   4.741
 7567SOL    HW223601   1.983   2.267   4.896
 7568SOL     OW23602   5.760   6.270   3.538
 7568SOL    HW123603   5.750   6.192   3.599
 7568SOL    HW223604   5.841   6.257   3.481
 7569SOL     OW23605   4.026   4.506   6.398
 7569SOL    HW123606   4.021   4.503   6.498
 7569SOL    HW223607   4.116   4.540   6.371
 7570SOL     OW23608   5.198   4.610   5.677
 7570SOL    HW123609   5.119   4.669   5.694
 7570SOL    HW223610   5.282   4.661   5.694
 7571SOL     OW23611   5.559   4.955   2.695
 7571SOL    HW123612   5.656   4.931   2.684
 7571SOL    HW223613   5.509   4.873   2.724
 7572SOL     OW23614   5.197   0.581   3.308
 7572SOL    HW123615   5.189   0.592   3.407
 7572SOL    HW223616   5.110   0.550   3.271
 7573SOL     OW23617   6.029   5.897   4.528
 7573SOL    HW123618   6.107   5.834   4.518
 7573SOL    HW223619   5.944   5.845   4.522
 7574SOL     OW23620   6.813   0.899   4.634
 7574SOL    HW123621   6.768   0.986   4.610
 7574SOL    HW223622   6.898   0.918   4.682
 7575SOL     OW23623   4.584   0.273   5.649
 7575SOL    HW123624   4.626   0.239   5.565
 7575SOL    HW223625   4.653   0.280   5.721
 7576SOL     OW23626   6.172   5.875   0.644
 7576SOL    HW123627   6.094   5.819   0.674
 7576SOL    HW223628   6.187   5.862   0.546
 7577SOL     OW23629   6.697   6.807   5.182
 7577SOL    HW123630   6.710   6.784   5.086
 7577SOL    HW223631   6.701   6.724   5.237
 7578SOL     OW23632   2.303   6.149   3.537
 7578SOL    HW123633   2.400   6.139   3.559
 7578SOL    HW223634   2.285   6.110   3.447
 7579SOL     OW23635   4.603   2.087   2.527
 7579SOL    HW123636   4.557   2.164   2.484
 7579SOL    HW223637   4.684   2.062   2.473
 7580SOL     OW23638   1.566   4.352   3.624
 7580SOL    HW123639   1.495   4.407   3.667
 7580SOL    HW223640   1.594   4.395   3.538
 7581SOL     OW23641   5.097   0.682   1.062
 7581SOL    HW123642   5.100   0.781   1.076
 7581SOL    HW223643   5.119   0.636   1.148
 7582SOL     OW23644   3.103   0.898   0.290
 7582SOL    HW123645   3.041   0.961   0.337
 7582SOL    HW223646   3.098   0.808   0.333
 7583SOL     OW23647   6.007   3.626   1.147
 7583SOL    HW123648   5.963   3.647   1.060
 7583SOL    HW223649   6.024   3.527   1.152
 7584SOL     OW23650   3.307   6.912   0.821
 7584SOL    HW123651   3.252   6.988   0.856
 7584SOL    HW223652   3.333   6.931   0.727
 7585SOL     OW23653   1.738   3.106   6.141
 7585SOL    HW123654   1.754   3.180   6.076
 7585SOL    HW223655   1.810   3.037   6.130
 7586SOL     OW23656   3.433   0.879   3.697
 7586SOL    HW123657   3.454   0.812   3.625
 7586SOL    HW223658   3.489   0.861   3.777
 7587SOL     OW23659   3.550   1.343   6.842
 7587SOL    HW123660   3.569   1.404   6.765
 7587SOL    HW223661   3.544   1.396   6.927
 7588SOL     OW23662   0.873   3.529   2.132
 7588SOL    HW123663   0.807   3.599   2.108
 7588SOL    HW223664   0.836   3.439   2.109
 7589SOL     OW23665   5.997   6.801   0.687
 7589SOL    HW123666   5.960   6.759   0.604
 7589SOL    HW223667   6.095   6.782   0.692
 7590SOL     OW23668   2.890   2.124   6.492
 7590SOL    HW123669   2.833   2.058   6.541
 7590SOL    HW223670   2.877   2.215   6.530
 7591SOL     OW23671   6.722   4.970   0.388
 7591SOL    HW123672   6.652   4.998   0.322
 7591SOL    HW223673   6.727   5.037   0.462
 7592SOL     OW23674   7.001   4.361   6.854
 7592SOL    HW123675   0.040   4.384   6.934
 7592SOL    HW223676   0.039   4.370   6.771
 7593SOL     OW23677   4.901   2.458   0.644
 7593SOL    HW123678   4.947   2.380   0.603
 7593SOL    HW223679   4.803   2.454   0.623
 7594SOL     OW23680   0.035   4.317   2.338
 7594SOL    HW123681   0.121   4.356   2.304
 7594SOL    HW223682   0.045   4.218   2.348
 7595SOL     OW23683   0.062   2.292   6.086
 7595SOL    HW123684   0.018   2.343   6.012
 7595SOL    HW223685   0.160   2.288   6.070
 7596SOL     OW23686   4.394   5.384   3.034
 7596SOL    HW123687   4.394   5.405   3.132
 7596SOL    HW223688   4.481   5.344   3.007
 7597SOL     OW23689   2.753   5.474   1.500
 7597SOL    HW123690   2.728   5.377   1.500
 7597SOL    HW223691   2.850   5.483   1.523
 7598SOL     OW23692   0.236   1.210   3.103
 7598SOL    HW123693   0.275   1.120   3.116
 7598SOL    HW223694   0.194   1.241   3.189
 7599SOL     OW23695   5.643   1.813   3.506
 7599SOL    HW123696   5.546   1.837   3.514
 7599SOL    HW223697   5.651   1.728   3.454
 7600SOL     OW23698   1.669   0.523   2.600
 7600SOL    HW123699   1.660   0.613   2.641
 7600SOL    HW223700   1.590   0.505   2.541
 7601SOL     OW23701   2.258   5.546   2.611
 7601SOL    HW123702   2.280   5.453   2.643
 7601SOL    HW223703   2.166   5.547   2.572
 7602SOL     OW23704   1.847   4.002   6.130
 7602SOL    HW123705   1.851   4.064   6.207
 7602SOL    HW223706   1.931   4.008   6.076
 7603SOL     OW23707   1.066   5.761   5.913
 7603SOL    HW123708   0.967   5.776   5.905
 7603SOL    HW223709   1.084   5.701   5.992
 7604SOL     OW23710   2.312   4.328   4.147
 7604SOL    HW123711   2.382   4.398   4.160
 7604SOL    HW223712   2.332   4.276   4.064
 7605SOL     OW23713   1.659   6.242   0.200
 7605SOL    HW123714   1.574   6.273   0.158
 7605SOL    HW223715   1.706   6.320   0.242
 7606SOL     OW23716   0.022   3.049   3.146
 7606SOL    HW123717   0.033   2.994   3.063
 7606SOL    HW223718   6.942   3.051   3.172
 7607SOL     OW23719   4.637   6.365   0.260
 7607SOL    HW123720   4.601   6.300   0.193
 7607SOL    HW223721   4.633   6.325   0.352
 7608SOL     OW23722   3.284   4.130   2.840
 7608SOL    HW123723   3.347   4.146   2.764
 7608SOL    HW223724   3.228   4.049   2.820
 7609SOL     OW23725   0.072   4.517   3.488
 7609SOL    HW123726   0.140   4.540   3.419
 7609SOL    HW223727   0.104   4.439   3.542
 7610SOL     OW23728   6.286   6.831   6.547
 7610SOL    HW123729   6.187   6.814   6.554
 7610SOL    HW223730   6.306   6.871   6.458
 7611SOL     OW23731   0.807   1.988   0.206
 7611SOL    HW123732   0.737   1.935   0.158
 7611SOL    HW223733   0.770   2.021   0.293
 7612SOL     OW23734   4.593   2.716   4.828
 7612SOL    HW123735   4.531   2.713   4.749
 7612SOL    HW223736   4.687   2.703   4.798
 7613SOL     OW23737   5.408   2.252   1.937
 7613SOL    HW123738   5.505   2.243   1.962
 7613SOL    HW223739   5.395   2.335   1.883
 7614SOL     OW23740   5.329   2.783   1.599
 7614SOL    HW123741   5.402   2.755   1.537
 7614SOL    HW223742   5.250   2.816   1.546
 7615SOL     OW23743   4.757   4.076   6.291
 7615SOL    HW123744   4.711   4.129   6.219
 7615SOL    HW223745   4.705   3.993   6.310
 7616SOL     OW23746   6.847   4.507   4.737
 7616SOL    HW123747   6.765   4.555   4.704
 7616SOL    HW223748   6.921   4.574   4.752
 7617SOL     OW23749   2.883   5.524   2.963
 7617SOL    HW123750   2.955   5.523   3.031
 7617SOL    HW223751   2.833   5.611   2.969
 7618SOL     OW23752   0.541   2.398   0.165
 7618SOL    HW123753   0.502   2.414   0.074
 7618SOL    HW223754   0.618   2.335   0.157
 7619SOL     OW23755   5.449   3.110   5.086
 7619SOL    HW123756   5.472   3.013   5.082
 7619SOL    HW223757   5.530   3.164   5.067
 7620SOL     OW23758   4.000   5.111   0.104
 7620SOL    HW123759   4.027   5.122   0.200
 7620SOL    HW223760   3.965   5.198   0.069
 7621SOL     OW23761   0.381   1.501   0.595
 7621SOL    HW123762   0.424   1.556   0.667
 7621SOL    HW223763   0.310   1.443   0.635
 7622SOL     OW23764   4.817   4.937   1.697
 7622SOL    HW123765   4.892   4.921   1.634
 7622SOL    HW223766   4.769   4.851   1.715
 7623SOL     OW23767   4.563   4.484   6.927
 7623SOL    HW123768   4.607   4.516   7.011
 7623SOL    HW223769   4.633   4.459   6.860
 7624SOL     OW23770   0.035   2.724   4.641
 7624SOL    HW123771   0.080   2.677   4.565
 7624SOL    HW223772   0.068   2.687   4.728
 7625SOL     OW23773   4.414   0.687   1.529
 7625SOL    HW123774   4.500   0.707   1.576
 7625SOL    HW223775   4.359   0.771   1.524
 7626SOL     OW23776   0.015   6.451   4.446
 7626SOL    HW123777   0.022   6.425   4.542
 7626SOL    HW223778   0.021   6.370   4.389
 7627SOL     OW23779   4.953   3.107   0.192
 7627SOL    HW123780   5.047   3.141   0.182
 7627SOL    HW223781   4.953   3.027   0.253
 7628SOL     OW23782   3.510   0.649   2.095
 7628SOL    HW123783   3.485   0.603   2.010
 7628SOL    HW223784   3.467   0.739   2.098
 7629SOL     OW23785   6.711   0.278   3.129
 7629SOL    HW123786   6.779   0.274   3.056
 7629SOL    HW223787   6.648   0.200   3.120
 7630SOL     OW23788   5.530   6.612   1.823
 7630SOL    HW123789   5.481   6.694   1.792
 7630SOL    HW223790   5.608   6.596   1.764
 7631SOL     OW23791   0.877   0.807   5.166
 7631SOL    HW123792   0.914   0.718   5.140
 7631SOL    HW223793   0.865   0.864   5.085
 7632SOL     OW23794   3.451   2.531   1.681
 7632SOL    HW123795   3.375   2.481   1.639
 7632SOL    HW223796   3.503   2.469   1.740
 7633SOL     OW23797   4.213   2.218   0.465
 7633SOL    HW123798   4.143   2.209   0.536
 7633SOL    HW223799   4.217   2.134   0.411
 7634SOL     OW23800   1.409   1.455   2.508
 7634SOL    HW123801   1.489   1.436   2.451
 7634SOL    HW223802   1.439   1.492   2.596
 7635SOL     OW23803   2.775   6.013   5.099
 7635SOL    HW123804   2.786   6.104   5.058
 7635SOL    HW223805   2.741   5.950   5.030
 7636SOL     OW23806   1.542   2.173   3.459
 7636SOL    HW123807   1.532   2.102   3.529
 7636SOL    HW223808   1.540   2.131   3.368
 7637SOL     OW23809   2.898   6.414   2.629
 7637SOL    HW123810   2.962   6.443   2.558
 7637SOL    HW223811   2.904   6.477   2.707
 7638SOL     OW23812   3.968   5.657   1.871
 7638SOL    HW123813   3.927   5.651   1.780
 7638SOL    HW223814   3.896   5.673   1.939
 7639SOL     OW23815   1.423   2.273   0.824
 7639SOL    HW123816   1.475   2.335   0.765
 7639SOL    HW223817   1.458   2.180   0.812
 7640SOL     OW23818   3.538   2.020   0.313
 7640SOL    HW123819   3.628   2.022   0.356
 7640SOL    HW223820   3.543   2.062   0.222
 7641SOL     OW23821   0.856   4.567   1.778
 7641SOL    HW123822   0.846   4.636   1.850
 7641SOL    HW223823   0.774   4.510   1.774
 7642SOL     OW23824   2.838   1.889   2.605
 7642SOL    HW123825   2.774   1.894   2.681
 7642SOL    HW223826   2.809   1.818   2.541
 7643SOL     OW23827   5.049   2.815   4.150
 7643SOL    HW123828   5.064   2.877   4.227
 7643SOL    HW223829   5.112   2.837   4.076
 7644SOL     OW23830   5.816   2.184   2.382
 7644SOL    HW123831   5.833   2.276   2.347
 7644SOL    HW223832   5.759   2.133   2.317
 7645SOL     OW23833   4.497   3.996   5.334
 7645SOL    HW123834   4.439   3.916   5.323
 7645SOL    HW223835   4.441   4.075   5.358
 7646SOL     OW23836   2.154   2.170   2.111
 7646SOL    HW123837   2.143   2.269   2.118
 7646SOL    HW223838   2.249   2.145   2.129
 7647SOL     OW23839   0.186   3.282   2.292
 7647SOL    HW123840   0.205   3.184   2.285
 7647SOL    HW223841   0.220   3.328   2.210
 7648SOL     OW23842   3.597   1.156   3.522
 7648SOL    HW123843   3.649   1.099   3.458
 7648SOL    HW223844   3.599   1.251   3.491
 7649SOL     OW23845   1.114   1.390   2.867
 7649SOL    HW123846   1.144   1.296   2.883
 7649SOL    HW223847   1.166   1.452   2.925
 7650SOL     OW23848   5.226   2.785   1.165
 7650SOL    HW123849   5.147   2.799   1.105
 7650SOL    HW223850   5.273   2.700   1.138
 7651SOL     OW23851   2.695   6.714   5.225
 7651SOL    HW123852   2.782   6.741   5.265
 7651SOL    HW223853   2.623   6.774   5.260
 7652SOL     OW23854   0.028   3.966   3.845
 7652SOL    HW123855   6.969   4.031   3.838
 7652SOL    HW223856   0.028   3.925   3.936
 7653SOL     OW23857   2.372   1.635   0.709
 7653SOL    HW123858   2.347   1.726   0.742
 7653SOL    HW223859   2.471   1.622   0.717
 7654SOL     OW23860   4.935   3.601   4.210
 7654SOL    HW123861   4.961   3.505   4.227
 7654SOL    HW223862   4.898   3.610   4.118
 7655SOL     OW23863   3.399   7.004   3.539
 7655SOL    HW123864   3.485   6.987   3.589
 7655SOL    HW223865   3.347   0.058   3.586
 7656SOL     OW23866   1.962   4.986   6.281
 7656SOL    HW123867   1.942   4.935   6.365
 7656SOL    HW223868   1.987   5.080   6.305
 7657SOL     OW23869   2.925   2.258   3.156
 7657SOL    HW123870   2.890   2.174   3.115
 7657SOL    HW223871   2.886   2.270   3.247
 7658SOL     OW23872   4.138   6.201   6.034
 7658SOL    HW123873   4.169   6.157   6.119
 7658SOL    HW223874   4.161   6.298   6.036
 7659SOL     OW23875   5.409   5.661   6.835
 7659SOL    HW123876   5.378   5.683   6.742
 7659SOL    HW223877   5.443   5.744   6.879
 7660SOL     OW23878   0.422   6.756   4.065
 7660SOL    HW123879   0.493   6.733   3.999
 7660SOL    HW223880   0.426   6.691   4.141
 7661SOL     OW23881   5.571   2.448   4.467
 7661SOL    HW123882   5.485   2.434   4.418
 7661SOL    HW223883   5.638   2.379   4.438
 7662SOL     OW23884   0.737   2.514   2.396
 7662SOL    HW123885   0.834   2.509   2.373
 7662SOL    HW223886   0.693   2.426   2.380
 7663SOL     OW23887   6.983   6.693   6.037
 7663SOL    HW123888   6.889   6.726   6.047
 7663SOL    HW223889   7.015   6.659   6.125
 7664SOL     OW23890   4.029   0.834   2.213
 7664SOL    HW123891   4.080   0.845   2.298
 7664SOL    HW223892   4.063   0.754   2.163
 7665SOL     OW23893   5.066   6.989   4.704
 7665SOL    HW123894   5.025   6.978   4.794
 7665SOL    HW223895   5.001   0.016   4.642
 7666SOL     OW23896   0.918   6.791   1.756
 7666SOL    HW123897   1.014   6.764   1.755
 7666SOL    HW223898   0.880   6.786   1.664
 7667SOL     OW23899   4.699   6.013   1.694
 7667SOL    HW123900   4.620   6.064   1.726
 7667SOL    HW223901   4.746   5.971   1.771
 7668SOL     OW23902   2.735   4.371   0.870
 7668SOL    HW123903   2.763   4.278   0.893
 7668SOL    HW223904   2.799   4.436   0.912
 7669SOL     OW23905   5.622   1.944   6.275
 7669SOL    HW123906   5.680   1.977   6.200
 7669SOL    HW223907   5.644   1.848   6.293
 7670SOL     OW23908   1.433   4.631   6.145
 7670SOL    HW123909   1.364   4.695   6.112
 7670SOL    HW223910   1.443   4.642   6.244
 7671SOL     OW23911   4.571   0.685   4.774
 7671SOL    HW123912   4.643   0.715   4.836
 7671SOL    HW223913   4.486   0.731   4.797
 7672SOL     OW23914   5.926   6.373   3.858
 7672SOL    HW123915   5.963   6.423   3.937
 7672SOL    HW223916   5.879   6.291   3.890
 7673SOL     OW23917   2.126   5.172   6.948
 7673SOL    HW123918   2.127   5.072   6.951
 7673SOL    HW223919   2.170   5.204   6.864
 7674SOL     OW23920   6.259   2.413   3.998
 7674SOL    HW123921   6.183   2.464   4.039
 7674SOL    HW223922   6.223   2.346   3.934
 7675SOL     OW23923   4.783   0.302   2.546
 7675SOL    HW123924   4.771   0.340   2.638
 7675SOL    HW223925   4.851   0.357   2.496
 7676SOL     OW23926   1.652   2.126   0.449
 7676SOL    HW123927   1.690   2.215   0.475
 7676SOL    HW223928   1.561   2.116   0.488
 7677SOL     OW23929   0.004   3.947   2.456
 7677SOL    HW123930   6.980   3.856   2.448
 7677SOL    HW223931   6.963   4.005   2.514
 7678SOL     OW23932   2.415   1.489   5.649
 7678SOL    HW123933   2.479   1.535   5.587
 7678SOL    HW223934   2.323   1.523   5.632
 7679SOL     OW23935   1.921   6.220   5.791
 7679SOL    HW123936   2.014   6.244   5.821
 7679SOL    HW223937   1.854   6.269   5.848
 7680SOL     OW23938   1.486   2.220   0.167
 7680SOL    HW123939   1.394   2.246   0.196
 7680SOL    HW223940   1.502   2.124   0.189
 7681SOL     OW23941   3.233   0.071   0.402
 7681SOL    HW123942   3.278   7.016   0.349
 7681SOL    HW223943   3.263   0.161   0.369
 7682SOL     OW23944   3.385   0.489   1.861
 7682SOL    HW123945   3.437   0.528   1.785
 7682SOL    HW223946   3.318   0.424   1.825
 7683SOL     OW23947   6.603   2.002   4.020
 7683SOL    HW123948   6.669   2.045   4.081
 7683SOL    HW223949   6.515   2.048   4.029
 7684SOL     OW23950   4.284   1.861   1.319
 7684SOL    HW123951   4.243   1.779   1.360
 7684SOL    HW223952   4.354   1.834   1.253
 7685SOL     OW23953   3.013   3.437   0.156
 7685SOL    HW123954   2.994   3.534   0.140
 7685SOL    HW223955   3.105   3.427   0.194
 7686SOL     OW23956   5.184   0.158   3.273
 7686SOL    HW123957   5.196   0.177   3.175
 7686SOL    HW223958   5.088   0.137   3.291
 7687SOL     OW23959   6.050   4.964   5.361
 7687SOL    HW123960   6.045   4.919   5.450
 7687SOL    HW223961   5.978   5.033   5.355
 7688SOL     OW23962   0.585   6.802   5.327
 7688SOL    HW123963   0.569   6.707   5.354
 7688SOL    HW223964   0.523   6.862   5.376
 7689SOL     OW23965   5.002   5.663   3.332
 7689SOL    HW123966   4.944   5.694   3.257
 7689SOL    HW223967   4.979   5.715   3.415
 7690SOL     OW23968   6.147   5.085   0.990
 7690SOL    HW123969   6.160   4.994   1.028
 7690SOL    HW223970   6.129   5.079   0.892
 7691SOL     OW23971   5.257   3.021   4.077
 7691SOL    HW123972   5.318   2.942   4.082
 7691SOL    HW223973   5.218   3.038   4.168
 7692SOL     OW23974   1.074   6.527   1.642
 7692SOL    HW123975   1.132   6.608   1.639
 7692SOL    HW223976   1.089   6.478   1.728
 7693SOL     OW23977   3.417   6.918   1.567
 7693SOL    HW123978   3.422   7.016   1.587
 7693SOL    HW223979   3.454   6.866   1.644
 7694SOL     OW23980   0.185   4.289   4.159
 7694SOL    HW123981   0.281   4.269   4.178
 7694SOL    HW223982   0.127   4.230   4.214
 7695SOL     OW23983   3.483   6.636   0.180
 7695SOL    HW123984   3.455   6.582   0.259
 7695SOL    HW223985   3.576   6.669   0.194
 7696SOL     OW23986   6.511   1.652   4.694
 7696SOL    HW123987   6.553   1.630   4.782
 7696SOL    HW223988   6.430   1.709   4.709
 7697SOL     OW23989   2.461   0.189   1.863
 7697SOL    HW123990   2.523   0.176   1.940
 7697SOL    HW223991   2.455   0.104   1.811
 7698SOL     OW23992   0.103   2.069   4.444
 7698SOL    HW123993   0.010   2.075   4.479
 7698SOL    HW223994   0.116   1.981   4.398
 7699SOL     OW23995   3.973   5.351   7.005
 7699SOL    HW123996   4.058   5.299   7.012
 7699SOL    HW223997   3.994   5.449   7.000
 7700SOL     OW23998   4.727   6.183   4.947
 7700SOL    HW123999   4.708   6.280   4.935
 7700SOL    HW224000   4.796   6.154   4.881
 7701SOL     OW24001   6.926   1.662   6.452
 7701SOL    HW124002   6.936   1.662   6.552
 7701SOL    HW224003   6.926   1.756   6.418
 7702SOL     OW24004   2.625   6.644   6.279
 7702SOL    HW124005   2.553   6.597   6.229
 7702SOL    HW224006   2.685   6.576   6.322
 7703SOL     OW24007   6.506   0.450   5.117
 7703SOL    HW124008   6.466   0.541   5.111
 7703SOL    HW224009   6.474   0.394   5.041
 7704SOL     OW24010   5.295   4.685   5.439
 7704SOL    HW124011   5.368   4.733   5.487
 7704SOL    HW224012   5.236   4.639   5.505
 7705SOL     OW24013   3.912   4.816   6.197
 7705SOL    HW124014   3.856   4.737   6.171
 7705SOL    HW224015   3.874   4.899   6.156
 7706SOL     OW24016   4.395   1.899   5.539
 7706SOL    HW124017   4.419   1.851   5.455
 7706SOL    HW224018   4.415   1.842   5.618
 7707SOL     OW24019   1.330   6.084   6.541
 7707SOL    HW124020   1.242   6.054   6.506
 7707SOL    HW224021   1.376   6.009   6.588
 7708SOL     OW24022   5.532   6.357   5.246
 7708SOL    HW124023   5.599   6.428   5.226
 7708SOL    HW224024   5.570   6.268   5.225
 7709SOL     OW24025   5.634   4.167   1.337
 7709SOL    HW124026   5.546   4.193   1.376
 7709SOL    HW224027   5.643   4.206   1.245
 7710SOL     OW24028   3.812   0.986   0.757
 7710SOL    HW124029   3.796   1.014   0.663
 7710SOL    HW224030   3.747   1.034   0.817
 7711SOL     OW24031   6.264   5.836   5.165
 7711SOL    HW124032   6.327   5.824   5.088
 7711SOL    HW224033   6.187   5.893   5.136
 7712SOL     OW24034   5.544   4.619   2.018
 7712SOL    HW124035   5.454   4.603   1.977
 7712SOL    HW224036   5.586   4.531   2.040
 7713SOL     OW24037   1.376   5.070   0.415
 7713SOL    HW124038   1.379   5.160   0.372
 7713SOL    HW224039   1.412   5.001   0.352
 7714SOL     OW24040   6.566   4.722   5.298
 7714SOL    HW124041   6.644   4.679   5.344
 7714SOL    HW224042   6.535   4.800   5.352
 7715SOL     OW24043   4.825   2.008   0.687
 7715SOL    HW124044   4.733   2.039   0.711
 7715SOL    HW224045   4.880   2.086   0.659
 7716SOL     OW24046   6.344   4.039   3.611
 7716SOL    HW124047   6.347   3.940   3.630
 7716SOL    HW224048   6.298   4.085   3.687
 7717SOL     OW24049   1.820   0.949   4.916
 7717SOL    HW124050   1.895   1.000   4.875
 7717SOL    HW224051   1.751   0.929   4.846
 7718SOL     OW24052   2.067   1.942   3.266
 7718SOL    HW124053   2.006   2.014   3.230
 7718SOL    HW224054   2.157   1.952   3.225
 7719SOL     OW24055   0.515   3.834   4.314
 7719SOL    HW124056   0.576   3.759   4.342
 7719SOL    HW224057   0.421   3.812   4.340
 7720SOL     OW24058   0.138   6.869   0.790
 7720SOL    HW124059   0.142   6.883   0.691
 7720SOL    HW224060   0.204   6.798   0.816
 7721SOL     OW24061   1.188   4.765   2.307
 7721SOL    HW124062   1.145   4.784   2.395
 7721SOL    HW224063   1.232   4.848   2.273
 7722SOL     OW24064   0.146   5.608   2.983
 7722SOL    HW124065   0.158   5.706   2.967
 7722SOL    HW224066   0.215   5.576   3.047
 7723SOL     OW24067   6.665   3.810   6.955
 7723SOL    HW124068   6.642   3.827   6.859
 7723SOL    HW224069   6.745   3.751   6.960
 7724SOL     OW24070   2.301   4.342   1.902
 7724SOL    HW124071   2.259   4.426   1.937
 7724SOL    HW224072   2.390   4.364   1.860
 7725SOL     OW24073   4.919   3.296   3.740
 7725SOL    HW124074   4.994   3.243   3.779
 7725SOL    HW224075   4.834   3.275   3.788
 7726SOL     OW24076   1.119   6.343   4.712
 7726SOL    HW124077   1.137   6.321   4.616
 7726SOL    HW224078   1.061   6.272   4.752
 7727SOL     OW24079   0.174   0.802   2.948
 7727SOL    HW124080   0.183   0.855   2.863
 7727SOL    HW224081   0.187   0.705   2.927
 7728SOL     OW24082   1.080   5.084   3.452
 7728SOL    HW124083   1.180   5.086   3.457
 7728SOL    HW224084   1.045   5.016   3.516
 7729SOL     OW24085   5.838   3.210   0.606
 7729SOL    HW124086   5.842   3.287   0.543
 7729SOL    HW224087   5.745   3.174   0.609
 7730SOL     OW24088   5.572   5.668   1.974
 7730SOL    HW124089   5.514   5.734   1.927
 7730SOL    HW224090   5.668   5.695   1.966
 7731SOL     OW24091   6.818   1.034   0.644
 7731SOL    HW124092   6.905   0.997   0.610
 7731SOL    HW224093   6.752   1.038   0.569
 7732SOL     OW24094   4.410   6.254   0.611
 7732SOL    HW124095   4.370   6.192   0.544
 7732SOL    HW224096   4.450   6.201   0.685
 7733SOL     OW24097   4.091   6.709   2.343
 7733SOL    HW124098   4.099   6.732   2.440
 7733SOL    HW224099   4.019   6.763   2.301
 7734SOL     OW24100   2.197   4.875   3.310
 7734SOL    HW124101   2.287   4.842   3.336
 7734SOL    HW224102   2.176   4.959   3.361
 7735SOL     OW24103   4.654   6.247   6.180
 7735SOL    HW124104   4.637   6.256   6.278
 7735SOL    HW224105   4.585   6.299   6.129
 7736SOL     OW24106   4.266   3.813   6.819
 7736SOL    HW124107   4.195   3.871   6.860
 7736SOL    HW224108   4.355   3.856   6.835
 7737SOL     OW24109   4.345   0.872   2.072
 7737SOL    HW124110   4.396   0.787   2.088
 7737SOL    HW224111   4.337   0.889   1.974
 7738SOL     OW24112   1.561   5.568   6.436
 7738SOL    HW124113   1.467   5.534   6.437
 7738SOL    HW224114   1.578   5.616   6.350
 7739SOL     OW24115   0.462   1.460   1.964
 7739SOL    HW124116   0.547   1.438   1.916
 7739SOL    HW224117   0.426   1.377   2.008
 7740SOL     OW24118   1.790   0.677   3.056
 7740SOL    HW124119   1.728   0.600   3.067
 7740SOL    HW224120   1.762   0.752   3.115
 7741SOL     OW24121   1.071   5.923   4.732
 7741SOL    HW124122   0.984   5.955   4.693
 7741SOL    HW224123   1.098   5.839   4.686
 7742SOL     OW24124   6.098   2.053   3.183
 7742SOL    HW124125   6.159   2.101   3.246
 7742SOL    HW224126   6.089   1.958   3.212
 7743SOL     OW24127   4.781   2.225   6.341
 7743SOL    HW124128   4.794   2.138   6.294
 7743SOL    HW224129   4.718   2.212   6.417
 7744SOL     OW24130   0.875   6.344   3.666
 7744SOL    HW124131   0.865   6.261   3.720
 7744SOL    HW224132   0.898   6.421   3.727
 7745SOL     OW24133   3.120   1.133   5.428
 7745SOL    HW124134   3.082   1.148   5.519
 7745SOL    HW224135   3.053   1.162   5.359
 7746SOL     OW24136   2.094   6.761   6.956
 7746SOL    HW124137   2.175   6.785   7.011
 7746SOL    HW224138   2.117   6.768   6.859
 7747SOL     OW24139   4.260   5.570   1.464
 7747SOL    HW124140   4.235   5.474   1.453
 7747SOL    HW224141   4.178   5.627   1.452
 7748SOL     OW24142   3.517   3.382   5.666
 7748SOL    HW124143   3.560   3.397   5.755
 7748SOL    HW224144   3.535   3.460   5.606
 7749SOL     OW24145   2.811   3.058   5.465
 7749SOL    HW124146   2.907   3.044   5.445
 7749SOL    HW224147   2.764   3.095   5.385
 7750SOL     OW24148   6.734   5.918   1.633
 7750SOL    HW124149   6.749   5.978   1.712
 7750SOL    HW224150   6.639   5.928   1.601
 7751SOL     OW24151   1.902   1.422   2.297
 7751SOL    HW124152   1.926   1.471   2.381
 7751SOL    HW224153   1.816   1.458   2.260
 7752SOL     OW24154   5.255   0.065   5.600
 7752SOL    HW124155   5.272   0.155   5.639
 7752SOL    HW224156   5.336   0.034   5.550
 7753SOL     OW24157   2.388   1.443   4.710
 7753SOL    HW124158   2.348   1.419   4.622
 7753SOL    HW224159   2.363   1.374   4.778
 7754SOL     OW24160   3.765   5.935   1.437
 7754SOL    HW124161   3.822   5.910   1.359
 7754SOL    HW224162   3.714   6.019   1.417
 7755SOL     OW24163   1.332   2.183   6.154
 7755SOL    HW124164   1.384   2.252   6.103
 7755SOL    HW224165   1.395   2.113   6.188
 7756SOL     OW24166   3.180   6.108   1.437
 7756SOL    HW124167   3.269   6.130   1.397
 7756SOL    HW224168   3.119   6.074   1.365
 7757SOL     OW24169   6.913   4.970   1.203
 7757SOL    HW124170   6.996   4.916   1.211
 7757SOL    HW224171   6.861   4.964   1.289
 7758SOL     OW24172   1.573   6.722   5.746
 7758SOL    HW124173   1.631   6.643   5.766
 7758SOL    HW224174   1.531   6.755   5.831
 7759SOL     OW24175   2.749   1.087   5.574
 7759SOL    HW124176   2.834   1.139   5.588
 7759SOL    HW224177   2.685   1.108   5.649
 7760SOL     OW24178   5.439   2.116   2.379
 7760SOL    HW124179   5.421   2.208   2.344
 7760SOL    HW224180   5.352   2.067   2.389
 7761SOL     OW24181   6.784   5.728   5.011
 7761SOL    HW124182   6.726   5.808   5.000
 7761SOL    HW224183   6.879   5.752   4.989
 7762SOL     OW24184   2.009   0.107   3.715
 7762SOL    HW124185   2.021   0.206   3.702
 7762SOL    HW224186   1.959   0.069   3.637
 7763SOL     OW24187   2.434   0.213   6.192
 7763SOL    HW124188   2.413   0.300   6.237
 7763SOL    HW224189   2.494   0.230   6.114
 7764SOL     OW24190   3.380   3.964   6.232
 7764SOL    HW124191   3.288   3.940   6.263
 7764SOL    HW224192   3.422   3.885   6.187
 7765SOL     OW24193   6.318   3.138   4.637
 7765SOL    HW124194   6.278   3.185   4.715
 7765SOL    HW224195   6.397   3.190   4.603
 7766SOL     OW24196   6.986   4.213   0.357
 7766SOL    HW124197   0.048   4.230   0.298
 7766SOL    HW224198   6.905   4.196   0.300
 7767SOL     OW24199   4.843   6.615   2.270
 7767SOL    HW124200   4.844   6.714   2.279
 7767SOL    HW224201   4.758   6.586   2.226
 7768SOL     OW24202   4.765   4.637   3.913
 7768SOL    HW124203   4.817   4.644   3.998
 7768SOL    HW224204   4.746   4.728   3.878
 7769SOL     OW24205   3.876   1.612   4.728
 7769SOL    HW124206   3.822   1.679   4.779
 7769SOL    HW224207   3.913   1.654   4.645
 7770SOL     OW24208   0.113   3.411   4.395
 7770SOL    HW124209   0.082   3.323   4.358
 7770SOL    HW224210   0.163   3.395   4.480
 7771SOL     OW24211   2.981   1.641   5.972
 7771SOL    HW124212   2.971   1.545   5.999
 7771SOL    HW224213   3.060   1.651   5.911
 7772SOL     OW24214   5.016   0.246   1.249
 7772SOL    HW124215   5.000   0.161   1.299
 7772SOL    HW224216   5.083   0.230   1.176
 7773SOL     OW24217   2.533   5.740   5.758
 7773SOL    HW124218   2.519   5.735   5.856
 7773SOL    HW224219   2.458   5.695   5.710
 7774SOL     OW24220   4.942   2.488   4.635
 7774SOL    HW124221   4.878   2.473   4.560
 7774SOL    HW224222   4.903   2.555   4.699
 7775SOL     OW24223   3.900   6.856   0.064
 7775SOL    HW124224   3.999   6.861   0.071
 7775SOL    HW224225   3.870   6.901   6.997
 7776SOL     OW24226   0.757   6.480   6.363
 7776SOL    HW124227   0.852   6.468   6.390
 7776SOL    HW224228   0.750   6.555   6.298
 7777SOL     OW24229   6.731   5.479   4.880
 7777SOL    HW124230   6.652   5.459   4.938
 7777SOL    HW224231   6.791   5.543   4.928
 7778SOL     OW24232   5.723   4.099   2.143
 7778SOL    HW124233   5.717   4.052   2.231
 7778SOL    HW224234   5.669   4.050   2.075
 7779SOL     OW24235   2.747   0.531   2.627
 7779SOL    HW124236   2.771   0.529   2.724
 7779SOL    HW224237   2.686   0.608   2.609
 7780SOL     OW24238   0.700   6.031   5.788
 7780SOL    HW124239   0.603   6.055   5.782
 7780SOL    HW224240   0.747   6.100   5.843
 7781SOL     OW24241   1.262   4.299   0.428
 7781SOL    HW124242   1.344   4.255   0.391
 7781SOL    HW224243   1.269   4.302   0.528
 7782SOL     OW24244   5.688   5.305   3.891
 7782SOL    HW124245   5.593   5.335   3.888
 7782SOL    HW224246   5.696   5.216   3.845
 7783SOL     OW24247   0.469   0.079   5.846
 7783SOL    HW124248   0.547   0.017   5.847
 7783SOL    HW224249   0.502   0.174   5.853
 7784SOL     OW24250   2.855   2.597   1.478
 7784SOL    HW124251   2.843   2.508   1.436
 7784SOL    HW224252   2.917   2.589   1.557
 7785SOL     OW24253   1.237   6.635   3.967
 7785SOL    HW124254   1.213   6.635   3.870
 7785SOL    HW224255   1.223   6.543   4.004
 7786SOL     OW24256   4.368   0.785   6.895
 7786SOL    HW124257   4.272   0.801   6.914
 7786SOL    HW224258   4.413   0.871   6.873
 7787SOL     OW24259   1.836   3.042   0.464
 7787SOL    HW124260   1.754   3.024   0.519
 7787SOL    HW224261   1.875   3.130   0.490
 7788SOL     OW24262   1.347   6.203   2.067
 7788SOL    HW124263   1.305   6.203   1.975
 7788SOL    HW224264   1.370   6.110   2.093
 7789SOL     OW24265   3.237   0.236   6.589
 7789SOL    HW124266   3.309   0.291   6.632
 7789SOL    HW224267   3.195   0.288   6.515
 7790SOL     OW24268   6.403   4.968   2.579
 7790SOL    HW124269   6.474   4.979   2.509
 7790SOL    HW224270   6.313   4.982   2.537
 7791SOL     OW24271   3.025   5.846   2.288
 7791SOL    HW124272   2.966   5.848   2.369
 7791SOL    HW224273   2.984   5.787   2.218
 7792SOL     OW24274   0.929   0.196   2.791
 7792SOL    HW124275   0.865   0.261   2.832
 7792SOL    HW224276   0.922   0.108   2.839
 7793SOL     OW24277   4.708   0.607   6.742
 7793SOL    HW124278   4.627   0.588   6.798
 7793SOL    HW224279   4.696   0.694   6.694
 7794SOL     OW24280   0.312   5.288   1.901
 7794SOL    HW124281   0.275   5.255   1.987
 7794SOL    HW224282   0.244   5.344   1.854
 7795SOL     OW24283   3.280   5.601   5.746
 7795SOL    HW124284   3.290   5.622   5.843
 7795SOL    HW224285   3.363   5.555   5.713
 7796SOL     OW24286   2.779   2.902   5.723
 7796SOL    HW124287   2.767   2.805   5.701
 7796SOL    HW224288   2.779   2.955   5.639
 7797SOL     OW24289   0.696   5.524   1.570
 7797SOL    HW124290   0.710   5.499   1.666
 7797SOL    HW224291   0.601   5.508   1.545
 7798SOL     OW24292   1.772   1.152   2.646
 7798SOL    HW124293   1.771   1.105   2.734
 7798SOL    HW224294   1.678   1.162   2.613
 7799SOL     OW24295   2.368   5.685   2.855
 7799SOL    HW124296   2.393   5.612   2.918
 7799SOL    HW224297   2.281   5.662   2.811
 7800SOL     OW24298   0.161   5.866   2.877
 7800SOL    HW124299   0.245   5.869   2.823
 7800SOL    HW224300   0.144   5.956   2.916
 7801SOL     OW24301   1.553   1.183   3.078
 7801SOL    HW124302   1.496   1.211   3.000
 7801SOL    HW224303   1.551   1.255   3.148
 7802SOL     OW24304   6.940   4.089   6.966
 7802SOL    HW124305   6.924   4.028   6.888
 7802SOL    HW224306   6.986   4.172   6.935
 7803SOL     OW24307   4.707   1.931   6.927
 7803SOL    HW124308   4.723   1.984   7.010
 7803SOL    HW224309   4.782   1.866   6.914
 7804SOL     OW24310   4.011   1.761   4.523
 7804SOL    HW124311   3.982   1.856   4.524
 7804SOL    HW224312   4.006   1.725   4.430
 7805SOL     OW24313   4.860   3.647   2.648
 7805SOL    HW124314   4.908   3.655   2.560
 7805SOL    HW224315   4.823   3.736   2.673
 7806SOL     OW24316   6.210   2.319   6.425
 7806SOL    HW124317   6.207   2.227   6.386
 7806SOL    HW224318   6.294   2.330   6.477
 7807SOL     OW24319   1.056   4.076   5.211
 7807SOL    HW124320   0.959   4.094   5.200
 7807SOL    HW224321   1.107   4.118   5.136
 7808SOL     OW24322   4.989   4.337   2.804
 7808SOL    HW124323   5.022   4.242   2.805
 7808SOL    HW224324   4.997   4.375   2.896
 7809SOL     OW24325   5.273   4.784   4.932
 7809SOL    HW124326   5.333   4.723   4.881
 7809SOL    HW224327   5.198   4.731   4.971
 7810SOL     OW24328   3.734   6.716   4.714
 7810SOL    HW124329   3.638   6.745   4.723
 7810SOL    HW224330   3.757   6.655   4.790
 7811SOL     OW24331   2.025   5.855   2.733
 7811SOL    HW124332   1.943   5.884   2.782
 7811SOL    HW224333   2.002   5.782   2.669
 7812SOL     OW24334   2.221   3.205   5.192
 7812SOL    HW124335   2.248   3.289   5.239
 7812SOL    HW224336   2.294   3.137   5.199
 7813SOL     OW24337   4.598   2.642   1.264
 7813SOL    HW124338   4.517   2.583   1.270
 7813SOL    HW224339   4.590   2.702   1.184
 7814SOL     OW24340   6.739   3.700   2.390
 7814SOL    HW124341   6.829   3.657   2.396
 7814SOL    HW224342   6.678   3.657   2.456
 7815SOL     OW24343   5.559   2.134   5.284
 7815SOL    HW124344   5.649   2.109   5.249
 7815SOL    HW224345   5.550   2.234   5.284
 7816SOL     OW24346   0.597   2.442   5.792
 7816SOL    HW124347   0.626   2.347   5.803
 7816SOL    HW224348   0.632   2.497   5.868
 7817SOL     OW24349   4.645   3.742   5.576
 7817SOL    HW124350   4.614   3.833   5.602
 7817SOL    HW224351   4.728   3.749   5.520
 7818SOL     OW24352   4.957   1.116   2.484
 7818SOL    HW124353   4.916   1.027   2.506
 7818SOL    HW224354   5.055   1.114   2.503
 7819SOL     OW24355   6.950   3.220   3.811
 7819SOL    HW124356   6.871   3.270   3.775
 7819SOL    HW224357   6.997   3.277   3.878
 7820SOL     OW24358   2.217   1.444   5.422
 7820SOL    HW124359   2.219   1.485   5.331
 7820SOL    HW224360   2.271   1.360   5.422
 7821SOL     OW24361   5.543   5.997   0.441
 7821SOL    HW124362   5.610   6.068   0.463
 7821SOL    HW224363   5.590   5.918   0.402
 7822SOL     OW24364   1.010   1.520   6.087
 7822SOL    HW124365   1.068   1.540   6.166
 7822SOL    HW224366   0.936   1.459   6.114
 7823SOL     OW24367   1.333   4.033   6.153
 7823SOL    HW124368   1.302   3.974   6.078
 7823SOL    HW224369   1.295   4.000   6.239
 7824SOL     OW24370   6.373   0.310   4.532
 7824SOL    HW124371   6.426   0.373   4.589
 7824SOL    HW224372   6.403   0.216   4.549
 7825SOL     OW24373   2.051   2.631   1.498
 7825SOL    HW124374   2.049   2.731   1.504
 7825SOL    HW224375   2.141   2.601   1.467
 7826SOL     OW24376   5.070   2.257   6.488
 7826SOL    HW124377   4.980   2.242   6.445
 7826SOL    HW224378   5.114   2.168   6.502
 7827SOL     OW24379   3.311   5.077   1.203
 7827SOL    HW124380   3.376   5.144   1.165
 7827SOL    HW224381   3.246   5.125   1.263
 7828SOL     OW24382   0.524   5.384   0.394
 7828SOL    HW124383   0.531   5.304   0.335
 7828SOL    HW224384   0.477   5.360   0.479
 7829SOL     OW24385   2.067   3.331   1.327
 7829SOL    HW124386   2.144   3.269   1.321
 7829SOL    HW224387   2.023   3.322   1.417
 7830SOL     OW24388   5.651   3.850   5.872
 7830SOL    HW124389   5.551   3.862   5.871
 7830SOL    HW224390   5.687   3.879   5.961
 7831SOL     OW24391   1.228   5.089   6.966
 7831SOL    HW124392   1.312   5.143   6.962
 7831SOL    HW224393   1.251   4.992   6.964
 7832SOL     OW24394   3.597   0.632   4.880
 7832SOL    HW124395   3.692   0.649   4.857
 7832SOL    HW224396   3.543   0.715   4.864
 7833SOL     OW24397   1.004   0.833   0.546
 7833SOL    HW124398   1.030   0.827   0.450
 7833SOL    HW224399   1.050   0.912   0.588
 7834SOL     OW24400   0.099   1.778   2.349
 7834SOL    HW124401   0.124   1.726   2.267
 7834SOL    HW224402   0.163   1.853   2.362
 7835SOL     OW24403   2.137   2.518   4.829
 7835SOL    HW124404   2.203   2.592   4.823
 7835SOL    HW224405   2.071   2.537   4.901
 7836SOL     OW24406   3.433   0.873   6.335
 7836SOL    HW124407   3.338   0.865   6.367
 7836SOL    HW224408   3.446   0.816   6.254
 7837SOL     OW24409   6.297   6.261   1.628
 7837SOL    HW124410   6.208   6.284   1.589
 7837SOL    HW224411   6.286   6.184   1.691
 7838SOL     OW24412   4.553   6.276   6.473
 7838SOL    HW124413   4.610   6.357   6.456
 7838SOL    HW224414   4.512   6.284   6.564
 7839SOL     OW24415   6.804   4.132   4.740
 7839SOL    HW124416   6.841   4.175   4.658
 7839SOL    HW224417   6.774   4.039   4.718
 7840SOL     OW24418   5.151   3.896   3.899
 7840SOL    HW124419   5.128   3.962   3.829
 7840SOL    HW224420   5.112   3.807   3.876
 7841SOL     OW24421   5.502   1.748   6.605
 7841SOL    HW124422   5.459   1.723   6.519
 7841SOL    HW224423   5.587   1.696   6.617
 7842SOL     OW24424   1.349   1.277   3.416
 7842SOL    HW124425   1.309   1.206   3.475
 7842SOL    HW224426   1.334   1.366   3.458
 7843SOL     OW24427   5.708   4.566   1.648
 7843SOL    HW124428   5.790   4.535   1.696
 7843SOL    HW224429   5.647   4.488   1.633
 7844SOL     OW24430   4.347   0.623   3.852
 7844SOL    HW124431   4.379   0.634   3.946
 7844SOL    HW224432   4.400   0.552   3.806
 7845SOL     OW24433   0.712   1.014   3.998
 7845SOL    HW124434   0.696   0.923   4.035
 7845SOL    HW224435   0.767   1.008   3.915
 7846SOL     OW24436   2.241   0.216   1.633
 7846SOL    HW124437   2.193   0.237   1.548
 7846SOL    HW224438   2.314   0.283   1.648
 7847SOL     OW24439   0.338   1.729   1.296
 7847SOL    HW124440   0.366   1.795   1.365
 7847SOL    HW224441   0.385   1.749   1.210
 7848SOL     OW24442   2.829   4.372   1.247
 7848SOL    HW124443   2.891   4.390   1.171
 7848SOL    HW224444   2.735   4.372   1.214
 7849SOL     OW24445   5.707   4.053   4.397
 7849SOL    HW124446   5.737   4.130   4.341
 7849SOL    HW224447   5.642   3.997   4.345
 7850SOL     OW24448   0.515   0.797   3.802
 7850SOL    HW124449   0.559   0.713   3.770
 7850SOL    HW224450   0.547   0.875   3.749
 7851SOL     OW24451   6.706   6.611   0.739
 7851SOL    HW124452   6.752   6.554   0.671
 7851SOL    HW224453   6.772   6.637   0.810
 7852SOL     OW24454   2.927   6.516   6.261
 7852SOL    HW124455   2.919   6.596   6.322
 7852SOL    HW224456   2.943   6.434   6.317
 7853SOL     OW24457   4.155   1.461   1.165
 7853SOL    HW124458   4.149   1.380   1.105
 7853SOL    HW224459   4.083   1.526   1.140
 7854SOL     OW24460   3.551   4.491   0.802
 7854SOL    HW124461   3.568   4.478   0.900
 7854SOL    HW224462   3.543   4.589   0.783
 7855SOL     OW24463   4.542   5.357   5.972
 7855SOL    HW124464   4.473   5.385   6.039
 7855SOL    HW224465   4.497   5.332   5.887
 7856SOL     OW24466   6.117   4.727   4.048
 7856SOL    HW124467   6.196   4.779   4.014
 7856SOL    HW224468   6.128   4.631   4.023
 7857SOL     OW24469   6.929   2.699   5.772
 7857SOL    HW124470   6.836   2.698   5.734
 7857SOL    HW224471   6.930   2.756   5.854
 7858SOL     OW24472   5.223   5.128   3.818
 7858SOL    HW124473   5.302   5.088   3.772
 7858SOL    HW224474   5.139   5.084   3.786
 7859SOL     OW24475   6.808   4.208   5.956
 7859SOL    HW124476   6.835   4.199   5.860
 7859SOL    HW224477   6.739   4.138   5.977
 7860SOL     OW24478   3.707   6.119   2.484
 7860SOL    HW124479   3.628   6.064   2.507
 7860SOL    HW224480   3.762   6.071   2.415
 7861SOL     OW24481   4.372   5.770   1.844
 7861SOL    HW124482   4.452   5.726   1.803
 7861SOL    HW224483   4.335   5.713   1.917
 7862SOL     OW24484   2.799   4.376   1.606
 7862SOL    HW124485   2.793   4.441   1.682
 7862SOL    HW224486   2.868   4.408   1.540
 7863SOL     OW24487   0.189   5.659   3.533
 7863SOL    HW124488   0.259   5.681   3.601
 7863SOL    HW224489   0.111   5.721   3.543
 7864SOL     OW24490   6.865   5.846   5.859
 7864SOL    HW124491   6.856   5.757   5.905
 7864SOL    HW224492   6.948   5.892   5.892
 7865SOL     OW24493   4.453   6.696   4.242
 7865SOL    HW124494   4.372   6.726   4.293
 7865SOL    HW224495   4.504   6.629   4.296
 7866SOL     OW24496   2.533   2.034   1.352
 7866SOL    HW124497   2.614   1.982   1.325
 7866SOL    HW224498   2.558   2.129   1.368
 7867SOL     OW24499   5.761   5.109   2.931
 7867SOL    HW124500   5.777   5.071   2.840
 7867SOL    HW224501   5.779   5.208   2.930
 7868SOL     OW24502   5.455   6.984   2.786
 7868SOL    HW124503   5.472   6.893   2.748
 7868SOL    HW224504   5.536   0.024   2.773
 7869SOL     OW24505   6.172   3.799   0.833
 7869SOL    HW124506   6.231   3.751   0.898
 7869SOL    HW224507   6.222   3.817   0.749
 7870SOL     OW24508   5.349   6.065   3.764
 7870SOL    HW124509   5.400   6.150   3.748
 7870SOL    HW224510   5.414   5.992   3.788
 7871SOL     OW24511   6.053   4.330   3.200
 7871SOL    HW124512   6.124   4.303   3.265
 7871SOL    HW224513   5.978   4.264   3.204
 7872SOL     OW24514   1.108   4.288   1.789
 7872SOL    HW124515   1.053   4.275   1.706
 7872SOL    HW224516   1.141   4.382   1.791
 7873SOL     OW24517   5.935   0.279   5.474
 7873SOL    HW124518   6.025   0.303   5.509
 7873SOL    HW224519   5.936   0.279   5.374
 7874SOL     OW24520   6.208   1.336   6.737
 7874SOL    HW124521   6.139   1.381   6.794
 7874SOL    HW224522   6.230   1.247   6.776
 7875SOL     OW24523   4.153   3.497   6.388
 7875SOL    HW124524   4.216   3.572   6.367
 7875SOL    HW224525   4.071   3.533   6.432
 7876SOL     OW24526   0.013   6.416   4.710
 7876SOL    HW124527   7.010   6.508   4.743
 7876SOL    HW224528   0.088   6.377   4.762
 7877SOL     OW24529   0.506   2.957   2.498
 7877SOL    HW124530   0.596   2.929   2.463
 7877SOL    HW224531   0.506   2.949   2.598
 7878SOL     OW24532   4.696   5.128   3.476
 7878SOL    HW124533   4.711   5.035   3.510
 7878SOL    HW224534   4.735   5.137   3.384
 7879SOL     OW24535   4.404   5.983   3.267
 7879SOL    HW124536   4.409   5.891   3.305
 7879SOL    HW224537   4.330   5.987   3.199
 7880SOL     OW24538   0.121   5.940   1.601
 7880SOL    HW124539   0.163   6.024   1.569
 7880SOL    HW224540   0.027   5.935   1.566
 7881SOL     OW24541   6.941   3.507   4.680
 7881SOL    HW124542   6.852   3.467   4.703
 7881SOL    HW224543   6.933   3.561   4.596
 7882SOL     OW24544   1.809   2.216   3.364
 7882SOL    HW124545   1.863   2.253   3.440
 7882SOL    HW224546   1.713   2.245   3.374
 7883SOL     OW24547   1.602   0.406   1.356
 7883SOL    HW124548   1.545   0.348   1.298
 7883SOL    HW224549   1.544   0.456   1.420
 7884SOL     OW24550   1.285   3.985   3.610
 7884SOL    HW124551   1.255   3.922   3.682
 7884SOL    HW224552   1.264   3.946   3.520
 7885SOL     OW24553   5.726   5.801   2.884
 7885SOL    HW124554   5.790   5.760   2.819
 7885SOL    HW224555   5.648   5.839   2.834
 7886SOL     OW24556   5.156   3.975   1.085
 7886SOL    HW124557   5.097   3.947   1.009
 7886SOL    HW224558   5.160   3.901   1.153
 7887SOL     OW24559   3.339   2.800   5.190
 7887SOL    HW124560   3.309   2.869   5.256
 7887SOL    HW224561   3.297   2.712   5.211
 7888SOL     OW24562   0.665   0.596   4.872
 7888SOL    HW124563   0.593   0.570   4.935
 7888SOL    HW224564   0.751   0.554   4.900
 7889SOL     OW24565   0.591   5.383   6.444
 7889SOL    HW124566   0.653   5.316   6.486
 7889SOL    HW224567   0.620   5.475   6.470
 7890SOL     OW24568   1.316   3.112   3.846
 7890SOL    HW124569   1.309   3.107   3.946
 7890SOL    HW224570   1.234   3.155   3.809
 7891SOL     OW24571   1.001   3.322   4.329
 7891SOL    HW124572   0.911   3.281   4.309
 7891SOL    HW224573   1.032   3.374   4.249
 7892SOL     OW24574   1.422   2.099   4.250
 7892SOL    HW124575   1.396   2.183   4.202
 7892SOL    HW224576   1.398   2.020   4.193
 7893SOL     OW24577   5.785   6.109   2.359
 7893SOL    HW124578   5.745   6.058   2.435
 7893SOL    HW224579   5.866   6.159   2.391
 7894SOL     OW24580   3.103   1.029   0.768
 7894SOL    HW124581   3.033   1.095   0.797
 7894SOL    HW224582   3.178   1.029   0.834
 7895SOL     OW24583   3.807   6.244   4.596
 7895SOL    HW124584   3.772   6.338   4.590
 7895SOL    HW224585   3.906   6.244   4.581
 7896SOL     OW24586   5.400   2.730   1.859
 7896SOL    HW124587   5.332   2.658   1.874
 7896SOL    HW224588   5.366   2.793   1.789
 7897SOL     OW24589   3.275   3.328   6.670
 7897SOL    HW124590   3.303   3.423   6.661
 7897SOL    HW224591   3.280   3.299   6.766
 7898SOL     OW24592   4.535   0.434   3.775
 7898SOL    HW124593   4.634   0.430   3.784
 7898SOL    HW224594   4.502   0.356   3.722
 7899SOL     OW24595   5.170   6.828   2.468
 7899SOL    HW124596   5.213   6.918   2.473
 7899SOL    HW224597   5.071   6.838   2.465
 7900SOL     OW24598   0.654   3.908   0.375
 7900SOL    HW124599   0.750   3.897   0.350
 7900SOL    HW224600   0.598   3.908   0.292
 7901SOL     OW24601   5.204   1.033   5.865
 7901SOL    HW124602   5.108   1.055   5.843
 7901SOL    HW224603   5.225   0.941   5.833
 7902SOL     OW24604   6.504   6.303   3.491
 7902SOL    HW124605   6.593   6.307   3.536
 7902SOL    HW224606   6.459   6.392   3.499
 7903SOL     OW24607   4.252   2.061   3.307
 7903SOL    HW124608   4.244   2.083   3.404
 7903SOL    HW224609   4.199   2.127   3.253
 7904SOL     OW24610   6.037   0.230   3.698
 7904SOL    HW124611   6.071   0.219   3.605
 7904SOL    HW224612   5.958   0.291   3.697
 7905SOL     OW24613   5.664   1.434   0.507
 7905SOL    HW124614   5.613   1.520   0.514
 7905SOL    HW224615   5.736   1.431   0.575
 7906SOL     OW24616   0.933   5.704   0.643
 7906SOL    HW124617   1.014   5.721   0.698
 7906SOL    HW224618   0.955   5.640   0.569
 7907SOL     OW24619   5.912   0.947   3.025
 7907SOL    HW124620   5.920   0.851   2.998
 7907SOL    HW224621   5.939   1.006   2.948
 7908SOL     OW24622   1.085   1.820   6.663
 7908SOL    HW124623   1.170   1.836   6.613
 7908SOL    HW224624   1.009   1.812   6.598
 7909SOL     OW24625   5.020   4.029   3.491
 7909SOL    HW124626   5.101   4.022   3.548
 7909SOL    HW224627   4.939   4.003   3.543
 7910SOL     OW24628   1.573   3.567   1.324
 7910SOL    HW124629   1.670   3.547   1.336
 7910SOL    HW224630   1.519   3.487   1.349
 7911SOL     OW24631   0.697   3.997   1.105
 7911SOL    HW124632   0.659   4.090   1.105
 7911SOL    HW224633   0.795   4.002   1.121
 7912SOL     OW24634   5.100   4.155   0.614
 7912SOL    HW124635   5.123   4.064   0.578
 7912SOL    HW224636   5.076   4.147   0.711
 7913SOL     OW24637   1.590   4.716   0.903
 7913SOL    HW124638   1.547   4.628   0.920
 7913SOL    HW224639   1.540   4.788   0.952
 7914SOL     OW24640   0.208   4.278   0.210
 7914SOL    HW124641   0.281   4.344   0.227
 7914SOL    HW224642   0.186   4.277   0.113
 7915SOL     OW24643   4.640   1.651   2.847
 7915SOL    HW124644   4.606   1.745   2.852
 7915SOL    HW224645   4.570   1.592   2.807
 7916SOL     OW24646   0.713   0.118   5.057
 7916SOL    HW124647   0.765   0.132   5.141
 7916SOL    HW224648   0.699   0.020   5.042
 7917SOL     OW24649   4.054   2.583   5.506
 7917SOL    HW124650   4.083   2.677   5.523
 7917SOL    HW224651   3.997   2.581   5.423
 7918SOL     OW24652   0.216   0.901   5.085
 7918SOL    HW124653   0.311   0.891   5.056
 7918SOL    HW224654   0.204   0.859   5.175
 7919SOL     OW24655   1.298   4.993   1.946
 7919SOL    HW124656   1.333   4.950   1.864
 7919SOL    HW224657   1.217   4.944   1.979
 7920SOL     OW24658   5.084   0.917   1.882
 7920SOL    HW124659   5.127   0.999   1.919
 7920SOL    HW224660   5.054   0.858   1.958
 7921SOL     OW24661   5.917   0.792   1.536
 7921SOL    HW124662   5.927   0.739   1.620
 7921SOL    HW224663   5.949   0.737   1.458
 7922SOL     OW24664   0.400   6.263   0.049
 7922SOL    HW124665   0.407   6.354   0.008
 7922SOL    HW224666   0.436   6.266   0.142
 7923SOL     OW24667   3.355   1.724   6.438
 7923SOL    HW124668   3.272   1.693   6.484
 7923SOL    HW224669   3.416   1.768   6.505
 7924SOL     OW24670   4.864   0.167   1.696
 7924SOL    HW124671   4.793   0.179   1.765
 7924SOL    HW224672   4.912   0.253   1.682
 7925SOL     OW24673   1.343   6.656   0.795
 7925SOL    HW124674   1.404   6.717   0.744
 7925SOL    HW224675   1.262   6.637   0.739
 7926SOL     OW24676   4.868   1.407   6.637
 7926SOL    HW124677   4.956   1.455   6.642
 7926SOL    HW224678   4.879   1.315   6.675
 7927SOL     OW24679   4.969   6.917   1.558
 7927SOL    HW124680   4.929   6.857   1.628
 7927SOL    HW224681   4.942   7.012   1.577
 7928SOL     OW24682   0.265   1.656   3.799
 7928SOL    HW124683   0.308   1.709   3.726
 7928SOL    HW224684   0.190   1.602   3.761
 7929SOL     OW24685   4.316   3.669   6.120
 7929SOL    HW124686   4.302   3.575   6.090
 7929SOL    HW224687   4.322   3.672   6.220
 7930SOL     OW24688   4.005   5.379   6.589
 7930SOL    HW124689   3.972   5.467   6.621
 7930SOL    HW224690   4.001   5.375   6.489
 7931SOL     OW24691   4.219   2.688   0.576
 7931SOL    HW124692   4.230   2.595   0.611
 7931SOL    HW224693   4.161   2.687   0.495
 7932SOL     OW24694   0.891   4.945   0.895
 7932SOL    HW124695   0.973   4.998   0.914
 7932SOL    HW224696   0.813   4.985   0.943
 7933SOL     OW24697   6.744   0.329   5.920
 7933SOL    HW124698   6.787   0.384   5.992
 7933SOL    HW224699   6.664   0.377   5.885
 7934SOL     OW24700   1.455   4.951   0.172
 7934SOL    HW124701   1.531   4.886   0.175
 7934SOL    HW224702   1.482   5.031   0.118
 7935SOL     OW24703   5.053   5.433   2.493
 7935SOL    HW124704   5.126   5.435   2.561
 7935SOL    HW224705   5.024   5.339   2.478
 7936SOL     OW24706   2.760   5.473   3.470
 7936SOL    HW124707   2.837   5.452   3.530
 7936SOL    HW224708   2.789   5.534   3.397
 7937SOL     OW24709   1.959   5.820   4.130
 7937SOL    HW124710   1.859   5.815   4.131
 7937SOL    HW224711   1.995   5.753   4.065
 7938SOL     OW24712   5.648   6.042   5.163
 7938SOL    HW124713   5.711   5.964   5.159
 7938SOL    HW224714   5.686   6.119   5.111
 7939SOL     OW24715   0.917   1.685   5.880
 7939SOL    HW124716   0.954   1.610   5.935
 7939SOL    HW224717   0.954   1.680   5.788
 7940SOL     OW24718   3.511   1.830   2.665
 7940SOL    HW124719   3.470   1.850   2.576
 7940SOL    HW224720   3.491   1.735   2.690
 7941SOL     OW24721   4.990   6.795   3.137
 7941SOL    HW124722   5.089   6.801   3.137
 7941SOL    HW224723   4.958   6.771   3.229
 7942SOL     OW24724   1.018   3.135   3.109
 7942SOL    HW124725   1.097   3.170   3.058
 7942SOL    HW224726   0.945   3.204   3.109
 7943SOL     OW24727   0.860   4.349   5.632
 7943SOL    HW124728   0.936   4.283   5.635
 7943SOL    HW224729   0.782   4.312   5.683
 7944SOL     OW24730   0.249   2.808   1.774
 7944SOL    HW124731   0.268   2.762   1.861
 7944SOL    HW224732   0.315   2.778   1.705
 7945SOL     OW24733   6.154   5.503   2.685
 7945SOL    HW124734   6.168   5.595   2.647
 7945SOL    HW224735   6.231   5.479   2.743
 7946SOL     OW24736   3.621   6.728   6.068
 7946SOL    HW124737   3.626   6.632   6.039
 7946SOL    HW224738   3.593   6.733   6.163
 7947SOL     OW24739   2.107   2.090   5.090
 7947SOL    HW124740   2.118   2.189   5.080
 7947SOL    HW224741   2.190   2.051   5.129
 7948SOL     OW24742   0.897   5.382   0.887
 7948SOL    HW124743   0.977   5.380   0.826
 7948SOL    HW224744   0.831   5.313   0.858
 7949SOL     OW24745   4.380   4.053   6.168
 7949SOL    HW124746   4.282   4.052   6.187
 7949SOL    HW224747   4.400   3.990   6.092
 7950SOL     OW24748   4.665   5.951   4.704
 7950SOL    HW124749   4.569   5.949   4.730
 7950SOL    HW224750   4.721   5.917   4.779
 7951SOL     OW24751   2.039   5.088   2.120
 7951SOL    HW124752   2.038   5.014   2.187
 7951SOL    HW224753   2.103   5.066   2.047
 7952SOL     OW24754   0.015   3.517   0.002
 7952SOL    HW124755   0.062   3.591   6.971
 7952SOL    HW224756   6.955   3.554   0.053
 7953SOL     OW24757   4.370   2.083   1.748
 7953SOL    HW124758   4.352   2.074   1.650
 7953SOL    HW224759   4.451   2.139   1.762
 7954SOL     OW24760   3.750   3.956   6.329
 7954SOL    HW124761   3.751   4.010   6.245
 7954SOL    HW224762   3.655   3.935   6.354
 7955SOL     OW24763   2.338   1.225   6.774
 7955SOL    HW124764   2.323   1.151   6.709
 7955SOL    HW224765   2.252   1.248   6.819
 7956SOL     OW24766   5.777   1.483   1.933
 7956SOL    HW124767   5.691   1.458   1.977
 7956SOL    HW224768   5.850   1.485   2.001
 7957SOL     OW24769   2.166   1.156   0.049
 7957SOL    HW124770   2.114   1.218   7.007
 7957SOL    HW224771   2.193   1.075   7.012
 7958SOL     OW24772   5.391   3.911   5.939
 7958SOL    HW124773   5.327   3.988   5.944
 7958SOL    HW224774   5.343   3.829   5.908
 7959SOL     OW24775   5.014   0.126   6.693
 7959SOL    HW124776   4.945   0.189   6.729
 7959SOL    HW224777   5.004   0.037   6.736
 7960SOL     OW24778   1.047   1.238   5.979
 7960SOL    HW124779   1.015   1.227   5.885
 7960SOL    HW224780   0.984   1.296   6.030
 7961SOL     OW24781   6.372   0.051   0.644
 7961SOL    HW124782   6.282   0.060   0.603
 7961SOL    HW224783   6.429   7.009   0.587
 7962SOL     OW24784   0.316   1.918   6.166
 7962SOL    HW124785   0.235   1.976   6.161
 7962SOL    HW224786   0.383   1.947   6.097
 7963SOL     OW24787   6.410   5.753   4.160
 7963SOL    HW124788   6.453   5.733   4.248
 7963SOL    HW224789   6.480   5.754   4.088
 7964SOL     OW24790   5.985   2.888   1.893
 7964SOL    HW124791   5.908   2.828   1.871
 7964SOL    HW224792   5.952   2.979   1.915
 7965SOL     OW24793   3.856   2.212   6.070
 7965SOL    HW124794   3.954   2.198   6.052
 7965SOL    HW224795   3.818   2.130   6.112
 7966SOL     OW24796   3.429   2.867   5.616
 7966SOL    HW124797   3.465   2.938   5.555
 7966SOL    HW224798   3.504   2.807   5.644
 7967SOL     OW24799   1.968   5.515   1.779
 7967SOL    HW124800   1.870   5.533   1.791
 7967SOL    HW224801   2.012   5.509   1.869
 7968SOL     OW24802   6.090   2.128   5.166
 7968SOL    HW124803   6.129   2.093   5.250
 7968SOL    HW224804   6.154   2.193   5.123
 7969SOL     OW24805   5.214   6.024   0.621
 7969SOL    HW124806   5.302   6.037   0.667
 7969SOL    HW224807   5.177   5.934   0.644
 7970SOL     OW24808   5.797   3.498   2.714
 7970SOL    HW124809   5.824   3.439   2.638
 7970SOL    HW224810   5.750   3.579   2.678
 7971SOL     OW24811   2.899   0.808   1.649
 7971SOL    HW124812   2.814   0.787   1.698
 7971SOL    HW224813   2.944   0.886   1.692
 7972SOL     OW24814   3.415   3.483   2.129
 7972SOL    HW124815   3.442   3.566   2.080
 7972SOL    HW224816   3.316   3.479   2.136
 7973SOL     OW24817   5.470   3.956   4.658
 7973SOL    HW124818   5.495   4.032   4.598
 7973SOL    HW224819   5.501   3.870   4.618
 7974SOL     OW24820   6.074   0.861   6.049
 7974SOL    HW124821   6.037   0.774   6.080
 7974SOL    HW224822   6.030   0.936   6.098
 7975SOL     OW24823   5.151   0.431   0.781
 7975SOL    HW124824   5.116   0.438   0.688
 7975SOL    HW224825   5.128   0.341   0.819
 7976SOL     OW24826   1.018   0.247   6.209
 7976SOL    HW124827   1.009   0.335   6.257
 7976SOL    HW224828   1.101   0.201   6.240
 7977SOL     OW24829   4.319   5.980   2.663
 7977SOL    HW124830   4.348   6.070   2.697
 7977SOL    HW224831   4.384   5.949   2.593
 7978SOL     OW24832   0.243   2.504   6.713
 7978SOL    HW124833   0.304   2.502   6.792
 7978SOL    HW224834   0.207   2.597   6.701
 7979SOL     OW24835   1.966   4.344   5.816
 7979SOL    HW124836   1.916   4.260   5.838
 7979SOL    HW224837   2.043   4.322   5.756
 7980SOL     OW24838   2.786   5.498   6.891
 7980SOL    HW124839   2.754   5.404   6.907
 7980SOL    HW224840   2.711   5.562   6.908
 7981SOL     OW24841   0.438   5.227   1.654
 7981SOL    HW124842   0.446   5.130   1.631
 7981SOL    HW224843   0.379   5.238   1.733
 7982SOL     OW24844   1.429   1.850   6.174
 7982SOL    HW124845   1.476   1.783   6.116
 7982SOL    HW224846   1.491   1.925   6.195
 7983SOL     OW24847   6.315   2.110   1.140
 7983SOL    HW124848   6.339   2.204   1.117
 7983SOL    HW224849   6.215   2.102   1.145
 7984SOL     OW24850   0.450   1.171   0.566
 7984SOL    HW124851   0.398   1.113   0.629
 7984SOL    HW224852   0.544   1.139   0.561
 7985SOL     OW24853   2.400   1.908   4.808
 7985SOL    HW124854   2.428   1.946   4.720
 7985SOL    HW224855   2.462   1.835   4.834
 7986SOL     OW24856   3.266   0.794   5.905
 7986SOL    HW124857   3.366   0.801   5.913
 7986SOL    HW224858   3.243   0.747   5.820
 7987SOL     OW24859   1.872   3.243   0.785
 7987SOL    HW124860   1.912   3.276   0.871
 7987SOL    HW224861   1.897   3.304   0.710
 7988SOL     OW24862   1.495   0.817   2.415
 7988SOL    HW124863   1.540   0.842   2.500
 7988SOL    HW224864   1.545   0.856   2.338
 7989SOL     OW24865   2.586   3.384   0.148
 7989SOL    HW124866   2.559   3.306   0.092
 7989SOL    HW224867   2.541   3.467   0.114
 7990SOL     OW24868   2.648   5.155   4.407
 7990SOL    HW124869   2.591   5.140   4.326
 7990SOL    HW224870   2.591   5.168   4.487
 7991SOL     OW24871   6.047   1.754   3.992
 7991SOL    HW124872   5.959   1.759   3.945
 7991SOL    HW224873   6.046   1.813   4.073
 7992SOL     OW24874   1.290   0.465   0.216
 7992SOL    HW124875   1.276   0.472   0.315
 7992SOL    HW224876   1.202   0.475   0.170
 7993SOL     OW24877   0.043   0.076   1.364
 7993SOL    HW124878   0.124   0.017   1.356
 7993SOL    HW224879   7.001   0.042   1.437
 7994SOL     OW24880   4.688   0.627   3.073
 7994SOL    HW124881   4.636   0.638   2.988
 7994SOL    HW224882   4.643   0.678   3.146
 7995SOL     OW24883   5.919   5.175   3.345
 7995SOL    HW124884   5.885   5.153   3.437
 7995SOL    HW224885   5.947   5.271   3.342
 7996SOL     OW24886   3.572   6.237   4.742
 7996SOL    HW124887   3.661   6.249   4.699
 7996SOL    HW224888   3.507   6.201   4.675
 7997SOL     OW24889   6.924   1.856   0.342
 7997SOL    HW124890   6.946   1.895   0.431
 7997SOL    HW224891   7.002   1.804   0.308
 7998SOL     OW24892   3.321   6.868   6.718
 7998SOL    HW124893   3.330   6.768   6.717
 7998SOL    HW224894   3.240   6.894   6.771
 7999SOL     OW24895   0.817   0.947   5.729
 7999SOL    HW124896   0.768   0.897   5.800
 7999SOL    HW224897   0.798   0.906   5.640
 8000SOL     OW24898   5.664   6.628   5.996
 8000SOL    HW124899   5.710   6.710   6.031
 8000SOL    HW224900   5.671   6.626   5.897
 8001SOL     OW24901   4.262   5.875   1.301
 8001SOL    HW124902   4.350   5.849   1.262
 8001SOL    HW224903   4.262   5.855   1.399
 8002SOL     OW24904   0.995   0.622   5.480
 8002SOL    HW124905   0.981   0.609   5.579
 8002SOL    HW224906   0.906   0.615   5.434
 8003SOL     OW24907   2.142   5.570   1.324
 8003SOL    HW124908   2.238   5.563   1.352
 8003SOL    HW224909   2.083   5.539   1.399
 8004SOL     OW24910   2.086   3.436   3.383
 8004SOL    HW124911   1.989   3.436   3.360
 8004SOL    HW224912   2.130   3.357   3.341
 8005SOL     OW24913   2.267   0.397   3.442
 8005SOL    HW124914   2.230   0.304   3.431
 8005SOL    HW224915   2.277   0.417   3.540
 8006SOL     OW24916   2.288   6.027   5.277
 8006SOL    HW124917   2.336   6.108   5.312
 8006SOL    HW224918   2.353   5.969   5.228
 8007SOL     OW24919   5.924   2.012   6.421
 8007SOL    HW124920   5.913   1.989   6.518
 8007SOL    HW224921   5.837   1.999   6.373
 8008SOL     OW24922   3.306   5.667   6.691
 8008SOL    HW124923   3.243   5.689   6.616
 8008SOL    HW224924   3.297   5.736   6.763
 8009SOL     OW24925   4.692   1.008   0.391
 8009SOL    HW124926   4.764   1.032   0.457
 8009SOL    HW224927   4.635   1.088   0.374
 8010SOL     OW24928   2.619   2.087   5.146
 8010SOL    HW124929   2.528   2.119   5.120
 8010SOL    HW224930   2.612   2.027   5.226
 8011SOL     OW24931   3.414   2.215   1.465
 8011SOL    HW124932   3.454   2.174   1.547
 8011SOL    HW224933   3.335   2.270   1.490
 8012SOL     OW24934   1.297   2.858   6.874
 8012SOL    HW124935   1.373   2.906   6.831
 8012SOL    HW224936   1.297   2.762   6.847
 8013SOL     OW24937   1.729   3.997   3.347
 8013SOL    HW124938   1.650   3.993   3.409
 8013SOL    HW224939   1.787   3.917   3.362
 8014SOL     OW24940   2.280   0.269   4.562
 8014SOL    HW124941   2.201   0.209   4.577
 8014SOL    HW224942   2.364   0.216   4.570
 8015SOL     OW24943   1.914   0.630   6.185
 8015SOL    HW124944   1.853   0.709   6.191
 8015SOL    HW224945   1.953   0.626   6.092
 8016SOL     OW24946   3.950   1.319   5.062
 8016SOL    HW124947   3.980   1.226   5.041
 8016SOL    HW224948   3.850   1.325   5.058
 8017SOL     OW24949   6.347   6.907   6.832
 8017SOL    HW124950   6.327   6.879   6.738
 8017SOL    HW224951   6.446   6.910   6.845
 8018SOL     OW24952   3.194   2.737   0.321
 8018SOL    HW124953   3.279   2.770   0.280
 8018SOL    HW224954   3.132   2.705   0.250
 8019SOL     OW24955   1.928   4.543   1.498
 8019SOL    HW124956   1.909   4.447   1.518
 8019SOL    HW224957   2.026   4.555   1.484
 8020SOL     OW24958   6.503   0.122   6.468
 8020SOL    HW124959   6.427   0.187   6.477
 8020SOL    HW224960   6.543   0.106   6.559
 8021SOL     OW24961   1.859   2.968   1.749
 8021SOL    HW124962   1.802   3.048   1.769
 8021SOL    HW224963   1.801   2.893   1.719
 8022SOL     OW24964   6.503   0.512   2.017
 8022SOL    HW124965   6.424   0.459   1.986
 8022SOL    HW224966   6.488   0.609   1.994
 8023SOL     OW24967   5.800   4.366   2.616
 8023SOL    HW124968   5.777   4.286   2.672
 8023SOL    HW224969   5.895   4.394   2.636
 8024SOL     OW24970   1.273   5.082   6.206
 8024SOL    HW124971   1.285   5.168   6.157
 8024SOL    HW224972   1.312   5.091   6.298
 8025SOL     OW24973   1.444   5.403   0.975
 8025SOL    HW124974   1.498   5.404   1.060
 8025SOL    HW224975   1.449   5.312   0.934
 8026SOL     OW24976   6.812   4.624   0.928
 8026SOL    HW124977   6.738   4.581   0.877
 8026SOL    HW224978   6.775   4.670   1.009
 8027SOL     OW24979   3.317   6.475   6.040
 8027SOL    HW124980   3.365   6.415   6.104
 8027SOL    HW224981   3.327   6.570   6.070
 8028SOL     OW24982   3.370   4.974   5.225
 8028SOL    HW124983   3.413   4.973   5.134
 8028SOL    HW224984   3.291   4.913   5.224
 8029SOL     OW24985   4.984   2.347   2.057
 8029SOL    HW124986   4.940   2.268   2.015
 8029SOL    HW224987   5.025   2.320   2.144
 8030SOL     OW24988   5.929   5.500   1.166
 8030SOL    HW124989   5.932   5.558   1.247
 8030SOL    HW224990   5.853   5.436   1.173
 8031SOL     OW24991   0.021   6.345   2.982
 8031SOL    HW124992   6.955   6.307   3.024
 8031SOL    HW224993   0.075   6.392   3.051
 8032SOL     OW24994   5.268   3.686   1.660
 8032SOL    HW124995   5.250   3.782   1.635
 8032SOL    HW224996   5.366   3.670   1.664
 8033SOL     OW24997   4.640   3.035   6.924
 8033SOL    HW124998   4.608   3.077   7.009
 8033SOL    HW224999   4.740   3.028   6.927
 8034SOL     OW25000   4.809   6.607   5.680
 8034SOL    HW125001   4.729   6.559   5.643
 8034SOL    HW225002   4.801   6.705   5.661
 8035SOL     OW25003   5.177   1.975   2.263
 8035SOL    HW125004   5.265   1.935   2.237
 8035SOL    HW225005   5.113   1.967   2.187
 8036SOL     OW25006   6.965   3.573   3.638
 8036SOL    HW125007   0.021   3.603   3.576
 8036SOL    HW225008   6.968   3.628   3.722
 8037SOL     OW25009   1.434   3.633   6.964
 8037SOL    HW125010   1.367   3.623   0.020
 8037SOL    HW225011   1.475   3.724   6.968
 8038SOL     OW25012   4.270   6.797   3.022
 8038SOL    HW125013   4.344   6.860   2.999
 8038SOL    HW225014   4.272   6.719   2.960
 8039SOL     OW25015   6.865   1.726   4.568
 8039SOL    HW125016   6.926   1.699   4.494
 8039SOL    HW225017   6.770   1.716   4.538
 8040SOL     OW25018   1.565   6.638   6.798
 8040SOL    HW125019   1.554   6.734   6.822
 8040SOL    HW225020   1.620   6.631   6.715
 8041SOL     OW25021   3.175   1.033   2.791
 8041SOL    HW125022   3.122   1.061   2.711
 8041SOL    HW225023   3.225   0.949   2.770
 8042SOL     OW25024   4.632   4.027   5.586
 8042SOL    HW125025   4.581   4.033   5.500
 8042SOL    HW225026   4.718   4.078   5.577
 8043SOL     OW25027   3.453   5.102   0.402
 8043SOL    HW125028   3.386   5.115   0.475
 8043SOL    HW225029   3.458   5.005   0.379
 8044SOL     OW25030   3.693   3.650   0.552
 8044SOL    HW125031   3.626   3.577   0.567
 8044SOL    HW225032   3.765   3.644   0.621
 8045SOL     OW25033   6.358   2.157   2.534
 8045SOL    HW125034   6.324   2.077   2.583
 8045SOL    HW225035   6.452   2.140   2.503
 8046SOL     OW25036   0.702   4.539   2.037
 8046SOL    HW125037   0.664   4.513   1.948
 8046SOL    HW225038   0.740   4.458   2.082
 8047SOL     OW25039   3.393   6.600   6.725
 8047SOL    HW125040   3.345   6.531   6.780
 8047SOL    HW225041   3.443   6.556   6.651
 8048SOL     OW25042   2.968   2.442   0.198
 8048SOL    HW125043   3.018   2.525   0.176
 8048SOL    HW225044   2.894   2.463   0.262
 8049SOL     OW25045   0.442   6.819   0.384
 8049SOL    HW125046   0.421   6.721   0.375
 8049SOL    HW225047   0.415   6.866   0.300
 8050SOL     OW25048   1.923   3.355   3.952
 8050SOL    HW125049   1.844   3.356   3.891
 8050SOL    HW225050   2.003   3.322   3.902
 8051SOL     OW25051   4.997   6.399   4.798
 8051SOL    HW125052   4.958   6.307   4.797
 8051SOL    HW225053   5.052   6.411   4.881
 8052SOL     OW25054   2.731   2.212   1.145
 8052SOL    HW125055   2.724   2.113   1.158
 8052SOL    HW225056   2.768   2.254   1.228
 8053SOL     OW25057   3.269   3.082   5.283
 8053SOL    HW125058   3.260   3.156   5.351
 8053SOL    HW225059   3.280   3.121   5.192
 8054SOL     OW25060   6.812   4.207   4.404
 8054SOL    HW125061   6.874   4.280   4.434
 8054SOL    HW225062   6.864   4.123   4.392
 8055SOL     OW25063   6.674   0.495   5.563
 8055SOL    HW125064   6.651   0.592   5.551
 8055SOL    HW225065   6.620   0.456   5.637
 8056SOL     OW25066   3.181   0.303   4.858
 8056SOL    HW125067   3.270   0.340   4.830
 8056SOL    HW225068   3.172   0.310   4.957
 8057SOL     OW25069   2.424   2.554   2.754
 8057SOL    HW125070   2.511   2.515   2.786
 8057SOL    HW225071   2.426   2.563   2.655
 8058SOL     OW25072   3.003   6.570   2.360
 8058SOL    HW125073   3.075   6.595   2.296
 8058SOL    HW225074   2.914   6.597   2.322
 8059SOL     OW25075   2.811   0.990   5.314
 8059SOL    HW125076   2.786   1.061   5.380
 8059SOL    HW225077   2.739   0.983   5.245
 8060SOL     OW25078   0.432   2.322   6.444
 8060SOL    HW125079   0.416   2.345   6.348
 8060SOL    HW225080   0.502   2.383   6.482
 8061SOL     OW25081   0.742   0.172   2.264
 8061SOL    HW125082   0.728   0.271   2.272
 8061SOL    HW225083   0.785   0.138   2.348
 8062SOL     OW25084   4.064   5.215   4.305
 8062SOL    HW125085   4.071   5.257   4.396
 8062SOL    HW225086   4.127   5.261   4.242
 8063SOL     OW25087   2.488   1.006   3.123
 8063SOL    HW125088   2.554   0.932   3.109
 8063SOL    HW225089   2.534   1.094   3.113
 8064SOL     OW25090   6.107   2.395   0.227
 8064SOL    HW125091   6.059   2.399   0.315
 8064SOL    HW225092   6.090   2.307   0.183
 8065SOL     OW25093   2.874   6.456   4.412
 8065SOL    HW125094   2.840   6.396   4.484
 8065SOL    HW225095   2.974   6.445   4.405
 8066SOL     OW25096   6.361   6.866   5.041
 8066SOL    HW125097   6.338   6.944   5.100
 8066SOL    HW225098   6.324   6.782   5.081
 8067SOL     OW25099   5.098   2.205   3.027
 8067SOL    HW125100   5.055   2.293   3.005
 8067SOL    HW225101   5.078   2.139   2.954
 8068SOL     OW25102   0.392   4.976   1.120
 8068SOL    HW125103   0.439   5.004   1.203
 8068SOL    HW225104   0.447   4.908   1.071
 8069SOL     OW25105   2.233   4.625   1.884
 8069SOL    HW125106   2.323   4.666   1.870
 8069SOL    HW225107   2.165   4.673   1.829
 8070SOL     OW25108   3.899   2.927   0.222
 8070SOL    HW125109   3.891   2.892   0.129
 8070SOL    HW225110   3.988   2.901   0.260
 8071SOL     OW25111   2.974   6.650   5.490
 8071SOL    HW125112   2.938   6.565   5.531
 8071SOL    HW225113   3.008   6.631   5.398
 8072SOL     OW25114   3.478   1.743   1.178
 8072SOL    HW125115   3.415   1.794   1.120
 8072SOL    HW225116   3.490   1.791   1.265
 8073SOL     OW25117   3.083   5.507   5.554
 8073SOL    HW125118   3.123   5.549   5.636
 8073SOL    HW225119   3.076   5.575   5.482
 8074SOL     OW25120   2.685   1.580   0.753
 8074SOL    HW125121   2.726   1.526   0.680
 8074SOL    HW225122   2.680   1.676   0.725
 8075SOL     OW25123   6.903   0.198   0.194
 8075SOL    HW125124   6.879   0.132   0.265
 8075SOL    HW225125   6.930   0.284   0.236
 8076SOL     OW25126   6.142   6.780   5.548
 8076SOL    HW125127   6.207   6.772   5.624
 8076SOL    HW225128   6.130   6.691   5.505
 8077SOL     OW25129   3.110   5.995   2.737
 8077SOL    HW125130   3.053   6.023   2.660
 8077SOL    HW225131   3.055   5.941   2.801
 8078SOL     OW25132   0.496   2.080   1.832
 8078SOL    HW125133   0.416   2.141   1.825
 8078SOL    HW225134   0.474   1.992   1.789
 8079SOL     OW25135   6.890   1.476   3.605
 8079SOL    HW125136   6.863   1.536   3.681
 8079SOL    HW225137   6.815   1.415   3.583
 8080SOL     OW25138   1.329   1.994   2.402
 8080SOL    HW125139   1.232   2.020   2.407
 8080SOL    HW225140   1.352   1.940   2.483
 8081SOL     OW25141   6.056   5.345   6.007
 8081SOL    HW125142   6.016   5.267   6.055
 8081SOL    HW225143   5.984   5.410   5.983
 8082SOL     OW25144   3.210   0.754   2.395
 8082SOL    HW125145   3.165   0.716   2.314
 8082SOL    HW225146   3.254   0.681   2.447
 8083SOL     OW25147   5.078   2.534   3.867
 8083SOL    HW125148   5.078   2.634   3.877
 8083SOL    HW225149   5.012   2.495   3.931
 8084SOL     OW25150   2.706   0.494   0.210
 8084SOL    HW125151   2.719   0.588   0.179
 8084SOL    HW225152   2.632   0.451   0.157
 8085SOL     OW25153   5.618   5.907   2.478
 8085SOL    HW125154   5.554   5.840   2.515
 8085SOL    HW225155   5.659   5.871   2.394
 8086SOL     OW25156   6.983   0.539   1.430
 8086SOL    HW125157   6.982   0.499   1.522
 8086SOL    HW225158   6.909   0.606   1.422
 8087SOL     OW25159   1.452   0.424   6.851
 8087SOL    HW125160   1.496   0.342   6.886
 8087SOL    HW225161   1.362   0.434   6.893
 8088SOL     OW25162   5.483   0.583   0.475
 8088SOL    HW125163   5.469   0.512   0.544
 8088SOL    HW225164   5.533   0.659   0.515
 8089SOL     OW25165   5.445   2.971   6.703
 8089SOL    HW125166   5.523   3.029   6.680
 8089SOL    HW225167   5.474   2.875   6.705
 8090SOL     OW25168   3.895   1.156   6.035
 8090SOL    HW125169   3.907   1.201   6.124
 8090SOL    HW225170   3.881   1.058   6.049
 8091SOL     OW25171   1.672   3.869   4.725
 8091SOL    HW125172   1.731   3.943   4.756
 8091SOL    HW225173   1.669   3.868   4.625
 8092SOL     OW25174   4.787   2.105   5.123
 8092SOL    HW125175   4.853   2.098   5.197
 8092SOL    HW225176   4.831   2.080   5.036
 8093SOL     OW25177   2.599   5.324   3.299
 8093SOL    HW125178   2.649   5.376   3.368
 8093SOL    HW225179   2.556   5.244   3.343
 8094SOL     OW25180   0.318   2.920   4.863
 8094SOL    HW125181   0.330   2.933   4.765
 8094SOL    HW225182   0.243   2.978   4.895
 8095SOL     OW25183   1.066   3.894   4.605
 8095SOL    HW125184   1.109   3.878   4.694
 8095SOL    HW225185   1.068   3.992   4.584
 8096SOL     OW25186   2.529   0.334   2.198
 8096SOL    HW125187   2.438   0.329   2.156
 8096SOL    HW225188   2.518   0.338   2.298
 8097SOL     OW25189   4.918   6.941   4.921
 8097SOL    HW125190   4.831   6.919   4.966
 8097SOL    HW225191   4.993   6.897   4.970
 8098SOL     OW25192   2.310   6.440   3.853
 8098SOL    HW125193   2.363   6.523   3.835
 8098SOL    HW225194   2.355   6.388   3.926
 8099SOL     OW25195   4.969   6.349   4.143
 8099SOL    HW125196   4.927   6.273   4.093
 8099SOL    HW225197   5.065   6.330   4.160
 8100SOL     OW25198   6.561   1.414   6.623
 8100SOL    HW125199   6.594   1.401   6.530
 8100SOL    HW225200   6.461   1.416   6.623
 8101SOL     OW25201   1.747   6.029   1.217
 8101SOL    HW125202   1.833   6.043   1.267
 8101SOL    HW225203   1.734   5.932   1.197
 8102SOL     OW25204   0.577   3.650   2.747
 8102SOL    HW125205   0.654   3.689   2.696
 8102SOL    HW225206   0.611   3.576   2.806
 8103SOL     OW25207   3.329   6.806   1.321
 8103SOL    HW125208   3.230   6.800   1.324
 8103SOL    HW225209   3.364   6.832   1.411
 8104SOL     OW25210   1.565   0.649   6.390
 8104SOL    HW125211   1.535   0.564   6.346
 8104SOL    HW225212   1.659   0.639   6.422
 8105SOL     OW25213   6.845   2.879   2.554
 8105SOL    HW125214   6.824   2.787   2.587
 8105SOL    HW225215   6.761   2.922   2.520
 8106SOL     OW25216   3.135   5.493   3.476
 8106SOL    HW125217   3.121   5.564   3.407
 8106SOL    HW225218   3.200   5.425   3.440
 8107SOL     OW25219   1.206   5.558   3.868
 8107SOL    HW125220   1.273   5.542   3.795
 8107SOL    HW225221   1.249   5.539   3.957
 8108SOL     OW25222   6.794   2.748   6.833
 8108SOL    HW125223   6.814   2.820   6.899
 8108SOL    HW225224   6.770   2.664   6.882
 8109SOL     OW25225   6.924   3.487   6.581
 8109SOL    HW125226   6.828   3.459   6.588
 8109SOL    HW225227   6.984   3.409   6.597
 8110SOL     OW25228   4.141   5.759   2.367
 8110SOL    HW125229   4.229   5.713   2.373
 8110SOL    HW225230   4.150   5.854   2.395
 8111SOL     OW25231   4.795   1.398   4.612
 8111SOL    HW125232   4.788   1.350   4.525
 8111SOL    HW225233   4.758   1.341   4.685
 8112SOL     OW25234   2.346   2.833   4.322
 8112SOL    HW125235   2.304   2.923   4.315
 8112SOL    HW225236   2.356   2.809   4.418
 8113SOL     OW25237   0.224   4.032   0.842
 8113SOL    HW125238   0.255   4.003   0.751
 8113SOL    HW225239   0.260   4.124   0.861
 8114SOL     OW25240   2.010   3.648   2.619
 8114SOL    HW125241   1.912   3.638   2.636
 8114SOL    HW225242   2.054   3.685   2.702
 8115SOL     OW25243   3.513   6.948   6.526
 8115SOL    HW125244   3.456   6.919   6.603
 8115SOL    HW225245   3.495   0.027   6.505
 8116SOL     OW25246   4.099   5.169   0.340
 8116SOL    HW125247   4.191   5.142   0.369
 8116SOL    HW225248   4.036   5.163   0.418
 8117SOL     OW25249   1.744   0.260   3.246
 8117SOL    HW125250   1.710   0.170   3.219
 8117SOL    HW225251   1.841   0.267   3.226
 8118SOL     OW25252   5.133   3.898   5.773
 8118SOL    HW125253   5.131   3.811   5.822
 8118SOL    HW225254   5.048   3.947   5.788
 8119SOL     OW25255   5.681   6.468   6.208
 8119SOL    HW125256   5.643   6.509   6.291
 8119SOL    HW225257   5.650   6.520   6.128
 8120SOL     OW25258   3.359   4.452   1.017
 8120SOL    HW125259   3.342   4.490   1.108
 8120SOL    HW225260   3.450   4.410   1.015
 8121SOL     OW25261   0.555   4.993   1.362
 8121SOL    HW125262   0.594   5.081   1.333
 8121SOL    HW225263   0.553   4.989   1.462
 8122SOL     OW25264   0.487   4.678   2.713
 8122SOL    HW125265   0.393   4.703   2.689
 8122SOL    HW225266   0.497   4.679   2.813
 8123SOL     OW25267   6.667   1.988   6.721
 8123SOL    HW125268   6.616   2.002   6.805
 8123SOL    HW225269   6.762   2.015   6.734
 8124SOL     OW25270   4.668   5.783   1.920
 8124SOL    HW125271   4.727   5.751   1.995
 8124SOL    HW225272   4.588   5.829   1.958
 8125SOL     OW25273   1.539   2.042   3.219
 8125SOL    HW125274   1.513   1.967   3.158
 8125SOL    HW225275   1.571   2.120   3.165
 8126SOL     OW25276   5.236   5.032   3.232
 8126SOL    HW125277   5.284   5.119   3.243
 8126SOL    HW225278   5.285   4.974   3.167
 8127SOL     OW25279   2.468   3.552   6.238
 8127SOL    HW125280   2.561   3.591   6.236
 8127SOL    HW225281   2.443   3.533   6.332
 8128SOL     OW25282   2.755   2.285   2.347
 8128SOL    HW125283   2.788   2.315   2.257
 8128SOL    HW225284   2.689   2.351   2.383
 8129SOL     OW25285   3.674   1.280   5.887
 8129SOL    HW125286   3.593   1.246   5.934
 8129SOL    HW225287   3.754   1.226   5.914
 8130SOL     OW25288   0.668   4.643   6.620
 8130SOL    HW125289   0.689   4.672   6.527
 8130SOL    HW225290   0.674   4.543   6.626
 8131SOL     OW25291   2.590   1.721   1.457
 8131SOL    HW125292   2.553   1.807   1.494
 8131SOL    HW225293   2.670   1.741   1.400
 8132SOL     OW25294   5.420   6.763   5.307
 8132SOL    HW125295   5.397   6.715   5.223
 8132SOL    HW225296   5.413   6.699   5.384
 8133SOL     OW25297   3.151   5.171   2.356
 8133SOL    HW125298   3.175   5.245   2.295
 8133SOL    HW225299   3.099   5.102   2.305
 8134SOL     OW25300   0.426   2.219   6.849
 8134SOL    HW125301   0.348   2.165   6.820
 8134SOL    HW225302   0.395   2.307   6.886
 8135SOL     OW25303   2.570   0.117   1.512
 8135SOL    HW125304   2.535   0.103   1.605
 8135SOL    HW225305   2.501   0.165   1.458
 8136SOL     OW25306   4.367   5.526   2.815
 8136SOL    HW125307   4.394   5.452   2.877
 8136SOL    HW225308   4.326   5.601   2.867
 8137SOL     OW25309   2.879   1.684   5.000
 8137SOL    HW125310   2.837   1.770   4.971
 8137SOL    HW225311   2.891   1.624   4.921
 8138SOL     OW25312   5.117   1.100   1.463
 8138SOL    HW125313   5.099   1.060   1.373
 8138SOL    HW225314   5.082   1.194   1.465
 8139SOL     OW25315   0.243   0.461   1.660
 8139SOL    HW125316   0.281   0.552   1.643
 8139SOL    HW225317   0.224   0.450   1.757
 8140SOL     OW25318   6.067   0.350   5.953
 8140SOL    HW125319   6.005   0.412   6.002
 8140SOL    HW225320   6.159   0.360   5.991
 8141SOL     OW25321   4.267   5.207   5.266
 8141SOL    HW125322   4.257   5.291   5.320
 8141SOL    HW225323   4.258   5.228   5.169
 8142SOL     OW25324   0.336   5.389   0.114
 8142SOL    HW125325   0.262   5.371   0.049
 8142SOL    HW225326   0.364   5.485   0.107
 8143SOL     OW25327   5.995   4.506   0.548
 8143SOL    HW125328   5.932   4.498   0.470
 8143SOL    HW225329   5.969   4.585   0.603
 8144SOL     OW25330   5.913   6.176   6.570
 8144SOL    HW125331   5.843   6.121   6.526
 8144SOL    HW225332   5.946   6.129   6.652
 8145SOL     OW25333   5.083   6.184   1.692
 8145SOL    HW125334   5.013   6.137   1.638
 8145SOL    HW225335   5.105   6.129   1.773
 8146SOL     OW25336   4.142   0.788   4.887
 8146SOL    HW125337   4.226   0.824   4.845
 8146SOL    HW225338   4.157   0.776   4.985
 8147SOL     OW25339   6.121   2.226   2.223
 8147SOL    HW125340   6.059   2.264   2.155
 8147SOL    HW225341   6.111   2.275   2.309
 8148SOL     OW25342   5.190   4.268   1.631
 8148SOL    HW125343   5.251   4.202   1.588
 8148SOL    HW225344   5.144   4.226   1.708
 8149SOL     OW25345   2.270   5.825   1.874
 8149SOL    HW125346   2.325   5.901   1.909
 8149SOL    HW225347   2.222   5.854   1.792
 8150SOL     OW25348   0.445   4.688   6.753
 8150SOL    HW125349   0.386   4.732   6.685
 8150SOL    HW225350   0.533   4.666   6.710
 8151SOL     OW25351   6.338   2.292   1.694
 8151SOL    HW125352   6.409   2.285   1.764
 8151SOL    HW225353   6.365   2.238   1.614
 8152SOL     OW25354   0.660   2.325   2.743
 8152SOL    HW125355   0.631   2.280   2.658
 8152SOL    HW225356   0.759   2.322   2.749
 8153SOL     OW25357   3.334   0.558   2.540
 8153SOL    HW125358   3.432   0.552   2.518
 8153SOL    HW225359   3.295   0.466   2.544
 8154SOL     OW25360   2.786   5.598   3.890
 8154SOL    HW125361   2.828   5.521   3.938
 8154SOL    HW225362   2.857   5.658   3.855
 8155SOL     OW25363   2.355   3.863   1.646
 8155SOL    HW125364   2.320   3.817   1.727
 8155SOL    HW225365   2.279   3.879   1.582
 8156SOL     OW25366   4.981   0.144   6.140
 8156SOL    HW125367   5.013   0.066   6.194
 8156SOL    HW225368   4.910   0.193   6.190
 8157SOL     OW25369   5.871   5.273   6.390
 8157SOL    HW125370   5.905   5.346   6.332
 8157SOL    HW225371   5.771   5.273   6.390
 8158SOL     OW25372   0.240   5.096   0.932
 8158SOL    HW125373   0.289   5.082   1.018
 8158SOL    HW225374   0.150   5.053   0.938
 8159SOL     OW25375   2.510   6.139   2.397
 8159SOL    HW125376   2.608   6.144   2.417
 8159SOL    HW225377   2.483   6.218   2.341
 8160SOL     OW25378   4.670   1.644   1.898
 8160SOL    HW125379   4.642   1.730   1.941
 8160SOL    HW225380   4.613   1.627   1.817
 8161SOL     OW25381   5.098   1.170   0.247
 8161SOL    HW125382   5.139   1.202   0.332
 8161SOL    HW225383   5.080   1.248   0.187
 8162SOL     OW25384   6.716   6.773   6.022
 8162SOL    HW125385   6.623   6.774   6.059
 8162SOL    HW225386   6.713   6.747   5.926
 8163SOL     OW25387   2.743   3.658   5.598
 8163SOL    HW125388   2.830   3.610   5.609
 8163SOL    HW225389   2.757   3.756   5.615
 8164SOL     OW25390   5.773   3.623   0.651
 8164SOL    HW125391   5.715   3.555   0.608
 8164SOL    HW225392   5.740   3.715   0.627
 8165SOL     OW25393   1.005   5.159   6.345
 8165SOL    HW125394   1.064   5.079   6.362
 8165SOL    HW225395   0.910   5.136   6.368
 8166SOL     OW25396   2.466   0.989   2.093
 8166SOL    HW125397   2.477   0.907   2.149
 8166SOL    HW225398   2.545   1.000   2.033
 8167SOL     OW25399   5.754   1.120   4.528
 8167SOL    HW125400   5.691   1.102   4.452
 8167SOL    HW225401   5.845   1.140   4.491
 8168SOL     OW25402   3.339   1.274   2.816
 8168SOL    HW125403   3.343   1.196   2.754
 8168SOL    HW225404   3.255   1.325   2.800
 8169SOL     OW25405   5.143   3.444   1.310
 8169SOL    HW125406   5.067   3.404   1.362
 8169SOL    HW225407   5.166   3.384   1.233
 8170SOL     OW25408   1.748   5.867   2.795
 8170SOL    HW125409   1.700   5.781   2.815
 8170SOL    HW225410   1.767   5.915   2.881
 8171SOL     OW25411   1.077   1.645   6.918
 8171SOL    HW125412   1.059   1.719   6.854
 8171SOL    HW225413   1.005   1.576   6.911
 8172SOL     OW25414   0.448   0.960   1.390
 8172SOL    HW125415   0.540   0.923   1.381
 8172SOL    HW225416   0.388   0.891   1.431
 8173SOL     OW25417   3.811   2.056   0.419
 8173SOL    HW125418   3.878   1.997   0.374
 8173SOL    HW225419   3.859   2.131   0.465
 8174SOL     OW25420   5.007   1.837   0.813
 8174SOL    HW125421   4.949   1.887   0.749
 8174SOL    HW225422   5.009   1.885   0.901
 8175SOL     OW25423   0.326   2.557   6.103
 8175SOL    HW125424   0.264   2.612   6.159
 8175SOL    HW225425   0.392   2.618   6.058
 8176SOL     OW25426   2.855   5.811   2.007
 8176SOL    HW125427   2.899   5.845   1.924
 8176SOL    HW225428   2.775   5.755   1.982
 8177SOL     OW25429   2.044   6.029   4.278
 8177SOL    HW125430   2.007   5.941   4.249
 8177SOL    HW225431   2.131   6.015   4.326
 8178SOL     OW25432   1.937   6.720   6.582
 8178SOL    HW125433   1.966   6.769   6.499
 8178SOL    HW225434   2.016   6.672   6.621
 8179SOL     OW25435   3.798   2.883   6.956
 8179SOL    HW125436   3.866   2.926   6.897
 8179SOL    HW225437   3.720   2.945   6.967
 8180SOL     OW25438   6.723   0.150   4.495
 8180SOL    HW125439   6.706   0.217   4.423
 8180SOL    HW225440   6.722   0.058   4.456
 8181SOL     OW25441   2.235   1.003   2.454
 8181SOL    HW125442   2.142   1.034   2.477
 8181SOL    HW225443   2.253   1.020   2.358
 8182SOL     OW25444   4.132   1.949   6.724
 8182SOL    HW125445   4.170   2.023   6.780
 8182SOL    HW225446   4.171   1.954   6.632
 8183SOL     OW25447   0.527   2.141   5.095
 8183SOL    HW125448   0.617   2.099   5.108
 8183SOL    HW225449   0.536   2.239   5.083
 8184SOL     OW25450   5.710   1.841   5.614
 8184SOL    HW125451   5.635   1.846   5.549
 8184SOL    HW225452   5.785   1.901   5.584
 8185SOL     OW25453   3.395   0.648   0.540
 8185SOL    HW125454   3.333   0.722   0.565
 8185SOL    HW225455   3.362   0.562   0.577
 8186SOL     OW25456   2.936   6.175   6.720
 8186SOL    HW125457   2.962   6.080   6.734
 8186SOL    HW225458   2.945   6.198   6.624
 8187SOL     OW25459   1.823   2.055   5.035
 8187SOL    HW125460   1.915   2.016   5.043
 8187SOL    HW225461   1.808   2.086   4.941
 8188SOL     OW25462   5.715   1.878   2.543
 8188SOL    HW125463   5.744   1.968   2.574
 8188SOL    HW225464   5.789   1.835   2.491
 8189SOL     OW25465   5.227   4.032   2.345
 8189SOL    HW125466   5.225   3.972   2.266
 8189SOL    HW225467   5.260   4.123   2.318
 8190SOL     OW25468   5.533   5.505   4.416
 8190SOL    HW125469   5.459   5.528   4.479
 8190SOL    HW225470   5.526   5.562   4.334
 8191SOL     OW25471   2.252   5.359   3.680
 8191SOL    HW125472   2.326   5.425   3.691
 8191SOL    HW225473   2.190   5.388   3.607
 8192SOL     OW25474   2.425   5.890   0.151
 8192SOL    HW125475   2.409   5.986   0.176
 8192SOL    HW225476   2.338   5.846   0.129
 8193SOL     OW25477   6.529   6.971   4.215
 8193SOL    HW125478   6.548   0.051   4.229
 8193SOL    HW225479   6.434   6.952   4.240
 8194SOL     OW25480   6.168   2.847   0.079
 8194SOL    HW125481   6.259   2.849   0.038
 8194SOL    HW225482   6.145   2.752   0.103
 8195SOL     OW25483   0.804   1.022   0.845
 8195SOL    HW125484   0.893   1.044   0.886
 8195SOL    HW225485   0.744   1.102   0.853
 8196SOL     OW25486   3.784   6.994   5.832
 8196SOL    HW125487   3.856   6.926   5.821
 8196SOL    HW225488   3.695   6.948   5.836
 8197SOL     OW25489   5.182   1.479   5.997
 8197SOL    HW125490   5.083   1.485   6.007
 8197SOL    HW225491   5.205   1.407   5.932
 8198SOL     OW25492   3.286   6.868   2.087
 8198SOL    HW125493   3.233   6.953   2.086
 8198SOL    HW225494   3.380   6.887   2.061
 8199SOL     OW25495   6.732   3.896   0.330
 8199SOL    HW125496   6.718   3.979   0.384
 8199SOL    HW225497   6.703   3.911   0.236
 8200SOL     OW25498   4.391   3.859   1.278
 8200SOL    HW125499   4.467   3.923   1.292
 8200SOL    HW225500   4.332   3.860   1.359
 8201SOL     OW25501   5.336   1.194   4.711
 8201SOL    HW125502   5.420   1.142   4.695
 8201SOL    HW225503   5.354   1.269   4.775
 8202SOL     OW25504   1.575   5.685   4.329
 8202SOL    HW125505   1.609   5.707   4.421
 8202SOL    HW225506   1.480   5.715   4.320
 8203SOL     OW25507   4.694   3.167   0.615
 8203SOL    HW125508   4.665   3.238   0.679
 8203SOL    HW225509   4.734   3.209   0.534
 8204SOL     OW25510   3.629   5.887   0.918
 8204SOL    HW125511   3.711   5.831   0.928
 8204SOL    HW225512   3.654   5.975   0.878
 8205SOL     OW25513   5.920   4.778   1.995
 8205SOL    HW125514   6.011   4.746   2.021
 8205SOL    HW225515   5.908   4.767   1.896
 8206SOL     OW25516   3.236   2.444   5.598
 8206SOL    HW125517   3.165   2.472   5.533
 8206SOL    HW225518   3.313   2.404   5.548
 8207SOL     OW25519   3.727   4.685   5.336
 8207SOL    HW125520   3.629   4.702   5.349
 8207SOL    HW225521   3.759   4.736   5.256
 8208SOL     OW25522   2.147   6.748   1.242
 8208SOL    HW125523   2.199   6.807   1.181
 8208SOL    HW225524   2.195   6.660   1.252
 8209SOL     OW25525   0.630   1.186   5.165
 8209SOL    HW125526   0.569   1.110   5.143
 8209SOL    HW225527   0.720   1.169   5.124
 8210SOL     OW25528   3.550   1.188   0.243
 8210SOL    HW125529   3.602   1.221   0.322
 8210SOL    HW225530   3.560   1.253   0.168
 8211SOL     OW25531   3.602   4.152   4.068
 8211SOL    HW125532   3.639   4.192   4.152
 8211SOL    HW225533   3.507   4.126   4.083
 8212SOL     OW25534   2.895   0.750   0.801
 8212SOL    HW125535   2.913   0.782   0.708
 8212SOL    HW225536   2.924   0.820   0.867
 8213SOL     OW25537   4.410   5.246   3.320
 8213SOL    HW125538   4.481   5.224   3.253
 8213SOL    HW225539   4.436   5.209   3.409
 8214SOL     OW25540   2.300   5.943   4.428
 8214SOL    HW125541   2.343   5.854   4.410
 8214SOL    HW225542   2.353   5.992   4.497
 8215SOL     OW25543   4.325   5.458   0.107
 8215SOL    HW125544   4.420   5.474   0.079
 8215SOL    HW225545   4.324   5.416   0.198
 8216SOL     OW25546   5.277   6.806   3.170
 8216SOL    HW125547   5.272   6.766   3.261
 8216SOL    HW225548   5.321   6.895   3.175
 8217SOL     OW25549   2.072   4.038   2.368
 8217SOL    HW125550   2.046   4.034   2.271
 8217SOL    HW225551   2.096   3.946   2.400
 8218SOL     OW25552   1.936   6.997   4.810
 8218SOL    HW125553   1.950   6.899   4.820
 8218SOL    HW225554   1.861   0.010   4.870
 8219SOL     OW25555   3.002   4.359   0.986
 8219SOL    HW125556   3.004   4.291   0.913
 8219SOL    HW225557   3.084   4.416   0.980
 8220SOL     OW25558   3.516   4.283   5.435
 8220SOL    HW125559   3.590   4.219   5.414
 8220SOL    HW225560   3.439   4.264   5.375
 8221SOL     OW25561   6.181   4.131   3.409
 8221SOL    HW125562   6.242   4.104   3.484
 8221SOL    HW225563   6.175   4.058   3.342
 8222SOL     OW25564   5.950   2.332   0.466
 8222SOL    HW125565   5.881   2.393   0.505
 8222SOL    HW225566   5.930   2.238   0.492
 8223SOL     OW25567   0.003   5.037   5.572
 8223SOL    HW125568   0.069   5.023   5.498
 8223SOL    HW225569   0.016   4.967   5.642
 8224SOL     OW25570   4.471   1.757   1.109
 8224SOL    HW125571   4.525   1.687   1.156
 8224SOL    HW225572   4.416   1.713   1.038
 8225SOL     OW25573   4.255   0.007   0.692
 8225SOL    HW125574   4.317   0.054   0.754
 8225SOL    HW225575   4.291   6.933   0.671
 8226SOL     OW25576   3.581   0.459   0.423
 8226SOL    HW125577   3.510   0.523   0.455
 8226SOL    HW225578   3.646   0.442   0.497
 8227SOL     OW25579   5.941   1.110   2.535
 8227SOL    HW125580   5.958   1.058   2.451
 8227SOL    HW225581   5.912   1.048   2.607
 8228SOL     OW25582   0.334   1.174   5.139
 8228SOL    HW125583   0.283   1.118   5.205
 8228SOL    HW225584   0.359   1.118   5.061
 8229SOL     OW25585   4.430   4.428   0.912
 8229SOL    HW125586   4.426   4.515   0.862
 8229SOL    HW225587   4.517   4.382   0.891
 8230SOL     OW25588   4.299   7.014   5.536
 8230SOL    HW125589   4.214   6.960   5.535
 8230SOL    HW225590   4.289   0.074   5.599
 8231SOL     OW25591   3.500   1.424   2.522
 8231SOL    HW125592   3.474   1.475   2.604
 8231SOL    HW225593   3.540   1.486   2.455
 8232SOL     OW25594   5.332   1.272   2.227
 8232SOL    HW125595   5.320   1.217   2.145
 8232SOL    HW225596   5.409   1.238   2.280
 8233SOL     OW25597   0.858   0.284   5.759
 8233SOL    HW125598   0.926   0.226   5.715
 8233SOL    HW225599   0.824   0.240   5.841
 8234SOL     OW25600   3.471   2.887   0.318
 8234SOL    HW125601   3.477   2.844   0.228
 8234SOL    HW225602   3.450   2.984   0.307
 8235SOL     OW25603   6.945   4.642   6.967
 8235SOL    HW125604   7.008   4.699   6.914
 8235SOL    HW225605   6.952   4.548   6.935
 8236SOL     OW25606   0.069   5.945   6.068
 8236SOL    HW125607   0.060   5.852   6.102
 8236SOL    HW225608   0.119   6.001   6.135
 8237SOL     OW25609   4.286   5.393   6.154
 8237SOL    HW125610   4.228   5.363   6.079
 8237SOL    HW225611   4.276   5.329   6.231
 8238SOL     OW25612   1.282   5.734   6.819
 8238SOL    HW125613   1.316   5.782   6.738
 8238SOL    HW225614   1.221   5.661   6.791
 8239SOL     OW25615   0.348   1.063   4.794
 8239SOL    HW125616   0.339   0.982   4.736
 8239SOL    HW225617   0.394   1.038   4.879
 8240SOL     OW25618   3.190   3.320   3.110
 8240SOL    HW125619   3.282   3.285   3.125
 8240SOL    HW225620   3.177   3.341   3.013
 8241SOL     OW25621   1.260   3.379   0.062
 8241SOL    HW125622   1.220   3.353   6.991
 8241SOL    HW225623   1.262   3.299   0.122
 8242SOL     OW25624   0.899   3.544   4.645
 8242SOL    HW125625   0.883   3.605   4.723
 8242SOL    HW225626   0.943   3.595   4.572
 8243SOL     OW25627   0.691   4.575   5.631
 8243SOL    HW125628   0.778   4.527   5.620
 8243SOL    HW225629   0.615   4.512   5.615
 8244SOL     OW25630   1.242   0.671   3.372
 8244SOL    HW125631   1.176   0.733   3.413
 8244SOL    HW225632   1.203   0.579   3.368
 8245SOL     OW25633   4.443   1.885   3.595
 8245SOL    HW125634   4.355   1.848   3.626
 8245SOL    HW225635   4.477   1.832   3.518
 8246SOL     OW25636   1.061   3.936   6.421
 8246SOL    HW125637   1.077   3.838   6.431
 8246SOL    HW225638   0.972   3.951   6.379
 8247SOL     OW25639   2.994   5.180   3.488
 8247SOL    HW125640   3.073   5.228   3.524
 8247SOL    HW225641   2.916   5.193   3.550
 8248SOL     OW25642   1.329   6.064   4.198
 8248SOL    HW125643   1.354   6.057   4.295
 8248SOL    HW225644   1.356   6.154   4.164
 8249SOL     OW25645   2.322   1.942   5.752
 8249SOL    HW125646   2.382   2.021   5.734
 8249SOL    HW225647   2.233   1.975   5.784
 8250SOL     OW25648   3.095   1.751   0.680
 8250SOL    HW125649   3.064   1.681   0.744
 8250SOL    HW225650   3.150   1.708   0.608
 8251SOL     OW25651   6.431   2.081   4.475
 8251SOL    HW125652   6.497   2.097   4.548
 8251SOL    HW225653   6.349   2.136   4.492
 8252SOL     OW25654   2.484   1.975   6.566
 8252SOL    HW125655   2.399   1.927   6.588
 8252SOL    HW225656   2.476   2.071   6.593
 8253SOL     OW25657   4.030   5.843   6.303
 8253SOL    HW125658   3.947   5.788   6.304
 8253SOL    HW225659   4.030   5.905   6.382
 8254SOL     OW25660   6.048   4.861   6.164
 8254SOL    HW125661   6.012   4.826   6.078
 8254SOL    HW225662   6.011   4.806   6.240
 8255SOL     OW25663   0.585   0.150   6.188
 8255SOL    HW125664   0.682   0.126   6.178
 8255SOL    HW225665   0.542   0.088   6.255
 8256SOL     OW25666   6.966   6.761   3.417
 8256SOL    HW125667   7.001   6.668   3.412
 8256SOL    HW225668   7.002   6.815   3.341
 8257SOL     OW25669   5.793   4.285   4.280
 8257SOL    HW125670   5.792   4.356   4.350
 8257SOL    HW225671   5.826   4.324   4.194
 8258SOL     OW25672   5.488   2.715   0.984
 8258SOL    HW125673   5.551   2.640   0.999
 8258SOL    HW225674   5.519   2.795   1.035
 8259SOL     OW25675   4.255   1.834   4.301
 8259SOL    HW125676   4.214   1.914   4.344
 8259SOL    HW225677   4.216   1.751   4.341
 8260SOL     OW25678   1.803   6.467   0.265
 8260SOL    HW125679   1.746   6.546   0.241
 8260SOL    HW225680   1.894   6.498   0.290
 8261SOL     OW25681   5.762   6.495   3.408
 8261SOL    HW125682   5.734   6.428   3.477
 8261SOL    HW225683   5.724   6.469   3.319
 8262SOL     OW25684   0.368   5.179   0.257
 8262SOL    HW125685   0.273   5.148   0.267
 8262SOL    HW225686   0.369   5.265   0.207
 8263SOL     OW25687   6.889   3.009   6.548
 8263SOL    HW125688   6.860   3.040   6.457
 8263SOL    HW225689   6.907   2.911   6.545
 8264SOL     OW25690   1.332   0.098   1.473
 8264SOL    HW125691   1.427   0.095   1.442
 8264SOL    HW225692   1.330   0.107   1.573
 8265SOL     OW25693   4.166   0.497   1.619
 8265SOL    HW125694   4.214   0.413   1.594
 8265SOL    HW225695   4.200   0.529   1.707
 8266SOL     OW25696   3.132   0.089   4.680
 8266SOL    HW125697   3.083   0.111   4.764
 8266SOL    HW225698   3.084   0.128   4.601
 8267SOL     OW25699   1.580   4.942   2.117
 8267SOL    HW125700   1.605   5.039   2.120
 8267SOL    HW225701   1.662   4.887   2.097
 8268SOL     OW25702   2.411   3.955   6.649
 8268SOL    HW125703   2.487   4.020   6.652
 8268SOL    HW225704   2.407   3.913   6.558
 8269SOL     OW25705   4.702   2.817   2.968
 8269SOL    HW125706   4.771   2.830   3.039
 8269SOL    HW225707   4.662   2.725   2.977
 8270SOL     OW25708   2.614   6.726   5.677
 8270SOL    HW125709   2.604   6.820   5.708
 8270SOL    HW225710   2.590   6.663   5.751
 8271SOL     OW25711   5.811   6.197   4.557
 8271SOL    HW125712   5.791   6.127   4.625
 8271SOL    HW225713   5.776   6.168   4.468
 8272SOL     OW25714   0.586   0.191   1.956
 8272SOL    HW125715   0.509   0.177   1.893
 8272SOL    HW225716   0.591   0.114   2.020
 8273SOL     OW25717   2.997   0.048   0.187
 8273SOL    HW125718   3.092   0.041   0.158
 8273SOL    HW225719   2.944   0.098   0.118
 8274SOL     OW25720   4.085   4.407   6.916
 8274SOL    HW125721   4.091   4.502   6.886
 8274SOL    HW225722   3.998   4.368   6.887
 8275SOL     OW25723   6.601   0.211   4.741
 8275SOL    HW125724   6.569   0.132   4.792
 8275SOL    HW225725   6.662   0.181   4.668
 8276SOL     OW25726   6.986   2.351   5.773
 8276SOL    HW125727   6.955   2.428   5.718
 8276SOL    HW225728   0.053   2.313   5.733
 8277SOL     OW25729   2.033   5.168   5.476
 8277SOL    HW125730   2.109   5.186   5.414
 8277SOL    HW225731   1.948   5.200   5.435
 8278SOL     OW25732   3.518   1.187   6.106
 8278SOL    HW125733   3.575   1.139   6.173
 8278SOL    HW225734   3.462   1.256   6.152
 8279SOL     OW25735   5.107   5.749   6.949
 8279SOL    HW125736   5.100   5.716   6.855
 8279SOL    HW225737   5.170   5.827   6.952
 8280SOL     OW25738   4.483   2.440   0.003
 8280SOL    HW125739   4.563   2.414   6.966
 8280SOL    HW225740   4.492   2.536   0.031
 8281SOL     OW25741   1.873   4.694   0.422
 8281SOL    HW125742   1.946   4.630   0.448
 8281SOL    HW225743   1.893   4.733   0.332
 8282SOL     OW25744   2.811   2.254   0.887
 8282SOL    HW125745   2.836   2.350   0.898
 8282SOL    HW225746   2.779   2.218   0.975
 8283SOL     OW25747   0.663   5.153   3.842
 8283SOL    HW125748   0.629   5.245   3.860
 8283SOL    HW225749   0.746   5.159   3.786
 8284SOL     OW25750   1.976   2.659   2.651
 8284SOL    HW125751   2.056   2.679   2.595
 8284SOL    HW225752   2.005   2.634   2.744
 8285SOL     OW25753   3.535   3.784   6.099
 8285SOL    HW125754   3.613   3.842   6.078
 8285SOL    HW225755   3.462   3.800   6.032
 8286SOL     OW25756   5.587   1.084   4.757
 8286SOL    HW125757   5.630   1.086   4.667
 8286SOL    HW225758   5.653   1.107   4.827
 8287SOL     OW25759   1.215   6.820   4.453
 8287SOL    HW125760   1.248   6.810   4.360
 8287SOL    HW225761   1.133   6.765   4.466
 8288SOL     OW25762   2.016   2.119   2.352
 8288SOL    HW125763   2.050   2.165   2.270
 8288SOL    HW225764   2.084   2.053   2.384
 8289SOL     OW25765   5.969   1.070   5.672
 8289SOL    HW125766   5.946   0.972   5.677
 8289SOL    HW225767   5.974   1.107   5.765
 8290SOL     OW25768   3.984   3.149   1.669
 8290SOL    HW125769   3.942   3.110   1.587
 8290SOL    HW225770   3.928   3.125   1.749
 8291SOL     OW25771   5.785   6.783   6.383
 8291SOL    HW125772   5.707   6.721   6.387
 8291SOL    HW225773   5.758   6.873   6.416
 8292SOL     OW25774   1.669   4.713   5.823
 8292SOL    HW125775   1.597   4.645   5.804
 8292SOL    HW225776   1.735   4.675   5.887
 8293SOL     OW25777   2.164   4.878   1.623
 8293SOL    HW125778   2.168   4.951   1.691
 8293SOL    HW225779   2.125   4.796   1.664
 8294SOL     OW25780   6.805   4.037   5.330
 8294SOL    HW125781   6.854   4.114   5.371
 8294SOL    HW225782   6.773   3.975   5.401
 8295SOL     OW25783   5.011   3.688   3.511
 8295SOL    HW125784   4.929   3.729   3.472
 8295SOL    HW225785   5.092   3.725   3.464
 8296SOL     OW25786   3.276   5.849   6.893
 8296SOL    HW125787   3.215   5.867   6.970
 8296SOL    HW225788   3.325   5.933   6.869
 8297SOL     OW25789   6.150   3.956   2.145
 8297SOL    HW125790   6.174   3.922   2.236
 8297SOL    HW225791   6.095   4.039   2.154
 8298SOL     OW25792   0.891   0.651   6.421
 8298SOL    HW125793   0.821   0.681   6.486
 8298SOL    HW225794   0.978   0.639   6.469
 8299SOL     OW25795   0.173   3.970   1.695
 8299SOL    HW125796   0.111   4.048   1.682
 8299SOL    HW225797   0.154   3.927   1.784
 8300SOL     OW25798   5.834   5.723   4.544
 8300SOL    HW125799   5.842   5.653   4.615
 8300SOL    HW225800   5.738   5.729   4.515
 8301SOL     OW25801   4.481   0.142   6.796
 8301SOL    HW125802   4.556   0.083   6.825
 8301SOL    HW225803   4.426   0.168   6.876
 8302SOL     OW25804   3.150   6.531   4.990
 8302SOL    HW125805   3.061   6.557   4.951
 8302SOL    HW225806   3.222   6.549   4.923
 8303SOL     OW25807   6.719   0.541   2.410
 8303SOL    HW125808   6.675   0.461   2.370
 8303SOL    HW225809   6.678   0.561   2.499
 8304SOL     OW25810   5.782   4.159   3.653
 8304SOL    HW125811   5.690   4.122   3.638
 8304SOL    HW225812   5.803   4.228   3.584
 8305SOL     OW25813   4.599   5.537   4.426
 8305SOL    HW125814   4.643   5.619   4.462
 8305SOL    HW225815   4.519   5.515   4.481
 8306SOL     OW25816   6.704   0.783   2.799
 8306SOL    HW125817   6.736   0.878   2.802
 8306SOL    HW225818   6.709   0.743   2.890
 8307SOL     OW25819   1.101   5.114   0.970
 8307SOL    HW125820   1.114   5.155   1.060
 8307SOL    HW225821   1.098   5.186   0.901
 8308SOL     OW25822   1.349   4.598   0.274
 8308SOL    HW125823   1.445   4.581   0.295
 8308SOL    HW225824   1.291   4.549   0.339
 8309SOL     OW25825   6.555   4.881   4.808
 8309SOL    HW125826   6.553   4.837   4.897
 8309SOL    HW225827   6.517   4.974   4.815
 8310SOL     OW25828   0.543   6.631   0.687
 8310SOL    HW125829   0.586   6.546   0.658
 8310SOL    HW225830   0.608   6.706   0.676
 8311SOL     OW25831   5.362   6.483   3.979
 8311SOL    HW125832   5.431   6.521   3.917
 8311SOL    HW225833   5.354   6.541   4.060
 8312SOL     OW25834   5.277   0.188   0.558
 8312SOL    HW125835   5.242   0.274   0.520
 8312SOL    HW225836   5.277   0.118   0.487
 8313SOL     OW25837   3.536   6.850   5.837
 8313SOL    HW125838   3.570   6.808   5.922
 8313SOL    HW225839   3.578   6.805   5.758
 8314SOL     OW25840   5.325   6.276   6.442
 8314SOL    HW125841   5.324   6.343   6.368
 8314SOL    HW225842   5.417   6.273   6.482
 8315SOL     OW25843   3.654   3.598   3.890
 8315SOL    HW125844   3.656   3.673   3.956
 8315SOL    HW225845   3.747   3.577   3.859
 8316SOL     OW25846   0.991   3.267   6.922
 8316SOL    HW125847   1.070   3.217   6.886
 8316SOL    HW225848   0.947   3.212   6.994
 8317SOL     OW25849   2.108   1.969   4.850
 8317SOL    HW125850   2.095   2.015   4.938
 8317SOL    HW225851   2.195   2.000   4.810
 8318SOL     OW25852   4.269   1.091   6.168
 8318SOL    HW125853   4.316   1.085   6.079
 8318SOL    HW225854   4.222   1.005   6.187
 8319SOL     OW25855   1.356   0.485   5.950
 8319SOL    HW125856   1.354   0.401   6.005
 8319SOL    HW225857   1.270   0.535   5.962
 8320SOL     OW25858   3.323   4.057   3.895
 8320SOL    HW125859   3.295   4.094   3.983
 8320SOL    HW225860   3.253   4.079   3.826
 8321SOL     OW25861   6.922   0.493   6.714
 8321SOL    HW125862   6.867   0.542   6.646
 8321SOL    HW225863   6.919   0.395   6.696
 8322SOL     OW25864   0.218   1.268   0.467
 8322SOL    HW125865   0.316   1.249   0.477
 8322SOL    HW225866   0.170   1.243   0.551
 8323SOL     OW25867   5.006   4.453   1.642
 8323SOL    HW125868   4.922   4.408   1.610
 8323SOL    HW225869   5.085   4.398   1.616
 8324SOL     OW25870   6.252   0.701   0.029
 8324SOL    HW125871   6.196   0.735   6.971
 8324SOL    HW225872   6.318   0.770   0.056
 8325SOL     OW25873   1.184   5.168   4.947
 8325SOL    HW125874   1.149   5.146   5.038
 8325SOL    HW225875   1.113   5.215   4.894
 8326SOL     OW25876   2.951   3.906   0.334
 8326SOL    HW125877   2.888   3.846   0.285
 8326SOL    HW225878   2.949   3.883   0.432
 8327SOL     OW25879   0.624   0.789   5.228
 8327SOL    HW125880   0.603   0.696   5.257
 8327SOL    HW225881   0.722   0.797   5.208
 8328SOL     OW25882   0.847   6.201   5.943
 8328SOL    HW125883   0.932   6.173   5.899
 8328SOL    HW225884   0.854   6.296   5.973
 8329SOL     OW25885   0.838   2.479   5.171
 8329SOL    HW125886   0.870   2.518   5.258
 8329SOL    HW225887   0.739   2.462   5.177
 8330SOL     OW25888   3.820   1.148   6.396
 8330SOL    HW125889   3.865   1.060   6.381
 8330SOL    HW225890   3.720   1.135   6.396
 8331SOL     OW25891   2.030   2.155   0.578
 8331SOL    HW125892   2.018   2.068   0.530
 8331SOL    HW225893   2.056   2.226   0.513
 8332SOL     OW25894   5.012   4.750   2.355
 8332SOL    HW125895   5.047   4.760   2.448
 8332SOL    HW225896   4.919   4.714   2.358
 8333SOL     OW25897   1.902   5.214   0.797
 8333SOL    HW125898   1.956   5.147   0.745
 8333SOL    HW225899   1.815   5.173   0.825
 8334SOL     OW25900   3.530   1.539   6.340
 8334SOL    HW125901   3.475   1.473   6.289
 8334SOL    HW225902   3.470   1.608   6.381
 8335SOL     OW25903   4.342   2.727   6.637
 8335SOL    HW125904   4.408   2.745   6.563
 8335SOL    HW225905   4.291   2.644   6.616
 8336SOL     OW25906   1.616   3.439   2.353
 8336SOL    HW125907   1.578   3.352   2.385
 8336SOL    HW225908   1.547   3.487   2.299
 8337SOL     OW25909   1.178   0.999   4.884
 8337SOL    HW125910   1.151   1.088   4.846
 8337SOL    HW225911   1.264   1.009   4.933
 8338SOL     OW25912   3.846   4.931   2.392
 8338SOL    HW125913   3.769   4.932   2.328
 8338SOL    HW225914   3.912   5.001   2.365
 8339SOL     OW25915   0.033   0.915   0.516
 8339SOL    HW125916   0.116   0.930   0.462
 8339SOL    HW225917   0.045   0.836   0.575
 8340SOL     OW25918   4.987   2.827   1.018
 8340SOL    HW125919   4.941   2.896   0.962
 8340SOL    HW225920   4.976   2.737   0.976
 8341SOL     OW25921   3.518   0.534   6.123
 8341SOL    HW125922   3.535   0.602   6.051
 8341SOL    HW225923   3.421   0.536   6.147
 8342SOL     OW25924   3.293   6.030   0.434
 8342SOL    HW125925   3.305   6.084   0.517
 8342SOL    HW225926   3.255   5.940   0.457
 8343SOL     OW25927   6.493   5.303   3.861
 8343SOL    HW125928   6.514   5.211   3.895
 8343SOL    HW225929   6.497   5.367   3.938
 8344SOL     OW25930   0.632   4.434   4.202
 8344SOL    HW125931   0.722   4.416   4.161
 8344SOL    HW225932   0.591   4.514   4.159
 8345SOL     OW25933   5.075   1.225   3.281
 8345SOL    HW125934   5.035   1.179   3.202
 8345SOL    HW225935   5.144   1.291   3.251
 8346SOL     OW25936   4.209   3.092   6.178
 8346SOL    HW125937   4.230   2.995   6.193
 8346SOL    HW225938   4.167   3.130   6.261
 8347SOL     OW25939   2.037   6.785   6.321
 8347SOL    HW125940   2.134   6.784   6.296
 8347SOL    HW225941   2.001   6.692   6.317
 8348SOL     OW25942   3.100   0.016   0.974
 8348SOL    HW125943   3.066   0.088   1.035
 8348SOL    HW225944   3.096   6.945   1.021
 8349SOL     OW25945   0.805   6.757   2.008
 8349SOL    HW125946   0.741   6.832   2.021
 8349SOL    HW225947   0.839   6.758   1.914
 8350SOL     OW25948   2.848   0.178   6.411
 8350SOL    HW125949   2.830   0.190   6.314
 8350SOL    HW225950   2.801   0.249   6.463
 8351SOL     OW25951   6.215   5.583   4.092
 8351SOL    HW125952   6.161   5.561   4.174
 8351SOL    HW225953   6.295   5.637   4.118
 8352SOL     OW25954   2.789   6.215   2.470
 8352SOL    HW125955   2.862   6.196   2.404
 8352SOL    HW225956   2.813   6.296   2.524
 8353SOL     OW25957   1.128   4.001   1.483
 8353SOL    HW125958   1.184   4.020   1.564
 8353SOL    HW225959   1.147   3.908   1.451
 8354SOL     OW25960   3.638   6.579   3.994
 8354SOL    HW125961   3.721   6.574   3.938
 8354SOL    HW225962   3.597   6.670   3.984
 8355SOL     OW25963   1.221   0.441   6.293
 8355SOL    HW125964   1.271   0.394   6.220
 8355SOL    HW225965   1.223   0.540   6.276
 8356SOL     OW25966   1.265   5.769   1.902
 8356SOL    HW125967   1.170   5.738   1.904
 8356SOL    HW225968   1.316   5.724   1.975
 8357SOL     OW25969   3.793   5.671   6.307
 8357SOL    HW125970   3.709   5.712   6.343
 8357SOL    HW225971   3.772   5.613   6.229
 8358SOL     OW25972   1.283   2.660   6.201
 8358SOL    HW125973   1.383   2.674   6.199
 8358SOL    HW225974   1.263   2.563   6.206
 8359SOL     OW25975   2.474   0.905   4.533
 8359SOL    HW125976   2.391   0.888   4.480
 8359SOL    HW225977   2.492   1.003   4.535
 8360SOL     OW25978   4.618   0.036   0.695
 8360SOL    HW125979   4.686   0.079   0.754
 8360SOL    HW225980   4.557   6.997   0.750
 8361SOL     OW25981   2.407   0.033   6.393
 8361SOL    HW125982   2.330   0.067   6.448
 8361SOL    HW225983   2.425   0.097   6.319
 8362SOL     OW25984   6.049   1.858   0.544
 8362SOL    HW125985   6.077   1.770   0.504
 8362SOL    HW225986   6.128   1.919   0.548
 8363SOL     OW25987   4.156   1.842   0.564
 8363SOL    HW125988   4.091   1.884   0.628
 8363SOL    HW225989   4.124   1.751   0.539
 8364SOL     OW25990   0.730   3.357   3.836
 8364SOL    HW125991   0.720   3.258   3.828
 8364SOL    HW225992   0.639   3.399   3.841
 8365SOL     OW25993   1.991   2.457   2.919
 8365SOL    HW125994   1.935   2.436   2.999
 8365SOL    HW225995   2.084   2.477   2.949
 8366SOL     OW25996   4.408   5.568   1.220
 8366SOL    HW125997   4.361   5.584   1.307
 8366SOL    HW225998   4.494   5.520   1.237
 8367SOL     OW25999   3.029   5.099   5.050
 8367SOL    HW126000   2.940   5.055   5.037
 8367SOL    HW226001   3.068   5.123   4.961
 8368SOL     OW26002   0.717   6.257   0.029
 8368SOL    HW126003   0.716   6.180   6.982
 8368SOL    HW226004   0.808   6.264   0.071
 8369SOL     OW26005   0.967   1.716   1.223
 8369SOL    HW126006   1.054   1.682   1.258
 8369SOL    HW226007   0.940   1.798   1.274
 8370SOL     OW26008   2.723   1.690   6.969
 8370SOL    HW126009   2.692   1.663   6.878
 8370SOL    HW226010   2.731   1.789   6.973
 8371SOL     OW26011   1.490   3.032   5.627
 8371SOL    HW126012   1.574   3.016   5.576
 8371SOL    HW226013   1.419   3.065   5.565
 8372SOL     OW26014   2.181   6.475   1.303
 8372SOL    HW126015   2.148   6.392   1.259
 8372SOL    HW226016   2.281   6.479   1.298
 8373SOL     OW26017   0.373   1.711   4.426
 8373SOL    HW126018   0.380   1.688   4.329
 8373SOL    HW226019   0.448   1.773   4.451
 8374SOL     OW26020   0.935   0.452   4.363
 8374SOL    HW126021   0.903   0.547   4.367
 8374SOL    HW226022   1.024   0.448   4.318
 8375SOL     OW26023   3.750   0.943   5.262
 8375SOL    HW126024   3.788   0.974   5.349
 8375SOL    HW226025   3.697   0.860   5.277
 8376SOL     OW26026   1.579   1.443   3.601
 8376SOL    HW126027   1.568   1.345   3.620
 8376SOL    HW226028   1.662   1.476   3.646
 8377SOL     OW26029   5.078   5.788   0.690
 8377SOL    HW126030   5.102   5.694   0.715
 8377SOL    HW226031   4.979   5.796   0.682
 8378SOL     OW26032   5.491   5.336   3.009
 8378SOL    HW126033   5.493   5.267   2.936
 8378SOL    HW226034   5.494   5.289   3.097
 8379SOL     OW26035   4.715   2.234   1.305
 8379SOL    HW126036   4.735   2.299   1.378
 8379SOL    HW226037   4.784   2.243   1.232
 8380SOL     OW26038   6.563   6.894   6.999
 8380SOL    HW126039   6.635   6.959   6.974
 8380SOL    HW226040   6.583   6.854   0.071
 8381SOL     OW26041   0.518   2.663   3.484
 8381SOL    HW126042   0.499   2.696   3.392
 8381SOL    HW226043   0.553   2.569   3.480
 8382SOL     OW26044   2.616   0.607   1.158
 8382SOL    HW126045   2.676   0.604   1.078
 8382SOL    HW226046   2.526   0.571   1.134
 8383SOL     OW26047   2.449   0.354   5.197
 8383SOL    HW126048   2.526   0.403   5.157
 8383SOL    HW226049   2.364   0.387   5.156
 8384SOL     OW26050   0.046   1.590   0.855
 8384SOL    HW126051   0.034   1.574   0.953
 8384SOL    HW226052   7.000   1.532   0.803
 8385SOL     OW26053   4.782   3.042   0.858
 8385SOL    HW126054   4.697   3.013   0.813
 8385SOL    HW226055   4.770   3.039   0.957
 8386SOL     OW26056   2.052   5.862   1.136
 8386SOL    HW126057   2.043   5.855   1.235
 8386SOL    HW226058   2.061   5.771   1.096
 8387SOL     OW26059   1.871   1.401   1.690
 8387SOL    HW126060   1.840   1.464   1.760
 8387SOL    HW226061   1.868   1.445   1.600
 8388SOL     OW26062   1.373   0.110   0.508
 8388SOL    HW126063   1.418   0.142   0.592
 8388SOL    HW226064   1.303   0.043   0.532
 8389SOL     OW26065   1.568   3.094   3.826
 8389SOL    HW126066   1.469   3.089   3.813
 8389SOL    HW226067   1.599   3.014   3.878
 8390SOL     OW26068   3.424   0.348   6.802
 8390SOL    HW126069   3.415   0.397   6.889
 8390SOL    HW226070   3.476   0.403   6.737
 8391SOL     OW26071   5.103   5.515   0.713
 8391SOL    HW126072   5.161   5.485   0.789
 8391SOL    HW226073   5.047   5.438   0.682
 8392SOL     OW26074   6.697   5.522   5.432
 8392SOL    HW126075   6.629   5.466   5.384
 8392SOL    HW226076   6.788   5.499   5.399
 8393SOL     OW26077   0.504   0.510   3.958
 8393SOL    HW126078   0.480   0.589   3.902
 8393SOL    HW226079   0.451   0.512   4.043
 8394SOL     OW26080   0.781   1.790   2.404
 8394SOL    HW126081   0.835   1.744   2.474
 8394SOL    HW226082   0.686   1.759   2.410
 8395SOL     OW26083   0.920   6.477   3.891
 8395SOL    HW126084   0.893   6.561   3.939
 8395SOL    HW226085   0.998   6.435   3.937
 8396SOL     OW26086   4.689   4.232   2.500
 8396SOL    HW126087   4.662   4.243   2.404
 8396SOL    HW226088   4.781   4.270   2.513
 8397SOL     OW26089   2.293   6.821   2.642
 8397SOL    HW126090   2.351   6.824   2.561
 8397SOL    HW226091   2.241   6.906   2.649
 8398SOL     OW26092   3.636   1.669   0.264
 8398SOL    HW126093   3.705   1.689   0.195
 8398SOL    HW226094   3.555   1.725   0.248
 8399SOL     OW26095   6.470   6.318   0.189
 8399SOL    HW126096   6.380   6.298   0.228
 8399SOL    HW226097   6.540   6.273   0.245
 8400SOL     OW26098   0.978   0.604   3.136
 8400SOL    HW126099   1.047   0.654   3.085
 8400SOL    HW226100   0.998   0.506   3.132
 8401SOL     OW26101   4.481   3.137   5.641
 8401SOL    HW126102   4.579   3.127   5.660
 8401SOL    HW226103   4.429   3.096   5.716
 8402SOL     OW26104   3.127   1.459   5.635
 8402SOL    HW126105   3.148   1.554   5.655
 8402SOL    HW226106   3.125   1.445   5.535
 8403SOL     OW26107   0.592   1.581   3.300
 8403SOL    HW126108   0.634   1.613   3.386
 8403SOL    HW226109   0.661   1.532   3.247
 8404SOL     OW26110   5.541   6.634   6.417
 8404SOL    HW126111   5.448   6.671   6.422
 8404SOL    HW226112   5.562   6.585   6.501
 8405SOL     OW26113   1.747   1.525   0.165
 8405SOL    HW126114   1.812   1.540   0.240
 8405SOL    HW226115   1.768   1.439   0.118
 8406SOL     OW26116   4.021   1.526   0.842
 8406SOL    HW126117   4.015   1.530   0.742
 8406SOL    HW226118   3.990   1.613   0.880
 8407SOL     OW26119   5.709   5.346   4.310
 8407SOL    HW126120   5.756   5.398   4.240
 8407SOL    HW226121   5.646   5.406   4.360
 8408SOL     OW26122   4.868   1.456   3.351
 8408SOL    HW126123   4.909   1.387   3.292
 8408SOL    HW226124   4.821   1.411   3.427
 8409SOL     OW26125   6.509   2.500   3.931
 8409SOL    HW126126   6.559   2.423   3.890
 8409SOL    HW226127   6.414   2.472   3.948
 8410SOL     OW26128   4.308   0.923   1.789
 8410SOL    HW126129   4.283   1.019   1.802
 8410SOL    HW226130   4.375   0.916   1.715
 8411SOL     OW26131   1.787   5.373   4.113
 8411SOL    HW126132   1.849   5.369   4.192
 8411SOL    HW226133   1.757   5.280   4.090
 8412SOL     OW26134   4.142   1.631   1.389
 8412SOL    HW126135   4.158   1.570   1.312
 8412SOL    HW226136   4.056   1.606   1.434
 8413SOL     OW26137   4.724   4.685   0.527
 8413SOL    HW126138   4.711   4.659   0.623
 8413SOL    HW226139   4.636   4.706   0.485
 8414SOL     OW26140   3.682   0.295   1.696
 8414SOL    HW126141   3.702   0.285   1.793
 8414SOL    HW226142   3.747   0.360   1.655
 8415SOL     OW26143   0.370   4.968   3.716
 8415SOL    HW126144   0.405   4.941   3.626
 8415SOL    HW226145   0.371   5.067   3.724
 8416SOL     OW26146   4.630   4.714   3.265
 8416SOL    HW126147   4.619   4.746   3.359
 8416SOL    HW226148   4.549   4.661   3.239
 8417SOL     OW26149   1.514   6.021   5.204
 8417SOL    HW126150   1.558   5.956   5.143
 8417SOL    HW226151   1.425   6.047   5.166
 8418SOL     OW26152   5.565   4.996   1.768
 8418SOL    HW126153   5.595   5.013   1.862
 8418SOL    HW226154   5.480   4.943   1.768
 8419SOL     OW26155   4.256   0.536   1.891
 8419SOL    HW126156   4.337   0.585   1.858
 8419SOL    HW226157   4.285   0.451   1.936
 8420SOL     OW26158   3.994   6.496   1.091
 8420SOL    HW126159   3.908   6.481   1.042
 8420SOL    HW226160   4.015   6.594   1.092
 8421SOL     OW26161   3.221   6.492   1.334
 8421SOL    HW126162   3.298   6.512   1.274
 8421SOL    HW226163   3.245   6.517   1.428
 8422SOL     OW26164   4.884   6.105   1.259
 8422SOL    HW126165   4.785   6.095   1.246
 8422SOL    HW226166   4.931   6.084   1.174
 8423SOL     OW26167   4.193   4.049   6.599
 8423SOL    HW126168   4.291   4.070   6.593
 8423SOL    HW226169   4.174   3.965   6.548
 8424SOL     OW26170   2.667   2.425   2.805
 8424SOL    HW126171   2.709   2.360   2.868
 8424SOL    HW226172   2.729   2.444   2.729
 8425SOL     OW26173   6.700   5.509   1.080
 8425SOL    HW126174   6.720   5.478   0.987
 8425SOL    HW226175   6.715   5.608   1.087
 8426SOL     OW26176   3.896   3.033   4.170
 8426SOL    HW126177   3.886   3.033   4.269
 8426SOL    HW226178   3.979   3.082   4.144
 8427SOL     OW26179   1.373   4.118   5.642
 8427SOL    HW126180   1.406   4.177   5.715
 8427SOL    HW226181   1.405   4.152   5.554
 8428SOL     OW26182   6.658   4.712   1.958
 8428SOL    HW126183   6.679   4.627   2.006
 8428SOL    HW226184   6.647   4.694   1.861
 8429SOL     OW26185   2.088   4.539   4.363
 8429SOL    HW126186   2.169   4.525   4.420
 8429SOL    HW226187   2.104   4.498   4.272
 8430SOL     OW26188   3.851   5.117   3.086
 8430SOL    HW126189   3.902   5.031   3.081
 8430SOL    HW226190   3.831   5.138   3.181
 8431SOL     OW26191   2.301   5.005   0.967
 8431SOL    HW126192   2.399   4.994   0.983
 8431SOL    HW226193   2.287   5.075   0.897
 8432SOL     OW26194   4.752   5.191   6.119
 8432SOL    HW126195   4.796   5.146   6.041
 8432SOL    HW226196   4.671   5.241   6.088
 8433SOL     OW26197   0.050   2.395   6.584
 8433SOL    HW126198   0.131   2.444   6.615
 8433SOL    HW226199   0.031   2.418   6.489
 8434SOL     OW26200   2.892   0.203   4.889
 8434SOL    HW126201   2.956   0.217   4.964
 8434SOL    HW226202   2.829   0.281   4.883
 8435SOL     OW26203   5.034   1.701   1.244
 8435SOL    HW126204   4.949   1.651   1.226
 8435SOL    HW226205   5.112   1.644   1.217
 8436SOL     OW26206   3.919   6.851   3.855
 8436SOL    HW126207   3.836   6.895   3.822
 8436SOL    HW226208   3.902   6.754   3.870
 8437SOL     OW26209   1.809   6.802   2.294
 8437SOL    HW126210   1.824   6.753   2.208
 8437SOL    HW226211   1.740   6.754   2.349
 8438SOL     OW26212   3.118   4.887   2.334
 8438SOL    HW126213   3.064   4.842   2.406
 8438SOL    HW226214   3.105   4.839   2.247
 8439SOL     OW26215   6.792   5.765   1.963
 8439SOL    HW126216   6.736   5.803   2.037
 8439SOL    HW226217   6.863   5.831   1.939
 8440SOL     OW26218   0.442   0.660   2.657
 8440SOL    HW126219   0.498   0.609   2.722
 8440SOL    HW226220   0.378   0.597   2.612
 8441SOL     OW26221   6.429   6.048   0.445
 8441SOL    HW126222   6.511   6.062   0.389
 8441SOL    HW226223   6.432   5.957   0.486
 8442SOL     OW26224   3.740   3.237   6.107
 8442SOL    HW126225   3.689   3.299   6.046
 8442SOL    HW226226   3.728   3.143   6.075
 8443SOL     OW26227   1.475   6.886   3.140
 8443SOL    HW126228   1.530   6.818   3.093
 8443SOL    HW226229   1.381   6.852   3.150
 8444SOL     OW26230   3.251   6.424   3.642
 8444SOL    HW126231   3.311   6.350   3.668
 8444SOL    HW226232   3.262   6.444   3.544
 8445SOL     OW26233   3.336   5.013   2.049
 8445SOL    HW126234   3.367   4.977   2.137
 8445SOL    HW226235   3.250   5.062   2.062
 8446SOL     OW26236   4.679   5.431   1.576
 8446SOL    HW126237   4.592   5.455   1.621
 8446SOL    HW226238   4.693   5.490   1.497
 8447SOL     OW26239   5.662   2.235   1.993
 8447SOL    HW126240   5.612   2.180   2.059
 8447SOL    HW226241   5.707   2.312   2.040
 8448SOL     OW26242   6.719   3.507   5.060
 8448SOL    HW126243   6.762   3.469   5.142
 8448SOL    HW226244   6.672   3.592   5.083
 8449SOL     OW26245   0.087   2.805   4.295
 8449SOL    HW126246   7.009   2.831   4.314
 8449SOL    HW226247   0.095   2.775   4.200
 8450SOL     OW26248   2.022   5.875   2.039
 8450SOL    HW126249   1.948   5.939   2.016
 8450SOL    HW226250   2.100   5.892   1.979
 8451SOL     OW26251   4.168   2.883   0.159
 8451SOL    HW126252   4.186   2.913   0.066
 8451SOL    HW226253   4.246   2.904   0.217
 8452SOL     OW26254   0.250   0.278   1.433
 8452SOL    HW126255   0.171   0.261   1.374
 8452SOL    HW226256   0.222   0.334   1.511
 8453SOL     OW26257   6.199   4.518   6.032
 8453SOL    HW126258   6.276   4.527   5.968
 8453SOL    HW226259   6.216   4.576   6.112
 8454SOL     OW26260   1.335   5.600   1.583
 8454SOL    HW126261   1.292   5.516   1.617
 8454SOL    HW226262   1.264   5.668   1.564
 8455SOL     OW26263   4.978   2.229   0.550
 8455SOL    HW126264   5.072   2.195   0.551
 8455SOL    HW226265   4.937   2.210   0.461
 8456SOL     OW26266   5.402   4.740   3.314
 8456SOL    HW126267   5.420   4.684   3.233
 8456SOL    HW226268   5.412   4.836   3.291
 8457SOL     OW26269   6.483   6.409   5.788
 8457SOL    HW126270   6.470   6.312   5.808
 8457SOL    HW226271   6.523   6.455   5.868
 8458SOL     OW26272   2.064   0.962   6.736
 8458SOL    HW126273   2.127   1.006   6.672
 8458SOL    HW226274   1.970   0.979   6.707
 8459SOL     OW26275   3.078   6.731   0.987
 8459SOL    HW126276   3.013   6.665   1.024
 8459SOL    HW226277   3.144   6.683   0.929
 8460SOL     OW26278   4.658   2.475   5.692
 8460SOL    HW126279   4.631   2.465   5.788
 8460SOL    HW226280   4.713   2.558   5.682
 8461SOL     OW26281   1.142   3.802   2.249
 8461SOL    HW126282   1.076   3.877   2.242
 8461SOL    HW226283   1.183   3.802   2.341
 8462SOL     OW26284   3.127   2.569   0.545
 8462SOL    HW126285   3.207   2.511   0.556
 8462SOL    HW226286   3.127   2.608   0.452
 8463SOL     OW26287   6.929   1.541   0.442
 8463SOL    HW126288   6.863   1.608   0.475
 8463SOL    HW226289   6.886   1.484   0.371
 8464SOL     OW26290   6.885   4.454   5.200
 8464SOL    HW126291   6.930   4.528   5.150
 8464SOL    HW226292   6.830   4.399   5.137
 8465SOL     OW26293   3.262   2.325   0.521
 8465SOL    HW126294   3.239   2.313   0.424
 8465SOL    HW226295   3.357   2.300   0.536
 8466SOL     OW26296   6.022   6.933   5.034
 8466SOL    HW126297   6.058   6.840   5.040
 8466SOL    HW226298   6.010   6.959   4.938
 8467SOL     OW26299   4.120   1.011   1.237
 8467SOL    HW126300   4.162   1.061   1.313
 8467SOL    HW226301   4.023   0.997   1.257
 8468SOL     OW26302   5.837   3.386   0.108
 8468SOL    HW126303   5.881   3.366   0.021
 8468SOL    HW226304   5.761   3.450   0.095
 8469SOL     OW26305   2.913   1.925   5.347
 8469SOL    HW126306   2.945   1.944   5.439
 8469SOL    HW226307   2.829   1.978   5.329
 8470SOL     OW26308   1.224   4.813   0.187
 8470SOL    HW126309   1.299   4.873   0.159
 8470SOL    HW226310   1.260   4.722   0.208
 8471SOL     OW26311   4.091   0.181   5.380
 8471SOL    HW126312   4.184   0.147   5.372
 8471SOL    HW226313   4.052   0.151   5.468
 8472SOL     OW26314   5.543   1.200   5.406
 8472SOL    HW126315   5.643   1.198   5.406
 8472SOL    HW226316   5.510   1.174   5.315
 8473SOL     OW26317   5.474   5.487   0.438
 8473SOL    HW126318   5.395   5.548   0.444
 8473SOL    HW226319   5.518   5.498   0.349
 8474SOL     OW26320   3.469   4.139   2.319
 8474SOL    HW126321   3.518   4.211   2.271
 8474SOL    HW226322   3.399   4.100   2.259
 8475SOL     OW26323   6.605   2.694   2.508
 8475SOL    HW126324   6.574   2.684   2.413
 8475SOL    HW226325   6.683   2.634   2.525
 8476SOL     OW26326   6.699   1.935   1.626
 8476SOL    HW126327   6.702   2.033   1.605
 8476SOL    HW226328   6.710   1.883   1.542
 8477SOL     OW26329   4.174   6.524   2.843
 8477SOL    HW126330   4.160   6.446   2.904
 8477SOL    HW226331   4.200   6.491   2.752
 8478SOL     OW26332   0.679   0.852   5.523
 8478SOL    HW126333   0.658   0.784   5.454
 8478SOL    HW226334   0.677   0.943   5.482
 8479SOL     OW26335   1.254   3.167   1.420
 8479SOL    HW126336   1.266   3.207   1.510
 8479SOL    HW226337   1.170   3.203   1.378
 8480SOL     OW26338   5.401   3.828   6.752
 8480SOL    HW126339   5.380   3.916   6.709
 8480SOL    HW226340   5.416   3.842   6.850
 8481SOL     OW26341   5.095   2.305   5.007
 8481SOL    HW126342   5.065   2.217   4.971
 8481SOL    HW226343   5.024   2.342   5.067
 8482SOL     OW26344   5.160   0.214   2.076
 8482SOL    HW126345   5.208   0.280   2.134
 8482SOL    HW226346   5.095   0.163   2.131
 8483SOL     OW26347   2.794   5.662   3.263
 8483SOL    HW126348   2.771   5.745   3.313
 8483SOL    HW226349   2.753   5.665   3.172
 8484SOL     OW26350   6.805   6.219   4.683
 8484SOL    HW126351   6.812   6.136   4.739
 8484SOL    HW226352   6.887   6.275   4.696
 8485SOL     OW26353   3.884   2.588   0.465
 8485SOL    HW126354   3.963   2.638   0.430
 8485SOL    HW226355   3.802   2.644   0.458
 8486SOL     OW26356   1.993   0.692   2.897
 8486SOL    HW126357   1.926   0.679   2.970
 8486SOL    HW226358   1.973   0.627   2.823
 8487SOL     OW26359   5.491   2.150   6.404
 8487SOL    HW126360   5.553   2.087   6.358
 8487SOL    HW226361   5.543   2.210   6.465
 8488SOL     OW26362   5.234   6.091   2.822
 8488SOL    HW126363   5.238   6.141   2.735
 8488SOL    HW226364   5.173   6.138   2.885
 8489SOL     OW26365   6.408   0.851   1.524
 8489SOL    HW126366   6.394   0.949   1.539
 8489SOL    HW226367   6.497   0.823   1.561
 8490SOL     OW26368   3.089   6.654   5.851
 8490SOL    HW126369   3.064   6.557   5.850
 8490SOL    HW226370   3.048   6.698   5.931
 8491SOL     OW26371   1.811   6.102   2.332
 8491SOL    HW126372   1.732   6.162   2.335
 8491SOL    HW226373   1.893   6.156   2.313
 8492SOL     OW26374   5.871   5.147   4.132
 8492SOL    HW126375   5.783   5.172   4.173
 8492SOL    HW226376   5.882   5.047   4.137
 8493SOL     OW26377   1.701   1.960   6.836
 8493SOL    HW126378   1.685   1.888   6.903
 8493SOL    HW226379   1.695   1.922   6.744
 8494SOL     OW26380   4.011   5.155   2.332
 8494SOL    HW126381   3.934   5.190   2.280
 8494SOL    HW226382   4.062   5.232   2.372
 8495SOL     OW26383   0.060   5.294   0.461
 8495SOL    HW126384   0.071   5.198   0.435
 8495SOL    HW226385   0.144   5.327   0.503
 8496SOL     OW26386   6.620   1.275   2.833
 8496SOL    HW126387   6.580   1.341   2.897
 8496SOL    HW226388   6.547   1.237   2.775
 8497SOL     OW26389   0.383   0.985   3.081
 8497SOL    HW126390   0.307   0.949   3.027
 8497SOL    HW226391   0.421   0.912   3.138
 8498SOL     OW26392   6.769   6.438   3.305
 8498SOL    HW126393   6.707   6.514   3.289
 8498SOL    HW226394   6.732   6.378   3.376
 8499SOL     OW26395   0.874   4.164   6.967
 8499SOL    HW126396   0.899   4.117   0.034
 8499SOL    HW226397   0.839   4.098   6.901
 8500SOL     OW26398   1.361   6.625   5.587
 8500SOL    HW126399   1.384   6.617   5.490
 8500SOL    HW226400   1.434   6.673   5.635
 8501SOL     OW26401   0.626   2.575   6.611
 8501SOL    HW126402   0.642   2.485   6.651
 8501SOL    HW226403   0.691   2.591   6.536
 8502SOL     OW26404   0.301   3.206   1.514
 8502SOL    HW126405   0.350   3.178   1.597
 8502SOL    HW226406   0.283   3.126   1.458
 8503SOL     OW26407   0.189   5.706   5.352
 8503SOL    HW126408   0.220   5.623   5.399
 8503SOL    HW226409   0.268   5.761   5.326
 8504SOL     OW26410   1.438   5.661   2.106
 8504SOL    HW126411   1.474   5.600   2.176
 8504SOL    HW226412   1.506   5.731   2.084
 8505SOL     OW26413   6.134   3.552   2.806
 8505SOL    HW126414   6.034   3.555   2.797
 8505SOL    HW226415   6.159   3.550   2.902
 8506SOL     OW26416   1.659   0.404   6.643
 8506SOL    HW126417   1.581   0.432   6.698
 8506SOL    HW226418   1.684   0.477   6.579
 8507SOL     OW26419   3.848   6.636   4.962
 8507SOL    HW126420   3.924   6.574   4.983
 8507SOL    HW226421   3.882   6.730   4.956
 8508SOL     OW26422   4.252   1.651   5.310
 8508SOL    HW126423   4.211   1.560   5.297
 8508SOL    HW226424   4.256   1.699   5.223
 8509SOL     OW26425   5.604   0.058   3.218
 8509SOL    HW126426   5.511   0.028   3.236
 8509SOL    HW226427   5.668   0.010   3.279
 8510SOL     OW26428   5.322   3.943   2.707
 8510SOL    HW126429   5.386   3.985   2.643
 8510SOL    HW226430   5.299   3.850   2.676
 8511SOL     OW26431   6.325   2.889   2.522
 8511SOL    HW126432   6.392   2.817   2.503
 8511SOL    HW226433   6.260   2.895   2.446
 8512SOL     OW26434   2.689   6.751   2.609
 8512SOL    HW126435   2.657   6.844   2.631
 8512SOL    HW226436   2.761   6.725   2.673
 8513SOL     OW26437   0.029   5.581   0.996
 8513SOL    HW126438   0.036   5.489   0.959
 8513SOL    HW226439   0.034   5.578   1.096
 8514SOL     OW26440   2.675   0.679   3.364
 8514SOL    HW126441   2.761   0.639   3.394
 8514SOL    HW226442   2.613   0.607   3.333
 8515SOL     OW26443   4.683   2.370   0.963
 8515SOL    HW126444   4.666   2.356   0.865
 8515SOL    HW226445   4.599   2.352   1.015
 8516SOL     OW26446   0.211   2.029   2.400
 8516SOL    HW126447   0.255   2.098   2.343
 8516SOL    HW226448   0.128   2.066   2.441
 8517SOL     OW26449   0.781   2.360   5.518
 8517SOL    HW126450   0.795   2.271   5.474
 8517SOL    HW226451   0.683   2.374   5.533
 8518SOL     OW26452   4.265   4.475   0.206
 8518SOL    HW126453   4.196   4.434   0.265
 8518SOL    HW226454   4.222   4.507   0.122
 8519SOL     OW26455   2.047   5.598   2.039
 8519SOL    HW126456   2.146   5.580   2.034
 8519SOL    HW226457   2.031   5.697   2.033
 8520SOL     OW26458   4.033   1.575   0.531
 8520SOL    HW126459   4.065   1.480   0.531
 8520SOL    HW226460   3.934   1.576   0.516
 8521SOL     OW26461   2.027   5.815   5.536
 8521SOL    HW126462   1.963   5.739   5.525
 8521SOL    HW226463   2.116   5.779   5.567
 8522SOL     OW26464   1.316   5.441   2.290
 8522SOL    HW126465   1.372   5.362   2.316
 8522SOL    HW226466   1.360   5.525   2.322
 8523SOL     OW26467   2.936   6.979   6.569
 8523SOL    HW126468   2.852   6.950   6.613
 8523SOL    HW226469   2.929   0.059   6.545
 8524SOL     OW26470   1.321   2.947   4.466
 8524SOL    HW126471   1.281   3.030   4.426
 8524SOL    HW226472   1.420   2.959   4.476
 8525SOL     OW26473   6.429   3.955   3.289
 8525SOL    HW126474   6.418   4.047   3.327
 8525SOL    HW226475   6.489   3.901   3.348
 8526SOL     OW26476   2.628   3.779   1.702
 8526SOL    HW126477   2.677   3.862   1.675
 8526SOL    HW226478   2.532   3.787   1.675
 8527SOL     OW26479   3.976   6.883   4.906
 8527SOL    HW126480   3.970   6.983   4.906
 8527SOL    HW226481   4.059   6.855   4.955
 8528SOL     OW26482   5.537   3.264   5.850
 8528SOL    HW126483   5.635   3.257   5.871
 8528SOL    HW226484   5.502   3.174   5.827
 8529SOL     OW26485   1.053   0.128   6.913
 8529SOL    HW126486   1.144   0.154   6.948
 8529SOL    HW226487   1.006   0.073   6.982
 8530SOL     OW26488   1.063   5.363   5.851
 8530SOL    HW126489   1.053   5.315   5.939
 8530SOL    HW226490   1.160   5.381   5.835
 8531SOL     OW26491   5.714   4.262   3.280
 8531SOL    HW126492   5.615   4.276   3.275
 8531SOL    HW226493   5.755   4.334   3.335
 8532SOL     OW26494   4.341   4.784   5.002
 8532SOL    HW126495   4.301   4.829   5.082
 8532SOL    HW226496   4.347   4.685   5.019
 8533SOL     OW26497   1.860   0.727   5.051
 8533SOL    HW126498   1.858   0.809   4.993
 8533SOL    HW226499   1.936   0.734   5.116
 8534SOL     OW26500   0.197   4.747   2.671
 8534SOL    HW126501   0.142   4.727   2.590
 8534SOL    HW226502   0.190   4.844   2.694
 8535SOL     OW26503   1.003   2.209   4.873
 8535SOL    HW126504   1.031   2.212   4.968
 8535SOL    HW226505   1.040   2.288   4.824
 8536SOL     OW26506   6.129   2.525   5.064
 8536SOL    HW126507   6.212   2.581   5.059
 8536SOL    HW226508   6.062   2.557   4.997
 8537SOL     OW26509   6.471   1.404   0.728
 8537SOL    HW126510   6.477   1.367   0.821
 8537SOL    HW226511   6.448   1.501   0.732
 8538SOL     OW26512   0.905   0.944   4.917
 8538SOL    HW126513   0.867   0.906   4.833
 8538SOL    HW226514   1.004   0.952   4.908
 8539SOL     OW26515   6.238   1.949   2.734
 8539SOL    HW126516   6.304   1.912   2.800
 8539SOL    HW226517   6.157   1.982   2.783
 8540SOL     OW26518   3.889   1.890   0.650
 8540SOL    HW126519   3.805   1.862   0.697
 8540SOL    HW226520   3.869   1.963   0.585
 8541SOL     OW26521   2.566   1.655   5.472
 8541SOL    HW126522   2.596   1.686   5.382
 8541SOL    HW226523   2.645   1.648   5.533
 8542SOL     OW26524   3.346   4.616   6.666
 8542SOL    HW126525   3.325   4.548   6.736
 8542SOL    HW226526   3.308   4.586   6.578
 8543SOL     OW26527   2.768   1.701   5.254
 8543SOL    HW126528   2.809   1.761   5.323
 8543SOL    HW226529   2.829   1.696   5.175
 8544SOL     OW26530   5.197   2.971   5.352
 8544SOL    HW126531   5.143   3.015   5.424
 8544SOL    HW226532   5.193   3.025   5.269
 8545SOL     OW26533   3.131   6.495   4.634
 8545SOL    HW126534   3.211   6.544   4.666
 8545SOL    HW226535   3.087   6.547   4.560
 8546SOL     OW26536   5.462   0.471   1.245
 8546SOL    HW126537   5.366   0.486   1.224
 8546SOL    HW226538   5.492   0.384   1.206
 8547SOL     OW26539   6.753   0.730   5.321
 8547SOL    HW126540   6.704   0.726   5.234
 8547SOL    HW226541   6.791   0.640   5.341
 8548SOL     OW26542   0.799   2.842   5.250
 8548SOL    HW126543   0.765   2.899   5.325
 8548SOL    HW226544   0.865   2.776   5.285
 8549SOL     OW26545   0.969   2.198   4.150
 8549SOL    HW126546   1.023   2.273   4.111
 8549SOL    HW226547   0.970   2.204   4.249
 8550SOL     OW26548   0.858   3.609   6.050
 8550SOL    HW126549   0.899   3.674   5.986
 8550SOL    HW226550   0.931   3.563   6.101
 8551SOL     OW26551   2.303   2.494   6.783
 8551SOL    HW126552   2.314   2.591   6.801
 8551SOL    HW226553   2.370   2.442   6.836
 8552SOL     OW26554   3.115   0.538   2.061
 8552SOL    HW126555   3.197   0.547   2.005
 8552SOL    HW226556   3.044   0.492   2.009
 8553SOL     OW26557   4.161   4.268   0.378
 8553SOL    HW126558   4.102   4.231   0.450
 8553SOL    HW226559   4.230   4.327   0.420
 8554SOL     OW26560   1.021   6.060   1.367
 8554SOL    HW126561   0.983   6.046   1.458
 8554SOL    HW226562   1.121   6.056   1.371
 8555SOL     OW26563   4.292   1.808   3.253
 8555SOL    HW126564   4.366   1.786   3.317
 8555SOL    HW226565   4.261   1.902   3.268
 8556SOL     OW26566   1.689   6.183   5.541
 8556SOL    HW126567   1.789   6.187   5.543
 8556SOL    HW226568   1.658   6.167   5.447
 8557SOL     OW26569   6.621   1.085   0.927
 8557SOL    HW126570   6.703   1.141   0.915
 8557SOL    HW226571   6.637   1.015   0.997
 8558SOL     OW26572   2.247   4.748   2.812
 8558SOL    HW126573   2.274   4.696   2.893
 8558SOL    HW226574   2.197   4.688   2.749
 8559SOL     OW26575   1.013   6.726   2.796
 8559SOL    HW126576   0.949   6.801   2.782
 8559SOL    HW226577   1.103   6.752   2.761
 8560SOL     OW26578   1.612   5.587   1.577
 8560SOL    HW126579   1.512   5.592   1.582
 8560SOL    HW226580   1.649   5.587   1.670
 8561SOL     OW26581   4.264   0.120   3.390
 8561SOL    HW126582   4.338   0.169   3.344
 8561SOL    HW226583   4.220   0.059   3.324
 8562SOL     OW26584   4.286   0.362   6.841
 8562SOL    HW126585   4.236   0.424   6.781
 8562SOL    HW226586   4.228   0.333   6.917
 8563SOL     OW26587   1.019   5.654   2.010
 8563SOL    HW126588   0.972   5.690   1.930
 8563SOL    HW226589   0.966   5.674   2.092
 8564SOL     OW26590   3.477   6.006   6.427
 8564SOL    HW126591   3.517   6.036   6.341
 8564SOL    HW226592   3.478   5.906   6.431
 8565SOL     OW26593   3.780   5.109   1.660
 8565SOL    HW126594   3.798   5.012   1.639
 8565SOL    HW226595   3.682   5.127   1.652
 8566SOL     OW26596   2.505   0.766   2.246
 8566SOL    HW126597   2.480   0.704   2.171
 8566SOL    HW226598   2.478   0.725   2.333
 8567SOL     OW26599   1.823   1.905   1.806
 8567SOL    HW126600   1.755   1.913   1.879
 8567SOL    HW226601   1.901   1.964   1.828
 8568SOL     OW26602   6.504   1.005   0.398
 8568SOL    HW126603   6.521   0.982   0.494
 8568SOL    HW226604   6.486   0.921   0.346
 8569SOL     OW26605   5.022   1.880   5.739
 8569SOL    HW126606   5.001   1.950   5.671
 8569SOL    HW226607   4.937   1.846   5.779
 8570SOL     OW26608   1.991   1.727   4.086
 8570SOL    HW126609   2.076   1.739   4.035
 8570SOL    HW226610   1.991   1.788   4.165
 8571SOL     OW26611   1.242   0.739   4.564
 8571SOL    HW126612   1.236   0.776   4.657
 8571SOL    HW226613   1.167   0.777   4.509
 8572SOL     OW26614   1.810   4.139   5.885
 8572SOL    HW126615   1.711   4.153   5.880
 8572SOL    HW226616   1.831   4.075   5.959
 8573SOL     OW26617   2.843   6.312   6.927
 8573SOL    HW126618   2.819   6.404   6.895
 8573SOL    HW226619   2.868   6.255   6.849
 8574SOL     OW26620   6.346   6.843   5.912
 8574SOL    HW126621   6.333   6.794   5.826
 8574SOL    HW226622   6.346   6.942   5.895
 8575SOL     OW26623   3.870   0.708   2.467
 8575SOL    HW126624   3.796   0.668   2.413
 8575SOL    HW226625   3.864   0.808   2.461
 8576SOL     OW26626   1.975   4.793   4.281
 8576SOL    HW126627   1.881   4.828   4.287
 8576SOL    HW226628   1.977   4.699   4.315
 8577SOL     OW26629   1.535   0.974   5.770
 8577SOL    HW126630   1.443   1.014   5.773
 8577SOL    HW226631   1.535   0.887   5.819
 8578SOL     OW26632   5.875   5.524   5.895
 8578SOL    HW126633   5.919   5.609   5.865
 8578SOL    HW226634   5.882   5.455   5.824
 8579SOL     OW26635   1.557   6.083   1.903
 8579SOL    HW126636   1.492   6.141   1.952
 8579SOL    HW226637   1.507   6.016   1.848
 8580SOL     OW26638   1.607   6.355   0.699
 8580SOL    HW126639   1.624   6.261   0.668
 8580SOL    HW226640   1.569   6.408   0.623
 8581SOL     OW26641   3.930   4.873   1.630
 8581SOL    HW126642   3.992   4.892   1.554
 8581SOL    HW226643   3.917   4.774   1.639
 8582SOL     OW26644   4.965   4.524   5.397
 8582SOL    HW126645   4.884   4.542   5.453
 8582SOL    HW226646   5.017   4.449   5.437
 8583SOL     OW26647   3.527   6.698   2.852
 8583SOL    HW126648   3.623   6.694   2.825
 8583SOL    HW226649   3.486   6.607   2.845
 8584SOL     OW26650   0.125   0.426   5.429
 8584SOL    HW126651   0.095   0.346   5.482
 8584SOL    HW226652   0.221   0.416   5.405
 8585SOL     OW26653   6.082   1.390   0.564
 8585SOL    HW126654   6.115   1.477   0.525
 8585SOL    HW226655   6.142   1.316   0.536
 8586SOL     OW26656   4.681   6.776   1.521
 8586SOL    HW126657   4.717   6.784   1.614
 8586SOL    HW226658   4.728   6.703   1.473
 8587SOL     OW26659   1.027   1.605   4.956
 8587SOL    HW126660   1.110   1.568   4.996
 8587SOL    HW226661   1.047   1.646   4.867
 8588SOL     OW26662   4.502   1.184   0.097
 8588SOL    HW126663   4.546   1.262   0.054
 8588SOL    HW226664   4.405   1.181   0.071
 8589SOL     OW26665   6.592   2.919   5.226
 8589SOL    HW126666   6.645   2.992   5.181
 8589SOL    HW226667   6.631   2.830   5.202
 8590SOL     OW26668   0.364   0.298   2.400
 8590SOL    HW126669   0.368   0.333   2.306
 8590SOL    HW226670   0.363   0.198   2.398
 8591SOL     OW26671   6.891   4.536   0.297
 8591SOL    HW126672   6.853   4.543   0.205
 8591SOL    HW226673   6.875   4.445   0.334
 8592SOL     OW26674   0.304   2.983   0.505
 8592SOL    HW126675   0.279   3.079   0.515
 8592SOL    HW226676   0.230   2.934   0.458
 8593SOL     OW26677   3.496   0.910   6.699
 8593SOL    HW126678   3.432   0.840   6.670
 8593SOL    HW226679   3.515   0.972   6.623
 8594SOL     OW26680   6.357   2.780   6.014
 8594SOL    HW126681   6.311   2.714   5.954
 8594SOL    HW226682   6.296   2.857   6.033
 8595SOL     OW26683   6.481   0.831   3.834
 8595SOL    HW126684   6.465   0.752   3.893
 8595SOL    HW226685   6.453   0.914   3.882
 8596SOL     OW26686   1.315   4.294   2.737
 8596SOL    HW126687   1.286   4.381   2.697
 8596SOL    HW226688   1.239   4.252   2.786
 8597SOL     OW26689   5.720   2.090   0.793
 8597SOL    HW126690   5.761   1.999   0.799
 8597SOL    HW226691   5.740   2.140   0.877
 8598SOL     OW26692   5.405   0.330   5.648
 8598SOL    HW126693   5.405   0.292   5.740
 8598SOL    HW226694   5.462   0.412   5.645
 8599SOL     OW26695   1.262   2.452   4.400
 8599SOL    HW126696   1.351   2.492   4.422
 8599SOL    HW226697   1.220   2.505   4.326
 8600SOL     OW26698   5.275   3.691   0.477
 8600SOL    HW126699   5.298   3.655   0.387
 8600SOL    HW226700   5.344   3.661   0.543
 8601SOL     OW26701   6.834   1.653   3.835
 8601SOL    HW126702   6.871   1.707   3.910
 8601SOL    HW226703   6.766   1.708   3.785
 8602SOL     OW26704   2.386   6.387   3.167
 8602SOL    HW126705   2.363   6.290   3.178
 8602SOL    HW226706   2.384   6.411   3.070
 8603SOL     OW26707   5.207   0.348   6.742
 8603SOL    HW126708   5.161   0.265   6.710
 8603SOL    HW226709   5.289   0.364   6.687
 8604SOL     OW26710   1.014   2.781   6.140
 8604SOL    HW126711   0.963   2.833   6.208
 8604SOL    HW226712   1.111   2.782   6.164
 8605SOL     OW26713   0.765   4.636   3.766
 8605SOL    HW126714   0.754   4.731   3.735
 8605SOL    HW226715   0.849   4.628   3.820
 8606SOL     OW26716   2.941   1.720   0.128
 8606SOL    HW126717   2.848   1.717   0.090
 8606SOL    HW226718   2.953   1.644   0.192
 8607SOL     OW26719   2.731   4.527   6.659
 8607SOL    HW126720   2.787   4.459   6.708
 8607SOL    HW226721   2.723   4.609   6.715
 8608SOL     OW26722   2.106   5.266   1.778
 8608SOL    HW126723   2.119   5.253   1.679
 8608SOL    HW226724   2.173   5.332   1.812
 8609SOL     OW26725   4.956   0.618   4.152
 8609SOL    HW126726   4.956   0.656   4.060
 8609SOL    HW226727   4.933   0.691   4.218
 8610SOL     OW26728   0.100   0.232   3.494
 8610SOL    HW126729   0.123   0.324   3.462
 8610SOL    HW226730   0.039   0.188   3.428
 8611SOL     OW26731   3.306   1.097   4.031
 8611SOL    HW126732   3.368   1.163   4.073
 8611SOL    HW226733   3.340   1.070   3.941
 8612SOL     OW26734   2.907   3.669   1.542
 8612SOL    HW126735   2.929   3.710   1.630
 8612SOL    HW226736   2.912   3.569   1.550
 8613SOL     OW26737   3.027   2.577   1.700
 8613SOL    HW126738   2.994   2.512   1.769
 8613SOL    HW226739   3.080   2.649   1.745
 8614SOL     OW26740   1.535   2.524   3.623
 8614SOL    HW126741   1.491   2.476   3.699
 8614SOL    HW226742   1.499   2.617   3.617
 8615SOL     OW26743   4.473   1.918   5.009
 8615SOL    HW126744   4.499   1.939   5.103
 8615SOL    HW226745   4.528   1.973   4.946
 8616SOL     OW26746   2.544   4.680   1.935
 8616SOL    HW126747   2.626   4.716   1.979
 8616SOL    HW226748   2.570   4.603   1.876
 8617SOL     OW26749   5.604   1.105   4.022
 8617SOL    HW126750   5.636   1.129   4.113
 8617SOL    HW226751   5.623   1.180   3.959
 8618SOL     OW26752   6.373   4.555   0.907
 8618SOL    HW126753   6.276   4.582   0.901
 8618SOL    HW226754   6.417   4.609   0.979
 8619SOL     OW26755   4.031   5.195   3.824
 8619SOL    HW126756   4.017   5.208   3.922
 8619SOL    HW226757   4.087   5.113   3.809
 8620SOL     OW26758   2.058   0.108   4.609
 8620SOL    HW126759   2.008   0.072   4.688
 8620SOL    HW226760   1.999   0.105   4.528
 8621SOL     OW26761   4.892   3.044   2.245
 8621SOL    HW126762   4.812   3.024   2.302
 8621SOL    HW226763   4.865   3.050   2.149
 8622SOL     OW26764   5.751   4.839   1.643
 8622SOL    HW126765   5.683   4.885   1.700
 8622SOL    HW226766   5.734   4.740   1.645
 8623SOL     OW26767   1.150   3.798   4.858
 8623SOL    HW126768   1.176   3.851   4.939
 8623SOL    HW226769   1.231   3.763   4.813
 8624SOL     OW26770   3.908   3.487   5.762
 8624SOL    HW126771   3.991   3.513   5.811
 8624SOL    HW226772   3.893   3.550   5.686
 8625SOL     OW26773   4.363   1.027   5.935
 8625SOL    HW126774   4.327   0.935   5.951
 8625SOL    HW226775   4.428   1.025   5.859
 8626SOL     OW26776   3.616   3.224   6.355
 8626SOL    HW126777   3.539   3.160   6.351
 8626SOL    HW226778   3.664   3.222   6.268
 8627SOL     OW26779   2.243   1.347   2.506
 8627SOL    HW126780   2.325   1.328   2.560
 8627SOL    HW226781   2.269   1.361   2.410
 8628SOL     OW26782   6.345   6.685   0.018
 8628SOL    HW126783   6.355   6.729   6.946
 8628SOL    HW226784   6.378   6.746   0.090
 8629SOL     OW26785   1.331   6.269   5.405
 8629SOL    HW126786   1.309   6.193   5.343
 8629SOL    HW226787   1.299   6.246   5.498
 8630SOL     OW26788   4.790   4.045   4.318
 8630SOL    HW126789   4.796   4.056   4.219
 8630SOL    HW226790   4.765   4.133   4.359
 8631SOL     OW26791   1.668   6.195   6.123
 8631SOL    HW126792   1.586   6.213   6.177
 8631SOL    HW226793   1.657   6.234   6.031
 8632SOL     OW26794   4.050   4.024   5.216
 8632SOL    HW126795   4.126   4.064   5.267
 8632SOL    HW226796   3.974   4.089   5.214
 8633SOL     OW26797   5.901   3.589   5.583
 8633SOL    HW126798   5.902   3.673   5.528
 8633SOL    HW226799   5.995   3.556   5.595
 8634SOL     OW26800   4.932   4.491   0.171
 8634SOL    HW126801   4.961   4.441   0.253
 8634SOL    HW226802   4.846   4.537   0.190
 8635SOL     OW26803   5.777   2.700   6.854
 8635SOL    HW126804   5.777   2.740   6.946
 8635SOL    HW226805   5.868   2.663   6.834
 8636SOL     OW26806   4.723   5.848   0.954
 8636SOL    HW126807   4.662   5.770   0.966
 8636SOL    HW226808   4.686   5.927   1.003
 8637SOL     OW26809   2.156   1.501   6.206
 8637SOL    HW126810   2.069   1.452   6.207
 8637SOL    HW226811   2.200   1.488   6.118
 8638SOL     OW26812   3.873   2.512   5.297
 8638SOL    HW126813   3.950   2.557   5.251
 8638SOL    HW226814   3.884   2.412   5.290
 8639SOL     OW26815   4.166   3.428   0.036
 8639SOL    HW126816   4.145   3.458   0.129
 8639SOL    HW226817   4.087   3.445   6.993
 8640SOL     OW26818   4.308   2.924   0.964
 8640SOL    HW126819   4.219   2.878   0.960
 8640SOL    HW226820   4.346   2.917   1.056
 8641SOL     OW26821   3.930   4.951   4.330
 8641SOL    HW126822   3.837   4.947   4.293
 8641SOL    HW226823   3.948   5.045   4.361
 8642SOL     OW26824   0.586   6.904   3.353
 8642SOL    HW126825   0.640   6.896   3.437
 8642SOL    HW226826   0.615   6.835   3.288
 8643SOL     OW26827   2.296   0.465   0.183
 8643SOL    HW126828   2.215   0.462   0.125
 8643SOL    HW226829   2.274   0.507   0.271
 8644SOL     OW26830   6.189   2.987   6.112
 8644SOL    HW126831   6.161   3.061   6.172
 8644SOL    HW226832   6.113   2.961   6.052
 8645SOL     OW26833   4.402   4.815   1.618
 8645SOL    HW126834   4.493   4.778   1.599
 8645SOL    HW226835   4.392   4.904   1.574
 8646SOL     OW26836   0.427   2.023   0.369
 8646SOL    HW126837   0.457   1.974   0.451
 8646SOL    HW226838   0.451   1.969   0.288
 8647SOL     OW26839   2.711   5.042   0.483
 8647SOL    HW126840   2.706   5.112   0.411
 8647SOL    HW226841   2.641   5.060   0.552
 8648SOL     OW26842   6.151   6.226   1.033
 8648SOL    HW126843   6.226   6.255   0.973
 8648SOL    HW226844   6.092   6.163   0.984
 8649SOL     OW26845   5.546   6.384   0.196
 8649SOL    HW126846   5.509   6.476   0.192
 8649SOL    HW226847   5.533   6.339   0.107
 8650SOL     OW26848   1.716   6.600   4.601
 8650SOL    HW126849   1.668   6.513   4.608
 8650SOL    HW226850   1.680   6.664   4.669
 8651SOL     OW26851   3.471   1.666   0.655
 8651SOL    HW126852   3.433   1.651   0.746
 8651SOL    HW226853   3.431   1.749   0.616
 8652SOL     OW26854   1.032   4.906   3.668
 8652SOL    HW126855   1.069   4.934   3.756
 8652SOL    HW226856   1.083   4.828   3.633
 8653SOL     OW26857   6.615   1.498   5.828
 8653SOL    HW126858   6.543   1.510   5.760
 8653SOL    HW226859   6.703   1.524   5.788
 8654SOL     OW26860   0.295   5.066   0.598
 8654SOL    HW126861   0.208   5.060   0.647
 8654SOL    HW226862   0.370   5.064   0.663
 8655SOL     OW26863   5.623   0.898   5.269
 8655SOL    HW126864   5.702   0.923   5.324
 8655SOL    HW226865   5.588   0.978   5.220
 8656SOL     OW26866   5.513   0.742   1.846
 8656SOL    HW126867   5.543   0.651   1.874
 8656SOL    HW226868   5.566   0.771   1.766
 8657SOL     OW26869   5.630   5.786   0.322
 8657SOL    HW126870   5.597   5.727   0.249
 8657SOL    HW226871   5.727   5.769   0.338
 8658SOL     OW26872   6.468   5.793   0.961
 8658SOL    HW126873   6.406   5.871   0.951
 8658SOL    HW226874   6.424   5.723   1.018
 8659SOL     OW26875   4.466   2.419   2.783
 8659SOL    HW126876   4.520   2.475   2.720
 8659SOL    HW226877   4.381   2.391   2.739
 8660SOL     OW26878   0.344   2.492   2.462
 8660SOL    HW126879   0.430   2.512   2.509
 8660SOL    HW226880   0.281   2.447   2.526
 8661SOL     OW26881   5.807   4.145   1.816
 8661SOL    HW126882   5.809   4.174   1.720
 8661SOL    HW226883   5.841   4.219   1.873
 8662SOL     OW26884   4.086   6.051   2.228
 8662SOL    HW126885   4.102   5.981   2.158
 8662SOL    HW226886   4.003   6.029   2.280
 8663SOL     OW26887   2.765   5.149   2.304
 8663SOL    HW126888   2.741   5.097   2.387
 8663SOL    HW226889   2.797   5.086   2.234
 8664SOL     OW26890   2.385   5.310   2.093
 8664SOL    HW126891   2.392   5.400   2.135
 8664SOL    HW226892   2.311   5.258   2.136
 8665SOL     OW26893   6.101   5.565   4.339
 8665SOL    HW126894   6.006   5.596   4.350
 8665SOL    HW226895   6.130   5.518   4.423
 8666SOL     OW26896   5.205   0.507   4.677
 8666SOL    HW126897   5.208   0.573   4.603
 8666SOL    HW226898   5.298   0.491   4.711
 8667SOL     OW26899   4.907   1.682   4.258
 8667SOL    HW126900   4.960   1.763   4.232
 8667SOL    HW226901   4.962   1.600   4.243
 8668SOL     OW26902   5.231   3.009   4.898
 8668SOL    HW126903   5.304   3.058   4.947
 8668SOL    HW226904   5.150   3.068   4.892
 8669SOL     OW26905   0.354   6.585   6.074
 8669SOL    HW126906   0.311   6.550   5.990
 8669SOL    HW226907   0.438   6.534   6.092
 8670SOL     OW26908   4.768   5.288   5.765
 8670SOL    HW126909   4.798   5.312   5.673
 8670SOL    HW226910   4.730   5.369   5.810
 8671SOL     OW26911   0.529   1.606   2.284
 8671SOL    HW126912   0.522   1.639   2.378
 8671SOL    HW226913   0.586   1.523   2.282
 8672SOL     OW26914   0.913   0.126   3.557
 8672SOL    HW126915   0.832   0.167   3.599
 8672SOL    HW226916   0.992   0.140   3.616
 8673SOL     OW26917   6.412   1.282   0.038
 8673SOL    HW126918   6.381   1.215   6.986
 8673SOL    HW226919   6.457   1.235   0.113
 8674SOL     OW26920   6.769   5.016   2.590
 8674SOL    HW126921   6.718   4.968   2.662
 8674SOL    HW226922   6.720   5.008   2.503
 8675SOL     OW26923   4.520   1.133   5.293
 8675SOL    HW126924   4.428   1.160   5.320
 8675SOL    HW226925   4.583   1.209   5.310
 8676SOL     OW26926   5.197   0.486   1.258
 8676SOL    HW126927   5.124   0.539   1.300
 8676SOL    HW226928   5.191   0.391   1.289
 8677SOL     OW26929   1.613   6.119   5.788
 8677SOL    HW126930   1.614   6.215   5.817
 8677SOL    HW226931   1.669   6.109   5.706
 8678SOL     OW26932   0.790   6.856   0.597
 8678SOL    HW126933   0.837   6.876   0.683
 8678SOL    HW226934   0.712   6.917   0.587
 8679SOL     OW26935   2.012   1.199   3.628
 8679SOL    HW126936   2.035   1.293   3.655
 8679SOL    HW226937   2.062   1.175   3.544
 8680SOL     OW26938   6.203   2.785   6.615
 8680SOL    HW126939   6.139   2.853   6.579
 8680SOL    HW226940   6.152   2.711   6.659
 8681SOL     OW26941   4.676   5.156   1.571
 8681SOL    HW126942   4.750   5.111   1.621
 8681SOL    HW226943   4.693   5.254   1.569
 8682SOL     OW26944   6.612   0.574   1.232
 8682SOL    HW126945   6.672   0.514   1.179
 8682SOL    HW226946   6.517   0.561   1.204
 8683SOL     OW26947   1.666   2.851   4.802
 8683SOL    HW126948   1.566   2.850   4.803
 8683SOL    HW226949   1.698   2.945   4.791
 8684SOL     OW26950   6.849   3.178   4.749
 8684SOL    HW126951   6.803   3.227   4.675
 8684SOL    HW226952   6.910   3.110   4.711
 8685SOL     OW26953   5.434   3.276   6.637
 8685SOL    HW126954   5.378   3.210   6.586
 8685SOL    HW226955   5.521   3.234   6.662
 8686SOL     OW26956   5.880   6.779   2.267
 8686SOL    HW126957   5.840   6.869   2.246
 8686SOL    HW226958   5.962   6.765   2.212
 8687SOL     OW26959   5.872   4.997   3.145
 8687SOL    HW126960   5.832   5.016   3.055
 8687SOL    HW226961   5.880   5.083   3.196
 8688SOL     OW26962   1.011   3.859   6.960
 8688SOL    HW126963   1.081   3.915   6.915
 8688SOL    HW226964   1.029   3.763   6.941
 8689SOL     OW26965   4.648   3.172   0.128
 8689SOL    HW126966   4.558   3.217   0.134
 8689SOL    HW226967   4.675   3.141   0.219
 8690SOL     OW26968   0.614   2.872   2.734
 8690SOL    HW126969   0.694   2.842   2.682
 8690SOL    HW226970   0.565   2.793   2.770
 8691SOL     OW26971   3.138   1.899   5.146
 8691SOL    HW126972   3.155   1.985   5.195
 8691SOL    HW226973   3.059   1.852   5.186
 8692SOL     OW26974   3.786   0.897   4.974
 8692SOL    HW126975   3.746   0.878   5.064
 8692SOL    HW226976   3.815   0.811   4.932
 8693SOL     OW26977   6.174   1.293   5.997
 8693SOL    HW126978   6.176   1.305   6.096
 8693SOL    HW226979   6.086   1.253   5.970
 8694SOL     OW26980   5.752   2.030   4.870
 8694SOL    HW126981   5.684   2.060   4.803
 8694SOL    HW226982   5.797   2.110   4.910
 8695SOL     OW26983   4.336   2.563   5.795
 8695SOL    HW126984   4.401   2.540   5.722
 8695SOL    HW226985   4.345   2.660   5.817
 8696SOL     OW26986   2.442   5.837   5.117
 8696SOL    HW126987   2.432   5.778   5.037
 8696SOL    HW226988   2.522   5.808   5.170
 8697SOL     OW26989   0.406   4.245   5.936
 8697SOL    HW126990   0.434   4.340   5.922
 8697SOL    HW226991   0.356   4.237   6.022
 8698SOL     OW26992   5.508   6.024   5.390
 8698SOL    HW126993   5.546   5.959   5.456
 8698SOL    HW226994   5.575   6.041   5.318
 8699SOL     OW26995   1.940   2.940   6.051
 8699SOL    HW126996   2.018   2.998   6.074
 8699SOL    HW226997   1.969   2.866   5.990
 8700SOL     OW26998   1.514   1.232   5.203
 8700SOL    HW126999   1.600   1.245   5.252
 8700SOL    HW227000   1.510   1.292   5.124
 8701SOL     OW27001   1.708   1.267   0.024
 8701SOL    HW127002   1.751   1.255   6.951
 8701SOL    HW227003   1.643   1.192   0.039
 8702SOL     OW27004   5.009   5.003   2.146
 8702SOL    HW127005   5.012   4.949   2.062
 8702SOL    HW227006   4.999   4.942   2.224
 8703SOL     OW27007   3.179   5.157   6.930
 8703SOL    HW127008   3.089   5.144   6.888
 8703SOL    HW227009   3.183   5.249   6.970
 8704SOL     OW27010   6.666   3.735   3.632
 8704SOL    HW127011   6.735   3.698   3.570
 8704SOL    HW227012   6.585   3.761   3.581
 8705SOL     OW27013   4.496   1.808   6.517
 8705SOL    HW127014   4.566   1.769   6.456
 8705SOL    HW227015   4.417   1.748   6.519
 8706SOL     OW27016   5.366   2.013   0.045
 8706SOL    HW127017   5.396   1.919   0.064
 8706SOL    HW227018   5.297   2.041   0.111
 8707SOL     OW27019   1.003   2.960   4.273
 8707SOL    HW127020   1.095   2.995   4.258
 8707SOL    HW227021   0.946   3.032   4.313
 8708SOL     OW27022   4.058   1.621   4.276
 8708SOL    HW127023   4.123   1.567   4.330
 8708SOL    HW227024   4.007   1.561   4.215
 8709SOL     OW27025   6.837   7.009   6.712
 8709SOL    HW127026   6.895   6.934   6.678
 8709SOL    HW227027   6.850   0.003   6.810
 8710SOL     OW27028   1.970   2.233   3.646
 8710SOL    HW127029   2.035   2.235   3.722
 8710SOL    HW227030   1.880   2.208   3.679
 8711SOL     OW27031   1.410   6.580   1.808
 8711SOL    HW127032   1.499   6.617   1.779
 8711SOL    HW227033   1.372   6.639   1.879
 8712SOL     OW27034   3.197   1.374   3.996
 8712SOL    HW127035   3.230   1.389   3.903
 8712SOL    HW227036   3.212   1.278   4.022
 8713SOL     OW27037   0.166   4.153   1.214
 8713SOL    HW127038   0.182   4.216   1.289
 8713SOL    HW227039   0.067   4.142   1.199
 8714SOL     OW27040   0.743   0.016   6.969
 8714SOL    HW127041   0.726   0.060   6.881
 8714SOL    HW227042   0.744   6.933   6.956
 8715SOL     OW27043   3.826   1.658   6.789
 8715SOL    HW127044   3.803   1.750   6.821
 8715SOL    HW227045   3.819   1.594   6.865
 8716SOL     OW27046   0.277   6.441   0.860
 8716SOL    HW127047   0.355   6.490   0.899
 8716SOL    HW227048   0.285   6.344   0.880
 8717SOL     OW27049   1.783   3.608   5.948
 8717SOL    HW127050   1.721   3.667   5.895
 8717SOL    HW227051   1.872   3.605   5.903
 8718SOL     OW27052   2.152   2.879   6.599
 8718SOL    HW127053   2.160   2.900   6.696
 8718SOL    HW227054   2.073   2.819   6.584
 8719SOL     OW27055   4.295   0.943   0.121
 8719SOL    HW127056   4.242   0.883   0.061
 8719SOL    HW227057   4.354   1.001   0.065
 8720SOL     OW27058   6.978   5.692   6.113
 8720SOL    HW127059   6.902   5.705   6.177
 8720SOL    HW227060   6.992   5.594   6.096
 8721SOL     OW27061   6.348   6.982   0.116
 8721SOL    HW127062   6.444   7.000   0.098
 8721SOL    HW227063   6.297   6.987   0.030
 8722SOL     OW27064   3.634   1.104   6.980
 8722SOL    HW127065   3.586   1.168   6.921
 8722SOL    HW227066   3.580   1.086   0.045
 8723SOL     OW27067   5.565   0.064   2.420
 8723SOL    HW127068   5.628   0.113   2.359
 8723SOL    HW227069   5.601   6.989   2.436
 8724SOL     OW27070   5.604   0.805   4.388
 8724SOL    HW127071   5.541   0.782   4.314
 8724SOL    HW227072   5.695   0.824   4.349
 8725SOL     OW27073   0.654   6.290   5.437
 8725SOL    HW127074   0.598   6.245   5.506
 8725SOL    HW227075   0.733   6.233   5.415
 8726SOL     OW27076   6.658   0.517   0.283
 8726SOL    HW127077   6.649   0.451   0.358
 8726SOL    HW227078   6.582   0.504   0.219
 8727SOL     OW27079   5.622   6.888   6.746
 8727SOL    HW127080   5.665   6.962   6.695
 8727SOL    HW227081   5.605   6.918   6.840
 8728SOL     OW27082   5.372   1.816   2.060
 8728SOL    HW127083   5.425   1.751   2.005
 8728SOL    HW227084   5.352   1.776   2.149
 8729SOL     OW27085   2.896   5.448   5.734
 8729SOL    HW127086   2.962   5.453   5.659
 8729SOL    HW227087   2.945   5.440   5.821
 8730SOL     OW27088   5.238   4.611   3.474
 8730SOL    HW127089   5.262   4.624   3.570
 8730SOL    HW227090   5.313   4.644   3.416
 8731SOL     OW27091   0.688   3.051   2.922
 8731SOL    HW127092   0.785   3.031   2.931
 8731SOL    HW227093   0.649   2.994   2.850
 8732SOL     OW27094   5.648   4.374   2.096
 8732SOL    HW127095   5.649   4.380   2.196
 8732SOL    HW227096   5.641   4.278   2.069
 8733SOL     OW27097   1.005   6.074   0.663
 8733SOL    HW127098   1.015   6.111   0.755
 8733SOL    HW227099   1.075   6.005   0.647
 8734SOL     OW27100   6.660   3.060   2.345
 8734SOL    HW127101   6.622   2.979   2.300
 8734SOL    HW227102   6.717   3.110   2.279
 8735SOL     OW27103   0.982   3.146   5.096
 8735SOL    HW127104   0.946   3.075   5.155
 8735SOL    HW227105   1.017   3.222   5.151
 8736SOL     OW27106   0.648   5.373   2.356
 8736SOL    HW127107   0.575   5.333   2.412
 8736SOL    HW227108   0.686   5.452   2.403
 8737SOL     OW27109   2.693   6.426   6.698
 8737SOL    HW127110   2.746   6.511   6.689
 8737SOL    HW227111   2.603   6.447   6.736
 8738SOL     OW27112   2.082   5.106   3.385
 8738SOL    HW127113   2.067   5.117   3.287
 8738SOL    HW227114   2.056   5.190   3.432
 8739SOL     OW27115   5.069   4.333   5.842
 8739SOL    HW127116   5.041   4.386   5.922
 8739SOL    HW227117   5.087   4.395   5.766
 8740SOL     OW27118   3.683   1.936   2.873
 8740SOL    HW127119   3.662   1.857   2.815
 8740SOL    HW227120   3.767   1.979   2.841
 8741SOL     OW27121   2.345   0.268   2.448
 8741SOL    HW127122   2.394   0.196   2.398
 8741SOL    HW227123   2.345   0.247   2.546
 8742SOL     OW27124   3.916   0.107   1.812
 8742SOL    HW127125   3.857   0.032   1.783
 8742SOL    HW227126   3.863   0.172   1.866
 8743SOL     OW27127   1.760   0.932   1.350
 8743SOL    HW127128   1.783   0.994   1.425
 8743SOL    HW227129   1.830   0.861   1.342
 8744SOL     OW27130   4.667   2.741   0.607
 8744SOL    HW127131   4.587   2.793   0.637
 8744SOL    HW227132   4.748   2.771   0.657
 8745SOL     OW27133   6.444   2.668   6.478
 8745SOL    HW127134   6.532   2.650   6.520
 8745SOL    HW227135   6.373   2.675   6.549
 8746SOL     OW27136   4.719   5.697   4.931
 8746SOL    HW127137   4.754   5.729   5.019
 8746SOL    HW227138   4.633   5.648   4.946
 8747SOL     OW27139   0.006   1.319   2.322
 8747SOL    HW127140   7.010   1.403   2.374
 8747SOL    HW227141   6.941   1.261   2.332
 8748SOL     OW27142   0.881   2.290   4.483
 8748SOL    HW127143   0.969   2.242   4.487
 8748SOL    HW227144   0.884   2.369   4.544
 8749SOL     OW27145   1.783   1.068   5.149
 8749SOL    HW127146   1.773   1.004   5.074
 8749SOL    HW227147   1.867   1.121   5.137
 8750SOL     OW27148   4.008   3.283   5.643
 8750SOL    HW127149   4.108   3.286   5.637
 8750SOL    HW227150   3.976   3.360   5.698
 8751SOL     OW27151   6.795   0.439   1.080
 8751SOL    HW127152   6.880   0.479   1.114
 8751SOL    HW227153   6.806   0.340   1.071
 8752SOL     OW27154   4.884   3.110   6.573
 8752SOL    HW127155   4.792   3.146   6.590
 8752SOL    HW227156   4.952   3.170   6.617
 8753SOL     OW27157   2.030   3.530   6.933
 8753SOL    HW127158   1.970   3.483   6.998
 8753SOL    HW227159   2.093   3.463   6.893
 8754SOL     OW27160   2.914   4.882   6.055
 8754SOL    HW127161   2.944   4.802   6.002
 8754SOL    HW227162   2.860   4.852   6.133
 8755SOL     OW27163   1.855   1.053   1.095
 8755SOL    HW127164   1.953   1.036   1.081
 8755SOL    HW227165   1.829   1.027   1.188
 8756SOL     OW27166   1.474   2.822   3.604
 8756SOL    HW127167   1.505   2.848   3.695
 8756SOL    HW227168   1.390   2.870   3.582
 8757SOL     OW27169   5.082   5.913   6.307
 8757SOL    HW127170   5.023   5.840   6.270
 8757SOL    HW227171   5.054   6.001   6.268
 8758SOL     OW27172   4.490   6.575   4.011
 8758SOL    HW127173   4.481   6.617   4.101
 8758SOL    HW227174   4.565   6.618   3.961
 8759SOL     OW27175   5.971   1.948   6.921
 8759SOL    HW127176   6.023   1.867   6.949
 8759SOL    HW227177   5.880   1.945   6.961
 8760SOL     OW27178   2.389   1.568   4.406
 8760SOL    HW127179   2.310   1.599   4.458
 8760SOL    HW227180   2.471   1.616   4.439
 8761SOL     OW27181   6.103   1.738   1.783
 8761SOL    HW127182   6.081   1.655   1.733
 8761SOL    HW227183   6.074   1.818   1.730
 8762SOL     OW27184   1.310   5.764   4.196
 8762SOL    HW127185   1.361   5.818   4.129
 8762SOL    HW227186   1.310   5.668   4.168
 8763SOL     OW27187   5.933   0.268   5.164
 8763SOL    HW127188   5.892   0.241   5.077
 8763SOL    HW227189   6.029   0.289   5.150
 8764SOL     OW27190   4.748   6.200   5.821
 8764SOL    HW127191   4.675   6.149   5.867
 8764SOL    HW227192   4.783   6.270   5.884
 8765SOL     OW27193   5.767   1.195   4.964
 8765SOL    HW127194   5.757   1.261   4.889
 8765SOL    HW227195   5.862   1.195   4.996
 8766SOL     OW27196   4.232   4.185   5.355
 8766SOL    HW127197   4.251   4.253   5.283
 8766SOL    HW227198   4.176   4.227   5.426
 8767SOL     OW27199   3.904   7.006   3.401
 8767SOL    HW127200   3.916   6.981   3.305
 8767SOL    HW227201   3.978   6.967   3.455
 8768SOL     OW27202   0.734   1.863   1.324
 8768SOL    HW127203   0.727   1.800   1.246
 8768SOL    HW227204   0.719   1.813   1.409
 8769SOL     OW27205   0.286   1.281   2.050
 8769SOL    HW127206   0.191   1.300   2.076
 8769SOL    HW227207   0.345   1.289   2.130
 8770SOL     OW27208   5.110   4.542   2.149
 8770SOL    HW127209   5.119   4.638   2.173
 8770SOL    HW227210   5.015   4.521   2.127
 8771SOL     OW27211   0.221   2.760   6.385
 8771SOL    HW127212   0.314   2.794   6.372
 8771SOL    HW227213   0.202   2.749   6.482
 8772SOL     OW27214   4.770   0.455   5.816
 8772SOL    HW127215   4.866   0.440   5.838
 8772SOL    HW227216   4.753   0.553   5.802
 8773SOL     OW27217   5.623   2.671   3.152
 8773SOL    HW127218   5.713   2.701   3.183
 8773SOL    HW227219   5.607   2.576   3.179
 8774SOL     OW27220   0.661   0.088   6.719
 8774SOL    HW127221   0.724   0.139   6.661
 8774SOL    HW227222   0.578   0.142   6.734
 8775SOL     OW27223   5.196   1.222   5.490
 8775SOL    HW127224   5.231   1.145   5.543
 8775SOL    HW227225   5.256   1.300   5.501
 8776SOL     OW27226   5.081   2.921   1.549
 8776SOL    HW127227   5.158   2.984   1.545
 8776SOL    HW227228   4.996   2.972   1.548
 8777SOL     OW27229   0.382   3.715   3.255
 8777SOL    HW127230   0.283   3.719   3.268
 8777SOL    HW227231   0.414   3.623   3.276
 8778SOL     OW27232   4.917   3.467   5.877
 8778SOL    HW127233   4.889   3.469   5.973
 8778SOL    HW227234   4.837   3.446   5.820
 8779SOL     OW27235   3.038   5.685   2.680
 8779SOL    HW127236   3.115   5.694   2.616
 8779SOL    HW227237   3.039   5.593   2.721
 8780SOL     OW27238   0.850   6.189   3.146
 8780SOL    HW127239   0.833   6.249   3.224
 8780SOL    HW227240   0.763   6.166   3.102
 8781SOL     OW27241   4.680   6.775   3.108
 8781SOL    HW127242   4.777   6.793   3.124
 8781SOL    HW227243   4.640   6.851   3.056
 8782SOL     OW27244   5.971   1.504   1.715
 8782SOL    HW127245   5.928   1.471   1.799
 8782SOL    HW227246   6.031   1.433   1.678
 8783SOL     OW27247   6.278   3.785   3.973
 8783SOL    HW127248   6.308   3.695   3.940
 8783SOL    HW227249   6.180   3.781   3.994
 8784SOL     OW27250   6.629   6.214   0.930
 8784SOL    HW127251   6.700   6.212   0.860
 8784SOL    HW227252   6.665   6.179   1.016
 8785SOL     OW27253   0.155   5.056   6.289
 8785SOL    HW127254   0.154   5.153   6.267
 8785SOL    HW227255   0.096   5.039   6.368
 8786SOL     OW27256   3.628   1.617   2.380
 8786SOL    HW127257   3.701   1.673   2.420
 8786SOL    HW227258   3.548   1.674   2.364
 8787SOL     OW27259   3.749   0.884   2.192
 8787SOL    HW127260   3.849   0.875   2.190
 8787SOL    HW227261   3.709   0.794   2.212
 8788SOL     OW27262   6.679   1.194   5.116
 8788SOL    HW127263   6.596   1.214   5.168
 8788SOL    HW227264   6.655   1.153   5.028
 8789SOL     OW27265   6.685   4.288   5.494
 8789SOL    HW127266   6.650   4.226   5.423
 8789SOL    HW227267   6.688   4.381   5.458
 8790SOL     OW27268   6.554   1.700   6.671
 8790SOL    HW127269   6.616   1.778   6.666
 8790SOL    HW227270   6.602   1.622   6.711
 8791SOL     OW27271   4.859   6.673   5.084
 8791SOL    HW127272   4.938   6.731   5.067
 8791SOL    HW227273   4.807   6.660   4.999
 8792SOL     OW27274   3.193   5.050   2.877
 8792SOL    HW127275   3.102   5.051   2.835
 8792SOL    HW227276   3.255   4.994   2.822
 8793SOL     OW27277   0.763   4.922   3.666
 8793SOL    HW127278   0.721   5.000   3.714
 8793SOL    HW227279   0.860   4.918   3.690
 8794SOL     OW27280   6.466   0.860   3.543
 8794SOL    HW127281   6.458   0.816   3.632
 8794SOL    HW227282   6.395   0.826   3.482
 8795SOL     OW27283   1.028   4.940   4.919
 8795SOL    HW127284   0.954   4.930   4.986
 8795SOL    HW227285   1.085   5.018   4.945
 8796SOL     OW27286   5.983   3.604   3.355
 8796SOL    HW127287   5.922   3.674   3.393
 8796SOL    HW227288   6.024   3.552   3.430
 8797SOL     OW27289   6.792   0.232   4.250
 8797SOL    HW127290   6.882   0.246   4.292
 8797SOL    HW227291   6.781   0.295   4.173
 8798SOL     OW27292   4.367   6.467   5.811
 8798SOL    HW127293   4.302   6.413   5.758
 8798SOL    HW227294   4.332   6.560   5.822
 8799SOL     OW27295   2.748   4.748   2.540
 8799SOL    HW127296   2.677   4.701   2.593
 8799SOL    HW227297   2.733   4.731   2.443
 8800SOL     OW27298   5.663   5.279   5.607
 8800SOL    HW127299   5.643   5.257   5.702
 8800SOL    HW227300   5.606   5.356   5.578
 8801SOL     OW27301   5.928   1.913   5.051
 8801SOL    HW127302   5.899   1.919   4.955
 8801SOL    HW227303   5.979   1.996   5.075
 8802SOL     OW27304   1.554   5.410   5.504
 8802SOL    HW127305   1.537   5.483   5.439
 8802SOL    HW227306   1.595   5.447   5.587
 8803SOL     OW27307   6.828   1.110   0.048
 8803SOL    HW127308   6.871   1.066   0.126
 8803SOL    HW227309   6.748   1.057   0.018
 8804SOL     OW27310   1.493   6.149   1.310
 8804SOL    HW127311   1.577   6.100   1.286
 8804SOL    HW227312   1.505   6.247   1.292
 8805SOL     OW27313   3.805   5.350   3.973
 8805SOL    HW127314   3.828   5.255   3.996
 8805SOL    HW227315   3.796   5.403   4.057
 8806SOL     OW27316   2.146   5.374   0.402
 8806SOL    HW127317   2.207   5.306   0.444
 8806SOL    HW227318   2.097   5.331   0.326
 8807SOL     OW27319   4.534   2.026   6.692
 8807SOL    HW127320   4.525   1.943   6.637
 8807SOL    HW227321   4.598   2.010   6.767
 8808SOL     OW27322   0.382   2.471   6.956
 8808SOL    HW127323   0.307   2.476   0.005
 8808SOL    HW227324   0.406   2.563   6.926
 8809SOL     OW27325   2.283   4.339   3.463
 8809SOL    HW127326   2.330   4.369   3.546
 8809SOL    HW227327   2.216   4.269   3.487
 8810SOL     OW27328   5.798   1.237   5.378
 8810SOL    HW127329   5.848   1.152   5.399
 8810SOL    HW227330   5.862   1.304   5.341
 8811SOL     OW27331   3.766   0.275   2.687
 8811SOL    HW127332   3.717   0.328   2.757
 8811SOL    HW227333   3.855   0.317   2.669
 8812SOL     OW27334   3.355   0.483   0.053
 8812SOL    HW127335   3.384   0.387   0.054
 8812SOL    HW227336   3.424   0.540   0.097
 8813SOL     OW27337   1.685   4.278   2.346
 8813SOL    HW127338   1.679   4.364   2.296
 8813SOL    HW227339   1.781   4.261   2.371
 8814SOL     OW27340   5.569   6.748   0.525
 8814SOL    HW127341   5.562   6.847   0.525
 8814SOL    HW227342   5.594   6.716   0.617
 8815SOL     OW27343   5.661   0.025   1.620
 8815SOL    HW127344   5.682   0.122   1.604
 8815SOL    HW227345   5.741   6.986   1.596
 8816SOL     OW27346   0.500   6.891   6.634
 8816SOL    HW127347   0.560   6.955   6.682
 8816SOL    HW227348   0.483   6.923   6.541
 8817SOL     OW27349   0.198   3.660   4.023
 8817SOL    HW127350   0.269   3.626   4.084
 8817SOL    HW227351   0.112   3.670   4.074
 8818SOL     OW27352   0.820   6.314   3.401
 8818SOL    HW127353   0.801   6.278   3.492
 8818SOL    HW227354   0.823   6.414   3.405
 8819SOL     OW27355   5.763   4.419   5.478
 8819SOL    HW127356   5.776   4.510   5.438
 8819SOL    HW227357   5.834   4.358   5.444
 8820SOL     OW27358   2.799   1.777   4.720
 8820SOL    HW127359   2.896   1.760   4.703
 8820SOL    HW227360   2.789   1.835   4.801
 8821SOL     OW27361   1.523   5.532   0.215
 8821SOL    HW127362   1.599   5.494   0.162
 8821SOL    HW227363   1.438   5.522   0.164
 8822SOL     OW27364   0.595   0.203   3.405
 8822SOL    HW127365   0.550   0.158   3.482
 8822SOL    HW227366   0.640   0.134   3.348
 8823SOL     OW27367   2.548   0.570   2.028
 8823SOL    HW127368   2.456   0.539   2.003
 8823SOL    HW227369   2.584   0.510   2.100
 8824SOL     OW27370   1.224   0.913   1.120
 8824SOL    HW127371   1.278   0.921   1.036
 8824SOL    HW227372   1.182   0.822   1.124
 8825SOL     OW27373   0.491   0.594   1.707
 8825SOL    HW127374   0.476   0.539   1.789
 8825SOL    HW227375   0.589   0.598   1.686
 8826SOL     OW27376   0.774   3.235   1.409
 8826SOL    HW127377   0.702   3.303   1.402
 8826SOL    HW227378   0.759   3.179   1.491
 8827SOL     OW27379   3.761   0.057   2.510
 8827SOL    HW127380   3.771   0.120   2.587
 8827SOL    HW227381   3.709   6.994   2.539
 8828SOL     OW27382   3.632   4.554   6.425
 8828SOL    HW127383   3.541   4.550   6.383
 8828SOL    HW227384   3.624   4.595   6.516
 8829SOL     OW27385   5.992   1.733   1.488
 8829SOL    HW127386   6.080   1.687   1.498
 8829SOL    HW227387   5.918   1.667   1.499
 8830SOL     OW27388   1.671   1.818   2.911
 8830SOL    HW127389   1.770   1.831   2.909
 8830SOL    HW227390   1.650   1.720   2.914
 8831SOL     OW27391   5.958   3.039   2.416
 8831SOL    HW127392   5.935   3.002   2.506
 8831SOL    HW227393   6.039   2.992   2.380
 8832SOL     OW27394   0.385   6.252   4.106
 8832SOL    HW127395   0.413   6.344   4.132
 8832SOL    HW227396   0.344   6.206   4.184
 8833SOL     OW27397   3.580   3.876   0.266
 8833SOL    HW127398   3.613   3.963   0.303
 8833SOL    HW227399   3.651   3.806   0.276
 8834SOL     OW27400   6.208   3.243   4.861
 8834SOL    HW127401   6.124   3.295   4.872
 8834SOL    HW227402   6.192   3.147   4.881
 8835SOL     OW27403   5.725   1.584   6.632
 8835SOL    HW127404   5.764   1.527   6.561
 8835SOL    HW227405   5.789   1.657   6.656
 8836SOL     OW27406   5.345   2.227   0.295
 8836SOL    HW127407   5.327   2.132   0.320
 8836SOL    HW227408   5.441   2.248   0.314
 8837SOL     OW27409   6.775   0.084   1.829
 8837SOL    HW127410   6.765   0.008   1.893
 8837SOL    HW227411   6.685   0.120   1.805
 8838SOL     OW27412   0.804   4.769   2.302
 8838SOL    HW127413   0.787   4.866   2.287
 8838SOL    HW227414   0.767   4.743   2.391
 8839SOL     OW27415   3.777   5.490   2.592
 8839SOL    HW127416   3.718   5.412   2.614
 8839SOL    HW227417   3.722   5.574   2.593
 8840SOL     OW27418   5.857   0.121   1.974
 8840SOL    HW127419   5.949   0.154   1.953
 8840SOL    HW227420   5.804   0.194   2.017
 8841SOL     OW27421   5.125   1.418   2.644
 8841SOL    HW127422   5.214   1.464   2.640
 8841SOL    HW227423   5.053   1.486   2.659
 8842SOL     OW27424   3.420   3.883   3.703
 8842SOL    HW127425   3.428   3.878   3.603
 8842SOL    HW227426   3.359   3.959   3.727
 8843SOL     OW27427   1.562   3.072   4.526
 8843SOL    HW127428   1.635   3.067   4.458
 8843SOL    HW227429   1.602   3.079   4.617
 8844SOL     OW27430   0.114   1.666   4.892
 8844SOL    HW127431   0.112   1.586   4.832
 8844SOL    HW227432   0.073   1.642   4.980
 8845SOL     OW27433   2.648   4.772   0.245
 8845SOL    HW127434   2.739   4.760   0.285
 8845SOL    HW227435   2.632   4.702   0.176
 8846SOL     OW27436   5.480   4.639   4.234
 8846SOL    HW127437   5.395   4.683   4.261
 8846SOL    HW227438   5.475   4.541   4.254
 8847SOL     OW27439   1.832   0.982   2.926
 8847SOL    HW127440   1.860   0.886   2.927
 8847SOL    HW227441   1.734   0.988   2.913
 8848SOL     OW27442   3.219   2.000   2.089
 8848SOL    HW127443   3.192   1.981   1.995
 8848SOL    HW227444   3.143   2.044   2.138
 8849SOL     OW27445   3.127   4.934   3.404
 8849SOL    HW127446   3.109   5.030   3.426
 8849SOL    HW227447   3.225   4.916   3.411
 8850SOL     OW27448   2.893   1.226   0.832
 8850SOL    HW127449   2.906   1.232   0.733
 8850SOL    HW227450   2.871   1.317   0.868
 8851SOL     OW27451   1.281   4.613   2.026
 8851SOL    HW127452   1.223   4.683   2.067
 8851SOL    HW227453   1.233   4.571   1.948
 8852SOL     OW27454   5.199   3.164   6.196
 8852SOL    HW127455   5.288   3.165   6.150
 8852SOL    HW227456   5.130   3.202   6.134
 8853SOL     OW27457   3.144   0.397   4.189
 8853SOL    HW127458   3.193   0.309   4.185
 8853SOL    HW227459   3.060   0.385   4.242
 8854SOL     OW27460   2.563   0.822   6.217
 8854SOL    HW127461   2.590   0.758   6.289
 8854SOL    HW227462   2.477   0.867   6.243
 8855SOL     OW27463   6.968   6.284   0.267
 8855SOL    HW127464   0.011   6.262   0.344
 8855SOL    HW227465   7.014   6.348   0.206
 8856SOL     OW27466   6.251   0.061   5.768
 8856SOL    HW127467   6.221   0.150   5.732
 8856SOL    HW227468   6.182   7.009   5.748
 8857SOL     OW27469   6.099   2.009   3.890
 8857SOL    HW127470   6.054   2.030   3.804
 8857SOL    HW227471   6.107   1.909   3.900
 8858SOL     OW27472   2.165   3.317   5.473
 8858SOL    HW127473   2.150   3.414   5.455
 8858SOL    HW227474   2.079   3.267   5.462
 8859SOL     OW27475   0.399   6.936   5.462
 8859SOL    HW127476   0.301   6.939   5.482
 8859SOL    HW227477   0.432   0.011   5.439
 8860SOL     OW27478   1.787   3.845   3.061
 8860SOL    HW127479   1.709   3.906   3.069
 8860SOL    HW227480   1.756   3.753   3.035
 8861SOL     OW27481   3.319   2.100   6.439
 8861SOL    HW127482   3.255   2.026   6.462
 8861SOL    HW227483   3.281   2.154   6.364
 8862SOL     OW27484   6.290   1.380   3.665
 8862SOL    HW127485   6.221   1.415   3.728
 8862SOL    HW227486   6.337   1.302   3.707
 8863SOL     OW27487   1.492   5.521   4.661
 8863SOL    HW127488   1.436   5.597   4.628
 8863SOL    HW227489   1.507   5.531   4.760
 8864SOL     OW27490   2.325   3.345   6.495
 8864SOL    HW127491   2.365   3.261   6.457
 8864SOL    HW227492   2.242   3.322   6.546
 8865SOL     OW27493   3.260   1.772   4.922
 8865SOL    HW127494   3.351   1.757   4.959
 8865SOL    HW227495   3.207   1.830   4.984
 8866SOL     OW27496   5.042   6.953   4.197
 8866SOL    HW127497   5.082   6.915   4.280
 8866SOL    HW227498   4.959   6.902   4.173
 8867SOL     OW27499   5.049   2.838   2.834
 8867SOL    HW127500   5.002   2.772   2.777
 8867SOL    HW227501   4.989   2.917   2.850
 8868SOL     OW27502   5.785   4.054   0.985
 8868SOL    HW127503   5.872   4.005   0.986
 8868SOL    HW227504   5.787   4.126   0.914
 8869SOL     OW27505   4.302   5.472   3.505
 8869SOL    HW127506   4.336   5.391   3.456
 8869SOL    HW227507   4.316   5.459   3.604
 8870SOL     OW27508   3.697   6.982   0.432
 8870SOL    HW127509   3.669   0.046   0.381
 8870SOL    HW227510   3.702   7.004   0.530
 8871SOL     OW27511   3.518   1.293   4.005
 8871SOL    HW127512   3.560   1.383   3.998
 8871SOL    HW227513   3.535   1.241   3.921
 8872SOL     OW27514   1.776   4.164   4.233
 8872SOL    HW127515   1.724   4.145   4.150
 8872SOL    HW227516   1.762   4.090   4.299
 8873SOL     OW27517   6.498   6.112   1.832
 8873SOL    HW127518   6.595   6.128   1.811
 8873SOL    HW227519   6.474   6.162   1.916
 8874SOL     OW27520   1.855   6.996   1.040
 8874SOL    HW127521   1.762   6.983   1.073
 8874SOL    HW227522   1.884   6.915   0.988
 8875SOL     OW27523   1.196   2.749   4.882
 8875SOL    HW127524   1.158   2.751   4.790
 8875SOL    HW227525   1.183   2.657   4.921
 8876SOL     OW27526   0.732   0.137   4.639
 8876SOL    HW127527   0.784   0.112   4.720
 8876SOL    HW227528   0.788   0.193   4.579
 8877SOL     OW27529   3.014   0.509   4.807
 8877SOL    HW127530   2.919   0.484   4.826
 8877SOL    HW227531   3.072   0.428   4.814
 8878SOL     OW27532   0.792   5.375   0.467
 8878SOL    HW127533   0.699   5.409   0.452
 8878SOL    HW227534   0.794   5.321   0.552
 8879SOL     OW27535   6.097   5.296   1.327
 8879SOL    HW127536   6.028   5.243   1.277
 8879SOL    HW227537   6.118   5.249   1.413
 8880SOL     OW27538   0.110   5.544   4.503
 8880SOL    HW127539   0.087   5.637   4.534
 8880SOL    HW227540   0.065   5.477   4.561
 8881SOL     OW27541   5.929   0.205   4.239
 8881SOL    HW127542   5.924   0.211   4.140
 8881SOL    HW227543   5.895   0.116   4.269
 8882SOL     OW27544   5.125   1.449   0.700
 8882SOL    HW127545   5.103   1.490   0.788
 8882SOL    HW227546   5.120   1.350   0.706
 8883SOL     OW27547   0.691   1.129   5.464
 8883SOL    HW127548   0.733   1.154   5.377
 8883SOL    HW227549   0.671   1.212   5.516
 8884SOL     OW27550   5.888   6.019   6.318
 8884SOL    HW127551   5.949   6.099   6.311
 8884SOL    HW227552   5.939   5.942   6.356
 8885SOL     OW27553   6.670   4.085   1.476
 8885SOL    HW127554   6.736   4.018   1.442
 8885SOL    HW227555   6.673   4.167   1.420
 8886SOL     OW27556   3.341   6.456   5.736
 8886SOL    HW127557   3.440   6.469   5.739
 8886SOL    HW227558   3.304   6.457   5.829
 8887SOL     OW27559   3.064   1.538   1.080
 8887SOL    HW127560   3.065   1.632   1.114
 8887SOL    HW227561   3.033   1.477   1.153
 8888SOL     OW27562   0.655   1.773   1.597
 8888SOL    HW127563   0.714   1.699   1.628
 8888SOL    HW227564   0.608   1.814   1.675
 8889SOL     OW27565   5.434   6.408   5.693
 8889SOL    HW127566   5.443   6.316   5.655
 8889SOL    HW227567   5.522   6.456   5.685
 8890SOL     OW27568   6.675   5.895   4.401
 8890SOL    HW127569   6.751   5.951   4.434
 8890SOL    HW227570   6.654   5.920   4.306
 8891SOL     OW27571   6.132   3.544   6.415
 8891SOL    HW127572   6.125   3.511   6.509
 8891SOL    HW227573   6.225   3.532   6.382
 8892SOL     OW27574   3.230   6.079   3.560
 8892SOL    HW127575   3.187   5.998   3.598
 8892SOL    HW227576   3.164   6.131   3.506
 8893SOL     OW27577   1.060   0.849   1.736
 8893SOL    HW127578   1.050   0.899   1.822
 8893SOL    HW227579   0.973   0.850   1.687
 8894SOL     OW27580   3.864   3.161   5.451
 8894SOL    HW127581   3.775   3.206   5.447
 8894SOL    HW227582   3.914   3.193   5.532
 8895SOL     OW27583   6.629   1.432   1.801
 8895SOL    HW127584   6.536   1.465   1.816
 8895SOL    HW227585   6.628   1.359   1.733
 8896SOL     OW27586   1.798   3.469   4.642
 8896SOL    HW127587   1.872   3.412   4.678
 8896SOL    HW227588   1.740   3.499   4.718
 8897SOL     OW27589   1.945   1.818   2.956
 8897SOL    HW127590   2.019   1.759   2.986
 8897SOL    HW227591   1.906   1.866   3.034
 8898SOL     OW27592   6.179   3.503   4.586
 8898SOL    HW127593   6.116   3.575   4.615
 8898SOL    HW227594   6.146   3.464   4.499
 8899SOL     OW27595   1.593   4.496   0.449
 8899SOL    HW127596   1.693   4.492   0.447
 8899SOL    HW227597   1.559   4.437   0.523
 8900SOL     OW27598   5.632   3.951   3.035
 8900SOL    HW127599   5.617   4.045   3.004
 8900SOL    HW227600   5.727   3.940   3.063
 8901SOL     OW27601   2.685   1.125   4.342
 8901SOL    HW127602   2.637   1.212   4.333
 8901SOL    HW227603   2.709   1.109   4.438
 8902SOL     OW27604   3.092   6.074   6.988
 8902SOL    HW127605   3.062   6.009   0.041
 8902SOL    HW227606   3.012   6.104   6.935
 8903SOL     OW27607   1.884   0.975   4.224
 8903SOL    HW127608   1.881   1.043   4.298
 8903SOL    HW227609   1.790   0.949   4.200
 8904SOL     OW27610   6.723   5.328   3.603
 8904SOL    HW127611   6.673   5.261   3.548
 8904SOL    HW227612   6.675   5.341   3.690
 8905SOL     OW27613   2.118   3.946   4.630
 8905SOL    HW127614   2.116   3.853   4.667
 8905SOL    HW227615   2.168   4.006   4.693
 8906SOL     OW27616   6.767   6.671   6.861
 8906SOL    HW127617   6.812   6.617   6.932
 8906SOL    HW227618   6.673   6.691   6.890
 8907SOL     OW27619   3.393   1.939   4.720
 8907SOL    HW127620   3.321   1.895   4.774
 8907SOL    HW227621   3.419   2.025   4.763
 8908SOL     OW27622   1.616   2.961   0.025
 8908SOL    HW127623   1.642   2.891   0.092
 8908SOL    HW227624   1.587   3.044   0.073
 8909SOL     OW27625   2.113   0.694   4.725
 8909SOL    HW127626   2.056   0.613   4.740
 8909SOL    HW227627   2.207   0.666   4.704
 8910SOL     OW27628   2.086   3.339   6.017
 8910SOL    HW127629   2.137   3.420   6.044
 8910SOL    HW227630   1.990   3.363   6.001
 8911SOL     OW27631   3.913   2.138   4.710
 8911SOL    HW127632   3.862   2.083   4.644
 8911SOL    HW227633   3.856   2.156   4.790
 8912SOL     OW27634   4.088   1.709   6.881
 8912SOL    HW127635   4.131   1.781   6.828
 8912SOL    HW227636   3.999   1.686   6.840
 8913SOL     OW27637   4.291   5.276   0.636
 8913SOL    HW127638   4.238   5.196   0.664
 8913SOL    HW227639   4.383   5.248   0.610
 8914SOL     OW27640   4.446   0.704   5.483
 8914SOL    HW127641   4.499   0.620   5.486
 8914SOL    HW227642   4.447   0.741   5.390
 8915SOL     OW27643   1.096   2.866   3.983
 8915SOL    HW127644   1.172   2.896   4.040
 8915SOL    HW227645   1.097   2.916   3.897
 8916SOL     OW27646   0.270   3.453   2.086
 8916SOL    HW127647   0.357   3.430   2.043
 8916SOL    HW227648   0.195   3.435   2.021
 8917SOL     OW27649   5.587   4.845   6.341
 8917SOL    HW127650   5.504   4.892   6.373
 8917SOL    HW227651   5.582   4.748   6.364
 8918SOL     OW27652   6.929   5.831   0.957
 8918SOL    HW127653   6.849   5.828   1.017
 8918SOL    HW227654   6.979   5.745   0.963
 8919SOL     OW27655   4.612   3.393   0.721
 8919SOL    HW127656   4.514   3.375   0.721
 8919SOL    HW227657   4.633   3.467   0.656
 8920SOL     OW27658   6.795   6.543   6.298
 8920SOL    HW127659   6.890   6.538   6.326
 8920SOL    HW227660   6.760   6.636   6.312
 8921SOL     OW27661   2.505   1.824   3.385
 8921SOL    HW127662   2.477   1.919   3.391
 8921SOL    HW227663   2.605   1.818   3.386
 8922SOL     OW27664   2.829   4.729   1.408
 8922SOL    HW127665   2.848   4.706   1.504
 8922SOL    HW227666   2.731   4.719   1.390
 8923SOL     OW27667   1.347   3.312   5.955
 8923SOL    HW127668   1.430   3.294   5.903
 8923SOL    HW227669   1.274   3.338   5.893
 8924SOL     OW27670   3.322   5.604   6.048
 8924SOL    HW127671   3.419   5.620   6.029
 8924SOL    HW227672   3.286   5.678   6.106
 8925SOL     OW27673   0.978   0.539   1.946
 8925SOL    HW127674   1.002   0.537   2.043
 8925SOL    HW227675   1.061   0.546   1.892
 8926SOL     OW27676   5.841   3.402   0.389
 8926SOL    HW127677   5.903   3.479   0.401
 8926SOL    HW227678   5.822   3.388   0.291
 8927SOL     OW27679   1.541   2.003   5.014
 8927SOL    HW127680   1.621   2.051   5.051
 8927SOL    HW227681   1.474   1.989   5.087
 8928SOL     OW27682   6.894   1.016   5.116
 8928SOL    HW127683   6.820   1.074   5.150
 8928SOL    HW227684   6.936   1.058   5.036
 8929SOL     OW27685   0.599   3.693   3.603
 8929SOL    HW127686   0.541   3.645   3.668
 8929SOL    HW227687   0.604   3.640   3.518
 8930SOL     OW27688   2.011   4.842   4.836
 8930SOL    HW127689   2.031   4.818   4.931
 8930SOL    HW227690   2.093   4.879   4.792
 8931SOL     OW27691   3.714   2.980   0.678
 8931SOL    HW127692   3.734   2.945   0.587
 8931SOL    HW227693   3.666   3.067   0.671
 8932SOL     OW27694   5.624   0.552   6.677
 8932SOL    HW127695   5.665   0.527   6.764
 8932SOL    HW227696   5.676   0.627   6.636
 8933SOL     OW27697   0.865   1.904   5.627
 8933SOL    HW127698   0.791   1.908   5.560
 8933SOL    HW227699   0.905   1.995   5.638
 8934SOL     OW27700   2.594   5.694   4.076
 8934SOL    HW127701   2.652   5.761   4.123
 8934SOL    HW227702   2.652   5.635   4.020
 8935SOL     OW27703   4.981   4.024   1.743
 8935SOL    HW127704   5.008   4.097   1.805
 8935SOL    HW227705   4.896   3.981   1.776
 8936SOL     OW27706   0.533   3.773   0.707
 8936SOL    HW127707   0.619   3.768   0.757
 8936SOL    HW227708   0.458   3.740   0.764
 8937SOL     OW27709   0.337   0.554   4.180
 8937SOL    HW127710   0.374   0.633   4.229
 8937SOL    HW227711   0.268   0.509   4.237
 8938SOL     OW27712   0.051   1.225   0.255
 8938SOL    HW127713   0.119   1.267   0.315
 8938SOL    HW227714   0.009   1.147   0.301
 8939SOL     OW27715   6.342   2.819   4.776
 8939SOL    HW127716   6.437   2.846   4.769
 8939SOL    HW227717   6.295   2.877   4.842
 8940SOL     OW27718   5.474   2.012   0.643
 8940SOL    HW127719   5.511   1.921   0.663
 8940SOL    HW227720   5.496   2.074   0.718
 8941SOL     OW27721   4.854   2.138   1.938
 8941SOL    HW127722   4.787   2.140   2.012
 8941SOL    HW227723   4.809   2.163   1.852
 8942SOL     OW27724   0.671   5.113   4.392
 8942SOL    HW127725   0.584   5.085   4.434
 8942SOL    HW227726   0.667   5.094   4.294
 8943SOL     OW27727   4.322   4.650   6.985
 8943SOL    HW127728   4.357   4.744   6.991
 8943SOL    HW227729   4.394   4.590   6.952
 8944SOL     OW27730   4.784   4.966   4.624
 8944SOL    HW127731   4.696   4.922   4.607
 8944SOL    HW227732   4.792   4.990   4.720
 8945SOL     OW27733   6.944   2.112   5.039
 8945SOL    HW127734   0.005   2.073   5.088
 8945SOL    HW227735   6.969   2.202   5.004
 8946SOL     OW27736   3.456   0.355   4.789
 8946SOL    HW127737   3.491   0.425   4.726
 8946SOL    HW227738   3.496   0.369   4.880
 8947SOL     OW27739   1.754   3.842   6.343
 8947SOL    HW127740   1.777   3.906   6.270
 8947SOL    HW227741   1.790   3.878   6.430
 8948SOL     OW27742   6.333   5.713   3.356
 8948SOL    HW127743   6.335   5.623   3.398
 8948SOL    HW227744   6.296   5.705   3.263
 8949SOL     OW27745   3.750   5.905   0.155
 8949SOL    HW127746   3.681   5.854   0.103
 8949SOL    HW227747   3.782   5.983   0.102
 8950SOL     OW27748   4.536   3.499   1.251
 8950SOL    HW127749   4.474   3.517   1.327
 8950SOL    HW227750   4.563   3.403   1.251
 8951SOL     OW27751   2.199   1.266   4.465
 8951SOL    HW127752   2.229   1.177   4.432
 8951SOL    HW227753   2.100   1.272   4.461
 8952SOL     OW27754   2.286   5.228   2.981
 8952SOL    HW127755   2.331   5.283   2.911
 8952SOL    HW227756   2.325   5.135   2.981
 8953SOL     OW27757   1.992   4.823   1.181
 8953SOL    HW127758   2.026   4.915   1.162
 8953SOL    HW227759   2.068   4.765   1.212
 8954SOL     OW27760   0.187   6.548   3.898
 8954SOL    HW127761   0.162   6.579   3.806
 8954SOL    HW227762   0.262   6.605   3.932
 8955SOL     OW27763   0.063   2.828   2.387
 8955SOL    HW127764   0.071   2.729   2.372
 8955SOL    HW227765   7.007   2.845   2.453
 8956SOL     OW27766   0.742   0.386   6.570
 8956SOL    HW127767   0.814   0.326   6.605
 8956SOL    HW227768   0.750   0.394   6.471
 8957SOL     OW27769   1.685   4.956   1.403
 8957SOL    HW127770   1.588   4.978   1.406
 8957SOL    HW227771   1.737   5.036   1.373
 8958SOL     OW27772   1.523   2.605   5.207
 8958SOL    HW127773   1.535   2.556   5.121
 8958SOL    HW227774   1.431   2.646   5.210
 8959SOL     OW27775   1.192   3.487   2.218
 8959SOL    HW127776   1.187   3.395   2.257
 8959SOL    HW227777   1.101   3.527   2.216
 8960SOL     OW27778   6.806   5.108   3.903
 8960SOL    HW127779   6.835   5.188   3.851
 8960SOL    HW227780   6.828   5.025   3.851
 8961SOL     OW27781   4.082   1.231   3.939
 8961SOL    HW127782   4.160   1.236   3.876
 8961SOL    HW227783   4.023   1.154   3.913
 8962SOL     OW27784   0.093   6.342   1.689
 8962SOL    HW127785   0.011   6.390   1.659
 8962SOL    HW227786   0.141   6.305   1.610
 8963SOL     OW27787   3.559   6.475   4.882
 8963SOL    HW127788   3.621   6.510   4.952
 8963SOL    HW227789   3.585   6.382   4.857
 8964SOL     OW27790   4.845   3.774   3.254
 8964SOL    HW127791   4.774   3.706   3.237
 8964SOL    HW227792   4.930   3.746   3.209
 8965SOL     OW27793   3.693   5.202   0.295
 8965SOL    HW127794   3.625   5.193   0.367
 8965SOL    HW227795   3.652   5.181   0.206
 8966SOL     OW27796   6.455   4.679   6.498
 8966SOL    HW127797   6.478   4.714   6.408
 8966SOL    HW227798   6.538   4.646   6.544
 8967SOL     OW27799   4.245   0.561   2.898
 8967SOL    HW127800   4.155   0.522   2.916
 8967SOL    HW227801   4.234   0.656   2.868
 8968SOL     OW27802   3.083   4.828   1.368
 8968SOL    HW127803   2.986   4.815   1.388
 8968SOL    HW227804   3.094   4.907   1.308
 8969SOL     OW27805   0.369   0.743   3.274
 8969SOL    HW127806   0.443   0.772   3.334
 8969SOL    HW227807   0.296   0.700   3.328
 8970SOL     OW27808   1.266   2.587   6.850
 8970SOL    HW127809   1.337   2.541   6.903
 8970SOL    HW227810   1.182   2.533   6.852
 8971SOL     OW27811   4.485   6.596   1.863
 8971SOL    HW127812   4.404   6.564   1.814
 8971SOL    HW227813   4.496   6.694   1.849
 8972SOL     OW27814   5.259   4.482   0.368
 8972SOL    HW127815   5.269   4.449   0.462
 8972SOL    HW227816   5.163   4.498   0.348
 8973SOL     OW27817   0.058   2.744   2.742
 8973SOL    HW127818   0.151   2.738   2.705
 8973SOL    HW227819   7.011   2.698   2.680
 8974SOL     OW27820   2.190   3.849   3.594
 8974SOL    HW127821   2.196   3.848   3.694
 8974SOL    HW227822   2.169   3.941   3.562
 8975SOL     OW27823   0.192   0.174   0.184
 8975SOL    HW127824   0.203   0.273   0.181
 8975SOL    HW227825   0.101   0.151   0.219
 8976SOL     OW27826   6.958   6.215   0.753
 8976SOL    HW127827   6.899   6.136   0.734
 8976SOL    HW227828   6.966   6.227   0.852
 8977SOL     OW27829   0.046   4.551   6.517
 8977SOL    HW127830   0.097   4.596   6.443
 8977SOL    HW227831   0.100   4.475   6.553
 8978SOL     OW27832   5.292   6.261   4.722
 8978SOL    HW127833   5.233   6.267   4.641
 8978SOL    HW227834   5.352   6.341   4.726
 8979SOL     OW27835   1.061   5.591   6.125
 8979SOL    HW127836   0.992   5.533   6.083
 8979SOL    HW227837   1.038   5.605   6.222
 8980SOL     OW27838   5.205   1.909   5.455
 8980SOL    HW127839   5.249   1.963   5.526
 8980SOL    HW227840   5.213   1.812   5.477
 8981SOL     OW27841   4.997   2.447   5.604
 8981SOL    HW127842   5.094   2.440   5.628
 8981SOL    HW227843   4.945   2.378   5.655
 8982SOL     OW27844   6.635   2.221   1.656
 8982SOL    HW127845   6.638   2.307   1.605
 8982SOL    HW227846   6.606   2.239   1.750
 8983SOL     OW27847   1.225   5.222   1.208
 8983SOL    HW127848   1.255   5.312   1.241
 8983SOL    HW227849   1.288   5.189   1.138
 8984SOL     OW27850   6.112   0.177   4.457
 8984SOL    HW127851   6.045   0.203   4.387
 8984SOL    HW227852   6.100   0.235   4.538
 8985SOL     OW27853   4.008   2.276   1.213
 8985SOL    HW127854   3.940   2.280   1.140
 8985SOL    HW227855   3.962   2.275   1.302
 8986SOL     OW27856   5.384   4.255   2.265
 8986SOL    HW127857   5.444   4.329   2.296
 8986SOL    HW227858   5.432   4.199   2.198
 8987SOL     OW27859   3.295   0.507   1.108
 8987SOL    HW127860   3.265   0.571   1.038
 8987SOL    HW227861   3.266   0.540   1.198
 8988SOL     OW27862   2.014   5.245   0.185
 8988SOL    HW127863   2.054   5.229   0.095
 8988SOL    HW227864   1.920   5.211   0.187
 8989SOL     OW27865   4.843   3.023   2.829
 8989SOL    HW127866   4.839   3.119   2.856
 8989SOL    HW227867   4.766   2.974   2.869
 8990SOL     OW27868   2.331   6.121   1.022
 8990SOL    HW127869   2.400   6.171   0.970
 8990SOL    HW227870   2.316   6.032   0.979
 8991SOL     OW27871   2.599   2.278   1.465
 8991SOL    HW127872   2.603   2.225   1.550
 8991SOL    HW227873   2.547   2.361   1.480
 8992SOL     OW27874   0.424   3.445   0.688
 8992SOL    HW127875   0.434   3.502   0.607
 8992SOL    HW227876   0.380   3.499   0.761
 8993SOL     OW27877   5.084   2.583   3.123
 8993SOL    HW127878   5.029   2.604   3.204
 8993SOL    HW227879   5.180   2.581   3.148
 8994SOL     OW27880   1.791   5.069   4.094
 8994SOL    HW127881   1.782   5.043   4.190
 8994SOL    HW227882   1.887   5.080   4.071
 8995SOL     OW27883   1.596   2.344   5.363
 8995SOL    HW127884   1.576   2.274   5.432
 8995SOL    HW227885   1.511   2.378   5.324
 8996SOL     OW27886   1.007   3.845   1.827
 8996SOL    HW127887   1.074   3.784   1.868
 8996SOL    HW227888   0.944   3.878   1.897
 8997SOL     OW27889   5.578   1.000   6.432
 8997SOL    HW127890   5.571   1.073   6.365
 8997SOL    HW227891   5.559   1.036   6.523
 8998SOL     OW27892   0.072   1.670   5.232
 8998SOL    HW127893   0.164   1.652   5.269
 8998SOL    HW227894   0.058   1.769   5.226
 8999SOL     OW27895   4.960   0.954   6.238
 8999SOL    HW127896   5.027   1.024   6.264
 8999SOL    HW227897   4.939   0.896   6.317
 9000SOL     OW27898   2.511   4.318   6.587
 9000SOL    HW127899   2.501   4.316   6.488
 9000SOL    HW227900   2.596   4.272   6.614
 9001SOL     OW27901   1.093   4.494   2.485
 9001SOL    HW127902   1.115   4.584   2.522
 9001SOL    HW227903   1.051   4.503   2.395
 9002SOL     OW27904   7.004   5.502   5.826
 9002SOL    HW127905   0.019   5.463   5.912
 9002SOL    HW227906   0.063   5.547   5.779
 9003SOL     OW27907   5.957   2.434   0.815
 9003SOL    HW127908   5.957   2.445   0.915
 9003SOL    HW227909   6.037   2.380   0.788
 9004SOL     OW27910   5.156   6.572   2.064
 9004SOL    HW127911   5.063   6.536   2.075
 9004SOL    HW227912   5.168   6.652   2.123
 9005SOL     OW27913   5.191   2.435   3.652
 9005SOL    HW127914   5.116   2.398   3.596
 9005SOL    HW227915   5.154   2.473   3.736
 9006SOL     OW27916   1.106   5.757   0.872
 9006SOL    HW127917   1.083   5.814   0.951
 9006SOL    HW227918   1.129   5.665   0.903
 9007SOL     OW27919   3.304   5.263   3.693
 9007SOL    HW127920   3.383   5.294   3.640
 9007SOL    HW227921   3.325   5.269   3.790
 9008SOL     OW27922   6.178   4.727   2.289
 9008SOL    HW127923   6.162   4.697   2.195
 9008SOL    HW227924   6.275   4.750   2.300
 9009SOL     OW27925   2.899   6.544   1.117
 9009SOL    HW127926   2.808   6.526   1.153
 9009SOL    HW227927   2.954   6.460   1.121
 9010SOL     OW27928   1.175   6.707   5.053
 9010SOL    HW127929   1.120   6.680   5.133
 9010SOL    HW227930   1.117   6.754   4.987
 9011SOL     OW27931   3.610   2.373   1.379
 9011SOL    HW127932   3.529   2.319   1.403
 9011SOL    HW227933   3.656   2.330   1.301
 9012SOL     OW27934   1.790   5.612   0.624
 9012SOL    HW127935   1.810   5.702   0.587
 9012SOL    HW227936   1.867   5.551   0.608
 9013SOL     OW27937   6.481   5.491   4.763
 9013SOL    HW127938   6.444   5.416   4.707
 9013SOL    HW227939   6.581   5.490   4.759
 9014SOL     OW27940   1.571   1.454   0.556
 9014SOL    HW127941   1.503   1.527   0.555
 9014SOL    HW227942   1.560   1.396   0.476
 9015SOL     OW27943   6.702   1.509   6.948
 9015SOL    HW127944   6.692   1.428   6.890
 9015SOL    HW227945   6.616   1.560   6.950
 9016SOL     OW27946   6.577   6.163   5.891
 9016SOL    HW127947   6.596   6.110   5.808
 9016SOL    HW227948   6.593   6.106   5.972
 9017SOL     OW27949   5.607   2.393   3.195
 9017SOL    HW127950   5.661   2.309   3.180
 9017SOL    HW227951   5.630   2.431   3.284
 9018SOL     OW27952   3.655   1.395   5.383
 9018SOL    HW127953   3.566   1.394   5.338
 9018SOL    HW227954   3.699   1.483   5.369
 9019SOL     OW27955   1.655   0.021   0.065
 9019SOL    HW127956   1.622   0.014   0.159
 9019SOL    HW227957   1.743   6.991   0.057
 9020SOL     OW27958   1.791   3.951   2.287
 9020SOL    HW127959   1.741   3.951   2.374
 9020SOL    HW227960   1.816   4.044   2.262
 9021SOL     OW27961   6.941   6.531   3.953
 9021SOL    HW127962   0.021   6.547   3.937
 9021SOL    HW227963   6.890   6.617   3.945
 9022SOL     OW27964   2.749   0.533   0.496
 9022SOL    HW127965   2.723   0.502   0.404
 9022SOL    HW227966   2.827   0.480   0.528
 9023SOL     OW27967   4.006   3.340   3.435
 9023SOL    HW127968   3.961   3.427   3.455
 9023SOL    HW227969   4.065   3.350   3.356
 9024SOL     OW27970   1.795   5.963   6.173
 9024SOL    HW127971   1.749   6.052   6.172
 9024SOL    HW227972   1.811   5.933   6.079
 9025SOL     OW27973   6.289   5.911   1.765
 9025SOL    HW127974   6.209   5.961   1.798
 9025SOL    HW227975   6.372   5.959   1.793
 9026SOL     OW27976   3.659   3.282   4.016
 9026SOL    HW127977   3.730   3.244   4.075
 9026SOL    HW227978   3.699   3.308   3.928
 9027SOL     OW27979   2.523   1.566   3.678
 9027SOL    HW127980   2.486   1.484   3.721
 9027SOL    HW227981   2.451   1.614   3.629
 9028SOL     OW27982   2.189   4.390   6.451
 9028SOL    HW127983   2.189   4.391   6.551
 9028SOL    HW227984   2.136   4.467   6.417
 9029SOL     OW27985   3.704   5.452   5.065
 9029SOL    HW127986   3.630   5.385   5.077
 9029SOL    HW227987   3.713   5.475   4.968
 9030SOL     OW27988   1.433   0.536   2.441
 9030SOL    HW127989   1.457   0.628   2.410
 9030SOL    HW227990   1.350   0.540   2.497
 9031SOL     OW27991   2.939   5.167   6.061
 9031SOL    HW127992   3.029   5.207   6.045
 9031SOL    HW227993   2.948   5.068   6.075
 9032SOL     OW27994   3.954   2.949   1.136
 9032SOL    HW127995   3.931   2.932   1.040
 9032SOL    HW227996   4.020   3.024   1.142
 9033SOL     OW27997   1.824   3.140   4.098
 9033SOL    HW127998   1.863   3.231   4.112
 9033SOL    HW227999   1.860   3.101   4.014
 9034SOL     OW28000   2.652   6.444   5.096
 9034SOL    HW128001   2.665   6.539   5.124
 9034SOL    HW228002   2.585   6.400   5.155
 9035SOL     OW28003   0.551   6.796   5.665
 9035SOL    HW128004   0.531   6.832   5.757
 9035SOL    HW228005   0.472   6.811   5.606
 9036SOL     OW28006   2.421   2.172   5.592
 9036SOL    HW128007   2.342   2.145   5.536
 9036SOL    HW228008   2.408   2.265   5.624
 9037SOL     OW28009   2.048   3.666   6.636
 9037SOL    HW128010   2.089   3.632   6.551
 9037SOL    HW228011   2.114   3.725   6.683
 9038SOL     OW28012   5.581   0.886   5.973
 9038SOL    HW128013   5.482   0.877   5.970
 9038SOL    HW228014   5.607   0.979   5.950
 9039SOL     OW28015   2.136   4.475   5.201
 9039SOL    HW128016   2.175   4.389   5.167
 9039SOL    HW228017   2.114   4.466   5.298
 9040SOL     OW28018   2.908   1.002   3.507
 9040SOL    HW128019   2.945   0.912   3.485
 9040SOL    HW228020   2.951   1.037   3.591
 9041SOL     OW28021   0.726   1.399   2.314
 9041SOL    HW128022   0.745   1.356   2.403
 9041SOL    HW228023   0.787   1.361   2.245
 9042SOL     OW28024   2.733   6.517   3.642
 9042SOL    HW128025   2.725   6.616   3.655
 9042SOL    HW228026   2.792   6.479   3.713
 9043SOL     OW28027   1.937   1.802   5.696
 9043SOL    HW128028   1.923   1.780   5.600
 9043SOL    HW228029   2.001   1.878   5.705
 9044SOL     OW28030   6.476   0.992   0.723
 9044SOL    HW128031   6.403   1.057   0.703
 9044SOL    HW228032   6.527   1.022   0.804
 9045SOL     OW28033   3.824   0.976   2.462
 9045SOL    HW128034   3.804   1.013   2.371
 9045SOL    HW228035   3.853   1.050   2.523
 9046SOL     OW28036   3.811   3.882   5.409
 9046SOL    HW128037   3.777   3.972   5.381
 9046SOL    HW228038   3.836   3.829   5.328
 9047SOL     OW28039   1.723   4.290   5.317
 9047SOL    HW128040   1.736   4.194   5.293
 9047SOL    HW228041   1.725   4.300   5.416
 9048SOL     OW28042   0.688   3.680   5.637
 9048SOL    HW128043   0.605   3.634   5.667
 9048SOL    HW228044   0.700   3.665   5.538
 9049SOL     OW28045   5.011   6.377   6.923
 9049SOL    HW128046   4.923   6.365   6.877
 9049SOL    HW228047   5.004   6.451   6.989
 9050SOL     OW28048   1.138   5.167   6.693
 9050SOL    HW128049   1.147   5.177   6.793
 9050SOL    HW228050   1.136   5.257   6.651
 9051SOL     OW28051   4.594   6.050   1.144
 9051SOL    HW128052   4.504   6.082   1.114
 9051SOL    HW228053   4.583   5.975   1.209
 9052SOL     OW28054   2.996   4.923   4.241
 9052SOL    HW128055   2.923   4.867   4.281
 9052SOL    HW228056   2.989   4.919   4.141
 9053SOL     OW28057   2.620   2.123   3.928
 9053SOL    HW128058   2.681   2.201   3.947
 9053SOL    HW228059   2.627   2.099   3.831
 9054SOL     OW28060   1.974   0.932   2.155
 9054SOL    HW128061   2.049   0.984   2.114
 9054SOL    HW228062   2.010   0.847   2.194
 9055SOL     OW28063   0.553   4.288   3.397
 9055SOL    HW128064   0.469   4.275   3.344
 9055SOL    HW228065   0.529   4.300   3.494
 9056SOL     OW28066   4.995   0.606   1.702
 9056SOL    HW128067   4.935   0.624   1.780
 9056SOL    HW228068   5.025   0.693   1.663
 9057SOL     OW28069   6.562   4.752   5.669
 9057SOL    HW128070   6.472   4.793   5.684
 9057SOL    HW228071   6.615   4.810   5.607
 9058SOL     OW28072   2.214   1.871   4.331
 9058SOL    HW128073   2.119   1.900   4.316
 9058SOL    HW228074   2.218   1.806   4.406
 9059SOL     OW28075   6.889   0.494   2.973
 9059SOL    HW128076   6.954   0.439   3.024
 9059SOL    HW228077   6.838   0.553   3.036
 9060SOL     OW28078   6.754   3.770   2.751
 9060SOL    HW128079   6.697   3.726   2.682
 9060SOL    HW228080   6.712   3.758   2.841
 9061SOL     OW28081   4.563   5.690   3.158
 9061SOL    HW128082   4.629   5.616   3.172
 9061SOL    HW228083   4.592   5.746   3.080
 9062SOL     OW28084   1.039   4.929   2.008
 9062SOL    HW128085   1.021   5.027   2.006
 9062SOL    HW228086   0.953   4.879   2.019
 9063SOL     OW28087   3.363   0.888   2.098
 9063SOL    HW128088   3.281   0.894   2.041
 9063SOL    HW228089   3.369   0.969   2.156
 9064SOL     OW28090   6.314   4.432   4.193
 9064SOL    HW128091   6.391   4.380   4.157
 9064SOL    HW228092   6.323   4.441   4.292
 9065SOL     OW28093   2.714   6.132   5.824
 9065SOL    HW128094   2.616   6.114   5.814
 9065SOL    HW228095   2.749   6.177   5.742
 9066SOL     OW28096   6.534   0.387   6.193
 9066SOL    HW128097   6.597   0.310   6.201
 9066SOL    HW228098   6.529   0.435   6.281
 9067SOL     OW28099   6.566   6.235   4.326
 9067SOL    HW128100   6.467   6.223   4.327
 9067SOL    HW228101   6.608   6.163   4.270
 9068SOL     OW28102   3.488   6.632   5.335
 9068SOL    HW128103   3.507   6.652   5.239
 9068SOL    HW228104   3.498   6.715   5.389
 9069SOL     OW28105   4.552   1.908   2.872
 9069SOL    HW128106   4.470   1.943   2.828
 9069SOL    HW228107   4.548   1.926   2.970
 9070SOL     OW28108   1.924   2.489   6.292
 9070SOL    HW128109   1.828   2.460   6.292
 9070SOL    HW228110   1.975   2.436   6.359
 9071SOL     OW28111   4.904   0.320   6.454
 9071SOL    HW128112   4.982   0.356   6.402
 9071SOL    HW228113   4.931   0.302   6.548
 9072SOL     OW28114   5.167   6.567   1.191
 9072SOL    HW128115   5.222   6.555   1.274
 9072SOL    HW228116   5.094   6.632   1.208
 9073SOL     OW28117   3.666   6.355   1.604
 9073SOL    HW128118   3.623   6.266   1.620
 9073SOL    HW228119   3.650   6.383   1.509
 9074SOL     OW28120   1.421   0.908   1.677
 9074SOL    HW128121   1.396   0.852   1.756
 9074SOL    HW228122   1.354   0.893   1.604
 9075SOL     OW28123   0.281   0.084   2.048
 9075SOL    HW128124   0.249   0.165   1.998
 9075SOL    HW228125   0.240   0.002   2.008
 9076SOL     OW28126   4.600   1.541   3.880
 9076SOL    HW128127   4.513   1.577   3.913
 9076SOL    HW228128   4.646   1.491   3.954
 9077SOL     OW28129   4.670   1.692   6.336
 9077SOL    HW128130   4.745   1.626   6.348
 9077SOL    HW228131   4.595   1.648   6.286
 9078SOL     OW28132   5.494   5.082   6.675
 9078SOL    HW128133   5.516   5.027   6.756
 9078SOL    HW228134   5.556   5.160   6.669
 9079SOL     OW28135   1.567   0.145   4.718
 9079SOL    HW128136   1.549   0.146   4.620
 9079SOL    HW228137   1.481   0.151   4.768
 9080SOL     OW28138   6.087   3.060   0.264
 9080SOL    HW128139   6.124   2.983   0.213
 9080SOL    HW228140   6.145   3.079   0.344
 9081SOL     OW28141   3.542   1.524   1.779
 9081SOL    HW128142   3.510   1.585   1.852
 9081SOL    HW228143   3.597   1.450   1.818
 9082SOL     OW28144   2.270   6.416   5.038
 9082SOL    HW128145   2.272   6.509   5.074
 9082SOL    HW228146   2.203   6.363   5.090
 9083SOL     OW28147   4.027   3.712   6.696
 9083SOL    HW128148   4.102   3.740   6.756
 9083SOL    HW228149   3.973   3.792   6.670
 9084SOL     OW28150   1.226   2.400   6.256
 9084SOL    HW128151   1.241   2.322   6.196
 9084SOL    HW228152   1.282   2.390   6.338
 9085SOL     OW28153   2.389   5.668   1.412
 9085SOL    HW128154   2.469   5.672   1.352
 9085SOL    HW228155   2.379   5.756   1.458
 9086SOL     OW28156   5.733   4.300   1.114
 9086SOL    HW128157   5.731   4.211   1.067
 9086SOL    HW228158   5.699   4.371   1.052
 9087SOL     OW28159   5.288   2.963   2.266
 9087SOL    HW128160   5.295   3.055   2.227
 9087SOL    HW228161   5.280   2.969   2.366
 9088SOL     OW28162   6.337   6.917   1.242
 9088SOL    HW128163   6.371   6.996   1.294
 9088SOL    HW228164   6.245   6.894   1.274
 9089SOL     OW28165   3.921   5.908   5.340
 9089SOL    HW128166   3.824   5.930   5.353
 9089SOL    HW228167   3.931   5.808   5.331
 9090SOL     OW28168   5.294   0.545   3.638
 9090SOL    HW128169   5.389   0.551   3.669
 9090SOL    HW228170   5.278   0.456   3.596
 9091SOL     OW28171   2.917   3.428   0.753
 9091SOL    HW128172   2.875   3.519   0.759
 9091SOL    HW228173   3.004   3.428   0.802
 9092SOL     OW28174   0.876   1.308   6.959
 9092SOL    HW128175   0.898   1.279   6.866
 9092SOL    HW228176   0.780   1.337   6.963
 9093SOL     OW28177   1.031   6.404   6.722
 9093SOL    HW128178   1.094   6.331   6.749
 9093SOL    HW228179   1.059   6.489   6.766
 9094SOL     OW28180   0.916   5.190   2.643
 9094SOL    HW128181   0.920   5.096   2.678
 9094SOL    HW228182   1.007   5.232   2.651
 9095SOL     OW28183   4.985   4.048   6.152
 9095SOL    HW128184   4.919   4.072   6.224
 9095SOL    HW228185   4.987   3.949   6.139
 9096SOL     OW28186   5.429   3.797   2.981
 9096SOL    HW128187   5.504   3.863   2.989
 9096SOL    HW228188   5.342   3.843   3.002
 9097SOL     OW28189   0.298   3.216   6.817
 9097SOL    HW128190   0.290   3.219   6.916
 9097SOL    HW228191   0.269   3.304   6.778
 9098SOL     OW28192   3.585   2.709   6.910
 9098SOL    HW128193   3.683   2.726   6.898
 9098SOL    HW228194   3.537   2.732   6.825
 9099SOL     OW28195   3.437   3.543   0.611
 9099SOL    HW128196   3.457   3.445   0.610
 9099SOL    HW228197   3.404   3.569   0.702
 9100SOL     OW28198   0.966   3.202   2.700
 9100SOL    HW128199   1.003   3.120   2.742
 9100SOL    HW228200   0.927   3.179   2.611
 9101SOL     OW28201   2.061   2.787   3.000
 9101SOL    HW128202   2.116   2.789   2.916
 9101SOL    HW228203   2.122   2.771   3.078
 9102SOL     OW28204   3.264   6.571   1.597
 9102SOL    HW128205   3.214   6.653   1.625
 9102SOL    HW228206   3.355   6.572   1.640
 9103SOL     OW28207   6.569   3.856   6.688
 9103SOL    HW128208   6.474   3.869   6.657
 9103SOL    HW228209   6.623   3.819   6.613
 9104SOL     OW28210   4.168   6.271   2.941
 9104SOL    HW128211   4.192   6.203   3.009
 9104SOL    HW228212   4.239   6.276   2.871
 9105SOL     OW28213   1.666   0.749   0.657
 9105SOL    HW128214   1.587   0.694   0.631
 9105SOL    HW228215   1.718   0.773   0.574
 9106SOL     OW28216   5.892   3.948   6.551
 9106SOL    HW128217   5.811   4.003   6.572
 9106SOL    HW228218   5.929   3.976   6.463
 9107SOL     OW28219   3.641   0.617   5.488
 9107SOL    HW128220   3.729   0.571   5.506
 9107SOL    HW228221   3.628   0.626   5.390
 9108SOL     OW28222   5.288   3.658   5.637
 9108SOL    HW128223   5.347   3.607   5.700
 9108SOL    HW228224   5.202   3.608   5.625
 9109SOL     OW28225   1.354   2.542   2.670
 9109SOL    HW128226   1.383   2.590   2.753
 9109SOL    HW228227   1.414   2.464   2.654
 9110SOL     OW28228   2.064   4.482   4.088
 9110SOL    HW128229   2.073   4.560   4.026
 9110SOL    HW228230   2.148   4.429   4.087
 9111SOL     OW28231   3.982   3.063   6.849
 9111SOL    HW128232   3.991   3.105   6.939
 9111SOL    HW228233   4.031   3.118   6.781
 9112SOL     OW28234   0.818   4.453   5.072
 9112SOL    HW128235   0.913   4.425   5.063
 9112SOL    HW228236   0.770   4.439   4.985
 9113SOL     OW28237   4.383   6.813   0.580
 9113SOL    HW128238   4.308   6.792   0.518
 9113SOL    HW228239   4.447   6.736   0.583
 9114SOL     OW28240   1.428   4.872   1.067
 9114SOL    HW128241   1.391   4.822   1.145
 9114SOL    HW228242   1.485   4.947   1.099
 9115SOL     OW28243   0.925   5.548   5.683
 9115SOL    HW128244   0.971   5.483   5.744
 9115SOL    HW228245   0.897   5.629   5.735
 9116SOL     OW28246   6.577   1.681   0.184
 9116SOL    HW128247   6.514   1.654   0.111
 9116SOL    HW228248   6.641   1.606   0.203
 9117SOL     OW28249   5.630   2.974   0.590
 9117SOL    HW128250   5.583   2.900   0.637
 9117SOL    HW228251   5.721   2.943   0.560
 9118SOL     OW28252   6.133   5.627   0.308
 9118SOL    HW128253   6.113   5.658   0.214
 9118SOL    HW228254   6.221   5.664   0.337
 9119SOL     OW28255   5.382   1.079   1.529
 9119SOL    HW128256   5.295   1.096   1.484
 9119SOL    HW228257   5.391   1.140   1.608
 9120SOL     OW28258   5.882   2.330   5.853
 9120SOL    HW128259   5.790   2.369   5.842
 9120SOL    HW228260   5.897   2.259   5.784
 9121SOL     OW28261   2.939   2.363   5.998
 9121SOL    HW128262   2.966   2.372   6.094
 9121SOL    HW228263   2.993   2.426   5.942
 9122SOL     OW28264   1.856   4.334   1.897
 9122SOL    HW128265   1.892   4.425   1.917
 9122SOL    HW228266   1.931   4.268   1.898
 9123SOL     OW28267   3.420   0.006   4.290
 9123SOL    HW128268   3.413   6.967   4.372
 9123SOL    HW228269   3.449   0.099   4.314
 9124SOL     OW28270   5.400   6.671   6.070
 9124SOL    HW128271   5.354   6.635   5.989
 9124SOL    HW228272   5.498   6.655   6.062
 9125SOL     OW28273   5.028   4.234   1.908
 9125SOL    HW128274   4.987   4.325   1.906
 9125SOL    HW228275   5.075   4.221   1.996
 9126SOL     OW28276   5.706   2.611   1.123
 9126SOL    HW128277   5.782   2.670   1.150
 9126SOL    HW228278   5.647   2.594   1.202
 9127SOL     OW28279   6.535   1.544   6.249
 9127SOL    HW128280   6.532   1.644   6.246
 9127SOL    HW228281   6.599   1.511   6.180
 9128SOL     OW28282   4.886   1.793   5.157
 9128SOL    HW128283   4.930   1.881   5.176
 9128SOL    HW228284   4.818   1.774   5.227
 9129SOL     OW28285   0.185   2.879   1.045
 9129SOL    HW128286   0.194   2.783   1.068
 9129SOL    HW228287   0.266   2.909   0.994
 9130SOL     OW28288   0.055   3.455   0.522
 9130SOL    HW128289   0.056   3.538   0.466
 9130SOL    HW228290   6.985   3.449   0.570
 9131SOL     OW28291   0.047   2.914   5.602
 9131SOL    HW128292   0.012   2.861   5.680
 9131SOL    HW228293   0.008   2.877   5.518
 9132SOL     OW28294   0.326   4.920   4.419
 9132SOL    HW128295   0.386   4.874   4.484
 9132SOL    HW228296   0.240   4.869   4.411
 9133SOL     OW28297   4.090   5.894   1.969
 9133SOL    HW128298   4.026   5.878   1.894
 9133SOL    HW228299   4.153   5.817   1.977
 9134SOL     OW28300   4.854   6.046   0.054
 9134SOL    HW128301   4.826   6.040   0.150
 9134SOL    HW228302   4.846   5.956   0.012
 9135SOL     OW28303   6.277   6.516   1.418
 9135SOL    HW128304   6.347   6.484   1.354
 9135SOL    HW228305   6.319   6.578   1.485
 9136SOL     OW28306   5.378   5.686   6.091
 9136SOL    HW128307   5.413   5.772   6.054
 9136SOL    HW228308   5.306   5.651   6.031
 9137SOL     OW28309   5.054   2.156   1.290
 9137SOL    HW128310   5.054   2.072   1.235
 9137SOL    HW228311   4.989   2.221   1.251
 9138SOL     OW28312   0.456   6.133   5.884
 9138SOL    HW128313   0.361   6.129   5.853
 9138SOL    HW228314   0.468   6.070   5.961
 9139SOL     OW28315   2.184   1.677   4.552
 9139SOL    HW128316   2.216   1.680   4.647
 9139SOL    HW228317   2.084   1.677   4.550
 9140SOL     OW28318   6.215   3.341   3.176
 9140SOL    HW128319   6.206   3.270   3.107
 9140SOL    HW228320   6.186   3.429   3.138
 9141SOL     OW28321   5.850   0.748   6.991
 9141SOL    HW128322   5.948   0.745   6.971
 9141SOL    HW228323   5.803   0.803   6.922
 9142SOL     OW28324   0.288   2.197   1.542
 9142SOL    HW128325   0.230   2.227   1.466
 9142SOL    HW228326   0.243   2.218   1.629
 9143SOL     OW28327   6.143   3.322   0.934
 9143SOL    HW128328   6.150   3.233   0.890
 9143SOL    HW228329   6.050   3.334   0.970
 9144SOL     OW28330   2.321   5.077   5.583
 9144SOL    HW128331   2.406   5.026   5.585
 9144SOL    HW228332   2.296   5.099   5.488
 9145SOL     OW28333   0.168   5.613   0.223
 9145SOL    HW128334   0.203   5.641   0.312
 9145SOL    HW228335   0.126   5.522   0.231
 9146SOL     OW28336   5.198   3.099   2.869
 9146SOL    HW128337   5.103   3.125   2.857
 9146SOL    HW228338   5.203   3.005   2.904
 9147SOL     OW28339   6.273   0.702   4.638
 9147SOL    HW128340   6.356   0.656   4.606
 9147SOL    HW228341   6.223   0.641   4.700
 9148SOL     OW28342   4.675   6.323   0.517
 9148SOL    HW128343   4.714   6.235   0.491
 9148SOL    HW228344   4.595   6.309   0.575
 9149SOL     OW28345   5.980   3.435   3.639
 9149SOL    HW128346   6.014   3.344   3.619
 9149SOL    HW228347   6.040   3.479   3.706
 9150SOL     OW28348   3.075   4.899   1.699
 9150SOL    HW128349   3.159   4.887   1.752
 9150SOL    HW228350   3.049   4.812   1.657
 9151SOL     OW28351   1.716   4.686   3.698
 9151SOL    HW128352   1.763   4.623   3.635
 9151SOL    HW228353   1.771   4.768   3.711
 9152SOL     OW28354   2.259   4.415   4.762
 9152SOL    HW128355   2.332   4.452   4.820
 9152SOL    HW228356   2.231   4.326   4.797
 9153SOL     OW28357   1.052   3.591   0.391
 9153SOL    HW128358   1.116   3.666   0.371
 9153SOL    HW228359   1.033   3.540   0.307
 9154SOL     OW28360   4.404   4.342   6.231
 9154SOL    HW128361   4.382   4.245   6.226
 9154SOL    HW228362   4.482   4.356   6.291
 9155SOL     OW28363   1.827   3.932   1.910
 9155SOL    HW128364   1.774   3.980   1.839
 9155SOL    HW228365   1.775   3.852   1.941
 9156SOL     OW28366   1.085   2.268   1.052
 9156SOL    HW128367   1.145   2.203   1.004
 9156SOL    HW228368   0.990   2.240   1.041
 9157SOL     OW28369   6.747   4.541   5.441
 9157SOL    HW128370   6.795   4.525   5.354
 9157SOL    HW228371   6.793   4.615   5.491
 9158SOL     OW28372   5.630   3.132   4.571
 9158SOL    HW128373   5.717   3.091   4.599
 9158SOL    HW228374   5.559   3.109   4.638
 9159SOL     OW28375   2.009   0.691   2.275
 9159SOL    HW128376   2.020   0.673   2.372
 9159SOL    HW228377   1.979   0.607   2.229
 9160SOL     OW28378   5.922   0.007   5.282
 9160SOL    HW128379   5.954   6.960   5.212
 9160SOL    HW228380   5.908   0.097   5.241
 9161SOL     OW28381   4.872   3.993   4.934
 9161SOL    HW128382   4.837   4.009   4.842
 9161SOL    HW228383   4.808   3.936   4.986
 9162SOL     OW28384   4.413   0.971   4.357
 9162SOL    HW128385   4.413   1.044   4.426
 9162SOL    HW228386   4.487   0.906   4.378
 9163SOL     OW28387   1.733   2.534   4.574
 9163SOL    HW128388   1.725   2.543   4.475
 9163SOL    HW228389   1.830   2.536   4.600
 9164SOL     OW28390   2.697   0.463   6.017
 9164SOL    HW128391   2.624   0.531   6.020
 9164SOL    HW228392   2.662   0.378   5.979
 9165SOL     OW28393   6.094   2.019   5.999
 9165SOL    HW128394   6.176   1.988   6.047
 9165SOL    HW228395   6.121   2.064   5.913
 9166SOL     OW28396   4.071   6.064   1.622
 9166SOL    HW128397   4.084   6.072   1.523
 9166SOL    HW228398   4.010   6.138   1.653
 9167SOL     OW28399   2.494   2.207   6.681
 9167SOL    HW128400   2.502   2.250   6.771
 9167SOL    HW228401   2.534   2.267   6.612
 9168SOL     OW28402   0.176   0.326   6.721
 9168SOL    HW128403   0.153   0.421   6.703
 9168SOL    HW228404   0.135   0.297   6.808
 9169SOL     OW28405   6.046   0.620   5.204
 9169SOL    HW128406   6.114   0.630   5.277
 9169SOL    HW228407   6.059   0.532   5.159
 9170SOL     OW28408   1.415   6.329   6.674
 9170SOL    HW128409   1.383   6.235   6.660
 9170SOL    HW228410   1.345   6.393   6.644
 9171SOL     OW28411   4.381   5.018   0.940
 9171SOL    HW128412   4.454   4.990   0.878
 9171SOL    HW228413   4.356   5.113   0.922
 9172SOL     OW28414   4.168   0.890   2.638
 9172SOL    HW128415   4.140   0.812   2.583
 9172SOL    HW228416   4.232   0.947   2.586
 9173SOL     OW28417   6.839   3.514   5.347
 9173SOL    HW128418   6.838   3.484   5.442
 9173SOL    HW228419   6.754   3.564   5.327
 9174SOL     OW28420   5.687   3.907   1.886
 9174SOL    HW128421   5.644   3.874   1.802
 9174SOL    HW228422   5.744   3.987   1.865
 9175SOL     OW28423   0.573   0.184   5.332
 9175SOL    HW128424   0.613   0.160   5.244
 9175SOL    HW228425   0.641   0.173   5.404
 9176SOL     OW28426   2.493   1.330   4.312
 9176SOL    HW128427   2.459   1.413   4.357
 9176SOL    HW228428   2.445   1.317   4.225
 9177SOL     OW28429   0.448   4.842   5.086
 9177SOL    HW128430   0.509   4.798   5.021
 9177SOL    HW228431   0.456   4.942   5.078
 9178SOL     OW28432   1.532   4.754   0.539
 9178SOL    HW128433   1.437   4.779   0.558
 9178SOL    HW228434   1.535   4.676   0.477
 9179SOL     OW28435   2.523   4.518   4.116
 9179SOL    HW128436   2.589   4.516   4.041
 9179SOL    HW228437   2.458   4.592   4.102
 9180SOL     OW28438   6.370   2.583   3.458
 9180SOL    HW128439   6.436   2.588   3.533
 9180SOL    HW228440   6.419   2.567   3.372
 9181SOL     OW28441   4.353   2.125   5.249
 9181SOL    HW128442   4.323   2.150   5.157
 9181SOL    HW228443   4.441   2.078   5.244
 9182SOL     OW28444   2.854   6.253   1.404
 9182SOL    HW128445   2.870   6.328   1.468
 9182SOL    HW228446   2.787   6.189   1.444
 9183SOL     OW28447   5.018   5.795   0.204
 9183SOL    HW128448   4.985   5.716   0.255
 9183SOL    HW228449   5.041   5.767   0.111
 9184SOL     OW28450   4.588   1.931   0.365
 9184SOL    HW128451   4.540   1.875   0.298
 9184SOL    HW228452   4.680   1.894   0.380
 9185SOL     OW28453   4.514   6.857   4.568
 9185SOL    HW128454   4.551   6.765   4.579
 9185SOL    HW228455   4.567   6.907   4.500
 9186SOL     OW28456   5.499   6.045   4.600
 9186SOL    HW128457   5.582   6.032   4.655
 9186SOL    HW228458   5.441   6.113   4.643
 9187SOL     OW28459   2.517   1.949   0.503
 9187SOL    HW128460   2.445   2.007   0.540
 9187SOL    HW228461   2.576   2.005   0.444
 9188SOL     OW28462   1.223   6.613   0.089
 9188SOL    HW128463   1.307   6.558   0.084
 9188SOL    HW228464   1.199   6.628   0.185
 9189SOL     OW28465   2.996   5.958   1.785
 9189SOL    HW128466   3.058   5.942   1.862
 9189SOL    HW228467   3.011   6.050   1.749
 9190SOL     OW28468   2.683   4.563   5.618
 9190SOL    HW128469   2.691   4.578   5.519
 9190SOL    HW228470   2.596   4.518   5.637
 9191SOL     OW28471   6.536   2.074   6.498
 9191SOL    HW128472   6.595   2.055   6.577
 9191SOL    HW228473   6.528   2.173   6.486
 9192SOL     OW28474   1.420   2.610   5.922
 9192SOL    HW128475   1.320   2.615   5.927
 9192SOL    HW228476   1.452   2.654   5.839
 9193SOL     OW28477   3.521   4.019   6.489
 9193SOL    HW128478   3.460   4.038   6.412
 9193SOL    HW228479   3.535   4.102   6.542
 9194SOL     OW28480   3.330   0.855   3.406
 9194SOL    HW128481   3.316   0.896   3.316
 9194SOL    HW228482   3.428   0.849   3.425
 9195SOL     OW28483   1.208   1.597   3.090
 9195SOL    HW128484   1.287   1.551   3.131
 9195SOL    HW228485   1.131   1.596   3.153
 9196SOL     OW28486   5.518   0.380   2.791
 9196SOL    HW128487   5.473   0.469   2.780
 9196SOL    HW228488   5.612   0.394   2.821
 9197SOL     OW28489   1.726   4.918   1.142
 9197SOL    HW128490   1.820   4.886   1.151
 9197SOL    HW228491   1.688   4.936   1.233
 9198SOL     OW28492   6.060   4.692   6.828
 9198SOL    HW128493   6.042   4.760   6.899
 9198SOL    HW228494   6.121   4.731   6.759
 9199SOL     OW28495   1.219   3.612   5.395
 9199SOL    HW128496   1.199   3.600   5.492
 9199SOL    HW228497   1.248   3.706   5.379
 9200SOL     OW28498   2.777   6.581   6.907
 9200SOL    HW128499   2.724   6.647   6.960
 9200SOL    HW228500   2.856   6.627   6.867
 9201SOL     OW28501   6.845   3.325   0.269
 9201SOL    HW128502   6.895   3.238   0.267
 9201SOL    HW228503   6.844   3.362   0.362
 9202SOL     OW28504   0.943   6.271   2.519
 9202SOL    HW128505   0.953   6.363   2.558
 9202SOL    HW228506   1.034   6.232   2.503
 9203SOL     OW28507   0.274   3.932   5.428
 9203SOL    HW128508   0.197   3.995   5.420
 9203SOL    HW228509   0.274   3.891   5.519
 9204SOL     OW28510   5.482   3.194   6.141
 9204SOL    HW128511   5.489   3.218   6.044
 9204SOL    HW228512   5.546   3.250   6.194
 9205SOL     OW28513   5.312   5.818   3.521
 9205SOL    HW128514   5.280   5.909   3.546
 9205SOL    HW228515   5.381   5.825   3.449
 9206SOL     OW28516   3.862   5.196   3.452
 9206SOL    HW128517   3.819   5.266   3.395
 9206SOL    HW228518   3.844   5.216   3.548
 9207SOL     OW28519   4.831   4.258   5.621
 9207SOL    HW128520   4.929   4.263   5.603
 9207SOL    HW228521   4.816   4.220   5.713
 9208SOL     OW28522   5.903   4.777   3.719
 9208SOL    HW128523   5.867   4.791   3.812
 9208SOL    HW228524   5.841   4.719   3.668
 9209SOL     OW28525   4.440   0.393   0.126
 9209SOL    HW128526   4.448   0.422   0.031
 9209SOL    HW228527   4.401   0.467   0.181
 9210SOL     OW28528   0.250   0.995   2.257
 9210SOL    HW128529   0.293   1.066   2.201
 9210SOL    HW228530   0.309   0.915   2.259
 9211SOL     OW28531   0.358   2.867   5.725
 9211SOL    HW128532   0.283   2.881   5.661
 9211SOL    HW228533   0.425   2.804   5.685
 9212SOL     OW28534   4.422   6.116   4.383
 9212SOL    HW128535   4.457   6.173   4.308
 9212SOL    HW228536   4.329   6.086   4.360
 9213SOL     OW28537   5.766   2.907   5.212
 9213SOL    HW128538   5.859   2.877   5.192
 9213SOL    HW228539   5.767   2.969   5.290
 9214SOL     OW28540   6.986   3.854   6.114
 9214SOL    HW128541   7.002   3.783   6.183
 9214SOL    HW228542   6.904   3.906   6.139
 9215SOL     OW28543   0.975   2.809   1.495
 9215SOL    HW128544   0.945   2.732   1.438
 9215SOL    HW228545   0.921   2.811   1.579
 9216SOL     OW28546   3.472   0.272   2.067
 9216SOL    HW128547   3.467   0.364   2.030
 9216SOL    HW228548   3.417   0.210   2.011
 9217SOL     OW28549   0.112   2.723   6.638
 9217SOL    HW128550   0.017   2.698   6.625
 9217SOL    HW228551   0.116   2.811   6.686
 9218SOL     OW28552   2.007   0.694   6.889
 9218SOL    HW128553   2.071   0.710   6.814
 9218SOL    HW228554   1.949   0.615   6.868
 9219SOL     OW28555   5.589   3.439   0.557
 9219SOL    HW128556   5.508   3.457   0.502
 9219SOL    HW228557   5.667   3.422   0.497
 9220SOL     OW28558   1.477   6.569   1.453
 9220SOL    HW128559   1.453   6.564   1.356
 9220SOL    HW228560   1.444   6.655   1.491
 9221SOL     OW28561   2.666   0.804   3.130
 9221SOL    HW128562   2.762   0.799   3.103
 9221SOL    HW228563   2.655   0.770   3.223
 9222SOL     OW28564   2.422   6.515   6.130
 9222SOL    HW128565   2.343   6.490   6.186
 9222SOL    HW228566   2.468   6.432   6.099
 9223SOL     OW28567   0.998   2.163   3.623
 9223SOL    HW128568   1.017   2.067   3.642
 9223SOL    HW228569   0.993   2.177   3.524
 9224SOL     OW28570   1.162   5.116   4.238
 9224SOL    HW128571   1.249   5.131   4.190
 9224SOL    HW228572   1.179   5.072   4.325
 9225SOL     OW28573   2.920   6.712   6.476
 9225SOL    HW128574   2.828   6.710   6.516
 9225SOL    HW228575   2.962   6.801   6.494
 9226SOL     OW28576   6.302   0.042   1.689
 9226SOL    HW128577   6.350   0.107   1.630
 9226SOL    HW228578   6.205   0.040   1.664
 9227SOL     OW28579   1.666   6.093   0.636
 9227SOL    HW128580   1.616   6.020   0.590
 9227SOL    HW228581   1.724   6.055   0.707
 9228SOL     OW28582   1.695   2.224   6.019
 9228SOL    HW128583   1.783   2.267   6.037
 9228SOL    HW228584   1.623   2.293   6.019
 9229SOL     OW28585   1.063   5.380   5.295
 9229SOL    HW128586   1.080   5.284   5.271
 9229SOL    HW228587   1.120   5.405   5.373
 9230SOL     OW28588   4.765   2.343   3.627
 9230SOL    HW128589   4.842   2.365   3.567
 9230SOL    HW228590   4.680   2.348   3.576
 9231SOL     OW28591   0.608   3.614   4.541
 9231SOL    HW128592   0.668   3.558   4.484
 9231SOL    HW228593   0.514   3.604   4.511
 9232SOL     OW28594   3.937   5.185   0.550
 9232SOL    HW128595   3.981   5.156   0.635
 9232SOL    HW228596   3.840   5.164   0.553
 9233SOL     OW28597   5.522   5.330   1.844
 9233SOL    HW128598   5.434   5.364   1.878
 9233SOL    HW228599   5.597   5.373   1.895
 9234SOL     OW28600   3.416   6.313   6.236
 9234SOL    HW128601   3.483   6.364   6.291
 9234SOL    HW228602   3.461   6.234   6.195
 9235SOL     OW28603   1.590   3.353   2.970
 9235SOL    HW128604   1.669   3.297   2.992
 9235SOL    HW228605   1.515   3.332   3.033
 9236SOL     OW28606   1.884   4.597   5.963
 9236SOL    HW128607   1.937   4.679   5.938
 9236SOL    HW228608   1.908   4.523   5.900
 9237SOL     OW28609   1.881   5.824   4.705
 9237SOL    HW128610   1.885   5.727   4.730
 9237SOL    HW228611   1.830   5.874   4.776
 9238SOL     OW28612   3.253   1.589   0.129
 9238SOL    HW128613   3.155   1.609   0.121
 9238SOL    HW228614   3.300   1.667   0.169
 9239SOL     OW28615   6.323   4.039   0.340
 9239SOL    HW128616   6.274   3.955   0.316
 9239SOL    HW228617   6.399   4.052   0.277
 9240SOL     OW28618   5.039   1.358   1.446
 9240SOL    HW128619   4.986   1.412   1.511
 9240SOL    HW228620   5.011   1.382   1.353
 9241SOL     OW28621   0.704   5.416   5.807
 9241SOL    HW128622   0.758   5.458   5.734
 9241SOL    HW228623   0.607   5.426   5.787
 9242SOL     OW28624   1.185   4.969   6.501
 9242SOL    HW128625   1.278   4.968   6.463
 9242SOL    HW228626   1.171   5.055   6.551
 9243SOL     OW28627   6.534   6.752   1.293
 9243SOL    HW128628   6.482   6.811   1.231
 9243SOL    HW228629   6.489   6.663   1.300
 9244SOL     OW28630   4.527   5.514   6.237
 9244SOL    HW128631   4.446   5.459   6.217
 9244SOL    HW228632   4.534   5.589   6.171
 9245SOL     OW28633   1.828   5.241   3.016
 9245SOL    HW128634   1.910   5.187   3.040
 9245SOL    HW228635   1.747   5.197   3.054
 9246SOL     OW28636   0.157   5.664   2.632
 9246SOL    HW128637   0.145   5.694   2.726
 9246SOL    HW228638   0.187   5.568   2.631
 9247SOL     OW28639   1.266   6.736   2.649
 9247SOL    HW128640   1.264   6.836   2.641
 9247SOL    HW228641   1.359   6.706   2.665
 9248SOL     OW28642   2.176   2.043   4.122
 9248SOL    HW128643   2.181   1.946   4.144
 9248SOL    HW228644   2.268   2.082   4.117
 9249SOL     OW28645   4.008   3.786   0.262
 9249SOL    HW128646   4.047   3.878   0.249
 9249SOL    HW228647   4.080   3.723   0.289
 9250SOL     OW28648   5.523   3.386   3.862
 9250SOL    HW128649   5.555   3.468   3.909
 9250SOL    HW228650   5.521   3.309   3.925
 9251SOL     OW28651   4.166   1.857   2.378
 9251SOL    HW128652   4.198   1.840   2.471
 9251SOL    HW228653   4.113   1.778   2.347
 9252SOL     OW28654   5.691   0.242   4.496
 9252SOL    HW128655   5.611   0.296   4.520
 9252SOL    HW228656   5.770   0.274   4.548
 9253SOL     OW28657   5.754   6.534   5.216
 9253SOL    HW128658   5.743   6.626   5.253
 9253SOL    HW228659   5.774   6.539   5.118
 9254SOL     OW28660   6.342   4.638   2.830
 9254SOL    HW128661   6.303   4.730   2.834
 9254SOL    HW228662   6.307   4.591   2.748
 9255SOL     OW28663   4.510   3.848   0.167
 9255SOL    HW128664   4.426   3.882   0.209
 9255SOL    HW228665   4.584   3.851   0.235
 9256SOL     OW28666   4.103   6.756   2.624
 9256SOL    HW128667   4.071   6.770   2.718
 9256SOL    HW228668   4.131   6.660   2.613
 9257SOL     OW28669   6.970   3.613   2.842
 9257SOL    HW128670   6.999   3.619   2.938
 9257SOL    HW228671   6.940   3.703   2.811
 9258SOL     OW28672   3.094   3.186   3.540
 9258SOL    HW128673   3.137   3.096   3.534
 9258SOL    HW228674   3.166   3.256   3.544
 9259SOL     OW28675   1.497   2.518   7.004
 9259SOL    HW128676   1.556   2.574   6.947
 9259SOL    HW228677   1.538   2.508   0.078
 9260SOL     OW28678   4.919   2.091   4.889
 9260SOL    HW128679   4.928   2.128   4.796
 9260SOL    HW228680   4.908   1.992   4.884
 9261SOL     OW28681   4.801   0.906   6.835
 9261SOL    HW128682   4.704   0.926   6.847
 9261SOL    HW228683   4.855   0.964   6.896
 9262SOL     OW28684   0.041   3.994   5.904
 9262SOL    HW128685   0.040   3.942   5.989
 9262SOL    HW228686   6.983   3.964   5.845
 9263SOL     OW28687   5.300   6.202   1.534
 9263SOL    HW128688   5.361   6.139   1.583
 9263SOL    HW228689   5.209   6.200   1.576
 9264SOL     OW28690   5.246   4.565   0.657
 9264SOL    HW128691   5.147   4.577   0.652
 9264SOL    HW228692   5.288   4.651   0.686
 9265SOL     OW28693   3.564   2.104   0.036
 9265SOL    HW128694   3.635   2.036   0.015
 9265SOL    HW228695   3.573   2.182   6.991
 9266SOL     OW28696   2.461   6.982   1.699
 9266SOL    HW128697   2.525   6.908   1.675
 9266SOL    HW228698   2.367   6.948   1.691
 9267SOL     OW28699   0.075   3.045   5.004
 9267SOL    HW128700   0.081   3.139   4.970
 9267SOL    HW228701   0.097   3.043   5.102
 9268SOL     OW28702   0.856   5.307   1.835
 9268SOL    HW128703   0.762   5.278   1.852
 9268SOL    HW228704   0.912   5.292   1.917
 9269SOL     OW28705   3.127   1.345   6.012
 9269SOL    HW128706   3.178   1.293   5.944
 9269SOL    HW228707   3.030   1.323   6.005
 9270SOL     OW28708   4.428   6.410   6.073
 9270SOL    HW128709   4.422   6.427   5.975
 9270SOL    HW228710   4.338   6.421   6.115
 9271SOL     OW28711   0.156   0.562   0.073
 9271SOL    HW128712   0.138   0.547   6.993
 9271SOL    HW228713   0.253   0.581   0.086
 9272SOL     OW28714   1.564   5.514   4.142
 9272SOL    HW128715   1.650   5.463   4.139
 9272SOL    HW228716   1.568   5.582   4.215
 9273SOL     OW28717   6.065   6.337   3.597
 9273SOL    HW128718   6.161   6.352   3.623
 9273SOL    HW228719   6.009   6.333   3.680
 9274SOL     OW28720   6.434   2.689   0.283
 9274SOL    HW128721   6.445   2.768   0.222
 9274SOL    HW228722   6.349   2.699   0.335
 9275SOL     OW28723   0.046   1.329   6.567
 9275SOL    HW128724   0.048   1.388   6.648
 9275SOL    HW228725   6.972   1.335   6.523
 9276SOL     OW28726   2.174   3.789   2.461
 9276SOL    HW128727   2.116   3.725   2.512
 9276SOL    HW228728   2.184   3.757   2.367
 9277SOL     OW28729   5.209   3.182   0.130
 9277SOL    HW128730   5.301   3.143   0.123
 9277SOL    HW228731   5.212   3.270   0.178
 9278SOL     OW28732   1.614   0.757   5.923
 9278SOL    HW128733   1.632   0.815   6.003
 9278SOL    HW228734   1.594   0.664   5.953
 9279SOL     OW28735   5.100   0.875   1.611
 9279SOL    HW128736   5.100   0.885   1.710
 9279SOL    HW228737   5.098   0.966   1.569
 9280SOL     OW28738   2.070   1.923   3.592
 9280SOL    HW128739   2.107   1.974   3.515
 9280SOL    HW228740   2.144   1.904   3.657
 9281SOL     OW28741   2.601   4.746   0.851
 9281SOL    HW128742   2.536   4.675   0.877
 9281SOL    HW228743   2.694   4.712   0.864
 9282SOL     OW28744   4.715   1.139   4.131
 9282SOL    HW128745   4.618   1.124   4.113
 9282SOL    HW228746   4.770   1.089   4.064
 9283SOL     OW28747   5.727   0.586   3.615
 9283SOL    HW128748   5.659   0.613   3.683
 9283SOL    HW228749   5.718   0.644   3.534
 9284SOL     OW28750   3.540   3.511   6.140
 9284SOL    HW128751   3.529   3.610   6.152
 9284SOL    HW228752   3.480   3.463   6.204
 9285SOL     OW28753   4.879   2.897   1.266
 9285SOL    HW128754   4.917   2.987   1.286
 9285SOL    HW228755   4.917   2.863   1.179
 9286SOL     OW28756   5.366   6.259   0.379
 9286SOL    HW128757   5.465   6.245   0.377
 9286SOL    HW228758   5.341   6.328   0.311
 9287SOL     OW28759   3.214   5.228   6.542
 9287SOL    HW128760   3.303   5.272   6.552
 9287SOL    HW228761   3.170   5.220   6.632
 9288SOL     OW28762   4.283   1.211   3.766
 9288SOL    HW128763   4.344   1.132   3.767
 9288SOL    HW228764   4.307   1.270   3.688
 9289SOL     OW28765   3.892   1.416   2.432
 9289SOL    HW128766   3.816   1.407   2.368
 9289SOL    HW228767   3.925   1.325   2.457
 9290SOL     OW28768   5.308   0.984   3.154
 9290SOL    HW128769   5.336   0.949   3.243
 9290SOL    HW228770   5.214   1.018   3.160
 9291SOL     OW28771   1.607   6.853   4.190
 9291SOL    HW128772   1.546   6.866   4.269
 9291SOL    HW228773   1.574   6.775   4.136
 9292SOL     OW28774   0.930   3.836   0.222
 9292SOL    HW128775   0.898   3.844   0.128
 9292SOL    HW228776   0.946   3.740   0.244
 9293SOL     OW28777   5.694   4.151   6.860
 9293SOL    HW128778   5.710   4.064   6.905
 9293SOL    HW228779   5.685   4.137   6.761
 9294SOL     OW28780   3.642   0.663   5.214
 9294SOL    HW128781   3.718   0.608   5.181
 9294SOL    HW228782   3.568   0.663   5.147
 9295SOL     OW28783   5.331   2.381   4.359
 9295SOL    HW128784   5.274   2.410   4.436
 9295SOL    HW228785   5.284   2.401   4.273
 9296SOL     OW28786   0.173   6.616   6.739
 9296SOL    HW128787   0.216   6.619   6.650
 9296SOL    HW228788   0.217   6.681   6.801
 9297SOL     OW28789   6.426   0.536   0.153
 9297SOL    HW128790   6.365   0.464   0.185
 9297SOL    HW228791   6.372   0.618   0.130
 9298SOL     OW28792   1.030   0.366   5.190
 9298SOL    HW128793   1.059   0.459   5.168
 9298SOL    HW228794   0.930   0.361   5.187
 9299SOL     OW28795   0.576   2.810   4.827
 9299SOL    HW128796   0.486   2.852   4.818
 9299SOL    HW228797   0.634   2.866   4.887
 9300SOL     OW28798   0.686   4.835   5.596
 9300SOL    HW128799   0.684   4.739   5.627
 9300SOL    HW228800   0.636   4.843   5.510
 9301SOL     OW28801   4.926   4.388   3.662
 9301SOL    HW128802   4.898   4.455   3.730
 9301SOL    HW228803   4.868   4.397   3.581
 9302SOL     OW28804   2.187   3.077   3.936
 9302SOL    HW128805   2.170   3.159   3.882
 9302SOL    HW228806   2.102   3.025   3.947
 9303SOL     OW28807   2.891   4.936   0.795
 9303SOL    HW128808   2.905   4.986   0.709
 9303SOL    HW228809   2.867   5.001   0.867
 9304SOL     OW28810   4.413   4.630   2.294
 9304SOL    HW128811   4.392   4.615   2.197
 9304SOL    HW228812   4.368   4.560   2.349
 9305SOL     OW28813   3.293   0.983   0.964
 9305SOL    HW128814   3.367   0.945   0.908
 9305SOL    HW228815   3.292   0.937   1.053
 9306SOL     OW28816   0.306   4.612   4.318
 9306SOL    HW128817   0.220   4.662   4.320
 9306SOL    HW228818   0.288   4.514   4.314
 9307SOL     OW28819   1.918   3.525   2.014
 9307SOL    HW128820   1.885   3.536   2.108
 9307SOL    HW228821   2.017   3.534   2.012
 9308SOL     OW28822   1.793   3.740   0.376
 9308SOL    HW128823   1.879   3.744   0.324
 9308SOL    HW228824   1.720   3.784   0.324
 9309SOL     OW28825   3.521   4.701   5.986
 9309SOL    HW128826   3.432   4.731   6.021
 9309SOL    HW228827   3.509   4.664   5.894
 9310SOL     OW28828   4.485   4.853   6.729
 9310SOL    HW128829   4.402   4.907   6.712
 9310SOL    HW228830   4.530   4.887   6.812
 9311SOL     OW28831   4.434   5.131   2.410
 9311SOL    HW128832   4.385   5.045   2.417
 9311SOL    HW228833   4.370   5.205   2.394
 9312SOL     OW28834   1.225   3.500   1.084
 9312SOL    HW128835   1.130   3.473   1.098
 9312SOL    HW228836   1.286   3.429   1.119
 9313SOL     OW28837   0.656   0.533   1.151
 9313SOL    HW128838   0.742   0.527   1.101
 9313SOL    HW228839   0.675   0.540   1.249
 9314SOL     OW28840   5.033   5.390   6.401
 9314SOL    HW128841   4.971   5.409   6.324
 9314SOL    HW228842   4.988   5.415   6.486
 9315SOL     OW28843   6.001   0.434   4.891
 9315SOL    HW128844   5.923   0.477   4.937
 9315SOL    HW228845   6.082   0.491   4.904
 9316SOL     OW28846   4.351   5.771   5.368
 9316SOL    HW128847   4.284   5.702   5.395
 9316SOL    HW228848   4.443   5.733   5.376
 9317SOL     OW28849   5.536   5.120   3.522
 9317SOL    HW128850   5.614   5.068   3.488
 9317SOL    HW228851   5.493   5.072   3.598
 9318SOL     OW28852   6.215   0.617   5.416
 9318SOL    HW128853   6.264   0.530   5.405
 9318SOL    HW228854   6.181   0.624   5.510
 9319SOL     OW28855   1.885   2.961   0.189
 9319SOL    HW128856   1.832   2.948   0.273
 9319SOL    HW228857   1.882   3.058   0.163
 9320SOL     OW28858   4.007   0.122   5.123
 9320SOL    HW128859   4.083   0.099   5.063
 9320SOL    HW228860   4.042   0.153   5.212
 9321SOL     OW28861   0.061   0.204   3.959
 9321SOL    HW128862   0.145   0.150   3.950
 9321SOL    HW228863   0.023   0.221   3.868
 9322SOL     OW28864   0.688   4.374   6.930
 9322SOL    HW128865   0.762   4.311   6.953
 9322SOL    HW228866   0.674   4.439   7.005
 9323SOL     OW28867   1.337   0.556   5.453
 9323SOL    HW128868   1.364   0.547   5.549
 9323SOL    HW228869   1.245   0.596   5.447
 9324SOL     OW28870   1.524   4.361   0.674
 9324SOL    HW128871   1.435   4.395   0.704
 9324SOL    HW228872   1.594   4.385   0.741
 9325SOL     OW28873   4.865   0.606   6.981
 9325SOL    HW128874   4.803   0.612   0.043
 9325SOL    HW228875   4.814   0.626   6.897
 9326SOL     OW28876   2.145   5.476   0.119
 9326SOL    HW128877   2.093   5.394   0.141
 9326SOL    HW228878   2.123   5.548   0.184
 9327SOL     OW28879   5.808   0.566   3.174
 9327SOL    HW128880   5.741   0.538   3.243
 9327SOL    HW228881   5.761   0.616   3.101
 9328SOL     OW28882   2.653   0.667   5.620
 9328SOL    HW128883   2.607   0.756   5.611
 9328SOL    HW228884   2.747   0.681   5.650
 9329SOL     OW28885   6.134   3.865   1.403
 9329SOL    HW128886   6.075   3.897   1.477
 9329SOL    HW228887   6.089   3.790   1.355
 9330SOL     OW28888   6.062   6.540   6.387
 9330SOL    HW128889   6.141   6.545   6.449
 9330SOL    HW228890   5.978   6.554   6.440
 9331SOL     OW28891   2.432   1.206   0.183
 9331SOL    HW128892   2.453   1.142   0.257
 9331SOL    HW228893   2.337   1.194   0.155
 9332SOL     OW28894   4.050   3.944   1.861
 9332SOL    HW128895   3.983   3.953   1.788
 9332SOL    HW228896   4.017   3.992   1.943
 9333SOL     OW28897   4.511   3.874   0.479
 9333SOL    HW128898   4.584   3.943   0.485
 9333SOL    HW228899   4.431   3.915   0.435
 9334SOL     OW28900   6.126   5.877   3.470
 9334SOL    HW128901   6.209   5.830   3.438
 9334SOL    HW228902   6.046   5.820   3.452
 9335SOL     OW28903   1.009   1.433   6.515
 9335SOL    HW128904   1.095   1.439   6.464
 9335SOL    HW228905   0.934   1.466   6.458
 9336SOL     OW28906   3.024   5.879   5.731
 9336SOL    HW128907   2.959   5.809   5.758
 9336SOL    HW228908   3.086   5.898   5.808
 9337SOL     OW28909   4.450   2.013   4.557
 9337SOL    HW128910   4.469   1.928   4.508
 9337SOL    HW228911   4.361   2.007   4.602
 9338SOL     OW28912   5.191   0.436   2.242
 9338SOL    HW128913   5.201   0.535   2.256
 9338SOL    HW228914   5.190   0.390   2.331
 9339SOL     OW28915   5.876   6.886   1.506
 9339SOL    HW128916   5.848   6.790   1.510
 9339SOL    HW228917   5.939   6.900   1.430
 9340SOL     OW28918   5.415   4.236   4.529
 9340SOL    HW128919   5.427   4.308   4.460
 9340SOL    HW228920   5.441   4.272   4.619
 9341SOL     OW28921   6.861   5.816   0.464
 9341SOL    HW128922   6.883   5.719   0.464
 9341SOL    HW228923   6.935   5.867   0.419
 9342SOL     OW28924   2.066   6.580   4.186
 9342SOL    HW128925   2.044   6.482   4.185
 9342SOL    HW228926   2.151   6.594   4.236
 9343SOL     OW28927   5.987   3.993   2.872
 9343SOL    HW128928   5.992   3.949   2.962
 9343SOL    HW228929   6.011   3.927   2.801
 9344SOL     OW28930   4.817   6.467   2.805
 9344SOL    HW128931   4.777   6.558   2.794
 9344SOL    HW228932   4.882   6.469   2.880
 9345SOL     OW28933   5.879   5.314   2.402
 9345SOL    HW128934   5.960   5.372   2.390
 9345SOL    HW228935   5.908   5.218   2.405
 9346SOL     OW28936   6.165   1.199   1.392
 9346SOL    HW128937   6.120   1.288   1.392
 9346SOL    HW228938   6.264   1.211   1.387
 9347SOL     OW28939   2.748   3.640   0.863
 9347SOL    HW128940   2.702   3.724   0.834
 9347SOL    HW228941   2.680   3.573   0.892
 9348SOL     OW28942   3.387   6.326   2.142
 9348SOL    HW128943   3.443   6.393   2.190
 9348SOL    HW228944   3.395   6.237   2.187
 9349SOL     OW28945   6.350   5.711   3.763
 9349SOL    HW128946   6.332   5.618   3.731
 9349SOL    HW228947   6.425   5.709   3.829
 9350SOL     OW28948   0.691   3.190   4.985
 9350SOL    HW128949   0.620   3.152   5.044
 9350SOL    HW228950   0.746   3.256   5.036
 9351SOL     OW28951   2.892   0.222   0.000
 9351SOL    HW128952   2.873   0.210   6.920
 9351SOL    HW228953   2.940   0.308   0.014
 9352SOL     OW28954   3.627   1.536   6.635
 9352SOL    HW128955   3.708   1.567   6.685
 9352SOL    HW228956   3.654   1.506   6.543
 9353SOL     OW28957   0.496   4.553   0.615
 9353SOL    HW128958   0.532   4.581   0.526
 9353SOL    HW228959   0.507   4.628   0.680
 9354SOL     OW28960   0.203   1.910   6.496
 9354SOL    HW128961   0.301   1.895   6.508
 9354SOL    HW228962   0.184   2.008   6.502
 9355SOL     OW28963   0.310   2.034   4.613
 9355SOL    HW128964   0.378   2.098   4.576
 9355SOL    HW228965   0.223   2.047   4.565
 9356SOL     OW28966   4.804   0.306   2.159
 9356SOL    HW128967   4.801   0.235   2.089
 9356SOL    HW228968   4.722   0.301   2.216
 9357SOL     OW28969   1.998   2.755   5.881
 9357SOL    HW128970   2.090   2.721   5.864
 9357SOL    HW228971   1.939   2.679   5.909
 9358SOL     OW28972   6.228   3.317   2.069
 9358SOL    HW128973   6.292   3.240   2.073
 9358SOL    HW228974   6.277   3.399   2.038
 9359SOL     OW28975   1.635   4.428   5.876
 9359SOL    HW128976   1.677   4.483   5.949
 9359SOL    HW228977   1.625   4.334   5.908
 9360SOL     OW28978   1.044   4.705   6.239
 9360SOL    HW128979   1.041   4.721   6.337
 9360SOL    HW228980   1.108   4.769   6.196
 9361SOL     OW28981   1.819   5.276   2.736
 9361SOL    HW128982   1.788   5.371   2.736
 9361SOL    HW228983   1.825   5.243   2.830
 9362SOL     OW28984   1.470   1.105   2.545
 9362SOL    HW128985   1.464   1.080   2.449
 9362SOL    HW228986   1.413   1.186   2.562
 9363SOL     OW28987   3.108   5.268   1.733
 9363SOL    HW128988   3.020   5.222   1.718
 9363SOL    HW228989   3.092   5.367   1.742
 9364SOL     OW28990   2.740   1.944   6.869
 9364SOL    HW128991   2.647   1.944   6.903
 9364SOL    HW228992   2.779   2.036   6.880
 9365SOL     OW28993   3.413   1.978   3.572
 9365SOL    HW128994   3.476   2.015   3.504
 9365SOL    HW228995   3.459   1.908   3.626
 9366SOL     OW28996   2.896   5.694   6.618
 9366SOL    HW128997   2.809   5.657   6.584
 9366SOL    HW228998   2.921   5.647   6.702
 9367SOL     OW28999   6.583   6.416   2.289
 9367SOL    HW129000   6.528   6.336   2.263
 9367SOL    HW229001   6.674   6.386   2.316
 9368SOL     OW29002   3.141   0.575   2.870
 9368SOL    HW129003   3.147   0.632   2.789
 9368SOL    HW229004   3.231   0.533   2.888
 9369SOL     OW29005   6.566   6.677   3.919
 9369SOL    HW129006   6.614   6.752   3.875
 9369SOL    HW229007   6.606   6.659   4.009
 9370SOL     OW29008   5.459   0.475   4.777
 9370SOL    HW129009   5.505   0.528   4.705
 9370SOL    HW229010   5.525   0.413   4.820
 9371SOL     OW29011   2.214   5.938   0.480
 9371SOL    HW129012   2.149   5.944   0.405
 9371SOL    HW229013   2.242   5.843   0.492
 9372SOL     OW29014   5.448   6.665   1.408
 9372SOL    HW129015   5.415   6.582   1.453
 9372SOL    HW229016   5.515   6.641   1.338
 9373SOL     OW29017   4.750   2.733   1.514
 9373SOL    HW129018   4.693   2.760   1.592
 9373SOL    HW229019   4.692   2.713   1.435
 9374SOL     OW29020   0.499   2.838   6.575
 9374SOL    HW129021   0.537   2.746   6.568
 9374SOL    HW229022   0.551   2.891   6.641
 9375SOL     OW29023   0.435   2.536   1.145
 9375SOL    HW129024   0.464   2.615   1.090
 9375SOL    HW229025   0.493   2.529   1.226
 9376SOL     OW29026   2.137   3.745   1.075
 9376SOL    HW129027   2.059   3.787   1.121
 9376SOL    HW229028   2.183   3.683   1.139
 9377SOL     OW29029   2.047   5.118   2.745
 9377SOL    HW129030   1.972   5.181   2.726
 9377SOL    HW229031   2.020   5.055   2.818
 9378SOL     OW29032   3.219   0.953   3.130
 9378SOL    HW129033   3.144   0.969   3.194
 9378SOL    HW229034   3.186   0.964   3.037
 9379SOL     OW29035   5.083   0.312   5.067
 9379SOL    HW129036   5.120   0.368   5.141
 9379SOL    HW229037   5.139   0.324   4.985
 9380SOL     OW29038   3.714   5.511   5.328
 9380SOL    HW129039   3.734   5.605   5.299
 9380SOL    HW229040   3.688   5.457   5.248
 9381SOL     OW29041   5.464   2.958   5.508
 9381SOL    HW129042   5.458   2.862   5.481
 9381SOL    HW229043   5.389   3.009   5.467
 9382SOL     OW29044   4.177   0.550   3.543
 9382SOL    HW129045   4.116   0.477   3.513
 9382SOL    HW229046   4.145   0.638   3.506
 9383SOL     OW29047   5.558   4.630   3.957
 9383SOL    HW129048   5.552   4.668   4.049
 9383SOL    HW229049   5.492   4.676   3.897
 9384SOL     OW29050   3.787   0.297   1.947
 9384SOL    HW129051   3.810   0.289   2.044
 9384SOL    HW229052   3.834   0.377   1.908
 9385SOL     OW29053   4.326   1.422   4.110
 9385SOL    HW129054   4.384   1.343   4.089
 9385SOL    HW229055   4.351   1.498   4.050
 9386SOL     OW29056   3.535   5.729   5.442
 9386SOL    HW129057   3.507   5.697   5.352
 9386SOL    HW229058   3.538   5.652   5.506
 9387SOL     OW29059   2.967   2.239   0.531
 9387SOL    HW129060   3.059   2.276   0.519
 9387SOL    HW229061   2.972   2.140   0.542
 9388SOL     OW29062   2.083   6.135   3.743
 9388SOL    HW129063   2.085   6.055   3.802
 9388SOL    HW229064   2.121   6.111   3.653
 9389SOL     OW29065   2.899   0.065   2.746
 9389SOL    HW129066   2.957   0.126   2.691
 9389SOL    HW229067   2.956   7.011   2.788
 9390SOL     OW29068   5.659   5.245   5.878
 9390SOL    HW129069   5.674   5.317   5.946
 9390SOL    HW229070   5.586   5.185   5.910
 9391SOL     OW29071   0.088   6.923   6.115
 9391SOL    HW129072   0.095   6.832   6.074
 9391SOL    HW229073   0.091   6.916   6.214
 9392SOL     OW29074   5.149   4.459   5.166
 9392SOL    HW129075   5.115   4.546   5.129
 9392SOL    HW229076   5.089   4.428   5.239
 9393SOL     OW29077   2.755   0.043   5.588
 9393SOL    HW129078   2.811   0.125   5.577
 9393SOL    HW229079   2.684   0.060   5.657
 9394SOL     OW29080   6.280   0.251   0.841
 9394SOL    HW129081   6.198   0.207   0.876
 9394SOL    HW229082   6.329   0.188   0.781
 9395SOL     OW29083   2.056   0.954   0.880
 9395SOL    HW129084   2.089   0.939   0.973
 9395SOL    HW229085   2.021   0.868   0.842
 9396SOL     OW29086   1.563   4.591   4.406
 9396SOL    HW129087   1.511   4.576   4.490
 9396SOL    HW229088   1.661   4.593   4.427
 9397SOL     OW29089   2.763   6.394   6.022
 9397SOL    HW129090   2.800   6.434   6.106
 9397SOL    HW229091   2.765   6.294   6.029
 9398SOL     OW29092   5.973   1.106   6.164
 9398SOL    HW129093   5.927   1.141   6.083
 9398SOL    HW229094   6.009   1.182   6.218
 9399SOL     OW29095   0.859   3.391   4.094
 9399SOL    HW129096   0.837   3.355   4.003
 9399SOL    HW229097   0.803   3.472   4.112
 9400SOL     OW29098   4.509   0.535   1.051
 9400SOL    HW129099   4.477   0.493   1.137
 9400SOL    HW229100   4.432   0.574   1.002
 9401SOL     OW29101   0.059   1.801   2.944
 9401SOL    HW129102   6.995   1.743   2.949
 9401SOL    HW229103   0.084   1.816   2.848
 9402SOL     OW29104   1.324   3.624   2.747
 9402SOL    HW129105   1.295   3.713   2.780
 9402SOL    HW229106   1.245   3.562   2.743
 9403SOL     OW29107   6.353   1.533   1.831
 9403SOL    HW129108   6.392   1.585   1.907
 9403SOL    HW229109   6.297   1.593   1.775
 9404SOL     OW29110   0.307   1.920   1.498
 9404SOL    HW129111   0.214   1.898   1.526
 9404SOL    HW229112   0.337   2.003   1.545
 9405SOL     OW29113   1.694   4.229   3.838
 9405SOL    HW129114   1.781   4.277   3.846
 9405SOL    HW229115   1.658   4.239   3.745
 9406SOL     OW29116   0.873   3.242   6.655
 9406SOL    HW129117   0.788   3.192   6.666
 9406SOL    HW229118   0.913   3.259   6.745
 9407SOL     OW29119   2.452   5.358   4.603
 9407SOL    HW129120   2.505   5.402   4.675
 9407SOL    HW229121   2.452   5.417   4.522
 9408SOL     OW29122   0.379   2.282   6.045
 9408SOL    HW129123   0.467   2.263   6.088
 9408SOL    HW229124   0.357   2.379   6.053
 9409SOL     OW29125   6.267   5.641   1.740
 9409SOL    HW129126   6.271   5.741   1.729
 9409SOL    HW229127   6.340   5.611   1.802
 9410SOL     OW29128   3.523   1.052   1.798
 9410SOL    HW129129   3.557   1.069   1.890
 9410SOL    HW229130   3.424   1.036   1.801
 9411SOL     OW29131   3.983   3.071   3.276
 9411SOL    HW129132   4.020   3.153   3.233
 9411SOL    HW229133   4.054   3.001   3.284
 9412SOL     OW29134   1.573   0.298   2.017
 9412SOL    HW129135   1.539   0.377   2.069
 9412SOL    HW229136   1.587   0.221   2.080
 9413SOL     OW29137   4.506   5.346   4.170
 9413SOL    HW129138   4.474   5.271   4.227
 9413SOL    HW229139   4.511   5.430   4.225
 9414SOL     OW29140   3.327   1.410   3.755
 9414SOL    HW129141   3.329   1.341   3.683
 9414SOL    HW229142   3.420   1.430   3.785
 9415SOL     OW29143   2.176   6.950   1.686
 9415SOL    HW129144   2.154   6.908   1.598
 9415SOL    HW229145   2.189   0.032   1.673
 9416SOL     OW29146   6.884   0.626   5.782
 9416SOL    HW129147   6.932   0.627   5.694
 9416SOL    HW229148   6.907   0.542   5.831
 9417SOL     OW29149   3.739   6.505   0.960
 9417SOL    HW129150   3.674   6.429   0.956
 9417SOL    HW229151   3.711   6.569   1.032
 9418SOL     OW29152   2.519   1.197   2.292
 9418SOL    HW129153   2.519   1.149   2.204
 9418SOL    HW229154   2.491   1.292   2.278
 9419SOL     OW29155   1.298   3.475   6.787
 9419SOL    HW129156   1.343   3.525   6.861
 9419SOL    HW229157   1.267   3.539   6.716
 9420SOL     OW29158   5.451   4.242   0.201
 9420SOL    HW129159   5.414   4.235   0.109
 9420SOL    HW229160   5.380   4.273   0.264
 9421SOL     OW29161   2.901   5.238   4.279
 9421SOL    HW129162   2.811   5.225   4.320
 9421SOL    HW229163   2.950   5.151   4.277
 9422SOL     OW29164   2.705   6.100   3.842
 9422SOL    HW129165   2.781   6.128   3.783
 9422SOL    HW229166   2.742   6.062   3.927
 9423SOL     OW29167   3.772   6.369   3.050
 9423SOL    HW129168   3.771   6.359   2.950
 9423SOL    HW229169   3.800   6.284   3.092
 9424SOL     OW29170   5.376   1.864   4.178
 9424SOL    HW129171   5.379   1.954   4.221
 9424SOL    HW229172   5.394   1.872   4.080
 9425SOL     OW29173   5.491   5.060   0.982
 9425SOL    HW129174   5.564   5.022   1.040
 9425SOL    HW229175   5.520   5.059   0.886
 9426SOL     OW29176   2.644   1.746   5.977
 9426SOL    HW129177   2.675   1.784   5.889
 9426SOL    HW229178   2.653   1.816   6.048
 9427SOL     OW29179   2.322   5.925   3.011
 9427SOL    HW129180   2.335   5.847   2.949
 9427SOL    HW229181   2.408   5.974   3.022
 9428SOL     OW29182   6.705   0.183   0.545
 9428SOL    HW129183   6.724   0.136   0.631
 9428SOL    HW229184   6.734   0.278   0.552
 9429SOL     OW29185   2.486   2.499   3.763
 9429SOL    HW129186   2.506   2.518   3.667
 9429SOL    HW229187   2.388   2.508   3.779
 9430SOL     OW29188   0.300   2.275   4.826
 9430SOL    HW129189   0.322   2.177   4.835
 9430SOL    HW229190   0.368   2.329   4.876
 9431SOL     OW29191   6.703   4.839   1.104
 9431SOL    HW129192   6.661   4.868   1.018
 9431SOL    HW229193   6.790   4.887   1.117
 9432SOL     OW29194   6.074   1.493   4.519
 9432SOL    HW129195   6.169   1.491   4.487
 9432SOL    HW229196   6.042   1.399   4.531
 9433SOL     OW29197   3.888   6.677   3.179
 9433SOL    HW129198   3.794   6.644   3.185
 9433SOL    HW229199   3.949   6.612   3.224
 9434SOL     OW29200   6.043   5.404   3.309
 9434SOL    HW129201   6.087   5.446   3.229
 9434SOL    HW229202   6.114   5.368   3.370
 9435SOL     OW29203   0.401   1.891   2.967
 9435SOL    HW129204   0.436   1.985   2.965
 9435SOL    HW229205   0.399   1.858   3.061
 9436SOL     OW29206   1.395   1.198   2.847
 9436SOL    HW129207   1.316   1.141   2.822
 9436SOL    HW229208   1.374   1.294   2.828
 9437SOL     OW29209   0.666   5.201   3.471
 9437SOL    HW129210   0.692   5.208   3.374
 9437SOL    HW229211   0.748   5.204   3.527
 9438SOL     OW29212   1.541   6.727   2.152
 9438SOL    HW129213   1.570   6.643   2.106
 9438SOL    HW229214   1.586   6.806   2.110
 9439SOL     OW29215   0.536   3.369   1.454
 9439SOL    HW129216   0.513   3.454   1.407
 9439SOL    HW229217   0.460   3.305   1.446
 9440SOL     OW29218   3.768   4.966   3.629
 9440SOL    HW129219   3.671   4.949   3.609
 9440SOL    HW229220   3.821   4.884   3.610
 9441SOL     OW29221   6.519   6.055   5.536
 9441SOL    HW129222   6.433   6.017   5.502
 9441SOL    HW229223   6.545   6.007   5.621
 9442SOL     OW29224   4.676   3.300   1.638
 9442SOL    HW129225   4.588   3.252   1.641
 9442SOL    HW229226   4.724   3.286   1.725
 9443SOL     OW29227   2.499   5.397   0.536
 9443SOL    HW129228   2.463   5.446   0.616
 9443SOL    HW229229   2.584   5.440   0.506
 9444SOL     OW29230   1.860   4.388   0.639
 9444SOL    HW129231   1.866   4.488   0.648
 9444SOL    HW229232   1.953   4.350   0.635
 9445SOL     OW29233   6.998   2.682   3.022
 9445SOL    HW129234   6.934   2.640   2.958
 9445SOL    HW229235   0.040   2.747   2.972
 9446SOL     OW29236   0.247   5.163   4.459
 9446SOL    HW129237   0.152   5.168   4.429
 9446SOL    HW229238   0.282   5.071   4.443
 9447SOL     OW29239   5.434   4.975   3.752
 9447SOL    HW129240   5.408   4.914   3.827
 9447SOL    HW229241   5.519   5.022   3.775
 9448SOL     OW29242   6.680   0.159   6.228
 9448SOL    HW129243   6.649   0.133   6.319
 9448SOL    HW229244   6.779   0.165   6.227
 9449SOL     OW29245   5.968   6.624   6.820
 9449SOL    HW129246   6.067   6.625   6.835
 9449SOL    HW229247   5.921   6.632   6.907
 9450SOL     OW29248   2.044   5.375   3.459
 9450SOL    HW129249   1.965   5.374   3.520
 9450SOL    HW229250   2.032   5.445   3.389
 9451SOL     OW29251   4.045   5.957   5.950
 9451SOL    HW129252   4.042   6.047   5.994
 9451SOL    HW229253   4.010   5.964   5.857
 9452SOL     OW29254   1.204   4.423   6.812
 9452SOL    HW129255   1.107   4.428   6.836
 9452SOL    HW229256   1.252   4.369   6.880
 9453SOL     OW29257   2.998   4.815   2.574
 9453SOL    HW129258   2.987   4.878   2.651
 9453SOL    HW229259   2.910   4.774   2.552
 9454SOL     OW29260   3.531   2.917   6.240
 9454SOL    HW129261   3.577   2.943   6.155
 9454SOL    HW229262   3.459   2.852   6.219
 9455SOL     OW29263   2.410   2.263   2.581
 9455SOL    HW129264   2.462   2.298   2.659
 9455SOL    HW229265   2.438   2.169   2.561
 9456SOL     OW29266   5.849   4.188   1.560
 9456SOL    HW129267   5.775   4.179   1.493
 9456SOL    HW229268   5.927   4.234   1.518
 9457SOL     OW29269   0.128   4.949   4.129
 9457SOL    HW129270   0.160   5.043   4.139
 9457SOL    HW229271   0.154   4.914   4.038
 9458SOL     OW29272   6.993   3.929   0.199
 9458SOL    HW129273   6.985   3.955   0.103
 9458SOL    HW229274   6.914   3.965   0.250
 9459SOL     OW29275   5.334   4.804   3.949
 9459SOL    HW129276   5.322   4.874   4.020
 9459SOL    HW229277   5.263   4.735   3.957
 9460SOL     OW29278   2.038   3.409   4.740
 9460SOL    HW129279   2.085   3.342   4.798
 9460SOL    HW229280   2.060   3.390   4.644
 9461SOL     OW29281   0.634   1.702   2.020
 9461SOL    HW129282   0.595   1.656   2.100
 9461SOL    HW229283   0.560   1.730   1.959
 9462SOL     OW29284   1.836   2.746   3.834
 9462SOL    HW129285   1.862   2.650   3.845
 9462SOL    HW229286   1.841   2.770   3.737
 9463SOL     OW29287   5.614   6.528   1.250
 9463SOL    HW129288   5.650   6.530   1.157
 9463SOL    HW229289   5.638   6.441   1.294
 9464SOL     OW29290   5.835   6.668   0.489
 9464SOL    HW129291   5.744   6.709   0.487
 9464SOL    HW229292   5.827   6.571   0.514
 9465SOL     OW29293   6.949   4.113   1.631
 9465SOL    HW129294   6.892   4.065   1.564
 9465SOL    HW229295   6.891   4.144   1.707
 9466SOL     OW29296   3.500   4.173   5.960
 9466SOL    HW129297   3.504   4.239   6.035
 9466SOL    HW229298   3.440   4.207   5.888
 9467SOL     OW29299   0.847   2.600   1.381
 9467SOL    HW129300   0.845   2.500   1.381
 9467SOL    HW229301   0.833   2.633   1.288
 9468SOL     OW29302   6.710   3.497   6.124
 9468SOL    HW129303   6.618   3.531   6.144
 9468SOL    HW229304   6.749   3.457   6.207
 9469SOL     OW29305   6.963   5.741   1.374
 9469SOL    HW129306   6.900   5.720   1.448
 9469SOL    HW229307   0.033   5.693   1.390
 9470SOL     OW29308   4.512   3.447   6.809
 9470SOL    HW129309   4.470   3.424   6.897
 9470SOL    HW229310   4.455   3.411   6.735
 9471SOL     OW29311   6.373   1.682   5.298
 9471SOL    HW129312   6.351   1.670   5.201
 9471SOL    HW229313   6.299   1.733   5.342
 9472SOL     OW29314   0.525   3.928   5.652
 9472SOL    HW129315   0.548   4.010   5.600
 9472SOL    HW229316   0.591   3.856   5.634
 9473SOL     OW29317   3.127   4.275   6.405
 9473SOL    HW129318   3.147   4.225   6.489
 9473SOL    HW229319   3.032   4.258   6.378
 9474SOL     OW29320   5.830   3.446   2.139
 9474SOL    HW129321   5.914   3.481   2.180
 9474SOL    HW229322   5.810   3.355   2.178
 9475SOL     OW29323   4.519   3.546   0.299
 9475SOL    HW129324   4.442   3.584   0.350
 9475SOL    HW229325   4.605   3.579   0.338
 9476SOL     OW29326   3.888   3.657   5.202
 9476SOL    HW129327   3.887   3.587   5.273
 9476SOL    HW229328   3.979   3.697   5.196
 9477SOL     OW29329   0.560   2.712   1.388
 9477SOL    HW129330   0.466   2.678   1.392
 9477SOL    HW229331   0.621   2.649   1.437
 9478SOL     OW29332   5.246   3.299   1.099
 9478SOL    HW129333   5.280   3.360   1.027
 9478SOL    HW229334   5.223   3.210   1.060
 9479SOL     OW29335   4.282   6.502   0.902
 9479SOL    HW129336   4.377   6.533   0.912
 9479SOL    HW229337   4.261   6.435   0.973
 9480SOL     OW29338   5.570   5.097   0.715
 9480SOL    HW129339   5.596   5.091   0.618
 9480SOL    HW229340   5.536   5.190   0.734
 9481SOL     OW29341   5.232   2.293   2.625
 9481SOL    HW129342   5.215   2.197   2.648
 9481SOL    HW229343   5.257   2.343   2.708
 9482SOL     OW29344   6.752   0.456   2.734
 9482SOL    HW129345   6.799   0.489   2.816
 9482SOL    HW229346   6.816   0.456   2.657
 9483SOL     OW29347   1.424   1.023   0.499
 9483SOL    HW129348   1.396   1.107   0.455
 9483SOL    HW229349   1.524   1.022   0.509
 9484SOL     OW29350   3.106   6.821   4.656
 9484SOL    HW129351   3.092   6.773   4.743
 9484SOL    HW229352   3.104   6.920   4.672
 9485SOL     OW29353   0.077   1.850   0.814
 9485SOL    HW129354   0.169   1.881   0.835
 9485SOL    HW229355   0.068   1.754   0.840
 9486SOL     OW29356   4.558   6.462   1.388
 9486SOL    HW129357   4.486   6.395   1.408
 9486SOL    HW229358   4.589   6.450   1.294
 9487SOL     OW29359   3.349   4.100   4.163
 9487SOL    HW129360   3.388   4.090   4.254
 9487SOL    HW229361   3.252   4.074   4.165
 9488SOL     OW29362   2.671   0.292   1.235
 9488SOL    HW129363   2.686   0.390   1.228
 9488SOL    HW229364   2.579   0.275   1.272
 9489SOL     OW29365   5.021   4.615   1.284
 9489SOL    HW129366   5.036   4.599   1.186
 9489SOL    HW229367   4.944   4.559   1.316
 9490SOL     OW29368   6.752   6.340   3.572
 9490SOL    HW129369   6.844   6.317   3.540
 9490SOL    HW229370   6.746   6.328   3.671
 9491SOL     OW29371   5.884   5.477   4.157
 9491SOL    HW129372   5.975   5.437   4.167
 9491SOL    HW229373   5.856   5.474   4.061
 9492SOL     OW29374   3.368   3.240   5.048
 9492SOL    HW129375   3.441   3.280   5.104
 9492SOL    HW229376   3.404   3.162   4.997
 9493SOL     OW29377   3.314   5.656   4.750
 9493SOL    HW129378   3.374   5.699   4.818
 9493SOL    HW229379   3.258   5.727   4.706
 9494SOL     OW29380   5.816   3.190   2.238
 9494SOL    HW129381   5.884   3.136   2.288
 9494SOL    HW229382   5.736   3.204   2.295
 9495SOL     OW29383   6.983   1.587   2.460
 9495SOL    HW129384   0.037   1.644   2.420
 9495SOL    HW229385   6.895   1.635   2.453
 9496SOL     OW29386   4.955   2.461   1.772
 9496SOL    HW129387   4.967   2.561   1.769
 9496SOL    HW229388   4.991   2.425   1.858
 9497SOL     OW29389   4.933   6.110   5.153
 9497SOL    HW129390   4.851   6.113   5.095
 9497SOL    HW229391   4.925   6.179   5.225
 9498SOL     OW29392   6.581   4.487   4.972
 9498SOL    HW129393   6.507   4.447   5.027
 9498SOL    HW229394   6.636   4.414   4.932
 9499SOL     OW29395   0.685   6.223   5.027
 9499SOL    HW129396   0.748   6.244   4.952
 9499SOL    HW229397   0.630   6.143   5.002
 9500SOL     OW29398   4.003   6.563   0.470
 9500SOL    HW129399   4.090   6.516   0.456
 9500SOL    HW229400   3.930   6.514   0.424
 9501SOL     OW29401   1.940   1.513   3.931
 9501SOL    HW129402   2.004   1.575   3.976
 9501SOL    HW229403   1.904   1.448   3.999
 9502SOL     OW29404   6.275   3.754   4.919
 9502SOL    HW129405   6.320   3.666   4.909
 9502SOL    HW229406   6.321   3.808   4.990
 9503SOL     OW29407   6.778   2.802   0.395
 9503SOL    HW129408   6.819   2.743   0.326
 9503SOL    HW229409   6.729   2.746   0.462
 9504SOL     OW29410   6.787   4.171   1.843
 9504SOL    HW129411   6.818   4.076   1.842
 9504SOL    HW229412   6.695   4.176   1.882
 9505SOL     OW29413   5.328   4.396   5.423
 9505SOL    HW129414   5.412   4.358   5.385
 9505SOL    HW229415   5.328   4.495   5.410
 9506SOL     OW29416   1.451   2.585   0.908
 9506SOL    HW129417   1.484   2.563   0.816
 9506SOL    HW229418   1.506   2.537   0.976
 9507SOL     OW29419   6.791   0.719   1.379
 9507SOL    HW129420   6.830   0.807   1.352
 9507SOL    HW229421   6.737   0.681   1.304
 9508SOL     OW29422   5.777   1.456   2.822
 9508SOL    HW129423   5.778   1.357   2.832
 9508SOL    HW229424   5.698   1.483   2.766
 9509SOL     OW29425   0.048   0.928   3.393
 9509SOL    HW129426   0.081   0.834   3.405
 9509SOL    HW229427   0.029   0.944   3.297
 9510SOL     OW29428   1.410   3.465   3.148
 9510SOL    HW129429   1.318   3.485   3.113
 9510SOL    HW229430   1.452   3.549   3.182
 9511SOL     OW29431   1.718   0.765   1.601
 9511SOL    HW129432   1.631   0.736   1.639
 9511SOL    HW229433   1.708   0.853   1.555
 9512SOL     OW29434   6.509   2.323   0.519
 9512SOL    HW129435   6.411   2.338   0.503
 9512SOL    HW229436   6.547   2.270   0.443
 9513SOL     OW29437   2.933   4.604   6.326
 9513SOL    HW129438   2.854   4.543   6.336
 9513SOL    HW229439   2.901   4.698   6.313
 9514SOL     OW29440   3.150   4.719   6.841
 9514SOL    HW129441   3.158   4.718   6.742
 9514SOL    HW229442   3.241   4.710   6.882
 9515SOL     OW29443   2.027   5.969   2.489
 9515SOL    HW129444   2.004   5.929   2.577
 9515SOL    HW229445   1.977   5.923   2.417
 9516SOL     OW29446   5.571   4.827   0.360
 9516SOL    HW129447   5.507   4.898   0.390
 9516SOL    HW229448   5.594   4.769   0.438
 9517SOL     OW29449   1.912   3.842   1.193
 9517SOL    HW129450   1.921   3.822   1.291
 9517SOL    HW229451   1.818   3.871   1.173
 9518SOL     OW29452   2.238   1.883   0.790
 9518SOL    HW129453   2.163   1.848   0.734
 9518SOL    HW229454   2.270   1.970   0.753
 9519SOL     OW29455   2.935   3.250   5.144
 9519SOL    HW129456   2.980   3.213   5.063
 9519SOL    HW229457   2.993   3.236   5.224
 9520SOL     OW29458   2.808   0.485   2.887
 9520SOL    HW129459   2.859   0.556   2.935
 9520SOL    HW229460   2.842   0.395   2.915
 9521SOL     OW29461   5.755   5.400   2.662
 9521SOL    HW129462   5.820   5.365   2.730
 9521SOL    HW229463   5.801   5.410   2.574
 9522SOL     OW29464   3.445   5.342   1.288
 9522SOL    HW129465   3.501   5.328   1.207
 9522SOL    HW229466   3.356   5.380   1.261
 9523SOL     OW29467   3.208   5.308   5.225
 9523SOL    HW129468   3.161   5.220   5.228
 9523SOL    HW229469   3.229   5.332   5.131
 9524SOL     OW29470   4.196   2.695   1.682
 9524SOL    HW129471   4.107   2.653   1.665
 9524SOL    HW229472   4.185   2.771   1.746
 9525SOL     OW29473   2.566   2.765   6.209
 9525SOL    HW129474   2.508   2.718   6.142
 9525SOL    HW229475   2.542   2.863   6.210
 9526SOL     OW29476   5.107   5.706   1.718
 9526SOL    HW129477   5.112   5.776   1.647
 9526SOL    HW229478   5.045   5.736   1.791
 9527SOL     OW29479   0.846   0.438   1.416
 9527SOL    HW129480   0.893   0.362   1.460
 9527SOL    HW229481   0.747   0.421   1.418
 9528SOL     OW29482   6.657   0.951   6.941
 9528SOL    HW129483   6.626   0.959   6.846
 9528SOL    HW229484   6.747   0.906   6.943
 9529SOL     OW29485   0.145   2.992   5.280
 9529SOL    HW129486   0.076   2.960   5.345
 9529SOL    HW229487   0.235   2.962   5.310
 9530SOL     OW29488   1.394   3.290   3.494
 9530SOL    HW129489   1.420   3.377   3.536
 9530SOL    HW229490   1.400   3.218   3.562
 9531SOL     OW29491   3.755   5.371   3.289
 9531SOL    HW129492   3.659   5.349   3.306
 9531SOL    HW229493   3.762   5.439   3.217
 9532SOL     OW29494   0.106   6.102   2.321
 9532SOL    HW129495   0.077   6.185   2.273
 9532SOL    HW229496   0.101   6.118   2.419
 9533SOL     OW29497   0.126   0.577   5.108
 9533SOL    HW129498   0.116   0.664   5.157
 9533SOL    HW229499   0.191   0.519   5.155
 9534SOL     OW29500   6.330   2.608   5.492
 9534SOL    HW129501   6.317   2.666   5.412
 9534SOL    HW229502   6.415   2.557   5.484
 9535SOL     OW29503   2.269   1.494   5.959
 9535SOL    HW129504   2.366   1.495   5.932
 9535SOL    HW229505   2.219   1.559   5.901
 9536SOL     OW29506   2.540   5.160   5.214
 9536SOL    HW129507   2.592   5.089   5.166
 9536SOL    HW229508   2.551   5.247   5.165
 9537SOL     OW29509   2.656   0.104   2.111
 9537SOL    HW129510   2.580   0.165   2.134
 9537SOL    HW229511   2.711   0.087   2.193
 9538SOL     OW29512   6.298   1.812   4.758
 9538SOL    HW129513   6.282   1.910   4.773
 9538SOL    HW229514   6.214   1.769   4.724
 9539SOL     OW29515   2.426   4.321   6.323
 9539SOL    HW129516   2.439   4.401   6.264
 9539SOL    HW229517   2.344   4.334   6.378
 9540SOL     OW29518   4.622   4.274   5.265
 9540SOL    HW129519   4.650   4.289   5.170
 9540SOL    HW229520   4.669   4.194   5.302
 9541SOL     OW29521   2.158   2.151   5.996
 9541SOL    HW129522   2.128   2.114   6.084
 9541SOL    HW229523   2.255   2.174   6.001
 9542SOL     OW29524   4.820   3.719   5.365
 9542SOL    HW129525   4.791   3.664   5.288
 9542SOL    HW229526   4.879   3.664   5.425
 9543SOL     OW29527   4.601   0.380   4.345
 9543SOL    HW129528   4.558   0.290   4.353
 9543SOL    HW229529   4.678   0.386   4.408
 9544SOL     OW29530   5.584   0.983   2.270
 9544SOL    HW129531   5.534   0.905   2.232
 9544SOL    HW229532   5.634   1.030   2.198
 9545SOL     OW29533   6.676   5.172   2.888
 9545SOL    HW129534   6.735   5.200   2.963
 9545SOL    HW229535   6.601   5.115   2.922
 9546SOL     OW29536   2.524   3.796   6.849
 9546SOL    HW129537   2.476   3.820   6.765
 9546SOL    HW229538   2.483   3.846   6.926
 9547SOL     OW29539   2.881   6.153   4.412
 9547SOL    HW129540   2.863   6.192   4.322
 9547SOL    HW229541   2.978   6.131   4.420
 9548SOL     OW29542   0.018   5.407   5.016
 9548SOL    HW129543   0.087   5.422   5.087
 9548SOL    HW229544   6.992   5.318   5.031
 9549SOL     OW29545   3.149   4.901   1.069
 9549SOL    HW129546   3.195   4.965   1.130
 9549SOL    HW229547   3.215   4.863   1.004
 9550SOL     OW29548   6.821   0.891   6.082
 9550SOL    HW129549   6.830   0.990   6.076
 9550SOL    HW229550   6.912   0.849   6.079
 9551SOL     OW29551   0.129   6.974   4.299
 9551SOL    HW129552   0.108   6.944   4.206
 9551SOL    HW229553   0.064   0.029   4.326
 9552SOL     OW29554   1.584   6.252   2.334
 9552SOL    HW129555   1.590   6.263   2.434
 9552SOL    HW229556   1.552   6.338   2.294
 9553SOL     OW29557   5.955   4.312   6.522
 9553SOL    HW129558   6.000   4.397   6.494
 9553SOL    HW229559   5.866   4.305   6.477
 9554SOL     OW29560   2.936   1.228   1.465
 9554SOL    HW129561   3.025   1.185   1.448
 9554SOL    HW229562   2.921   1.301   1.397
 9555SOL     OW29563   6.723   2.371   0.905
 9555SOL    HW129564   6.657   2.401   0.837
 9555SOL    HW229565   6.752   2.449   0.960
 9556SOL     OW29566   2.277   1.964   1.321
 9556SOL    HW129567   2.249   1.931   1.231
 9556SOL    HW229568   2.373   1.993   1.317
 9557SOL     OW29569   6.098   0.508   2.547
 9557SOL    HW129570   6.021   0.448   2.527
 9557SOL    HW229571   6.155   0.467   2.618
 9558SOL     OW29572   6.613   5.724   3.934
 9558SOL    HW129573   6.649   5.631   3.947
 9558SOL    HW229574   6.660   5.768   3.857
 9559SOL     OW29575   6.889   4.402   2.529
 9559SOL    HW129576   6.828   4.323   2.535
 9559SOL    HW229577   6.946   4.394   2.447
 9560SOL     OW29578   1.940   1.632   2.703
 9560SOL    HW129579   2.018   1.679   2.744
 9560SOL    HW229580   1.868   1.698   2.684
 9561SOL     OW29581   3.178   0.132   0.654
 9561SOL    HW129582   3.080   0.150   0.666
 9561SOL    HW229583   3.194   0.099   0.561
 9562SOL     OW29584   3.485   6.113   4.519
 9562SOL    HW129585   3.565   6.095   4.462
 9562SOL    HW229586   3.433   6.029   4.531
 9563SOL     OW29587   6.284   6.180   6.873
 9563SOL    HW129588   6.284   6.170   6.773
 9563SOL    HW229589   6.189   6.177   6.906
 9564SOL     OW29590   2.424   0.394   6.748
 9564SOL    HW129591   2.439   0.321   6.681
 9564SOL    HW229592   2.331   0.388   6.783
 9565SOL     OW29593   4.269   5.974   5.162
 9565SOL    HW129594   4.330   6.052   5.149
 9565SOL    HW229595   4.299   5.921   5.241
 9566SOL     OW29596   3.414   4.611   0.011
 9566SOL    HW129597   3.367   4.643   0.094
 9566SOL    HW229598   3.404   4.512   0.004
 9567SOL     OW29599   6.118   5.167   6.332
 9567SOL    HW129600   6.123   5.148   6.234
 9567SOL    HW229601   6.035   5.220   6.352
 9568SOL     OW29602   4.412   3.353   6.552
 9568SOL    HW129603   4.368   3.357   6.462
 9568SOL    HW229604   4.427   3.257   6.577
 9569SOL     OW29605   6.083   0.638   0.619
 9569SOL    HW129606   6.090   0.554   0.565
 9569SOL    HW229607   6.108   0.717   0.563
 9570SOL     OW29608   0.716   1.470   1.903
 9570SOL    HW129609   0.816   1.469   1.902
 9570SOL    HW229610   0.683   1.555   1.943
 9571SOL     OW29611   3.067   3.058   0.306
 9571SOL    HW129612   3.166   3.071   0.307
 9571SOL    HW229613   3.027   3.098   0.389
 9572SOL     OW29614   1.287   4.961   0.866
 9572SOL    HW129615   1.210   5.019   0.892
 9572SOL    HW229616   1.339   4.936   0.948
 9573SOL     OW29617   0.610   1.086   6.866
 9573SOL    HW129618   0.694   1.036   6.847
 9573SOL    HW229619   0.592   1.150   6.791
 9574SOL     OW29620   3.201   3.457   5.119
 9574SOL    HW129621   3.178   3.441   5.215
 9574SOL    HW229622   3.271   3.392   5.091
 9575SOL     OW29623   5.960   0.919   1.061
 9575SOL    HW129624   5.938   0.984   1.134
 9575SOL    HW229625   6.050   0.880   1.077
 9576SOL     OW29626   3.790   0.816   3.097
 9576SOL    HW129627   3.692   0.832   3.109
 9576SOL    HW229628   3.816   0.833   3.002
 9577SOL     OW29629   1.060   0.552   2.232
 9577SOL    HW129630   1.007   0.545   2.316
 9577SOL    HW229631   1.132   0.621   2.244
 9578SOL     OW29632   5.943   2.879   2.627
 9578SOL    HW129633   5.847   2.852   2.632
 9578SOL    HW229634   6.001   2.798   2.636
 9579SOL     OW29635   1.080   6.698   2.362
 9579SOL    HW129636   1.078   6.798   2.375
 9579SOL    HW229637   1.118   6.655   2.443
 9580SOL     OW29638   5.356   3.430   6.897
 9580SOL    HW129639   5.365   3.410   6.799
 9580SOL    HW229640   5.287   3.501   6.910
 9581SOL     OW29641   2.295   4.709   6.350
 9581SOL    HW129642   2.235   4.650   6.297
 9581SOL    HW229643   2.389   4.699   6.318
 9582SOL     OW29644   4.517   4.682   4.034
 9582SOL    HW129645   4.478   4.610   4.091
 9582SOL    HW229646   4.610   4.656   4.008
 9583SOL     OW29647   2.199   3.238   1.792
 9583SOL    HW129648   2.127   3.263   1.727
 9583SOL    HW229649   2.252   3.319   1.816
 9584SOL     OW29650   5.781   5.768   6.848
 9584SOL    HW129651   5.704   5.824   6.876
 9584SOL    HW229652   5.751   5.673   6.837
 9585SOL     OW29653   6.182   6.982   2.582
 9585SOL    HW129654   6.266   6.955   2.534
 9585SOL    HW229655   6.177   6.935   2.670
 9586SOL     OW29656   5.551   3.430   3.592
 9586SOL    HW129657   5.545   3.417   3.691
 9586SOL    HW229658   5.462   3.456   3.556
 9587SOL     OW29659   6.025   0.085   1.634
 9587SOL    HW129660   5.972   7.017   1.635
 9587SOL    HW229661   6.015   0.130   1.545
 9588SOL     OW29662   0.189   0.969   1.169
 9588SOL    HW129663   0.224   0.877   1.187
 9588SOL    HW229664   0.206   1.027   1.249
 9589SOL     OW29665   2.247   6.404   6.294
 9589SOL    HW129666   2.158   6.440   6.321
 9589SOL    HW229667   2.253   6.308   6.322
 9590SOL     OW29668   0.231   3.654   2.293
 9590SOL    HW129669   0.325   3.688   2.302
 9590SOL    HW229670   0.230   3.577   2.230
 9591SOL     OW29671   2.202   6.619   0.617
 9591SOL    HW129672   2.211   6.523   0.591
 9591SOL    HW229673   2.142   6.627   0.696
 9592SOL     OW29674   4.251   5.121   3.005
 9592SOL    HW129675   4.307   5.198   3.034
 9592SOL    HW229676   4.206   5.081   3.085
 9593SOL     OW29677   5.413   2.124   4.262
 9593SOL    HW129678   5.388   2.220   4.273
 9593SOL    HW229679   5.495   2.118   4.205
 9594SOL     OW29680   6.662   6.569   2.991
 9594SOL    HW129681   6.631   6.575   3.086
 9594SOL    HW229682   6.583   6.561   2.930
 9595SOL     OW29683   2.153   5.598   5.010
 9595SOL    HW129684   2.093   5.585   4.932
 9595SOL    HW229685   2.248   5.609   4.979
 9596SOL     OW29686   0.054   5.191   5.861
 9596SOL    HW129687   6.993   5.254   5.853
 9596SOL    HW229688   0.022   5.098   5.847
 9597SOL     OW29689   0.156   4.152   1.963
 9597SOL    HW129690   0.126   4.057   1.958
 9597SOL    HW229691   0.194   4.170   2.053
 9598SOL     OW29692   0.046   4.129   5.462
 9598SOL    HW129693   0.004   4.184   5.534
 9598SOL    HW229694   0.082   4.189   5.391
 9599SOL     OW29695   3.580   0.127   5.366
 9599SOL    HW129696   3.506   0.075   5.409
 9599SOL    HW229697   3.641   0.065   5.318
 9600SOL     OW29698   1.678   0.433   5.434
 9600SOL    HW129699   1.609   0.416   5.364
 9600SOL    HW229700   1.645   0.502   5.498
 9601SOL     OW29701   6.912   4.227   6.224
 9601SOL    HW129702   6.909   4.226   6.125
 9601SOL    HW229703   6.829   4.184   6.261
 9602SOL     OW29704   6.661   4.966   5.837
 9602SOL    HW129705   6.580   4.972   5.894
 9602SOL    HW229706   6.678   4.871   5.812
 9603SOL     OW29707   2.639   6.475   4.632
 9603SOL    HW129708   2.657   6.573   4.634
 9603SOL    HW229709   2.711   6.426   4.681
 9604SOL     OW29710   4.848   1.114   0.903
 9604SOL    HW129711   4.825   1.018   0.891
 9604SOL    HW229712   4.770   1.171   0.878
 9605SOL     OW29713   1.263   4.716   5.645
 9605SOL    HW129714   1.238   4.702   5.549
 9605SOL    HW229715   1.300   4.631   5.683
 9606SOL     OW29716   0.926   6.837   3.245
 9606SOL    HW129717   0.876   6.922   3.235
 9606SOL    HW229718   1.014   6.855   3.288
 9607SOL     OW29719   0.744   1.083   1.781
 9607SOL    HW129720   0.703   1.171   1.758
 9607SOL    HW229721   0.760   1.031   1.697
 9608SOL     OW29722   6.756   6.886   2.019
 9608SOL    HW129723   6.715   6.827   2.089
 9608SOL    HW229724   6.847   6.915   2.049
 9609SOL     OW29725   1.827   4.376   4.720
 9609SOL    HW129726   1.884   4.433   4.661
 9609SOL    HW229727   1.796   4.295   4.670
 9610SOL     OW29728   1.796   2.548   5.937
 9610SOL    HW129729   1.829   2.461   5.974
 9610SOL    HW229730   1.722   2.583   5.994
 9611SOL     OW29731   6.538   0.214   1.097
 9611SOL    HW129732   6.566   0.165   1.014
 9611SOL    HW229733   6.462   0.276   1.075
 9612SOL     OW29734   6.638   2.874   1.084
 9612SOL    HW129735   6.596   2.929   1.157
 9612SOL    HW229736   6.664   2.934   1.008
 9613SOL     OW29737   5.481   6.845   4.165
 9613SOL    HW129738   5.432   6.927   4.134
 9613SOL    HW229739   5.577   6.851   4.137
 9614SOL     OW29740   3.908   3.934   2.506
 9614SOL    HW129741   3.971   4.012   2.517
 9614SOL    HW229742   3.846   3.953   2.430
 9615SOL     OW29743   2.517   5.470   2.994
 9615SOL    HW129744   2.579   5.418   3.054
 9615SOL    HW229745   2.509   5.423   2.906
 9616SOL     OW29746   3.878   3.122   1.398
 9616SOL    HW129747   3.835   3.111   1.309
 9616SOL    HW229748   3.850   3.209   1.439
 9617SOL     OW29749   1.247   3.636   3.453
 9617SOL    HW129750   1.194   3.581   3.388
 9617SOL    HW229751   1.185   3.678   3.519
 9618SOL     OW29752   3.918   6.700   6.401
 9618SOL    HW129753   3.978   6.626   6.431
 9618SOL    HW229754   3.910   6.769   6.472
 9619SOL     OW29755   1.773   5.984   0.238
 9619SOL    HW129756   1.735   6.076   0.227
 9619SOL    HW229757   1.726   5.921   0.177
 9620SOL     OW29758   4.206   0.403   6.308
 9620SOL    HW129759   4.139   0.424   6.379
 9620SOL    HW229760   4.161   0.399   6.219
 9621SOL     OW29761   1.176   0.156   2.206
 9621SOL    HW129762   1.253   0.218   2.193
 9621SOL    HW229763   1.091   0.201   2.178
 9622SOL     OW29764   0.079   1.460   6.832
 9622SOL    HW129765   0.097   1.448   6.930
 9622SOL    HW229766   0.108   1.552   6.804
 9623SOL     OW29767   4.742   5.934   6.323
 9623SOL    HW129768   4.766   5.875   6.246
 9623SOL    HW229769   4.787   6.022   6.313
 9624SOL     OW29770   5.336   5.214   5.095
 9624SOL    HW129771   5.361   5.186   5.188
 9624SOL    HW229772   5.409   5.271   5.057
 9625SOL     OW29773   5.476   4.289   6.558
 9625SOL    HW129774   5.414   4.251   6.489
 9625SOL    HW229775   5.443   4.379   6.587
 9626SOL     OW29776   1.822   4.585   4.480
 9626SOL    HW129777   1.910   4.587   4.528
 9626SOL    HW229778   1.830   4.529   4.398
 9627SOL     OW29779   1.950   3.993   5.587
 9627SOL    HW129780   1.943   3.974   5.684
 9627SOL    HW229781   1.861   3.981   5.544
 9628SOL     OW29782   6.000   4.071   0.106
 9628SOL    HW129783   6.005   4.106   0.200
 9628SOL    HW229784   6.032   4.141   0.043
 9629SOL     OW29785   6.786   6.239   3.090
 9629SOL    HW129786   6.704   6.255   3.037
 9629SOL    HW229787   6.793   6.309   3.162
 9630SOL     OW29788   6.189   6.115   5.798
 9630SOL    HW129789   6.242   6.164   5.728
 9630SOL    HW229790   6.123   6.178   5.839
 9631SOL     OW29791   4.678   1.116   1.370
 9631SOL    HW129792   4.723   1.155   1.290
 9631SOL    HW229793   4.602   1.058   1.341
 9632SOL     OW29794   1.984   5.427   1.514
 9632SOL    HW129795   1.970   5.470   1.603
 9632SOL    HW229796   2.071   5.378   1.513
 9633SOL     OW29797   3.655   2.951   2.250
 9633SOL    HW129798   3.752   2.974   2.240
 9633SOL    HW229799   3.646   2.872   2.311
 9634SOL     OW29800   5.756   4.124   2.764
 9634SOL    HW129801   5.844   4.099   2.804
 9634SOL    HW229802   5.695   4.156   2.836
 9635SOL     OW29803   0.327   4.018   3.826
 9635SOL    HW129804   0.349   3.993   3.920
 9635SOL    HW229805   0.228   4.032   3.817
 9636SOL     OW29806   4.305   1.557   5.545
 9636SOL    HW129807   4.382   1.493   5.538
 9636SOL    HW229808   4.297   1.609   5.460
 9637SOL     OW29809   2.637   2.795   1.478
 9637SOL    HW129810   2.575   2.766   1.551
 9637SOL    HW229811   2.723   2.745   1.486
 9638SOL     OW29812   6.904   4.450   6.066
 9638SOL    HW129813   6.880   4.448   6.163
 9638SOL    HW229814   6.835   4.402   6.013
 9639SOL     OW29815   4.649   2.480   1.814
 9639SOL    HW129816   4.585   2.527   1.753
 9639SOL    HW229817   4.736   2.530   1.817
 9640SOL     OW29818   4.196   1.264   2.066
 9640SOL    HW129819   4.148   1.352   2.069
 9640SOL    HW229820   4.224   1.245   1.972
 9641SOL     OW29821   5.630   5.549   3.111
 9641SOL    HW129822   5.573   5.627   3.085
 9641SOL    HW229823   5.591   5.464   3.074
 9642SOL     OW29824   1.519   0.196   4.183
 9642SOL    HW129825   1.510   0.210   4.281
 9642SOL    HW229826   1.585   0.261   4.145
 9643SOL     OW29827   4.801   3.971   3.707
 9643SOL    HW129828   4.706   3.947   3.726
 9643SOL    HW229829   4.853   3.971   3.792
 9644SOL     OW29830   2.172   6.002   4.914
 9644SOL    HW129831   2.135   6.087   4.878
 9644SOL    HW229832   2.100   5.954   4.965
 9645SOL     OW29833   1.406   4.419   5.002
 9645SOL    HW129834   1.421   4.423   5.101
 9645SOL    HW229835   1.490   4.443   4.954
 9646SOL     OW29836   2.916   6.469   4.049
 9646SOL    HW129837   2.832   6.450   3.999
 9646SOL    HW229838   2.989   6.492   3.984
 9647SOL     OW29839   6.555   5.923   3.368
 9647SOL    HW129840   6.571   5.953   3.273
 9647SOL    HW229841   6.469   5.872   3.373
 9648SOL     OW29842   5.445   3.066   1.773
 9648SOL    HW129843   5.538   3.079   1.738
 9648SOL    HW229844   5.439   2.978   1.820
 9649SOL     OW29845   2.158   3.574   6.383
 9649SOL    HW129846   2.161   3.491   6.438
 9649SOL    HW229847   2.150   3.551   6.286
 9650SOL     OW29848   6.459   5.022   3.625
 9650SOL    HW129849   6.371   5.061   3.651
 9650SOL    HW229850   6.504   4.985   3.706
 9651SOL     OW29851   3.449   1.236   0.859
 9651SOL    HW129852   3.471   1.187   0.775
 9651SOL    HW229853   3.388   1.180   0.915
 9652SOL     OW29854   0.698   4.565   0.964
 9652SOL    HW129855   0.790   4.592   0.935
 9652SOL    HW229856   0.653   4.516   0.890
 9653SOL     OW29857   4.311   4.687   5.679
 9653SOL    HW129858   4.396   4.633   5.676
 9653SOL    HW229859   4.301   4.728   5.770
 9654SOL     OW29860   3.353   2.885   3.037
 9654SOL    HW129861   3.311   2.797   3.059
 9654SOL    HW229862   3.300   2.958   3.080
 9655SOL     OW29863   7.013   1.381   0.646
 9655SOL    HW129864   0.090   1.376   0.680
 9655SOL    HW229865   7.008   1.448   0.572
 9656SOL     OW29866   4.712   2.365   0.261
 9656SOL    HW129867   4.625   2.362   0.312
 9656SOL    HW229868   4.719   2.451   0.212
 9657SOL     OW29869   5.247   3.985   3.626
 9657SOL    HW129870   5.337   3.989   3.671
 9657SOL    HW229871   5.235   3.895   3.584
 9658SOL     OW29872   5.023   1.881   2.458
 9658SOL    HW129873   5.092   1.875   2.386
 9658SOL    HW229874   4.935   1.847   2.423
 9659SOL     OW29875   2.961   1.368   0.045
 9659SOL    HW129876   2.932   1.429   6.988
 9659SOL    HW229877   3.043   1.318   0.017
 9660SOL     OW29878   0.623   6.653   1.298
 9660SOL    HW129879   0.713   6.693   1.317
 9660SOL    HW229880   0.602   6.585   1.369
 9661SOL     OW29881   4.529   5.652   0.980
 9661SOL    HW129882   4.488   5.653   0.890
 9661SOL    HW229883   4.461   5.624   1.048
 9662SOL     OW29884   5.418   4.182   6.868
 9662SOL    HW129885   5.516   4.186   6.849
 9662SOL    HW229886   5.370   4.150   6.787
 9663SOL     OW29887   0.658   4.652   2.498
 9663SOL    HW129888   0.588   4.675   2.565
 9663SOL    HW229889   0.625   4.576   2.440
 9664SOL     OW29890   4.999   4.212   3.876
 9664SOL    HW129891   5.052   4.296   3.867
 9664SOL    HW229892   4.955   4.191   3.789
 9665SOL     OW29893   6.660   6.290   5.541
 9665SOL    HW129894   6.617   6.203   5.521
 9665SOL    HW229895   6.641   6.316   5.636
 9666SOL     OW29896   6.332   4.603   1.350
 9666SOL    HW129897   6.256   4.538   1.344
 9666SOL    HW229898   6.414   4.555   1.384
 9667SOL     OW29899   4.624   4.112   1.043
 9667SOL    HW129900   4.606   4.057   1.125
 9667SOL    HW229901   4.590   4.065   0.962
 9668SOL     OW29902   1.336   0.956   6.046
 9668SOL    HW129903   1.273   0.920   5.978
 9668SOL    HW229904   1.333   1.056   6.044
 9669SOL     OW29905   2.885   0.194   0.566
 9669SOL    HW129906   2.851   0.210   0.473
 9669SOL    HW229907   2.810   0.207   0.631
 9670SOL     OW29908   0.476   6.165   5.594
 9670SOL    HW129909   0.451   6.141   5.688
 9670SOL    HW229910   0.401   6.141   5.533
 9671SOL     OW29911   0.889   4.742   0.452
 9671SOL    HW129912   0.908   4.813   0.385
 9671SOL    HW229913   0.803   4.696   0.430
 9672SOL     OW29914   1.532   4.979   2.737
 9672SOL    HW129915   1.560   4.897   2.788
 9672SOL    HW229916   1.433   4.980   2.728
 9673SOL     OW29917   3.598   3.957   1.075
 9673SOL    HW129918   3.643   4.036   1.117
 9673SOL    HW229919   3.504   3.950   1.107
 9674SOL     OW29920   3.799   6.353   2.566
 9674SOL    HW129921   3.845   6.332   2.652
 9674SOL    HW229922   3.741   6.277   2.539
 9675SOL     OW29923   5.408   3.925   7.006
 9675SOL    HW129924   5.441   4.014   6.976
 9675SOL    HW229925   5.328   3.938   0.049
 9676SOL     OW29926   1.379   3.270   6.635
 9676SOL    HW129927   1.359   3.344   6.699
 9676SOL    HW229928   1.467   3.229   6.657
 9677SOL     OW29929   6.343   5.250   6.470
 9677SOL    HW129930   6.340   5.347   6.495
 9677SOL    HW229931   6.261   5.227   6.418
 9678SOL     OW29932   3.283   3.764   4.520
 9678SOL    HW129933   3.186   3.757   4.542
 9678SOL    HW229934   3.305   3.858   4.494
 9679SOL     OW29935   2.649   1.701   4.471
 9679SOL    HW129936   2.712   1.661   4.405
 9679SOL    HW229937   2.702   1.744   4.545
 9680SOL     OW29938   5.237   0.079   5.157
 9680SOL    HW129939   5.337   0.092   5.156
 9680SOL    HW229940   5.197   0.126   5.078
 9681SOL     OW29941   2.985   1.703   1.665
 9681SOL    HW129942   3.021   1.703   1.759
 9681SOL    HW229943   2.975   1.609   1.633
 9682SOL     OW29944   4.849   4.386   3.389
 9682SOL    HW129945   4.750   4.386   3.374
 9682SOL    HW229946   4.885   4.294   3.375
 9683SOL     OW29947   2.717   6.564   0.610
 9683SOL    HW129948   2.713   6.662   0.595
 9683SOL    HW229949   2.809   6.531   0.589
 9684SOL     OW29950   0.876   3.799   4.800
 9684SOL    HW129951   0.968   3.780   4.833
 9684SOL    HW229952   0.845   3.887   4.837
 9685SOL     OW29953   4.649   3.683   0.622
 9685SOL    HW129954   4.590   3.747   0.572
 9685SOL    HW229955   4.739   3.725   0.636
 9686SOL     OW29956   0.584   3.012   0.542
 9686SOL    HW129957   0.582   3.111   0.554
 9686SOL    HW229958   0.493   2.979   0.517
 9687SOL     OW29959   6.393   0.206   2.153
 9687SOL    HW129960   6.411   0.143   2.078
 9687SOL    HW229961   6.478   0.221   2.205
 9688SOL     OW29962   0.821   3.992   0.780
 9688SOL    HW129963   0.783   3.935   0.853
 9688SOL    HW229964   0.867   4.071   0.821
 9689SOL     OW29965   0.785   4.646   6.145
 9689SOL    HW129966   0.811   4.597   6.062
 9689SOL    HW229967   0.857   4.710   6.170
 9690SOL     OW29968   4.224   5.765   5.930
 9690SOL    HW129969   4.219   5.713   6.016
 9690SOL    HW229970   4.172   5.850   5.940
 9691SOL     OW29971   3.214   4.003   2.554
 9691SOL    HW129972   3.151   3.961   2.488
 9691SOL    HW229973   3.245   3.934   2.619
 9692SOL     OW29974   4.735   5.255   0.772
 9692SOL    HW129975   4.680   5.222   0.695
 9692SOL    HW229976   4.675   5.302   0.837
 9693SOL     OW29977   5.608   4.365   3.916
 9693SOL    HW129978   5.690   4.343   3.863
 9693SOL    HW229979   5.599   4.464   3.924
 9694SOL     OW29980   4.118   0.712   1.446
 9694SOL    HW129981   4.170   0.795   1.467
 9694SOL    HW229982   4.146   0.638   1.508
 9695SOL     OW29983   0.142   3.301   2.797
 9695SOL    HW129984   0.215   3.356   2.754
 9695SOL    HW229985   0.090   3.253   2.726
 9696SOL     OW29986   5.891   1.660   2.366
 9696SOL    HW129987   5.961   1.592   2.343
 9696SOL    HW229988   5.929   1.727   2.429
 9697SOL     OW29989   0.410   6.692   0.898
 9697SOL    HW129990   0.462   6.641   0.966
 9697SOL    HW229991   0.449   6.678   0.807
 9698SOL     OW29992   5.957   3.061   6.333
 9698SOL    HW129993   5.980   3.125   6.259
 9698SOL    HW229994   5.896   2.990   6.297
 9699SOL     OW29995   0.889   5.984   6.867
 9699SOL    HW129996   0.825   5.938   6.929
 9699SOL    HW229997   0.967   6.018   6.919
 9700SOL     OW29998   6.295   5.425   3.723
 9700SOL    HW129999   6.225   5.447   3.791
 9700SOL    HW230000   6.372   5.380   3.768
 9701SOL     OW30001   4.367   3.855   5.951
 9701SOL    HW130002   4.332   3.832   5.860
 9701SOL    HW230003   4.332   3.789   6.017
 9702SOL     OW30004   3.908   2.638   0.030
 9702SOL    HW130005   3.996   2.624   0.076
 9702SOL    HW230006   3.896   2.735   0.010
 9703SOL     OW30007   5.497   3.719   4.477
 9703SOL    HW130008   5.500   3.696   4.574
 9703SOL    HW230009   5.434   3.657   4.430
 9704SOL     OW30010   3.404   5.440   2.392
 9704SOL    HW130011   3.410   5.360   2.452
 9704SOL    HW230012   3.469   5.430   2.317
 9705SOL     OW30013   6.102   4.270   5.634
 9705SOL    HW130014   6.016   4.221   5.619
 9705SOL    HW230015   6.144   4.237   5.718
 9706SOL     OW30016   2.202   2.248   1.330
 9706SOL    HW130017   2.296   2.283   1.320
 9706SOL    HW230018   2.200   2.151   1.304
 9707SOL     OW30019   5.488   5.024   2.410
 9707SOL    HW130020   5.479   5.023   2.509
 9707SOL    HW230021   5.426   4.958   2.369
 9708SOL     OW30022   1.416   1.545   2.760
 9708SOL    HW130023   1.476   1.535   2.840
 9708SOL    HW230024   1.372   1.634   2.762
 9709SOL     OW30025   4.854   4.489   2.124
 9709SOL    HW130026   4.786   4.422   2.154
 9709SOL    HW230027   4.872   4.476   2.026
 9710SOL     OW30028   6.502   0.284   0.404
 9710SOL    HW130029   6.474   0.365   0.456
 9710SOL    HW230030   6.538   0.215   0.468
 9711SOL     OW30031   3.558   5.754   6.466
 9711SOL    HW130032   3.496   5.686   6.428
 9711SOL    HW230033   3.602   5.718   6.548
 9712SOL     OW30034   6.372   3.411   0.450
 9712SOL    HW130035   6.356   3.470   0.530
 9712SOL    HW230036   6.384   3.468   0.369
 9713SOL     OW30037   2.844   5.804   3.640
 9713SOL    HW130038   2.840   5.786   3.542
 9713SOL    HW230039   2.753   5.826   3.674
 9714SOL     OW30040   3.930   6.249   5.861
 9714SOL    HW130041   3.931   6.160   5.816
 9714SOL    HW230042   4.008   6.255   5.923
 9715SOL     OW30043   5.917   5.164   6.663
 9715SOL    HW130044   5.901   5.178   6.565
 9715SOL    HW230045   5.968   5.079   6.676
 9716SOL     OW30046   3.645   4.211   6.691
 9716SOL    HW130047   3.700   4.256   6.622
 9716SOL    HW230048   3.704   4.161   6.754
 9717SOL     OW30049   4.659   6.515   0.003
 9717SOL    HW130050   4.636   6.427   0.045
 9717SOL    HW230051   4.617   6.520   6.929
 9718SOL     OW30052   4.072   2.787   0.865
 9718SOL    HW130053   3.974   2.808   0.869
 9718SOL    HW230054   4.085   2.688   0.868
 9719SOL     OW30055   5.588   6.850   5.706
 9719SOL    HW130056   5.632   6.917   5.766
 9719SOL    HW230057   5.581   6.888   5.613
 9720SOL     OW30058   0.865   3.521   2.438
 9720SOL    HW130059   0.877   3.500   2.341
 9720SOL    HW230060   0.787   3.470   2.474
 9721SOL     OW30061   0.388   1.528   6.747
 9721SOL    HW130062   0.456   1.598   6.769
 9721SOL    HW230063   0.332   1.558   6.670
 9722SOL     OW30064   3.320   1.223   5.040
 9722SOL    HW130065   3.375   1.226   4.957
 9722SOL    HW230066   3.363   1.164   5.108
 9723SOL     OW30067   5.639   5.682   4.056
 9723SOL    HW130068   5.694   5.749   4.107
 9723SOL    HW230069   5.699   5.610   4.022
 9724SOL     OW30070   2.293   4.769   6.892
 9724SOL    HW130071   2.250   4.760   6.803
 9724SOL    HW230072   2.362   4.841   6.889
 9725SOL     OW30073   4.590   5.782   5.610
 9725SOL    HW130074   4.607   5.875   5.639
 9725SOL    HW230075   4.492   5.761   5.618
 9726SOL     OW30076   4.662   1.944   4.758
 9726SOL    HW130077   4.662   1.844   4.754
 9726SOL    HW230078   4.586   1.980   4.703
 9727SOL     OW30079   0.936   2.479   0.308
 9727SOL    HW130080   0.921   2.403   0.245
 9727SOL    HW230081   0.993   2.548   0.264
 9728SOL     OW30082   0.026   1.995   5.831
 9728SOL    HW130083   0.070   1.906   5.844
 9728SOL    HW230084   6.944   1.985   5.846
 9729SOL     OW30085   1.210   4.250   3.679
 9729SOL    HW130086   1.261   4.164   3.672
 9729SOL    HW230087   1.112   4.229   3.691
 9730SOL     OW30088   0.850   4.104   2.828
 9730SOL    HW130089   0.855   4.125   2.731
 9730SOL    HW230090   0.826   4.186   2.879
 9731SOL     OW30091   4.558   5.368   1.910
 9731SOL    HW130092   4.615   5.297   1.869
 9731SOL    HW230093   4.583   5.380   2.006
 9732SOL     OW30094   0.069   3.105   1.851
 9732SOL    HW130095   0.168   3.106   1.833
 9732SOL    HW230096   0.052   3.060   1.938
 9733SOL     OW30097   5.732   5.843   1.314
 9733SOL    HW130098   5.690   5.882   1.395
 9733SOL    HW230099   5.662   5.823   1.246
 9734SOL     OW30100   6.610   0.095   0.207
 9734SOL    HW130101   6.570   0.164   0.267
 9734SOL    HW230102   6.659   0.028   0.263
 9735SOL     OW30103   1.594   2.838   3.348
 9735SOL    HW130104   1.554   2.818   3.437
 9735SOL    HW230105   1.528   2.818   3.275
 9736SOL     OW30106   5.235   1.734   5.974
 9736SOL    HW130107   5.178   1.655   5.997
 9736SOL    HW230108   5.179   1.817   5.975
 9737SOL     OW30109   5.521   2.071   2.810
 9737SOL    HW130110   5.451   2.107   2.872
 9737SOL    HW230111   5.505   2.107   2.718
 9738SOL     OW30112   1.424   0.200   0.759
 9738SOL    HW130113   1.370   0.147   0.824
 9738SOL    HW230114   1.427   0.296   0.789
 9739SOL     OW30115   5.051   6.182   0.186
 9739SOL    HW130116   5.054   6.276   0.153
 9739SOL    HW230117   5.023   6.121   0.111
 9740SOL     OW30118   6.081   1.129   2.863
 9740SOL    HW130119   6.129   1.044   2.885
 9740SOL    HW230120   6.139   1.207   2.887
 9741SOL     OW30121   2.342   0.563   3.683
 9741SOL    HW130122   2.376   0.492   3.745
 9741SOL    HW230123   2.410   0.636   3.674
 9742SOL     OW30124   3.964   0.937   0.312
 9742SOL    HW130125   3.880   0.906   0.358
 9742SOL    HW230126   4.001   0.863   0.256
 9743SOL     OW30127   0.096   4.641   2.878
 9743SOL    HW130128   0.134   4.673   2.792
 9743SOL    HW230129   0.164   4.648   2.950
 9744SOL     OW30130   2.477   0.032   2.872
 9744SOL    HW130131   2.552   0.036   2.938
 9744SOL    HW230132   2.400   6.999   2.912
 9745SOL     OW30133   5.170   2.993   6.672
 9745SOL    HW130134   5.170   3.058   6.596
 9745SOL    HW230135   5.264   2.974   6.700
 9746SOL     OW30136   5.509   6.304   5.972
 9746SOL    HW130137   5.517   6.400   5.944
 9746SOL    HW230138   5.582   6.283   6.038
 9747SOL     OW30139   3.079   2.279   1.703
 9747SOL    HW130140   3.161   2.275   1.760
 9747SOL    HW230141   3.001   2.304   1.760
 9748SOL     OW30142   0.191   6.875   2.967
 9748SOL    HW130143   0.151   6.846   2.880
 9748SOL    HW230144   0.235   6.797   3.011
 9749SOL     OW30145   0.886   1.165   2.972
 9749SOL    HW130146   0.884   1.262   2.996
 9749SOL    HW230147   0.915   1.112   3.052
 9750SOL     OW30148   6.424   5.982   3.862
 9750SOL    HW130149   6.380   5.893   3.845
 9750SOL    HW230150   6.451   6.023   3.776
 9751SOL     OW30151   1.812   0.058   0.488
 9751SOL    HW130152   1.907   0.060   0.518
 9751SOL    HW230153   1.752   0.067   0.567
 9752SOL     OW30154   3.615   1.609   5.662
 9752SOL    HW130155   3.692   1.556   5.700
 9752SOL    HW230156   3.535   1.550   5.655
 9753SOL     OW30157   1.228   5.774   6.424
 9753SOL    HW130158   1.157   5.840   6.449
 9753SOL    HW230159   1.186   5.696   6.377
 9754SOL     OW30160   2.763   0.259   0.804
 9754SOL    HW130161   2.664   0.249   0.814
 9754SOL    HW230162   2.810   0.194   0.864
 9755SOL     OW30163   3.516   3.971   4.926
 9755SOL    HW130164   3.427   3.941   4.891
 9755SOL    HW230165   3.559   3.896   4.975
 9756SOL     OW30166   6.059   2.275   6.666
 9756SOL    HW130167   5.974   2.222   6.671
 9756SOL    HW230168   6.087   2.284   6.571
 9757SOL     OW30169   5.692   4.400   5.053
 9757SOL    HW130170   5.671   4.469   4.984
 9757SOL    HW230171   5.766   4.341   5.020
 9758SOL     OW30172   2.060   0.926   0.385
 9758SOL    HW130173   2.071   1.021   0.356
 9758SOL    HW230174   2.141   0.874   0.358
 9759SOL     OW30175   1.063   1.655   0.678
 9759SOL    HW130176   1.032   1.636   0.771
 9759SOL    HW230177   1.030   1.583   0.617
 9760SOL     OW30178   4.869   3.368   6.186
 9760SOL    HW130179   4.821   3.405   6.265
 9760SOL    HW230180   4.815   3.294   6.145
 9761SOL     OW30181   1.207   2.638   2.467
 9761SOL    HW130182   1.265   2.626   2.548
 9761SOL    HW230183   1.213   2.733   2.436
 9762SOL     OW30184   3.409   1.473   4.572
 9762SOL    HW130185   3.492   1.513   4.533
 9762SOL    HW230186   3.342   1.545   4.588
 9763SOL     OW30187   5.930   0.512   3.412
 9763SOL    HW130188   5.917   0.579   3.485
 9763SOL    HW230189   5.897   0.549   3.325
 9764SOL     OW30190   6.450   2.392   2.345
 9764SOL    HW130191   6.452   2.302   2.299
 9764SOL    HW230192   6.466   2.379   2.443
 9765SOL     OW30193   6.735   6.900   2.935
 9765SOL    HW130194   6.761   6.863   2.845
 9765SOL    HW230195   6.744   6.828   3.004
 9766SOL     OW30196   1.981   6.458   2.975
 9766SOL    HW130197   1.966   6.368   2.934
 9766SOL    HW230198   2.053   6.506   2.925
 9767SOL     OW30199   2.469   2.795   5.295
 9767SOL    HW130200   2.455   2.886   5.256
 9767SOL    HW230201   2.559   2.790   5.337
 9768SOL     OW30202   4.440   1.378   1.511
 9768SOL    HW130203   4.523   1.342   1.553
 9768SOL    HW230204   4.416   1.465   1.555
 9769SOL     OW30205   3.678   0.890   4.461
 9769SOL    HW130206   3.650   0.896   4.557
 9769SOL    HW230207   3.600   0.864   4.405
 9770SOL     OW30208   4.079   1.375   5.299
 9770SOL    HW130209   4.033   1.358   5.212
 9770SOL    HW230210   4.027   1.442   5.352
 9771SOL     OW30211   2.435   5.803   1.033
 9771SOL    HW130212   2.391   5.781   1.120
 9771SOL    HW230213   2.365   5.813   0.962
 9772SOL     OW30214   2.123   6.236   1.154
 9772SOL    HW130215   2.085   6.166   1.214
 9772SOL    HW230216   2.211   6.205   1.118
 9773SOL     OW30217   5.171   5.383   3.922
 9773SOL    HW130218   5.183   5.300   3.869
 9773SOL    HW230219   5.089   5.431   3.890
 9774SOL     OW30220   0.615   5.572   3.029
 9774SOL    HW130221   0.602   5.620   3.116
 9774SOL    HW230222   0.694   5.511   3.037
 9775SOL     OW30223   3.207   0.153   3.727
 9775SOL    HW130224   3.144   0.140   3.804
 9775SOL    HW230225   3.156   0.189   3.648
 9776SOL     OW30226   0.958   3.922   5.479
 9776SOL    HW130227   1.045   3.878   5.457
 9776SOL    HW230228   0.974   4.016   5.510
 9777SOL     OW30229   5.260   5.790   0.932
 9777SOL    HW130230   5.236   5.862   0.866
 9777SOL    HW230231   5.177   5.742   0.960
 9778SOL     OW30232   6.825   1.764   5.148
 9778SOL    HW130233   6.757   1.756   5.221
 9778SOL    HW230234   6.911   1.723   5.178
 9779SOL     OW30235   0.456   2.310   3.721
 9779SOL    HW130236   0.365   2.308   3.680
 9779SOL    HW230237   0.448   2.301   3.821
 9780SOL     OW30238   2.419   2.065   0.993
 9780SOL    HW130239   2.323   2.038   0.986
 9780SOL    HW230240   2.477   1.988   0.965
 9781SOL     OW30241   2.137   3.463   4.254
 9781SOL    HW130242   2.074   3.508   4.318
 9781SOL    HW230243   2.182   3.532   4.198
 9782SOL     OW30244   0.611   1.749   0.461
 9782SOL    HW130245   0.709   1.754   0.441
 9782SOL    HW230246   0.560   1.788   0.384
 9783SOL     OW30247   4.335   2.366   3.383
 9783SOL    HW130248   4.283   2.290   3.425
 9783SOL    HW230249   4.285   2.401   3.304
 9784SOL     OW30250   3.897   0.532   5.642
 9784SOL    HW130251   3.947   0.618   5.642
 9784SOL    HW230252   3.829   0.532   5.715
 9785SOL     OW30253   6.569   2.081   5.394
 9785SOL    HW130254   6.509   2.058   5.318
 9785SOL    HW230255   6.577   2.002   5.455
 9786SOL     OW30256   2.920   3.175   0.547
 9786SOL    HW130257   2.832   3.156   0.503
 9786SOL    HW230258   2.944   3.271   0.533
 9787SOL     OW30259   3.344   3.556   3.240
 9787SOL    HW130260   3.284   3.608   3.301
 9787SOL    HW230261   3.309   3.463   3.231
 9788SOL     OW30262   0.719   0.175   1.664
 9788SOL    HW130263   0.761   0.145   1.749
 9788SOL    HW230264   0.628   0.211   1.683
 9789SOL     OW30265   1.884   6.528   6.958
 9789SOL    HW130266   1.959   6.593   6.942
 9789SOL    HW230267   1.841   6.548   0.029
 9790SOL     OW30268   6.452   4.462   5.869
 9790SOL    HW130269   6.470   4.549   5.824
 9790SOL    HW230270   6.477   4.387   5.807
 9791SOL     OW30271   0.116   0.625   6.815
 9791SOL    HW130272   0.094   0.722   6.806
 9791SOL    HW230273   0.037   0.570   6.786
 9792SOL     OW30274   3.424   5.009   0.736
 9792SOL    HW130275   3.347   5.047   0.684
 9792SOL    HW230276   3.393   4.928   0.786
 9793SOL     OW30277   4.173   7.001   2.574
 9793SOL    HW130278   4.148   6.905   2.582
 9793SOL    HW230279   4.198   0.020   2.664
 9794SOL     OW30280   6.406   4.530   5.525
 9794SOL    HW130281   6.395   4.535   5.426
 9794SOL    HW230282   6.473   4.598   5.555
 9795SOL     OW30283   1.240   3.184   4.343
 9795SOL    HW130284   1.147   3.214   4.365
 9795SOL    HW230285   1.305   3.250   4.381
 9796SOL     OW30286   4.087   3.614   3.088
 9796SOL    HW130287   4.001   3.566   3.102
 9796SOL    HW230288   4.069   3.706   3.055
 9797SOL     OW30289   1.942   5.402   6.891
 9797SOL    HW130290   2.024   5.360   6.929
 9797SOL    HW230291   1.959   5.431   6.797
 9798SOL     OW30292   2.654   0.805   1.799
 9798SOL    HW130293   2.624   0.740   1.868
 9798SOL    HW230294   2.616   0.780   1.710
 9799SOL     OW30295   2.672   3.859   6.028
 9799SOL    HW130296   2.688   3.943   5.977
 9799SOL    HW230297   2.619   3.795   5.972
 9800SOL     OW30298   4.919   4.265   4.558
 9800SOL    HW130299   4.931   4.333   4.631
 9800SOL    HW230300   4.994   4.272   4.493
 9801SOL     OW30301   4.698   4.610   0.174
 9801SOL    HW130302   4.668   4.706   0.173
 9801SOL    HW230303   4.643   4.559   0.241
 9802SOL     OW30304   4.968   5.283   0.639
 9802SOL    HW130305   4.949   5.244   0.549
 9802SOL    HW230306   4.894   5.259   0.702
 9803SOL     OW30307   1.556   3.218   6.324
 9803SOL    HW130308   1.507   3.141   6.365
 9803SOL    HW230309   1.617   3.184   6.253
 9804SOL     OW30310   0.601   6.086   3.052
 9804SOL    HW130311   0.552   6.060   3.135
 9804SOL    HW230312   0.624   6.004   3.000
 9805SOL     OW30313   0.327   6.944   3.293
 9805SOL    HW130314   0.424   6.931   3.317
 9805SOL    HW230315   0.321   6.987   3.203
 9806SOL     OW30316   1.423   1.340   6.878
 9806SOL    HW130317   1.475   1.306   6.800
 9806SOL    HW230318   1.482   1.397   6.936
 9807SOL     OW30319   3.311   3.894   1.049
 9807SOL    HW130320   3.340   3.811   1.002
 9807SOL    HW230321   3.226   3.877   1.097
 9808SOL     OW30322   3.624   5.796   4.596
 9808SOL    HW130323   3.604   5.816   4.692
 9808SOL    HW230324   3.541   5.805   4.542
 9809SOL     OW30325   0.447   3.849   0.193
 9809SOL    HW130326   0.405   3.760   0.175
 9809SOL    HW230327   0.383   3.908   0.242
 9810SOL     OW30328   3.135   2.143   4.710
 9810SOL    HW130329   3.180   2.217   4.660
 9810SOL    HW230330   3.187   2.122   4.793
 9811SOL     OW30331   6.152   4.680   3.670
 9811SOL    HW130332   6.065   4.707   3.710
 9811SOL    HW230333   6.205   4.628   3.737
 9812SOL     OW30334   3.402   1.756   5.495
 9812SOL    HW130335   3.377   1.852   5.485
 9812SOL    HW230336   3.498   1.744   5.470
 9813SOL     OW30337   5.253   1.795   0.892
 9813SOL    HW130338   5.308   1.867   0.935
 9813SOL    HW230339   5.182   1.837   0.835
 9814SOL     OW30340   6.206   1.004   0.204
 9814SOL    HW130341   6.283   0.964   0.154
 9814SOL    HW230342   6.133   1.027   0.139
 9815SOL     OW30343   4.781   2.920   4.533
 9815SOL    HW130344   4.709   2.853   4.514
 9815SOL    HW230345   4.789   2.982   4.456
 9816SOL     OW30346   0.532   1.374   5.970
 9816SOL    HW130347   0.454   1.313   5.981
 9816SOL    HW230348   0.526   1.420   5.882
 9817SOL     OW30349   1.335   0.004   3.458
 9817SOL    HW130350   1.397   0.004   3.380
 9817SOL    HW230351   1.382   0.040   3.539
 9818SOL     OW30352   6.273   1.954   4.243
 9818SOL    HW130353   6.325   1.990   4.320
 9818SOL    HW230354   6.316   1.982   4.157
 9819SOL     OW30355   4.892   3.139   3.467
 9819SOL    HW130356   4.931   3.224   3.504
 9819SOL    HW230357   4.956   3.063   3.485
 9820SOL     OW30358   3.721   3.203   6.739
 9820SOL    HW130359   3.713   3.279   6.675
 9820SOL    HW230360   3.816   3.171   6.742
 9821SOL     OW30361   5.786   1.257   6.686
 9821SOL    HW130362   5.757   1.249   6.781
 9821SOL    HW230363   5.706   1.263   6.627
 9822SOL     OW30364   1.658   6.843   3.680
 9822SOL    HW130365   1.755   6.868   3.683
 9822SOL    HW230366   1.604   6.923   3.653
 9823SOL     OW30367   3.718   0.117   0.665
 9823SOL    HW130368   3.686   0.210   0.685
 9823SOL    HW230369   3.698   0.057   0.742
 9824SOL     OW30370   2.036   4.696   5.072
 9824SOL    HW130371   1.947   4.688   5.117
 9824SOL    HW230372   2.094   4.619   5.099
 9825SOL     OW30373   3.793   5.036   6.104
 9825SOL    HW130374   3.741   5.006   6.024
 9825SOL    HW230375   3.732   5.038   6.184
 9826SOL     OW30376   5.100   5.039   6.170
 9826SOL    HW130377   5.134   5.026   6.077
 9826SOL    HW230378   5.075   5.135   6.183
 9827SOL     OW30379   2.159   3.320   3.766
 9827SOL    HW130380   2.155   3.414   3.734
 9827SOL    HW230381   2.183   3.259   3.691
 9828SOL     OW30382   2.160   3.085   6.112
 9828SOL    HW130383   2.252   3.073   6.150
 9828SOL    HW230384   2.145   3.181   6.089
 9829SOL     OW30385   2.724   6.006   0.087
 9829SOL    HW130386   2.771   6.086   0.124
 9829SOL    HW230387   2.626   6.015   0.103
 9830SOL     OW30388   5.607   2.526   1.732
 9830SOL    HW130389   5.549   2.600   1.767
 9830SOL    HW230390   5.557   2.474   1.664
 9831SOL     OW30391   1.746   5.955   0.855
 9831SOL    HW130392   1.780   5.861   0.860
 9831SOL    HW230393   1.782   6.008   0.932
 9832SOL     OW30394   5.232   5.785   2.701
 9832SOL    HW130395   5.329   5.779   2.681
 9832SOL    HW230396   5.208   5.880   2.721
 9833SOL     OW30397   3.840   2.978   5.069
 9833SOL    HW130398   3.755   2.943   5.029
 9833SOL    HW230399   3.864   2.925   5.150
 9834SOL     OW30400   3.328   4.230   5.696
 9834SOL    HW130401   3.357   4.208   5.603
 9834SOL    HW230402   3.313   4.329   5.704
 9835SOL     OW30403   3.535   2.449   5.801
 9835SOL    HW130404   3.609   2.457   5.868
 9835SOL    HW230405   3.463   2.390   5.838
 9836SOL     OW30406   6.241   4.504   3.866
 9836SOL    HW130407   6.153   4.455   3.866
 9836SOL    HW230408   6.315   4.440   3.883
 9837SOL     OW30409   3.045   0.250   2.616
 9837SOL    HW130410   2.998   0.335   2.593
 9837SOL    HW230411   3.135   0.248   2.571
 9838SOL     OW30412   0.716   6.678   6.215
 9838SOL    HW130413   0.655   6.624   6.158
 9838SOL    HW230414   0.693   6.775   6.206
 9839SOL     OW30415   5.710   1.568   3.409
 9839SOL    HW130416   5.622   1.522   3.411
 9839SOL    HW230417   5.774   1.515   3.353
 9840SOL     OW30418   0.617   1.304   1.690
 9840SOL    HW130419   0.628   1.370   1.764
 9840SOL    HW230420   0.616   1.352   1.602
 9841SOL     OW30421   1.964   4.102   4.451
 9841SOL    HW130422   2.037   4.115   4.384
 9841SOL    HW230423   2.002   4.059   4.533
 9842SOL     OW30424   4.122   3.487   2.818
 9842SOL    HW130425   4.145   3.496   2.914
 9842SOL    HW230426   4.103   3.391   2.796
 9843SOL     OW30427   5.941   0.645   1.088
 9843SOL    HW130428   5.891   0.619   1.005
 9843SOL    HW230429   5.920   0.740   1.111
 9844SOL     OW30430   5.982   1.064   2.281
 9844SOL    HW130431   6.004   0.979   2.233
 9844SOL    HW230432   5.951   1.132   2.214
 9845SOL     OW30433   3.015   1.490   3.214
 9845SOL    HW130434   2.942   1.484   3.146
 9845SOL    HW230435   3.092   1.540   3.175
 9846SOL     OW30436   3.992   3.536   2.057
 9846SOL    HW130437   4.016   3.580   1.970
 9846SOL    HW230438   3.897   3.506   2.054
 9847SOL     OW30439   3.248   2.929   4.900
 9847SOL    HW130440   3.284   2.889   4.816
 9847SOL    HW230441   3.271   2.872   4.978
 9848SOL     OW30442   3.351   2.747   6.166
 9848SOL    HW130443   3.273   2.788   6.212
 9848SOL    HW230444   3.318   2.694   6.087
 9849SOL     OW30445   0.251   0.346   0.490
 9849SOL    HW130446   0.195   0.429   0.479
 9849SOL    HW230447   0.307   0.332   0.409
 9850SOL     OW30448   5.843   0.227   3.990
 9850SOL    HW130449   5.894   0.150   3.951
 9850SOL    HW230450   5.813   0.288   3.916
 9851SOL     OW30451   5.038   1.559   5.230
 9851SOL    HW130452   4.943   1.578   5.205
 9851SOL    HW230453   5.043   1.533   5.326
 9852SOL     OW30454   4.110   2.253   2.764
 9852SOL    HW130455   4.177   2.265   2.837
 9852SOL    HW230456   4.157   2.225   2.680
 9853SOL     OW30457   4.826   4.638   4.185
 9853SOL    HW130458   4.792   4.686   4.266
 9853SOL    HW230459   4.903   4.689   4.147
 9854SOL     OW30460   0.626   5.669   4.591
 9854SOL    HW130461   0.705   5.612   4.614
 9854SOL    HW230462   0.599   5.652   4.497
 9855SOL     OW30463   2.269   3.307   0.833
 9855SOL    HW130464   2.325   3.342   0.757
 9855SOL    HW230465   2.232   3.384   0.885
 9856SOL     OW30466   4.912   3.757   6.105
 9856SOL    HW130467   4.966   3.674   6.093
 9856SOL    HW230468   4.874   3.759   6.198
 9857SOL     OW30469   4.514   2.173   3.902
 9857SOL    HW130470   4.432   2.230   3.907
 9857SOL    HW230471   4.587   2.215   3.957
 9858SOL     OW30472   0.295   1.024   0.706
 9858SOL    HW130473   0.251   1.097   0.759
 9858SOL    HW230474   0.298   0.940   0.761
 9859SOL     OW30475   5.530   6.868   1.986
 9859SOL    HW130476   5.530   6.908   2.078
 9859SOL    HW230477   5.441   6.829   1.966
 9860SOL     OW30478   0.504   1.413   3.545
 9860SOL    HW130479   0.418   1.404   3.495
 9860SOL    HW230480   0.575   1.357   3.501
 9861SOL     OW30481   3.235   6.960   2.941
 9861SOL    HW130482   3.242   0.037   2.906
 9861SOL    HW230483   3.325   6.927   2.966
 9862SOL     OW30484   3.255   4.200   0.347
 9862SOL    HW130485   3.277   4.279   0.290
 9862SOL    HW230486   3.292   4.117   0.305
 9863SOL     OW30487   3.449   0.025   3.246
 9863SOL    HW130488   3.455   6.964   3.183
 9863SOL    HW230489   3.441   7.009   3.340
 9864SOL     OW30490   3.709   6.081   4.046
 9864SOL    HW130491   3.645   6.150   4.011
 9864SOL    HW230492   3.743   6.108   4.136
 9865SOL     OW30493   1.340   0.888   3.732
 9865SOL    HW130494   1.402   0.941   3.791
 9865SOL    HW230495   1.391   0.815   3.688
 9866SOL     OW30496   5.062   4.830   5.904
 9866SOL    HW130497   4.998   4.779   5.848
 9866SOL    HW230498   5.103   4.770   5.973
 9867SOL     OW30499   5.725   0.728   0.579
 9867SOL    HW130500   5.771   0.699   0.495
 9867SOL    HW230501   5.769   0.810   0.615
 9868SOL     OW30502   0.787   4.125   5.185
 9868SOL    HW130503   0.795   4.212   5.233
 9868SOL    HW230504   0.767   4.052   5.250
 9869SOL     OW30505   1.751   2.903   2.514
 9869SOL    HW130506   1.789   2.900   2.607
 9869SOL    HW230507   1.674   2.840   2.506
 9870SOL     OW30508   3.654   5.924   2.737
 9870SOL    HW130509   3.635   5.934   2.835
 9870SOL    HW230510   3.580   5.964   2.684
 9871SOL     OW30511   0.182   6.130   6.278
 9871SOL    HW130512   0.195   6.210   6.336
 9871SOL    HW230513   0.133   6.059   6.329
 9872SOL     OW30514   2.348   4.739   4.126
 9872SOL    HW130515   2.332   4.777   4.218
 9872SOL    HW230516   2.264   4.745   4.073
 9873SOL     OW30517   2.612   2.195   0.359
 9873SOL    HW130518   2.655   2.257   0.425
 9873SOL    HW230519   2.683   2.144   0.310
 9874SOL     OW30520   0.574   3.460   4.311
 9874SOL    HW130521   0.623   3.501   4.234
 9874SOL    HW230522   0.635   3.396   4.358
 9875SOL     OW30523   6.317   6.979   1.972
 9875SOL    HW130524   6.303   7.011   1.879
 9875SOL    HW230525   6.396   6.916   1.975
 9876SOL     OW30526   6.874   0.643   3.237
 9876SOL    HW130527   6.784   0.633   3.194
 9876SOL    HW230528   6.919   0.724   3.200
 9877SOL     OW30529   0.189   6.153   3.665
 9877SOL    HW130530   0.277   6.105   3.670
 9877SOL    HW230531   0.173   6.201   3.751
 9878SOL     OW30532   2.685   4.822   5.170
 9878SOL    HW130533   2.642   4.774   5.246
 9878SOL    HW230534   2.734   4.757   5.112
 9879SOL     OW30535   5.593   5.349   4.707
 9879SOL    HW130536   5.560   5.258   4.681
 9879SOL    HW230537   5.534   5.418   4.666
 9880SOL     OW30538   2.874   0.840   5.657
 9880SOL    HW130539   2.836   0.920   5.611
 9880SOL    HW230540   2.918   0.868   5.743
 9881SOL     OW30541   1.024   1.548   4.628
 9881SOL    HW130542   1.109   1.563   4.678
 9881SOL    HW230543   1.036   1.572   4.532
 9882SOL     OW30544   1.220   3.455   3.775
 9882SOL    HW130545   1.179   3.498   3.855
 9882SOL    HW230546   1.310   3.420   3.798
 9883SOL     OW30547   0.989   6.511   0.002
 9883SOL    HW130548   1.079   6.543   0.033
 9883SOL    HW230549   0.967   6.424   0.046
 9884SOL     OW30550   4.901   2.141   2.438
 9884SOL    HW130551   4.961   2.062   2.447
 9884SOL    HW230552   4.948   2.215   2.391
 9885SOL     OW30553   6.596   2.488   4.965
 9885SOL    HW130554   6.657   2.467   4.889
 9885SOL    HW230555   6.571   2.404   5.012
 9886SOL     OW30556   1.238   4.191   2.140
 9886SOL    HW130557   1.278   4.274   2.179
 9886SOL    HW230558   1.307   4.145   2.083
 9887SOL     OW30559   3.445   0.450   5.644
 9887SOL    HW130560   3.540   0.479   5.642
 9887SOL    HW230561   3.425   0.397   5.561
 9888SOL     OW30562   6.082   4.411   2.653
 9888SOL    HW130563   6.105   4.349   2.727
 9888SOL    HW230564   6.165   4.441   2.606
 9889SOL     OW30565   0.123   4.817   1.212
 9889SOL    HW130566   0.187   4.799   1.288
 9889SOL    HW230567   0.175   4.828   1.127
 9890SOL     OW30568   1.927   2.126   0.821
 9890SOL    HW130569   1.994   2.069   0.868
 9890SOL    HW230570   1.964   2.154   0.732
 9891SOL     OW30571   4.864   3.813   1.945
 9891SOL    HW130572   4.882   3.771   2.034
 9891SOL    HW230573   4.949   3.816   1.892
 9892SOL     OW30574   6.944   4.811   0.775
 9892SOL    HW130575   0.011   4.763   0.800
 9892SOL    HW230576   6.865   4.759   0.808
 9893SOL     OW30577   0.868   0.506   0.984
 9893SOL    HW130578   0.931   0.435   1.016
 9893SOL    HW230579   0.916   0.594   0.979
 9894SOL     OW30580   2.831   2.368   1.385
 9894SOL    HW130581   2.736   2.357   1.414
 9894SOL    HW230582   2.884   2.289   1.415
 9895SOL     OW30583   6.324   4.876   4.572
 9895SOL    HW130584   6.373   4.789   4.572
 9895SOL    HW230585   6.309   4.906   4.666
 9896SOL     OW30586   6.875   0.720   6.492
 9896SOL    HW130587   6.841   0.795   6.549
 9896SOL    HW230588   6.971   0.737   6.470
 9897SOL     OW30589   5.509   6.086   2.665
 9897SOL    HW130590   5.466   6.019   2.727
 9897SOL    HW230591   5.588   6.043   2.621
 9898SOL     OW30592   1.664   5.848   4.550
 9898SOL    HW130593   1.750   5.837   4.599
 9898SOL    HW230594   1.596   5.892   4.610
 9899SOL     OW30595   1.242   5.914   0.704
 9899SOL    HW130596   1.188   5.854   0.763
 9899SOL    HW230597   1.340   5.896   0.718
 9900SOL     OW30598   1.759   2.786   3.008
 9900SOL    HW130599   1.701   2.713   3.044
 9900SOL    HW230600   1.855   2.759   3.017
 9901SOL     OW30601   2.608   0.635   6.765
 9901SOL    HW130602   2.540   0.687   6.714
 9901SOL    HW230603   2.575   0.542   6.779
 9902SOL     OW30604   3.524   4.951   1.344
 9902SOL    HW130605   3.554   5.040   1.378
 9902SOL    HW230606   3.438   4.962   1.294
 9903SOL     OW30607   5.508   2.522   1.313
 9903SOL    HW130608   5.447   2.485   1.244
 9903SOL    HW230609   5.479   2.492   1.404
 9904SOL     OW30610   0.565   3.849   6.391
 9904SOL    HW130611   0.537   3.774   6.452
 9904SOL    HW230612   0.503   3.926   6.404
 9905SOL     OW30613   1.852   0.360   6.183
 9905SOL    HW130614   1.951   0.343   6.186
 9905SOL    HW230615   1.834   0.457   6.198
 9906SOL     OW30616   2.039   3.502   1.726
 9906SOL    HW130617   2.121   3.513   1.782
 9906SOL    HW230618   1.965   3.559   1.764
 9907SOL     OW30619   0.641   6.965   1.513
 9907SOL    HW130620   0.686   0.030   1.546
 9907SOL    HW230621   0.706   6.909   1.461
 9908SOL     OW30622   5.971   1.462   5.277
 9908SOL    HW130623   5.970   1.559   5.252
 9908SOL    HW230624   6.022   1.411   5.208
 9909SOL     OW30625   4.475   1.443   2.724
 9909SOL    HW130626   4.439   1.503   2.652
 9909SOL    HW230627   4.403   1.380   2.754
 9910SOL     OW30628   1.346   5.292   1.874
 9910SOL    HW130629   1.348   5.196   1.899
 9910SOL    HW230630   1.280   5.341   1.932
 9911SOL     OW30631   2.296   6.138   1.688
 9911SOL    HW130632   2.313   6.234   1.710
 9911SOL    HW230633   2.297   6.084   1.771
 9912SOL     OW30634   3.880   0.228   1.357
 9912SOL    HW130635   3.839   0.157   1.413
 9912SOL    HW230636   3.967   0.196   1.320
 9913SOL     OW30637   6.438   3.946   0.874
 9913SOL    HW130638   6.430   3.958   0.973
 9913SOL    HW230639   6.508   3.876   0.855
 9914SOL     OW30640   6.165   1.054   5.146
 9914SOL    HW130641   6.184   1.040   5.049
 9914SOL    HW230642   6.231   1.001   5.201
 9915SOL     OW30643   5.639   1.307   3.835
 9915SOL    HW130644   5.635   1.275   3.740
 9915SOL    HW230645   5.621   1.405   3.837
 9916SOL     OW30646   2.250   2.000   2.661
 9916SOL    HW130647   2.246   2.000   2.561
 9916SOL    HW230648   2.221   2.090   2.695
 9917SOL     OW30649   5.084   4.345   6.569
 9917SOL    HW130650   5.035   4.258   6.570
 9917SOL    HW230651   5.156   4.344   6.639
 9918SOL     OW30652   2.924   1.895   3.509
 9918SOL    HW130653   3.020   1.905   3.484
 9918SOL    HW230654   2.908   1.936   3.599
 9919SOL     OW30655   0.786   5.195   0.714
 9919SOL    HW130656   0.823   5.123   0.655
 9919SOL    HW230657   0.694   5.170   0.743
 9920SOL     OW30658   5.316   1.738   2.328
 9920SOL    HW130659   5.313   1.640   2.347
 9920SOL    HW230660   5.347   1.787   2.410
 9921SOL     OW30661   4.127   6.507   5.092
 9921SOL    HW130662   4.092   6.420   5.057
 9921SOL    HW230663   4.226   6.500   5.104
 9922SOL     OW30664   1.912   4.085   0.962
 9922SOL    HW130665   1.838   4.049   0.904
 9922SOL    HW230666   1.887   4.175   0.997
 9923SOL     OW30667   5.577   5.141   6.961
 9923SOL    HW130668   5.647   5.072   6.979
 9923SOL    HW230669   5.603   5.195   6.881
 9924SOL     OW30670   6.392   1.644   3.631
 9924SOL    HW130671   6.338   1.560   3.643
 9924SOL    HW230672   6.388   1.674   3.536
 9925SOL     OW30673   0.435   3.991   4.085
 9925SOL    HW130674   0.407   4.080   4.122
 9925SOL    HW230675   0.449   3.927   4.160
 9926SOL     OW30676   4.356   2.857   1.526
 9926SOL    HW130677   4.287   2.821   1.588
 9926SOL    HW230678   4.343   2.818   1.435
 9927SOL     OW30679   0.972   0.235   0.848
 9927SOL    HW130680   0.985   0.334   0.850
 9927SOL    HW230681   0.880   0.213   0.817
 9928SOL     OW30682   5.003   5.020   3.104
 9928SOL    HW130683   5.093   5.040   3.143
 9928SOL    HW230684   5.011   4.941   3.042
 9929SOL     OW30685   3.443   4.052   5.188
 9929SOL    HW130686   3.464   4.043   5.091
 9929SOL    HW230687   3.378   4.127   5.201
 9930SOL     OW30688   6.711   6.300   5.216
 9930SOL    HW130689   6.764   6.285   5.133
 9930SOL    HW230690   6.742   6.236   5.287
 9931SOL     OW30691   0.322   5.747   4.264
 9931SOL    HW130692   0.389   5.700   4.320
 9931SOL    HW230693   0.240   5.690   4.256
 9932SOL     OW30694   3.005   3.204   6.133
 9932SOL    HW130695   3.042   3.172   6.046
 9932SOL    HW230696   2.909   3.231   6.121
 9933SOL     OW30697   0.856   5.973   3.409
 9933SOL    HW130698   0.845   5.902   3.339
 9933SOL    HW230699   0.868   6.062   3.364
 9934SOL     OW30700   6.589   1.915   5.594
 9934SOL    HW130701   6.537   1.937   5.677
 9934SOL    HW230702   6.644   1.833   5.610
 9935SOL     OW30703   2.990   6.416   0.325
 9935SOL    HW130704   2.946   6.487   0.269
 9935SOL    HW230705   3.062   6.372   0.272
 9936SOL     OW30706   6.709   4.549   0.069
 9936SOL    HW130707   6.632   4.541   0.006
 9936SOL    HW230708   6.791   4.576   0.018
 9937SOL     OW30709   0.018   1.456   1.778
 9937SOL    HW130710   7.002   1.476   1.871
 9937SOL    HW230711   6.969   1.491   1.711
 9938SOL     OW30712   6.768   5.134   3.350
 9938SOL    HW130713   6.845   5.151   3.411
 9938SOL    HW230714   6.754   5.035   3.341
 9939SOL     OW30715   4.196   2.324   1.467
 9939SOL    HW130716   4.107   2.283   1.489
 9939SOL    HW230717   4.259   2.252   1.437
 9940SOL     OW30718   0.941   0.674   1.317
 9940SOL    HW130719   1.032   0.671   1.277
 9940SOL    HW230720   0.919   0.585   1.357
 9941SOL     OW30721   3.502   3.070   4.885
 9941SOL    HW130722   3.585   3.064   4.830
 9941SOL    HW230723   3.488   2.984   4.935
 9942SOL     OW30724   2.619   5.703   2.665
 9942SOL    HW130725   2.554   5.661   2.728
 9942SOL    HW230726   2.569   5.759   2.599
 9943SOL     OW30727   0.440   4.216   5.584
 9943SOL    HW130728   0.367   4.163   5.627
 9943SOL    HW230729   0.425   4.314   5.603
 9944SOL     OW30730   0.914   4.268   6.190
 9944SOL    HW130731   0.931   4.176   6.225
 9944SOL    HW230732   0.890   4.328   6.267
 9945SOL     OW30733   4.763   5.171   6.639
 9945SOL    HW130734   4.814   5.110   6.700
 9945SOL    HW230735   4.743   5.123   6.553
 9946SOL     OW30736   6.353   0.326   3.499
 9946SOL    HW130737   6.357   0.226   3.506
 9946SOL    HW230738   6.444   0.364   3.509
 9947SOL     OW30739   2.414   2.170   4.947
 9947SOL    HW130740   2.398   2.227   4.867
 9947SOL    HW230741   2.416   2.074   4.919
 9948SOL     OW30742   5.968   4.516   5.781
 9948SOL    HW130743   5.934   4.423   5.798
 9948SOL    HW230744   6.027   4.515   5.700
 9949SOL     OW30745   6.887   5.182   4.159
 9949SOL    HW130746   6.868   5.118   4.085
 9949SOL    HW230747   6.969   5.235   4.138
 9950SOL     OW30748   5.503   6.110   5.762
 9950SOL    HW130749   5.489   6.197   5.809
 9950SOL    HW230750   5.563   6.051   5.816
 9951SOL     OW30751   0.406   1.421   3.911
 9951SOL    HW130752   0.355   1.497   3.872
 9951SOL    HW230753   0.388   1.415   4.009
 9952SOL     OW30754   1.148   4.630   0.515
 9952SOL    HW130755   1.083   4.627   0.439
 9952SOL    HW230756   1.185   4.723   0.524
 9953SOL     OW30757   5.511   2.538   4.702
 9953SOL    HW130758   5.453   2.471   4.749
 9953SOL    HW230759   5.518   2.514   4.606
 9954SOL     OW30760   0.308   0.680   5.882
 9954SOL    HW130761   0.286   0.585   5.862
 9954SOL    HW230762   0.368   0.716   5.810
 9955SOL     OW30763   6.063   3.043   5.467
 9955SOL    HW130764   5.990   3.098   5.507
 9955SOL    HW230765   6.073   2.958   5.519
 9956SOL     OW30766   1.262   6.242   1.807
 9956SOL    HW130767   1.308   6.273   1.724
 9956SOL    HW230768   1.183   6.300   1.826
 9957SOL     OW30769   5.298   6.187   2.515
 9957SOL    HW130770   5.256   6.123   2.450
 9957SOL    HW230771   5.382   6.147   2.551
 9958SOL     OW30772   2.652   5.260   6.981
 9958SOL    HW130773   2.583   5.252   0.036
 9958SOL    HW230774   2.688   5.168   6.960
 9959SOL     OW30775   4.073   3.741   4.869
 9959SOL    HW130776   4.163   3.746   4.824
 9959SOL    HW230777   4.086   3.722   4.966
 9960SOL     OW30778   0.124   0.469   2.211
 9960SOL    HW130779   0.034   0.512   2.220
 9960SOL    HW230780   0.195   0.531   2.243
 9961SOL     OW30781   1.685   5.387   4.511
 9961SOL    HW130782   1.640   5.312   4.463
 9961SOL    HW230783   1.622   5.427   4.577
 9962SOL     OW30784   5.531   5.937   1.462
 9962SOL    HW130785   5.529   5.993   1.544
 9962SOL    HW230786   5.507   5.993   1.382
 9963SOL     OW30787   2.595   3.435   6.723
 9963SOL    HW130788   2.535   3.364   6.687
 9963SOL    HW230789   2.599   3.512   6.659
 9964SOL     OW30790   5.476   4.345   6.237
 9964SOL    HW130791   5.425   4.265   6.207
 9964SOL    HW230792   5.412   4.418   6.263
 9965SOL     OW30793   4.074   6.239   6.385
 9965SOL    HW130794   4.146   6.255   6.318
 9965SOL    HW230795   4.070   6.315   6.449
 9966SOL     OW30796   2.247   5.770   2.363
 9966SOL    HW130797   2.280   5.844   2.304
 9966SOL    HW230798   2.147   5.769   2.362
 9967SOL     OW30799   5.793   6.859   1.938
 9967SOL    HW130800   5.804   6.958   1.946
 9967SOL    HW230801   5.698   6.835   1.961
 9968SOL     OW30802   2.976   3.508   6.745
 9968SOL    HW130803   2.933   3.478   6.660
 9968SOL    HW230804   2.905   3.535   6.810
 9969SOL     OW30805   1.864   2.491   3.486
 9969SOL    HW130806   1.917   2.576   3.485
 9969SOL    HW230807   1.853   2.459   3.580
 9970SOL     OW30808   5.603   4.227   2.997
 9970SOL    HW130809   5.514   4.274   2.999
 9970SOL    HW230810   5.663   4.267   3.066
 9971SOL     OW30811   2.921   5.129   0.622
 9971SOL    HW130812   2.968   5.199   0.568
 9971SOL    HW230813   2.836   5.104   0.577
 9972SOL     OW30814   4.055   4.337   1.230
 9972SOL    HW130815   4.031   4.429   1.201
 9972SOL    HW230816   4.088   4.339   1.324
 9973SOL     OW30817   4.344   2.387   4.411
 9973SOL    HW130818   4.252   2.361   4.441
 9973SOL    HW230819   4.410   2.319   4.443
 9974SOL     OW30820   6.581   2.977   3.481
 9974SOL    HW130821   6.572   3.044   3.555
 9974SOL    HW230822   6.502   2.915   3.483
 9975SOL     OW30823   6.284   4.878   6.936
 9975SOL    HW130824   6.324   4.966   6.909
 9975SOL    HW230825   6.185   4.890   6.949
 9976SOL     OW30826   0.951   6.335   5.325
 9976SOL    HW130827   0.868   6.357   5.274
 9976SOL    HW230828   0.979   6.414   5.379
 9977SOL     OW30829   0.172   5.301   5.296
 9977SOL    HW130830   0.164   5.220   5.238
 9977SOL    HW230831   0.218   5.374   5.245
 9978SOL     OW30832   6.187   3.148   2.994
 9978SOL    HW130833   6.235   3.062   3.010
 9978SOL    HW230834   6.138   3.144   2.907
 9979SOL     OW30835   6.088   4.715   5.565
 9979SOL    HW130836   6.072   4.635   5.506
 9979SOL    HW230837   6.001   4.759   5.585
 9980SOL     OW30838   1.869   1.456   5.864
 9980SOL    HW130839   1.914   1.469   5.776
 9980SOL    HW230840   1.771   1.442   5.850
 9981SOL     OW30841   2.324   1.900   1.775
 9981SOL    HW130842   2.254   1.921   1.843
 9981SOL    HW230843   2.335   1.800   1.769
 9982SOL     OW30844   0.168   0.671   3.457
 9982SOL    HW130845   0.129   0.593   3.409
 9982SOL    HW230846   0.123   0.682   3.546
 9983SOL     OW30847   0.617   2.864   3.633
 9983SOL    HW130848   0.572   2.795   3.576
 9983SOL    HW230849   0.608   2.954   3.590
 9984SOL     OW30850   1.823   0.776   0.444
 9984SOL    HW130851   1.894   0.829   0.396
 9984SOL    HW230852   1.800   0.695   0.390
 9985SOL     OW30853   2.304   1.304   1.310
 9985SOL    HW130854   2.294   1.365   1.232
 9985SOL    HW230855   2.323   1.357   1.392
 9986SOL     OW30856   4.902   4.135   5.917
 9986SOL    HW130857   4.915   4.119   6.015
 9986SOL    HW230858   4.961   4.210   5.887
 9987SOL     OW30859   7.015   2.685   3.827
 9987SOL    HW130860   0.008   2.637   3.914
 9987SOL    HW230861   0.086   2.687   3.780
 9988SOL     OW30862   0.512   5.168   5.354
 9988SOL    HW130863   0.516   5.255   5.403
 9988SOL    HW230864   0.458   5.102   5.407
 9989SOL     OW30865   6.808   4.321   3.183
 9989SOL    HW130866   6.725   4.289   3.230
 9989SOL    HW230867   6.790   4.409   3.139
 9990SOL     OW30868   2.534   5.588   1.622
 9990SOL    HW130869   2.623   5.556   1.592
 9990SOL    HW230870   2.477   5.610   1.543
 9991SOL     OW30871   2.030   2.743   4.096
 9991SOL    HW130872   1.970   2.760   4.018
 9991SOL    HW230873   2.001   2.798   4.174
 9992SOL     OW30874   5.228   4.871   0.391
 9992SOL    HW130875   5.270   4.821   0.315
 9992SOL    HW230876   5.136   4.899   0.365
 9993SOL     OW30877   3.783   0.776   0.927
 9993SOL    HW130878   3.809   0.843   0.858
 9993SOL    HW230879   3.706   0.812   0.980
 9994SOL     OW30880   0.051   5.166   3.241
 9994SOL    HW130881   0.035   5.069   3.223
 9994SOL    HW230882   7.000   5.220   3.192
 9995SOL     OW30883   4.298   1.246   2.788
 9995SOL    HW130884   4.312   1.150   2.812
 9995SOL    HW230885   4.256   1.251   2.697
 9996SOL     OW30886   2.240   3.124   1.276
 9996SOL    HW130887   2.310   3.088   1.214
 9996SOL    HW230888   2.177   3.051   1.300
 9997SOL     OW30889   3.451   1.988   0.699
 9997SOL    HW130890   3.520   1.975   0.770
 9997SOL    HW230891   3.466   2.076   0.653
 9998SOL     OW30892   5.836   4.331   0.015
 9998SOL    HW130893   5.767   4.311   6.962
 9998SOL    HW230894   5.927   4.309   6.996
 9999SOL     OW30895   0.266   2.630   5.424
 9999SOL    HW130896   0.329   2.708   5.416
 9999SOL    HW230897   0.253   2.607   5.520
10000SOL     OW30898   6.877   3.948   6.735
10000SOL    HW130899   6.921   3.974   6.649
10000SOL    HW230900   6.777   3.947   6.723
10001SOL     OW30901   4.606   0.236   2.331
10001SOL    HW130902   4.660   0.248   2.415
10001SOL    HW230903   4.536   0.167   2.347
10002SOL     OW30904   1.831   0.046   2.268
10002SOL    HW130905   1.838   6.965   2.288
10002SOL    HW230906   1.836   0.098   2.354
10003SOL     OW30907   3.609   1.182   3.150
10003SOL    HW130908   3.531   1.242   3.132
10003SOL    HW230909   3.694   1.228   3.124
10004SOL     OW30910   5.449   2.372   3.888
10004SOL    HW130911   5.394   2.390   3.970
10004SOL    HW230912   5.473   2.458   3.844
10005SOL     OW30913   5.151   0.788   4.515
10005SOL    HW130914   5.109   0.715   4.461
10005SOL    HW230915   5.110   0.790   4.606
10006SOL     OW30916   5.473   6.418   4.356
10006SOL    HW130917   5.445   6.426   4.452
10006SOL    HW230918   5.413   6.476   4.300
10007SOL     OW30919   0.301   4.970   5.888
10007SOL    HW130920   0.338   5.046   5.941
10007SOL    HW230921   0.215   4.998   5.846
10008SOL     OW30922   4.461   1.218   4.640
10008SOL    HW130923   4.461   1.283   4.563
10008SOL    HW230924   4.367   1.202   4.670
10009SOL     OW30925   2.002   3.914   1.683
10009SOL    HW130926   1.914   3.908   1.729
10009SOL    HW230927   2.071   3.866   1.736
10010SOL     OW30928   1.889   1.001   5.528
10010SOL    HW130929   1.865   1.001   5.625
10010SOL    HW230930   1.810   1.027   5.473
10011SOL     OW30931   5.517   1.545   5.107
10011SOL    HW130932   5.562   1.581   5.025
10011SOL    HW230933   5.428   1.591   5.118
10012SOL     OW30934   5.733   0.973   3.268
10012SOL    HW130935   5.681   1.056   3.246
10012SOL    HW230936   5.783   0.943   3.186
10013SOL     OW30937   0.515   1.232   3.748
10013SOL    HW130938   0.478   1.300   3.811
10013SOL    HW230939   0.544   1.277   3.663
10014SOL     OW30940   6.583   3.672   0.793
10014SOL    HW130941   6.641   3.725   0.856
10014SOL    HW230942   6.585   3.576   0.819
10015SOL     OW30943   2.082   4.412   0.347
10015SOL    HW130944   2.156   4.373   0.402
10015SOL    HW230945   2.011   4.343   0.333
10016SOL     OW30946   1.390   0.870   6.450
10016SOL    HW130947   1.464   0.807   6.428
10016SOL    HW230948   1.306   0.840   6.406
10017SOL     OW30949   2.814   1.460   2.965
10017SOL    HW130950   2.740   1.507   3.013
10017SOL    HW230951   2.807   1.361   2.982
10018SOL     OW30952   4.347   0.179   5.726
10018SOL    HW130953   4.440   0.200   5.696
10018SOL    HW230954   4.290   0.261   5.721
10019SOL     OW30955   6.896   2.104   2.944
10019SOL    HW130956   6.956   2.031   2.978
10019SOL    HW230957   6.910   2.187   2.998
10020SOL     OW30958   1.399   2.263   1.709
10020SOL    HW130959   1.340   2.218   1.776
10020SOL    HW230960   1.345   2.290   1.630
10021SOL     OW30961   6.758   2.758   1.560
10021SOL    HW130962   6.847   2.712   1.567
10021SOL    HW230963   6.736   2.801   1.648
10022SOL     OW30964   2.784   0.864   5.990
10022SOL    HW130965   2.763   0.832   6.082
10022SOL    HW230966   2.707   0.847   5.929
10023SOL     OW30967   1.289   5.517   0.056
10023SOL    HW130968   1.200   5.470   0.048
10023SOL    HW230969   1.307   5.567   6.988
10024SOL     OW30970   2.312   6.096   1.973
10024SOL    HW130971   2.296   6.055   2.063
10024SOL    HW230972   2.276   6.190   1.973
10025SOL     OW30973   1.438   2.074   1.263
10025SOL    HW130974   1.434   2.150   1.199
10025SOL    HW230975   1.400   2.103   1.351
10026SOL     OW30976   5.784   6.557   3.696
10026SOL    HW130977   5.795   6.573   3.597
10026SOL    HW230978   5.836   6.476   3.722
10027SOL     OW30979   6.383   3.913   4.696
10027SOL    HW130980   6.358   3.845   4.765
10027SOL    HW230981   6.333   3.998   4.713
10028SOL     OW30982   1.566   1.035   2.237
10028SOL    HW130983   1.643   1.099   2.236
10028SOL    HW230984   1.482   1.084   2.215
10029SOL     OW30985   5.078   1.447   4.594
10029SOL    HW130986   4.999   1.401   4.637
10029SOL    HW230987   5.048   1.534   4.554
10030SOL     OW30988   2.383   6.617   3.651
10030SOL    HW130989   2.332   6.556   3.591
10030SOL    HW230990   2.454   6.665   3.598
10031SOL     OW30991   5.669   5.066   4.949
10031SOL    HW130992   5.608   5.136   4.986
10031SOL    HW230993   5.629   4.976   4.965
10032SOL     OW30994   2.227   1.703   4.914
10032SOL    HW130995   2.282   1.773   4.867
10032SOL    HW230996   2.134   1.736   4.926
10033SOL     OW30997   6.446   2.892   4.326
10033SOL    HW130998   6.515   2.938   4.382
10033SOL    HW230999   6.442   2.936   4.236
10034SOL     OW31000   3.465   0.356   4.048
10034SOL    HW131001   3.556   0.319   4.063
10034SOL    HW231002   3.453   0.438   4.105
10035SOL     OW31003   6.478   5.001   1.682
10035SOL    HW131004   6.471   4.948   1.598
10035SOL    HW231005   6.572   5.034   1.693
10036SOL     OW31006   6.023   2.431   1.117
10036SOL    HW131007   6.096   2.453   1.181
10036SOL    HW231008   5.959   2.507   1.111
10037SOL     OW31009   0.575   1.489   0.377
10037SOL    HW131010   0.484   1.458   0.404
10037SOL    HW231011   0.600   1.571   0.429
10038SOL     OW31012   5.444   0.480   0.206
10038SOL    HW131013   5.454   0.559   0.147
10038SOL    HW231014   5.421   0.510   0.299
10039SOL     OW31015   3.591   0.720   3.451
10039SOL    HW131016   3.617   0.658   3.526
10039SOL    HW231017   3.622   0.681   3.364
10040SOL     OW31018   5.300   5.338   6.458
10040SOL    HW131019   5.208   5.348   6.420
10040SOL    HW231020   5.296   5.338   6.558
10041SOL     OW31021   4.508   5.909   6.767
10041SOL    HW131022   4.604   5.913   6.743
10041SOL    HW231023   4.452   5.943   6.691
10042SOL     OW31024   0.827   1.835   3.893
10042SOL    HW131025   0.784   1.922   3.866
10042SOL    HW231026   0.809   1.819   3.990
10043SOL     OW31027   6.792   1.529   4.754
10043SOL    HW131028   6.811   1.596   4.683
10043SOL    HW231029   6.866   1.461   4.757
10044SOL     OW31030   2.532   2.583   4.926
10044SOL    HW131031   2.592   2.503   4.929
10044SOL    HW231032   2.586   2.666   4.936
10045SOL     OW31033   3.723   0.596   1.481
10045SOL    HW131034   3.793   0.527   1.495
10045SOL    HW231035   3.755   0.684   1.516
10046SOL     OW31036   1.613   3.401   0.761
10046SOL    HW131037   1.530   3.398   0.705
10046SOL    HW231038   1.674   3.326   0.735
10047SOL     OW31039   0.805   3.442   5.251
10047SOL    HW131040   0.889   3.389   5.242
10047SOL    HW231041   0.802   3.512   5.180
10048SOL     OW31042   0.242   6.932   2.579
10048SOL    HW131043   0.322   6.886   2.617
10048SOL    HW231044   0.273   7.005   2.517
10049SOL     OW31045   1.390   1.358   5.747
10049SOL    HW131046   1.441   1.382   5.664
10049SOL    HW231047   1.343   1.271   5.732
10050SOL     OW31048   5.606   3.354   4.794
10050SOL    HW131049   5.520   3.310   4.767
10050SOL    HW231050   5.683   3.306   4.752
10051SOL     OW31051   0.572   4.155   4.793
10051SOL    HW131052   0.515   4.124   4.716
10051SOL    HW231053   0.533   4.120   4.879
10052SOL     OW31054   1.969   1.146   3.122
10052SOL    HW131055   2.000   1.082   3.193
10052SOL    HW231056   1.903   1.099   3.062
10053SOL     OW31057   4.166   5.972   4.351
10053SOL    HW131058   4.188   5.931   4.440
10053SOL    HW231059   4.070   5.958   4.330
10054SOL     OW31060   5.575   4.296   5.316
10054SOL    HW131061   5.624   4.309   5.229
10054SOL    HW231062   5.630   4.333   5.391
10055SOL     OW31063   6.605   2.304   5.583
10055SOL    HW131064   6.578   2.374   5.517
10055SOL    HW231065   6.536   2.231   5.584
10056SOL     OW31066   4.907   4.763   3.593
10056SOL    HW131067   4.969   4.784   3.517
10056SOL    HW231068   4.961   4.733   3.672
10057SOL     OW31069   5.496   3.585   5.401
10057SOL    HW131070   5.514   3.646   5.478
10057SOL    HW231071   5.447   3.504   5.434
10058SOL     OW31072   6.647   3.892   4.641
10058SOL    HW131073   6.698   3.826   4.696
10058SOL    HW231074   6.551   3.893   4.671
10059SOL     OW31075   0.119   2.276   0.577
10059SOL    HW131076   0.047   2.225   0.624
10059SOL    HW231077   0.079   2.332   0.505
10060SOL     OW31078   2.398   2.019   2.188
10060SOL    HW131079   2.403   2.051   2.093
10060SOL    HW231080   2.479   2.050   2.238
10061SOL     OW31081   4.362   0.961   3.928
10061SOL    HW131082   4.402   0.912   3.851
10061SOL    HW231083   4.262   0.961   3.920
10062SOL     OW31084   6.250   0.006   4.265
10062SOL    HW131085   6.192   0.003   4.184
10062SOL    HW231086   6.204   0.057   4.338
10063SOL     OW31087   3.047   1.729   4.244
10063SOL    HW131088   3.008   1.815   4.277
10063SOL    HW231089   2.974   1.669   4.210
10064SOL     OW31090   4.230   5.673   6.191
10064SOL    HW131091   4.149   5.728   6.211
10064SOL    HW231092   4.211   5.577   6.211
10065SOL     OW31093   1.473   0.741   1.962
10065SOL    HW131094   1.402   0.802   1.996
10065SOL    HW231095   1.554   0.749   2.020
10066SOL     OW31096   0.466   3.005   5.130
10066SOL    HW131097   0.430   2.954   5.052
10066SOL    HW231098   0.416   3.091   5.140
10067SOL     OW31099   0.401   3.036   6.394
10067SOL    HW131100   0.411   2.985   6.480
10067SOL    HW231101   0.482   3.021   6.336
10068SOL     OW31102   1.306   3.940   2.824
10068SOL    HW131103   1.372   3.964   2.753
10068SOL    HW231104   1.242   4.016   2.836
10069SOL     OW31105   3.384   4.900   1.597
10069SOL    HW131106   3.388   4.986   1.646
10069SOL    HW231107   3.380   4.918   1.498
10070SOL     OW31108   0.743   5.180   5.149
10070SOL    HW131109   0.723   5.162   5.246
10070SOL    HW231110   0.714   5.273   5.126
10071SOL     OW31111   1.082   0.367   3.978
10071SOL    HW131112   1.130   0.455   3.981
10071SOL    HW231113   1.126   0.304   4.042
10072SOL     OW31114   0.650   1.314   2.860
10072SOL    HW131115   0.566   1.259   2.855
10072SOL    HW231116   0.729   1.253   2.867
10073SOL     OW31117   6.185   3.511   3.809
10073SOL    HW131118   6.139   3.471   3.889
10073SOL    HW231119   6.280   3.531   3.833
10074SOL     OW31120   1.471   5.897   0.854
10074SOL    HW131121   1.416   5.977   0.876
10074SOL    HW231122   1.568   5.919   0.863
10075SOL     OW31123   1.878   0.174   2.495
10075SOL    HW131124   1.820   0.217   2.565
10075SOL    HW231125   1.956   0.234   2.476
10076SOL     OW31126   4.896   5.213   3.254
10076SOL    HW131127   4.977   5.226   3.311
10076SOL    HW231128   4.909   5.133   3.195
10077SOL     OW31129   5.531   2.825   0.192
10077SOL    HW131130   5.465   2.829   0.117
10077SOL    HW231131   5.522   2.739   0.241
10078SOL     OW31132   0.423   6.349   5.088
10078SOL    HW131133   0.427   6.449   5.098
10078SOL    HW231134   0.516   6.312   5.092
10079SOL     OW31135   5.333   2.448   3.206
10079SOL    HW131136   5.398   2.384   3.164
10079SOL    HW231137   5.327   2.429   3.304
10080SOL     OW31138   5.535   1.198   6.252
10080SOL    HW131139   5.562   1.284   6.209
10080SOL    HW231140   5.499   1.136   6.183
10081SOL     OW31141   0.884   1.712   0.419
10081SOL    HW131142   0.895   1.692   0.322
10081SOL    HW231143   0.973   1.717   0.463
10082SOL     OW31144   1.415   5.237   3.543
10082SOL    HW131145   1.409   5.224   3.642
10082SOL    HW231146   1.408   5.149   3.497
10083SOL     OW31147   3.417   6.226   3.680
10083SOL    HW131148   3.336   6.171   3.661
10083SOL    HW231149   3.477   6.226   3.600
10084SOL     OW31150   0.017   6.900   5.007
10084SOL    HW131151   6.949   6.852   4.984
10084SOL    HW231152   0.003   6.998   4.999
10085SOL     OW31153   4.391   6.823   0.261
10085SOL    HW131154   4.467   6.877   0.298
10085SOL    HW231155   4.310   6.835   0.319
10086SOL     OW31156   5.843   6.395   2.608
10086SOL    HW131157   5.784   6.347   2.673
10086SOL    HW231158   5.804   6.485   2.587
10087SOL     OW31159   0.513   6.516   4.222
10087SOL    HW131160   0.516   6.555   4.315
10087SOL    HW231161   0.597   6.541   4.174
10088SOL     OW31162   6.847   1.398   0.195
10088SOL    HW131163   6.852   1.425   0.099
10088SOL    HW231164   6.919   1.331   0.214
10089SOL     OW31165   3.599   0.886   2.749
10089SOL    HW131166   3.595   0.851   2.655
10089SOL    HW231167   3.530   0.839   2.804
10090SOL     OW31168   0.770   4.819   1.973
10090SOL    HW131169   0.712   4.896   1.950
10090SOL    HW231170   0.718   4.752   2.026
10091SOL     OW31171   6.563   6.038   6.596
10091SOL    HW131172   6.642   6.079   6.641
10091SOL    HW231173   6.582   6.025   6.498
10092SOL     OW31174   1.480   3.527   5.395
10092SOL    HW131175   1.503   3.444   5.343
10092SOL    HW231176   1.381   3.543   5.390
10093SOL     OW31177   4.989   3.384   5.009
10093SOL    HW131178   4.961   3.330   5.088
10093SOL    HW231179   4.921   3.455   4.990
10094SOL     OW31180   2.676   6.647   1.299
10094SOL    HW131181   2.641   6.693   1.381
10094SOL    HW231182   2.738   6.708   1.250
10095SOL     OW31183   5.356   1.831   4.746
10095SOL    HW131184   5.308   1.861   4.664
10095SOL    HW231185   5.446   1.796   4.721
10096SOL     OW31186   5.201   0.751   2.270
10096SOL    HW131187   5.105   0.772   2.251
10096SOL    HW231188   5.257   0.784   2.194
10097SOL     OW31189   1.920   2.131   6.562
10097SOL    HW131190   1.914   2.110   6.659
10097SOL    HW231191   2.006   2.180   6.544
10098SOL     OW31192   3.144   5.885   4.659
10098SOL    HW131193   3.071   5.870   4.592
10098SOL    HW231194   3.111   5.947   4.731
10099SOL     OW31195   6.638   4.669   1.515
10099SOL    HW131196   6.569   4.670   1.588
10099SOL    HW231197   6.676   4.577   1.506
10100SOL     OW31198   5.430   4.772   5.677
10100SOL    HW131199   5.486   4.692   5.696
10100SOL    HW231200   5.488   4.854   5.678
10101SOL     OW31201   6.726   3.202   1.882
10101SOL    HW131202   6.770   3.137   1.820
10101SOL    HW231203   6.691   3.279   1.829
10102SOL     OW31204   5.488   0.363   0.649
10102SOL    HW131205   5.469   0.394   0.742
10102SOL    HW231206   5.418   0.297   0.621
10103SOL     OW31207   0.873   0.310   5.483
10103SOL    HW131208   0.847   0.346   5.572
10103SOL    HW231209   0.972   0.317   5.471
10104SOL     OW31210   2.239   1.235   5.876
10104SOL    HW131211   2.164   1.225   5.811
10104SOL    HW231212   2.249   1.332   5.900
10105SOL     OW31213   2.986   1.205   5.663
10105SOL    HW131214   2.999   1.165   5.753
10105SOL    HW231215   3.042   1.287   5.654
10106SOL     OW31216   4.871   6.376   1.252
10106SOL    HW131217   4.912   6.286   1.267
10106SOL    HW231218   4.922   6.445   1.304
10107SOL     OW31219   5.049   3.977   6.860
10107SOL    HW131220   5.007   3.909   6.921
10107SOL    HW231221   5.034   4.068   6.897
10108SOL     OW31222   1.200   2.821   0.773
10108SOL    HW131223   1.248   2.909   0.775
10108SOL    HW231224   1.205   2.778   0.862
10109SOL     OW31225   0.996   0.877   0.243
10109SOL    HW131226   0.955   0.967   0.231
10109SOL    HW231227   1.056   0.857   0.165
10110SOL     OW31228   4.647   5.141   2.583
10110SOL    HW131229   4.693   5.230   2.580
10110SOL    HW231230   4.571   5.141   2.519
10111SOL     OW31231   0.874   3.004   2.002
10111SOL    HW131232   0.882   3.087   1.947
10111SOL    HW231233   0.966   2.975   2.031
10112SOL     OW31234   6.479   3.228   3.196
10112SOL    HW131235   6.484   3.138   3.154
10112SOL    HW231236   6.383   3.258   3.199
10113SOL     OW31237   4.437   1.198   6.537
10113SOL    HW131238   4.452   1.280   6.592
10113SOL    HW231239   4.348   1.204   6.491
10114SOL     OW31240   3.795   2.139   3.205
10114SOL    HW131241   3.855   2.111   3.131
10114SOL    HW231242   3.849   2.157   3.287
10115SOL     OW31243   3.861   1.403   4.213
10115SOL    HW131244   3.933   1.344   4.175
10115SOL    HW231245   3.836   1.369   4.304
10116SOL     OW31246   5.741   0.333   5.694
10116SOL    HW131247   5.808   0.324   5.620
10116SOL    HW231248   5.676   0.406   5.672
10117SOL     OW31249   6.941   5.411   5.404
10117SOL    HW131250   6.915   5.369   5.491
10117SOL    HW231251   0.005   5.365   5.367
10118SOL     OW31252   2.857   5.066   4.601
10118SOL    HW131253   2.830   5.033   4.511
10118SOL    HW231254   2.796   5.028   4.670
10119SOL     OW31255   0.048   5.315   3.971
10119SOL    HW131256   0.035   5.297   3.873
10119SOL    HW231257   0.129   5.267   4.003
10120SOL     OW31258   1.195   2.889   2.846
10120SOL    HW131259   1.276   2.933   2.885
10120SOL    HW231260   1.208   2.877   2.748
10121SOL     OW31261   5.791   4.944   0.799
10121SOL    HW131262   5.734   4.901   0.869
10121SOL    HW231263   5.733   4.977   0.725
10122SOL     OW31264   6.361   1.810   3.415
10122SOL    HW131265   6.279   1.854   3.451
10122SOL    HW231266   6.423   1.879   3.378
10123SOL     OW31267   5.811   6.209   1.103
10123SOL    HW131268   5.825   6.177   1.197
10123SOL    HW231269   5.851   6.143   1.040
10124SOL     OW31270   1.156   5.100   2.379
10124SOL    HW131271   1.208   5.055   2.306
10124SOL    HW231272   1.073   5.140   2.342
10125SOL     OW31273   2.283   1.281   1.743
10125SOL    HW131274   2.370   1.275   1.695
10125SOL    HW231275   2.264   1.376   1.766
10126SOL     OW31276   6.322   0.324   6.537
10126SOL    HW131277   6.248   0.362   6.593
10126SOL    HW231278   6.357   0.394   6.475
10127SOL     OW31279   1.065   4.150   5.610
10127SOL    HW131280   1.037   4.099   5.691
10127SOL    HW231281   1.164   4.142   5.598
10128SOL     OW31282   3.036   0.743   6.842
10128SOL    HW131283   3.128   0.748   6.882
10128SOL    HW231284   3.030   0.808   6.766
10129SOL     OW31285   6.665   1.648   2.884
10129SOL    HW131286   6.607   1.729   2.883
10129SOL    HW231287   6.614   1.571   2.923
10130SOL     OW31288   1.166   2.620   2.020
10130SOL    HW131289   1.068   2.613   2.042
10130SOL    HW231290   1.201   2.530   1.993
10131SOL     OW31291   2.256   1.012   4.319
10131SOL    HW131292   2.209   1.025   4.232
10131SOL    HW231293   2.347   0.973   4.302
10132SOL     OW31294   6.804   6.726   2.353
10132SOL    HW131295   6.898   6.701   2.377
10132SOL    HW231296   6.769   6.792   2.419
10133SOL     OW31297   4.601   5.358   1.002
10133SOL    HW131298   4.632   5.336   1.095
10133SOL    HW231299   4.587   5.457   0.994
10134SOL     OW31300   6.184   1.194   2.451
10134SOL    HW131301   6.095   1.167   2.488
10134SOL    HW231302   6.200   1.147   2.364
10135SOL     OW31303   5.508   0.857   3.933
10135SOL    HW131304   5.483   0.829   4.026
10135SOL    HW231305   5.550   0.947   3.936
10136SOL     OW31306   5.007   2.470   2.881
10136SOL    HW131307   4.988   2.539   2.811
10136SOL    HW231308   5.038   2.515   2.965
10137SOL     OW31309   0.459   5.410   5.703
10137SOL    HW131310   0.408   5.365   5.776
10137SOL    HW231311   0.395   5.448   5.636
10138SOL     OW31312   5.779   1.426   0.040
10138SOL    HW131313   5.696   1.468   0.004
10138SOL    HW231314   5.760   1.385   0.129
10139SOL     OW31315   3.322   3.219   5.785
10139SOL    HW131316   3.392   3.247   5.719
10139SOL    HW231317   3.304   3.294   5.849
10140SOL     OW31318   6.805   5.989   6.124
10140SOL    HW131319   6.773   5.895   6.135
10140SOL    HW231320   6.900   5.989   6.095
10141SOL     OW31321   3.792   1.356   3.823
10141SOL    HW131322   3.743   1.270   3.834
10141SOL    HW231323   3.888   1.343   3.847
10142SOL     OW31324   6.044   6.403   4.974
10142SOL    HW131325   6.076   6.316   5.014
10142SOL    HW231326   6.048   6.397   4.875
10143SOL     OW31327   5.477   3.292   0.261
10143SOL    HW131328   5.506   3.251   0.174
10143SOL    HW231329   5.437   3.222   0.319
10144SOL     OW31330   4.109   6.817   5.408
10144SOL    HW131331   4.120   6.744   5.476
10144SOL    HW231332   4.186   6.814   5.345
10145SOL     OW31333   4.909   6.037   1.544
10145SOL    HW131334   4.891   6.075   1.453
10145SOL    HW231335   4.824   6.037   1.597
10146SOL     OW31336   0.346   3.733   3.815
10146SOL    HW131337   0.357   3.832   3.826
10146SOL    HW231338   0.293   3.697   3.891
10147SOL     OW31339   4.294   5.191   6.367
10147SOL    HW131340   4.381   5.171   6.413
10147SOL    HW231341   4.233   5.112   6.374
10148SOL     OW31342   0.513   4.923   0.401
10148SOL    HW131343   0.461   4.947   0.483
10148SOL    HW231344   0.528   5.005   0.346
10149SOL     OW31345   4.755   5.092   1.898
10149SOL    HW131346   4.755   5.025   1.823
10149SOL    HW231347   4.718   5.050   1.980
10150SOL     OW31348   5.165   3.591   0.917
10150SOL    HW131349   5.118   3.659   0.861
10150SOL    HW231350   5.180   3.508   0.864
10151SOL     OW31351   0.049   6.989   5.792
10151SOL    HW131352   6.983   0.011   5.831
10151SOL    HW231353   0.122   0.040   5.793
10152SOL     OW31354   5.972   6.480   3.025
10152SOL    HW131355   6.016   6.425   2.954
10152SOL    HW231356   6.037   6.547   3.060
10153SOL     OW31357   4.661   5.532   3.986
10153SOL    HW131358   4.639   5.510   3.891
10153SOL    HW231359   4.615   5.467   4.047
10154SOL     OW31360   4.242   5.115   5.685
10154SOL    HW131361   4.183   5.084   5.611
10154SOL    HW231362   4.221   5.063   5.768
10155SOL     OW31363   4.860   2.275   5.765
10155SOL    HW131364   4.783   2.339   5.758
10155SOL    HW231365   4.892   2.271   5.860
10156SOL     OW31366   4.625   0.197   1.542
10156SOL    HW131367   4.702   0.150   1.585
10156SOL    HW231368   4.649   0.292   1.523
10157SOL     OW31369   6.978   2.473   0.785
10157SOL    HW131370   6.913   2.410   0.828
10157SOL    HW231371   0.035   2.421   0.742
10158SOL     OW31372   4.797   0.032   2.613
10158SOL    HW131373   4.821   0.010   2.707
10158SOL    HW231374   4.817   0.128   2.595
10159SOL     OW31375   3.728   3.253   3.197
10159SOL    HW131376   3.742   3.192   3.119
10159SOL    HW231377   3.756   3.207   3.281
10160SOL     OW31378   1.917   4.166   2.750
10160SOL    HW131379   1.939   4.182   2.654
10160SOL    HW231380   1.941   4.072   2.775
10161SOL     OW31381   3.420   4.875   6.260
10161SOL    HW131382   3.490   4.939   6.290
10161SOL    HW231383   3.382   4.905   6.172
10162SOL     OW31384   1.718   4.679   1.371
10162SOL    HW131385   1.809   4.648   1.397
10162SOL    HW231386   1.714   4.779   1.380
10163SOL     OW31387   1.803   5.886   5.188
10163SOL    HW131388   1.899   5.859   5.186
10163SOL    HW231389   1.779   5.932   5.102
10164SOL     OW31390   6.424   3.162   3.692
10164SOL    HW131391   6.470   3.202   3.613
10164SOL    HW231392   6.417   3.231   3.765
10165SOL     OW31393   5.525   2.639   3.830
10165SOL    HW131394   5.476   2.705   3.887
10165SOL    HW231395   5.598   2.686   3.779
10166SOL     OW31396   0.720   2.408   1.078
10166SOL    HW131397   0.801   2.466   1.068
10166SOL    HW231398   0.746   2.321   1.119
10167SOL     OW31399   0.250   5.080   6.611
10167SOL    HW131400   0.153   5.094   6.592
10167SOL    HW231401   0.288   5.161   6.655
10168SOL     OW31402   5.934   1.755   6.680
10168SOL    HW131403   5.907   1.850   6.699
10168SOL    HW231404   6.022   1.736   6.723
10169SOL     OW31405   0.031   4.054   2.935
10169SOL    HW131406   0.060   4.026   3.026
10169SOL    HW231407   0.111   4.058   2.874
10170SOL     OW31408   6.276   5.917   0.242
10170SOL    HW131409   6.315   5.859   0.312
10170SOL    HW231410   6.266   6.010   0.277
10171SOL     OW31411   1.610   2.449   5.732
10171SOL    HW131412   1.602   2.520   5.661
10171SOL    HW231413   1.660   2.486   5.810
10172SOL     OW31414   6.948   0.112   3.312
10172SOL    HW131415   6.985   0.031   3.267
10172SOL    HW231416   6.852   0.096   3.335
10173SOL     OW31417   3.667   4.688   6.938
10173SOL    HW131418   3.575   4.661   6.967
10173SOL    HW231419   3.714   4.734   7.013
10174SOL     OW31420   4.912   0.127   3.339
10174SOL    HW131421   4.934   0.056   3.406
10174SOL    HW231422   4.847   0.192   3.380
10175SOL     OW31423   0.177   1.892   3.185
10175SOL    HW131424   0.270   1.866   3.210
10175SOL    HW231425   0.163   1.876   3.088
10176SOL     OW31426   6.274   3.186   5.727
10176SOL    HW131427   6.338   3.173   5.803
10176SOL    HW231428   6.286   3.113   5.660
10177SOL     OW31429   2.414   0.270   1.347
10177SOL    HW131430   2.333   0.282   1.405
10177SOL    HW231431   2.398   0.196   1.282
10178SOL     OW31432   1.760   1.686   0.802
10178SOL    HW131433   1.765   1.664   0.705
10178SOL    HW231434   1.717   1.611   0.851
10179SOL     OW31435   6.790   4.171   0.180
10179SOL    HW131436   6.702   4.217   0.170
10179SOL    HW231437   6.831   4.156   0.090
10180SOL     OW31438   4.609   6.838   6.917
10180SOL    HW131439   4.659   6.756   6.945
10180SOL    HW231440   4.530   6.851   6.977
10181SOL     OW31441   6.318   3.847   1.662
10181SOL    HW131442   6.282   3.867   1.571
10181SOL    HW231443   6.385   3.916   1.688
10182SOL     OW31444   5.328   1.326   0.314
10182SOL    HW131445   5.320   1.278   0.402
10182SOL    HW231446   5.422   1.320   0.281
10183SOL     OW31447   6.469   2.857   6.258
10183SOL    HW131448   6.478   2.779   6.320
10183SOL    HW231449   6.463   2.823   6.164
10184SOL     OW31450   5.881   2.986   6.866
10184SOL    HW131451   5.874   2.901   6.918
10184SOL    HW231452   5.895   3.063   6.928
10185SOL     OW31453   4.086   6.087   2.596
10185SOL    HW131454   4.178   6.048   2.596
10185SOL    HW231455   4.019   6.013   2.585
10186SOL     OW31456   4.610   3.707   5.964
10186SOL    HW131457   4.535   3.772   5.962
10186SOL    HW231458   4.690   3.746   5.918
10187SOL     OW31459   2.462   4.403   5.797
10187SOL    HW131460   2.459   4.328   5.863
10187SOL    HW231461   2.498   4.485   5.840
10188SOL     OW31462   2.429   6.751   6.929
10188SOL    HW131463   2.462   6.664   6.892
10188SOL    HW231464   2.391   6.807   6.855
10189SOL     OW31465   1.235   1.299   0.076
10189SOL    HW131466   1.166   1.370   0.070
10189SOL    HW231467   1.305   1.314   0.006
10190SOL     OW31468   3.024   4.011   1.433
10190SOL    HW131469   2.939   4.061   1.421
10190SOL    HW231470   3.032   3.981   1.528
10191SOL     OW31471   6.040   5.534   0.928
10191SOL    HW131472   5.982   5.525   1.009
10191SOL    HW231473   6.021   5.459   0.865
10192SOL     OW31474   2.332   1.927   5.185
10192SOL    HW131475   2.390   1.870   5.126
10192SOL    HW231476   2.270   1.869   5.237
10193SOL     OW31477   3.401   3.088   2.579
10193SOL    HW131478   3.397   3.157   2.650
10193SOL    HW231479   3.366   3.126   2.493
10194SOL     OW31480   3.818   0.094   4.346
10194SOL    HW131481   3.895   0.156   4.332
10194SOL    HW231482   3.836   0.036   4.426
10195SOL     OW31483   5.742   0.277   1.602
10195SOL    HW131484   5.827   0.276   1.551
10195SOL    HW231485   5.687   0.356   1.575
10196SOL     OW31486   5.315   2.127   3.400
10196SOL    HW131487   5.339   2.219   3.429
10196SOL    HW231488   5.236   2.131   3.339
10197SOL     OW31489   5.792   0.201   3.062
10197SOL    HW131490   5.743   0.131   3.114
10197SOL    HW231491   5.817   0.276   3.124
10198SOL     OW31492   3.715   6.115   0.835
10198SOL    HW131493   3.651   6.192   0.833
10198SOL    HW231494   3.796   6.140   0.888
10199SOL     OW31495   0.828   1.676   0.145
10199SOL    HW131496   0.847   1.747   0.078
10199SOL    HW231497   0.739   1.634   0.124
10200SOL     OW31498   5.594   3.526   6.030
10200SOL    HW131499   5.659   3.450   6.037
10200SOL    HW231500   5.599   3.581   6.113
10201SOL     OW31501   0.259   5.773   2.023
10201SOL    HW131502   0.305   5.761   1.935
10201SOL    HW231503   0.182   5.710   2.030
10202SOL     OW31504   0.298   3.922   1.097
10202SOL    HW131505   0.273   3.925   1.000
10202SOL    HW231506   0.266   4.005   1.142
10203SOL     OW31507   1.871   2.879   2.760
10203SOL    HW131508   1.914   2.808   2.705
10203SOL    HW231509   1.838   2.840   2.846
10204SOL     OW31510   2.967   4.068   6.052
10204SOL    HW131511   2.926   4.147   6.006
10204SOL    HW231512   3.041   4.099   6.111
10205SOL     OW31513   4.661   1.146   3.521
10205SOL    HW131514   4.564   1.132   3.541
10205SOL    HW231515   4.693   1.228   3.568
10206SOL     OW31516   5.283   6.595   5.845
10206SOL    HW131517   5.292   6.678   5.790
10206SOL    HW231518   5.313   6.516   5.791
10207SOL     OW31519   1.898   0.586   1.533
10207SOL    HW131520   1.823   0.645   1.562
10207SOL    HW231521   1.866   0.492   1.528
10208SOL     OW31522   6.213   5.576   5.207
10208SOL    HW131523   6.249   5.668   5.218
10208SOL    HW231524   6.231   5.544   5.114
10209SOL     OW31525   0.267   0.982   5.857
10209SOL    HW131526   0.190   0.919   5.868
10209SOL    HW231527   0.290   0.989   5.760
10210SOL     OW31528   5.251   0.107   1.774
10210SOL    HW131529   5.173   0.161   1.806
10210SOL    HW231530   5.223   0.012   1.760
10211SOL     OW31531   3.616   6.493   5.705
10211SOL    HW131532   3.651   6.586   5.707
10211SOL    HW231533   3.646   6.444   5.787
10212SOL     OW31534   0.668   1.295   4.023
10212SOL    HW131535   0.671   1.195   4.022
10212SOL    HW231536   0.594   1.326   3.964
10213SOL     OW31537   5.398   1.513   2.623
10213SOL    HW131538   5.474   1.574   2.603
10213SOL    HW231539   5.423   1.452   2.699
10214SOL     OW31540   6.518   0.827   1.900
10214SOL    HW131541   6.486   0.790   1.813
10214SOL    HW231542   6.575   0.907   1.884
10215SOL     OW31543   2.790   3.321   5.772
10215SOL    HW131544   2.786   3.296   5.869
10215SOL    HW231545   2.716   3.276   5.722
10216SOL     OW31546   6.774   6.892   0.674
10216SOL    HW131547   6.839   6.943   0.730
10216SOL    HW231548   6.776   6.796   0.701
10217SOL     OW31549   2.754   1.156   3.903
10217SOL    HW131550   2.801   1.212   3.835
10217SOL    HW231551   2.799   1.164   3.991
10218SOL     OW31552   1.433   1.677   1.746
10218SOL    HW131553   1.511   1.734   1.722
10218SOL    HW231554   1.410   1.617   1.668
10219SOL     OW31555   0.452   2.059   2.544
10219SOL    HW131556   0.507   1.995   2.490
10219SOL    HW231557   0.362   2.069   2.503
10220SOL     OW31558   4.066   1.260   1.638
10220SOL    HW131559   3.999   1.257   1.712
10220SOL    HW231560   4.158   1.255   1.677
10221SOL     OW31561   1.689   1.752   4.336
10221SOL    HW131562   1.755   1.677   4.348
10221SOL    HW231563   1.644   1.771   4.423
10222SOL     OW31564   1.529   3.519   5.049
10222SOL    HW131565   1.458   3.585   5.074
10222SOL    HW231566   1.612   3.568   5.022
10223SOL     OW31567   1.645   5.192   6.439
10223SOL    HW131568   1.700   5.191   6.356
10223SOL    HW231569   1.705   5.207   6.518
10224SOL     OW31570   1.303   1.315   4.209
10224SOL    HW131571   1.248   1.267   4.277
10224SOL    HW231572   1.267   1.408   4.197
10225SOL     OW31573   1.065   6.073   5.288
10225SOL    HW131574   1.037   6.167   5.307
10225SOL    HW231575   0.993   6.010   5.316
10226SOL     OW31576   3.075   0.977   6.669
10226SOL    HW131577   3.145   1.026   6.721
10226SOL    HW231578   2.985   1.011   6.695
10227SOL     OW31579   4.646   4.648   0.786
10227SOL    HW131580   4.558   4.695   0.794
10227SOL    HW231581   4.638   4.555   0.823
10228SOL     OW31582   0.783   5.408   2.127
10228SOL    HW131583   0.852   5.479   2.138
10228SOL    HW231584   0.752   5.377   2.217
10229SOL     OW31585   0.997   1.171   3.464
10229SOL    HW131586   1.079   1.171   3.520
10229SOL    HW231587   0.977   1.078   3.433
10230SOL     OW31588   0.012   0.469   3.363
10230SOL    HW131589   6.959   0.531   3.327
10230SOL    HW231590   0.002   0.379   3.321
10231SOL     OW31591   0.113   6.663   5.105
10231SOL    HW131592   0.059   6.742   5.075
10231SOL    HW231593   0.206   6.671   5.070
10232SOL     OW31594   4.477   0.647   4.377
10232SOL    HW131595   4.495   0.548   4.378
10232SOL    HW231596   4.387   0.664   4.417
10233SOL     OW31597   4.772   2.751   5.390
10233SOL    HW131598   4.844   2.728   5.325
10233SOL    HW231599   4.716   2.826   5.354
10234SOL     OW31600   5.397   0.488   0.887
10234SOL    HW131601   5.387   0.555   0.960
10234SOL    HW231602   5.307   0.455   0.859
10235SOL     OW31603   4.489   1.207   0.366
10235SOL    HW131604   4.524   1.275   0.430
10235SOL    HW231605   4.479   1.249   0.276
10236SOL     OW31606   1.869   6.753   1.606
10236SOL    HW131607   1.850   6.708   1.519
10236SOL    HW231608   1.949   6.812   1.597
10237SOL     OW31609   6.069   3.999   0.996
10237SOL    HW131610   6.104   3.951   0.915
10237SOL    HW231611   6.136   3.993   1.070
10238SOL     OW31612   3.706   3.800   5.064
10238SOL    HW131613   3.678   3.757   4.978
10238SOL    HW231614   3.784   3.751   5.102
10239SOL     OW31615   1.196   4.258   5.366
10239SOL    HW131616   1.147   4.279   5.451
10239SOL    HW231617   1.131   4.233   5.295
10240SOL     OW31618   1.363   4.418   2.214
10240SOL    HW131619   1.339   4.493   2.152
10240SOL    HW231620   1.431   4.450   2.279
10241SOL     OW31621   0.283   0.713   1.288
10241SOL    HW131622   0.299   0.618   1.260
10241SOL    HW231623   0.281   0.718   1.388
10242SOL     OW31624   0.700   2.192   6.302
10242SOL    HW131625   0.725   2.233   6.215
10242SOL    HW231626   0.737   2.247   6.377
10243SOL     OW31627   0.032   5.489   1.249
10243SOL    HW131628   6.953   5.475   1.275
10243SOL    HW231629   0.083   5.523   1.329
10244SOL     OW31630   2.095   4.520   0.092
10244SOL    HW131631   2.083   4.502   0.190
10244SOL    HW231632   2.186   4.557   0.076
10245SOL     OW31633   2.389   3.515   6.959
10245SOL    HW131634   2.364   3.451   6.886
10245SOL    HW231635   2.416   3.603   6.919
10246SOL     OW31636   3.089   3.866   4.707
10246SOL    HW131637   3.086   3.959   4.742
10246SOL    HW231638   3.008   3.816   4.737
10247SOL     OW31639   0.484   5.103   5.071
10247SOL    HW131640   0.418   5.169   5.109
10247SOL    HW231641   0.576   5.128   5.101
10248SOL     OW31642   3.104   0.353   2.256
10248SOL    HW131643   3.015   0.365   2.300
10248SOL    HW231644   3.121   0.430   2.194
10249SOL     OW31645   3.010   0.992   5.871
10249SOL    HW131646   2.935   0.952   5.925
10249SOL    HW231647   3.095   0.988   5.924
10250SOL     OW31648   6.956   2.022   0.978
10250SOL    HW131649   6.963   1.949   0.910
10250SOL    HW231650   6.860   2.050   0.987
10251SOL     OW31651   1.849   2.958   5.761
10251SOL    HW131652   1.896   3.041   5.790
10251SOL    HW231653   1.897   2.878   5.796
10252SOL     OW31654   6.586   6.564   0.478
10252SOL    HW131655   6.598   6.597   0.384
10252SOL    HW231656   6.673   6.529   0.512
10253SOL     OW31657   4.669   5.608   6.894
10253SOL    HW131658   4.676   5.574   6.800
10253SOL    HW231659   4.572   5.617   6.919
10254SOL     OW31660   3.313   1.951   4.446
10254SOL    HW131661   3.272   2.041   4.428
10254SOL    HW231662   3.332   1.943   4.544
10255SOL     OW31663   2.005   6.088   1.372
10255SOL    HW131664   1.937   6.118   1.440
10255SOL    HW231665   2.022   5.990   1.384
10256SOL     OW31666   5.541   6.918   1.372
10256SOL    HW131667   5.519   6.821   1.373
10256SOL    HW231668   5.617   6.935   1.434
10257SOL     OW31669   1.108   4.534   5.078
10257SOL    HW131670   1.168   4.506   5.004
10257SOL    HW231671   1.159   4.532   5.164
10258SOL     OW31672   5.256   0.089   3.679
10258SOL    HW131673   5.236   7.014   3.713
10258SOL    HW231674   5.353   0.109   3.690
10259SOL     OW31675   1.063   4.882   3.225
10259SOL    HW131676   1.083   4.941   3.303
10259SOL    HW231677   1.102   4.792   3.242
10260SOL     OW31678   6.854   0.123   2.929
10260SOL    HW131679   6.829   0.027   2.942
10260SOL    HW231680   6.944   0.128   2.885
10261SOL     OW31681   6.840   6.333   2.387
10261SOL    HW131682   6.931   6.369   2.364
10261SOL    HW231683   6.815   6.362   2.479
10262SOL     OW31684   2.883   5.523   4.637
10262SOL    HW131685   2.928   5.434   4.628
10262SOL    HW231686   2.910   5.565   4.724
10263SOL     OW31687   5.228   1.480   6.263
10263SOL    HW131688   5.193   1.473   6.169
10263SOL    HW231689   5.225   1.390   6.306
10264SOL     OW31690   6.182   1.663   6.790
10264SOL    HW131691   6.221   1.745   6.832
10264SOL    HW231692   6.227   1.646   6.703
10265SOL     OW31693   3.411   2.094   2.740
10265SOL    HW131694   3.387   2.112   2.835
10265SOL    HW231695   3.432   1.997   2.728
10266SOL     OW31696   3.614   3.248   5.434
10266SOL    HW131697   3.581   3.294   5.516
10266SOL    HW231698   3.562   3.281   5.355
10267SOL     OW31699   6.362   1.886   6.890
10267SOL    HW131700   6.435   1.931   6.942
10267SOL    HW231701   6.323   1.951   6.825
10268SOL     OW31702   5.003   6.497   1.462
10268SOL    HW131703   4.945   6.420   1.488
10268SOL    HW231704   5.096   6.481   1.494
10269SOL     OW31705   1.980   1.432   5.564
10269SOL    HW131706   2.062   1.426   5.507
10269SOL    HW231707   1.901   1.450   5.505
10270SOL     OW31708   2.099   5.942   1.684
10270SOL    HW131709   2.034   5.903   1.619
10270SOL    HW231710   2.104   6.041   1.671
10271SOL     OW31711   3.381   3.157   0.341
10271SOL    HW131712   3.407   3.155   0.245
10271SOL    HW231713   3.431   3.230   0.388
10272SOL     OW31714   1.231   0.611   3.974
10272SOL    HW131715   1.296   0.559   3.919
10272SOL    HW231716   1.260   0.707   3.978
10273SOL     OW31717   3.916   5.944   4.286
10273SOL    HW131718   3.874   5.869   4.338
10273SOL    HW231719   3.916   5.920   4.189
10274SOL     OW31720   1.403   4.490   5.743
10274SOL    HW131721   1.328   4.456   5.801
10274SOL    HW231722   1.487   4.440   5.765
10275SOL     OW31723   1.583   0.084   2.184
10275SOL    HW131724   1.676   0.051   2.197
10275SOL    HW231725   1.529   0.066   2.266
10276SOL     OW31726   6.876   5.269   6.505
10276SOL    HW131727   6.940   5.344   6.520
10276SOL    HW231728   6.785   5.296   6.536
10277SOL     OW31729   2.673   6.364   3.936
10277SOL    HW131730   2.653   6.274   3.898
10277SOL    HW231731   2.603   6.390   4.001
10278SOL     OW31732   6.239   1.097   5.594
10278SOL    HW131733   6.250   1.029   5.521
10278SOL    HW231734   6.144   1.100   5.623
10279SOL     OW31735   3.089   0.350   3.531
10279SOL    HW131736   3.153   0.305   3.468
10279SOL    HW231737   3.131   0.433   3.568
10280SOL     OW31738   2.155   4.445   1.287
10280SOL    HW131739   2.173   4.543   1.296
10280SOL    HW231740   2.060   4.430   1.263
10281SOL     OW31741   5.284   2.453   2.838
10281SOL    HW131742   5.186   2.456   2.822
10281SOL    HW231743   5.324   2.544   2.825
10282SOL     OW31744   6.336   3.378   4.297
10282SOL    HW131745   6.309   3.397   4.202
10282SOL    HW231746   6.351   3.465   4.345
10283SOL     OW31747   0.908   2.977   1.157
10283SOL    HW131748   0.928   3.038   1.234
10283SOL    HW231749   0.849   2.903   1.188
10284SOL     OW31750   5.286   4.175   5.897
10284SOL    HW131751   5.329   4.164   5.807
10284SOL    HW231752   5.201   4.226   5.887
10285SOL     OW31753   5.073   0.345   1.784
10285SOL    HW131754   5.064   0.432   1.735
10285SOL    HW231755   5.039   0.355   1.877
10286SOL     OW31756   3.181   1.846   3.473
10286SOL    HW131757   3.160   1.775   3.541
10286SOL    HW231758   3.277   1.872   3.480
10287SOL     OW31759   1.607   6.753   1.743
10287SOL    HW131760   1.696   6.746   1.700
10287SOL    HW231761   1.613   6.815   1.822
10288SOL     OW31762   5.002   5.895   2.302
10288SOL    HW131763   5.074   5.959   2.325
10288SOL    HW231764   5.034   5.801   2.317
10289SOL     OW31765   3.719   0.705   1.233
10289SOL    HW131766   3.737   0.633   1.166
10289SOL    HW231767   3.723   0.667   1.325
10290SOL     OW31768   3.635   4.101   2.852
10290SOL    HW131769   3.624   4.103   2.952
10290SOL    HW231770   3.587   4.179   2.812
10291SOL     OW31771   3.994   0.244   4.101
10291SOL    HW131772   4.015   0.202   4.013
10291SOL    HW231773   4.076   0.243   4.159
10292SOL     OW31774   0.483   2.179   4.381
10292SOL    HW131775   0.424   2.227   4.446
10292SOL    HW231776   0.561   2.238   4.357
10293SOL     OW31777   1.567   6.213   3.158
10293SOL    HW131778   1.634   6.233   3.230
10293SOL    HW231779   1.477   6.199   3.199
10294SOL     OW31780   4.877   3.207   3.190
10294SOL    HW131781   4.883   3.177   3.285
10294SOL    HW231782   4.892   3.306   3.185
10295SOL     OW31783   5.611   4.521   5.670
10295SOL    HW131784   5.570   4.436   5.704
10295SOL    HW231785   5.666   4.501   5.589
10296SOL     OW31786   5.718   4.346   6.424
10296SOL    HW131787   5.744   4.279   6.354
10296SOL    HW231788   5.636   4.314   6.471
10297SOL     OW31789   2.481   6.434   4.121
10297SOL    HW131790   2.432   6.351   4.149
10297SOL    HW231791   2.531   6.471   4.199
10298SOL     OW31792   4.219   4.736   3.518
10298SOL    HW131793   4.220   4.691   3.429
10298SOL    HW231794   4.308   4.724   3.562
10299SOL     OW31795   4.423   4.548   3.208
10299SOL    HW131796   4.386   4.637   3.234
10299SOL    HW231797   4.370   4.512   3.131
10300SOL     OW31798   1.597   4.307   1.997
10300SOL    HW131799   1.688   4.308   1.956
10300SOL    HW231800   1.575   4.398   2.032
10301SOL     OW31801   5.764   2.168   2.903
10301SOL    HW131802   5.677   2.124   2.881
10301SOL    HW231803   5.783   2.158   3.001
10302SOL     OW31804   1.193   5.884   2.924
10302SOL    HW131805   1.291   5.888   2.905
10302SOL    HW231806   1.173   5.938   3.006
10303SOL     OW31807   3.886   4.163   0.882
10303SOL    HW131808   3.965   4.164   0.943
10303SOL    HW231809   3.864   4.069   0.857
10304SOL     OW31810   5.835   0.740   4.039
10304SOL    HW131811   5.746   0.764   4.079
10304SOL    HW231812   5.902   0.727   4.112
10305SOL     OW31813   1.179   6.209   6.807
10305SOL    HW131814   1.213   6.258   6.887
10305SOL    HW231815   1.179   6.111   6.825
10306SOL     OW31816   4.282   5.473   6.478
10306SOL    HW131817   4.267   5.391   6.422
10306SOL    HW231818   4.223   5.546   6.444
10307SOL     OW31819   1.758   1.543   5.397
10307SOL    HW131820   1.700   1.619   5.370
10307SOL    HW231821   1.804   1.505   5.317
10308SOL     OW31822   3.273   5.264   3.998
10308SOL    HW131823   3.249   5.361   3.994
10308SOL    HW231824   3.241   5.225   4.084
10309SOL     OW31825   6.562   0.305   3.743
10309SOL    HW131826   6.589   0.338   3.653
10309SOL    HW231827   6.612   0.222   3.765
10310SOL     OW31828   3.187   3.785   1.682
10310SOL    HW131829   3.236   3.756   1.599
10310SOL    HW231830   3.245   3.849   1.733
10311SOL     OW31831   0.537   5.670   1.285
10311SOL    HW131832   0.486   5.717   1.212
10311SOL    HW231833   0.474   5.611   1.336
10312SOL     OW31834   3.511   5.140   0.993
10312SOL    HW131835   3.467   5.218   0.949
10312SOL    HW231836   3.469   5.055   0.960
10313SOL     OW31837   4.296   6.864   2.248
10313SOL    HW131838   4.269   6.900   2.159
10313SOL    HW231839   4.227   6.798   2.279
10314SOL     OW31840   6.351   0.527   0.835
10314SOL    HW131841   6.266   0.566   0.800
10314SOL    HW231842   6.349   0.428   0.825
10315SOL     OW31843   6.655   5.952   5.001
10315SOL    HW131844   6.624   6.020   4.934
10315SOL    HW231845   6.632   5.984   5.093
10316SOL     OW31846   6.989   3.174   4.309
10316SOL    HW131847   0.044   3.139   4.248
10316SOL    HW231848   6.913   3.109   4.311
10317SOL     OW31849   4.110   4.613   5.959
10317SOL    HW131850   4.029   4.671   5.945
10317SOL    HW231851   4.098   4.560   6.043
10318SOL     OW31852   6.021   5.606   1.828
10318SOL    HW131853   6.110   5.640   1.799
10318SOL    HW231854   6.028   5.569   1.921
10319SOL     OW31855   0.286   4.922   4.750
10319SOL    HW131856   0.377   4.913   4.710
10319SOL    HW231857   0.249   5.013   4.730
10320SOL     OW31858   0.690   0.489   0.763
10320SOL    HW131859   0.739   0.470   0.848
10320SOL    HW231860   0.685   0.588   0.750
10321SOL     OW31861   4.067   6.221   4.535
10321SOL    HW131862   4.092   6.125   4.516
10321SOL    HW231863   4.129   6.281   4.485
10322SOL     OW31864   6.825   5.955   0.719
10322SOL    HW131865   6.846   5.915   0.808
10322SOL    HW231866   6.839   5.886   0.648
10323SOL     OW31867   6.665   3.426   6.623
10323SOL    HW131868   6.673   3.338   6.671
10323SOL    HW231869   6.640   3.410   6.528
10324SOL     OW31870   3.041   3.082   3.795
10324SOL    HW131871   3.121   3.022   3.799
10324SOL    HW231872   3.001   3.080   3.703
10325SOL     OW31873   6.755   4.390   4.104
10325SOL    HW131874   6.790   4.403   4.011
10325SOL    HW231875   6.804   4.451   4.167
10326SOL     OW31876   4.736   2.601   6.607
10326SOL    HW131877   4.791   2.682   6.630
10326SOL    HW231878   4.733   2.539   6.686
10327SOL     OW31879   2.393   1.309   2.976
10327SOL    HW131880   2.420   1.382   2.914
10327SOL    HW231881   2.304   1.272   2.948
10328SOL     OW31882   5.578   3.544   2.189
10328SOL    HW131883   5.672   3.520   2.167
10328SOL    HW231884   5.566   3.545   2.289
10329SOL     OW31885   2.619   0.688   4.089
10329SOL    HW131886   2.558   0.763   4.114
10329SOL    HW231887   2.698   0.724   4.040
10330SOL     OW31888   3.383   5.048   3.361
10330SOL    HW131889   3.364   5.021   3.267
10330SOL    HW231890   3.417   5.142   3.363
10331SOL     OW31891   5.686   0.714   2.962
10331SOL    HW131892   5.637   0.796   2.992
10331SOL    HW231893   5.659   0.691   2.868
10332SOL     OW31894   6.881   2.198   0.688
10332SOL    HW131895   6.826   2.116   0.668
10332SOL    HW231896   6.820   2.273   0.713
10333SOL     OW31897   5.686   4.842   4.198
10333SOL    HW131898   5.690   4.897   4.282
10333SOL    HW231899   5.607   4.780   4.202
10334SOL     OW31900   1.862   5.353   3.671
10334SOL    HW131901   1.903   5.331   3.759
10334SOL    HW231902   1.801   5.431   3.681
10335SOL     OW31903   2.085   4.908   7.014
10335SOL    HW131904   2.076   4.900   0.096
10335SOL    HW231905   2.160   4.851   6.982
10336SOL     OW31906   4.454   6.434   2.507
10336SOL    HW131907   4.526   6.491   2.547
10336SOL    HW231908   4.491   6.385   2.428
10337SOL     OW31909   0.127   5.089   5.124
10337SOL    HW131910   0.179   5.025   5.067
10337SOL    HW231911   0.037   5.105   5.082
10338SOL     OW31912   3.732   6.643   0.713
10338SOL    HW131913   3.806   6.687   0.663
10338SOL    HW231914   3.767   6.606   0.799
10339SOL     OW31915   4.011   5.525   0.914
10339SOL    HW131916   3.964   5.437   0.921
10339SOL    HW231917   4.102   5.518   0.956
10340SOL     OW31918   1.974   5.693   6.961
10340SOL    HW131919   1.999   5.608   7.006
10340SOL    HW231920   1.952   5.675   6.865
10341SOL     OW31921   2.459   2.553   2.172
10341SOL    HW131922   2.511   2.493   2.111
10341SOL    HW231923   2.400   2.614   2.118
10342SOL     OW31924   1.978   6.504   6.338
10342SOL    HW131925   1.916   6.480   6.414
10342SOL    HW231926   1.952   6.453   6.256
10343SOL     OW31927   2.109   3.992   6.986
10343SOL    HW131928   2.122   4.090   6.975
10343SOL    HW231929   2.015   3.974   7.014
10344SOL     OW31930   4.119   3.604   4.424
10344SOL    HW131931   4.126   3.598   4.325
10344SOL    HW231932   4.187   3.669   4.459
10345SOL     OW31933   2.079   1.300   6.859
10345SOL    HW131934   2.068   1.399   6.845
10345SOL    HW231935   2.001   1.252   6.819
10346SOL     OW31936   5.618   0.024   0.540
10346SOL    HW131937   5.542   0.045   0.477
10346SOL    HW231938   5.703   0.016   0.488
10347SOL     OW31939   5.101   1.572   0.927
10347SOL    HW131940   5.005   1.591   0.950
10347SOL    HW231941   5.147   1.658   0.904
10348SOL     OW31942   6.188   0.855   6.376
10348SOL    HW131943   6.245   0.896   6.304
10348SOL    HW231944   6.194   0.756   6.370
10349SOL     OW31945   5.859   0.583   0.821
10349SOL    HW131946   5.943   0.570   0.768
10349SOL    HW231947   5.807   0.659   0.783
10350SOL     OW31948   3.661   6.027   4.347
10350SOL    HW131949   3.607   5.963   4.293
10350SOL    HW231950   3.758   6.001   4.343
10351SOL     OW31951   6.253   4.843   5.207
10351SOL    HW131952   6.346   4.832   5.242
10351SOL    HW231953   6.201   4.902   5.268
10352SOL     OW31954   5.727   2.257   6.849
10352SOL    HW131955   5.800   2.315   6.886
10352SOL    HW231956   5.660   2.240   6.921
10353SOL     OW31957   0.138   3.064   3.473
10353SOL    HW131958   0.041   3.046   3.484
10353SOL    HW231959   0.156   3.162   3.485
10354SOL     OW31960   0.531   4.371   0.807
10354SOL    HW131961   0.439   4.351   0.839
10354SOL    HW231962   0.528   4.409   0.715
10355SOL     OW31963   1.237   1.589   1.388
10355SOL    HW131964   1.261   1.651   1.314
10355SOL    HW231965   1.318   1.567   1.442
10356SOL     OW31966   0.627   2.962   6.840
10356SOL    HW131967   0.570   2.986   6.919
10356SOL    HW231968   0.703   2.905   6.871
10357SOL     OW31969   2.166   2.272   6.655
10357SOL    HW131970   2.145   2.357   6.703
10357SOL    HW231971   2.240   2.225   6.702
10358SOL     OW31972   1.761   2.529   2.540
10358SOL    HW131973   1.810   2.453   2.497
10358SOL    HW231974   1.825   2.587   2.590
10359SOL     OW31975   4.791   2.460   2.227
10359SOL    HW131976   4.853   2.432   2.154
10359SOL    HW231977   4.697   2.443   2.199
10360SOL     OW31978   5.502   5.179   3.236
10360SOL    HW131979   5.567   5.113   3.198
10360SOL    HW231980   5.509   5.179   3.336
10361SOL     OW31981   2.131   1.141   1.455
10361SOL    HW131982   2.178   1.218   1.412
10361SOL    HW231983   2.198   1.084   1.505
10362SOL     OW31984   6.953   5.113   2.141
10362SOL    HW131985   0.022   5.096   2.190
10362SOL    HW231986   6.926   5.031   2.090
10363SOL     OW31987   4.426   2.899   0.237
10363SOL    HW131988   4.407   2.980   0.181
10363SOL    HW231989   4.477   2.926   0.318
10364SOL     OW31990   5.236   5.388   0.922
10364SOL    HW131991   5.317   5.434   0.960
10364SOL    HW231992   5.262   5.298   0.887
10365SOL     OW31993   5.935   5.464   0.416
10365SOL    HW131994   5.986   5.528   0.359
10365SOL    HW231995   5.844   5.450   0.378
10366SOL     OW31996   4.607   0.026   3.391
10366SOL    HW131997   4.570   0.117   3.375
10366SOL    HW231998   4.687   0.013   3.333
10367SOL     OW31999   6.347   2.189   2.055
10367SOL    HW132000   6.336   2.093   2.032
10367SOL    HW232001   6.274   2.217   2.117
10368SOL     OW32002   2.675   1.055   1.940
10368SOL    HW132003   2.666   0.976   1.879
10368SOL    HW232004   2.726   1.127   1.894
10369SOL     OW32005   2.978   6.402   5.777
10369SOL    HW132006   2.974   6.382   5.679
10369SOL    HW232007   2.886   6.399   5.815
10370SOL     OW32008   6.384   1.698   4.240
10370SOL    HW132009   6.325   1.777   4.254
10370SOL    HW232010   6.413   1.694   4.145
10371SOL     OW32011   3.610   6.536   3.180
10371SOL    HW132012   3.671   6.471   3.134
10371SOL    HW232013   3.515   6.518   3.152
10372SOL     OW32014   3.174   0.609   1.347
10372SOL    HW132015   3.177   0.562   1.435
10372SOL    HW232016   3.147   0.704   1.360
10373SOL     OW32017   0.523   0.273   4.545
10373SOL    HW132018   0.436   0.259   4.592
10373SOL    HW232019   0.597   0.238   4.602
10374SOL     OW32020   2.783   6.745   4.126
10374SOL    HW132021   2.842   6.711   4.200
10374SOL    HW232022   2.711   6.678   4.108
10375SOL     OW32023   3.076   2.043   6.076
10375SOL    HW132024   3.009   1.975   6.104
10375SOL    HW232025   3.167   2.001   6.071
10376SOL     OW32026   1.821   6.261   3.720
10376SOL    HW132027   1.908   6.218   3.697
10376SOL    HW232028   1.837   6.338   3.782
10377SOL     OW32029   0.358   1.845   2.118
10377SOL    HW132030   0.367   1.751   2.149
10377SOL    HW232031   0.389   1.851   2.022
10378SOL     OW32032   0.158   5.665   5.702
10378SOL    HW132033   0.203   5.745   5.741
10378SOL    HW232034   0.074   5.693   5.656
10379SOL     OW32035   2.869   6.185   4.134
10379SOL    HW132036   2.894   6.279   4.111
10379SOL    HW232037   2.909   6.123   4.067
10380SOL     OW32038   1.383   1.881   4.795
10380SOL    HW132039   1.419   1.940   4.868
10380SOL    HW232040   1.317   1.933   4.740
10381SOL     OW32041   3.826   4.592   0.931
10381SOL    HW132042   3.830   4.526   0.856
10381SOL    HW232043   3.850   4.683   0.897
10382SOL     OW32044   2.936   5.560   1.825
10382SOL    HW132045   2.940   5.639   1.764
10382SOL    HW232046   2.844   5.553   1.864
10383SOL     OW32047   2.091   4.030   0.520
10383SOL    HW132048   2.088   4.109   0.581
10383SOL    HW232049   2.183   3.992   0.519
10384SOL     OW32050   6.480   6.420   1.047
10384SOL    HW132051   6.471   6.494   0.980
10384SOL    HW232052   6.494   6.333   1.000
10385SOL     OW32053   3.709   5.421   6.180
10385SOL    HW132054   3.705   5.374   6.092
10385SOL    HW232055   3.642   5.382   6.243
10386SOL     OW32056   0.324   0.993   5.577
10386SOL    HW132057   0.270   1.077   5.565
10386SOL    HW232058   0.421   1.015   5.574
10387SOL     OW32059   5.244   3.142   3.480
10387SOL    HW132060   5.175   3.075   3.507
10387SOL    HW232061   5.301   3.166   3.558
10388SOL     OW32062   2.793   0.211   0.306
10388SOL    HW132063   2.762   0.290   0.253
10388SOL    HW232064   2.843   0.149   0.245
10389SOL     OW32065   6.143   3.845   0.035
10389SOL    HW132066   6.091   3.930   0.044
10389SOL    HW232067   6.239   3.866   0.018
10390SOL     OW32068   1.938   2.558   0.435
10390SOL    HW132069   1.993   2.640   0.453
10390SOL    HW232070   1.865   2.581   0.371
10391SOL     OW32071   1.526   6.409   3.866
10391SOL    HW132072   1.488   6.458   3.788
10391SOL    HW232073   1.623   6.429   3.875
10392SOL     OW32074   5.859   4.862   5.571
10392SOL    HW132075   5.766   4.876   5.607
10392SOL    HW232076   5.923   4.923   5.618
10393SOL     OW32077   1.895   3.719   3.680
10393SOL    HW132078   1.926   3.670   3.761
10393SOL    HW232079   1.909   3.818   3.693
10394SOL     OW32080   2.938   5.795   4.531
10394SOL    HW132081   2.895   5.715   4.573
10394SOL    HW232082   2.988   5.766   4.449
10395SOL     OW32083   0.177   6.611   1.530
10395SOL    HW132084   0.201   6.619   1.433
10395SOL    HW232085   0.261   6.613   1.585
10396SOL     OW32086   4.091   1.574   3.927
10396SOL    HW132087   4.079   1.490   3.979
10396SOL    HW232088   4.022   1.578   3.855
10397SOL     OW32089   3.114   1.911   3.211
10397SOL    HW132090   3.118   1.882   3.306
10397SOL    HW232091   3.111   2.011   3.207
10398SOL     OW32092   5.453   2.247   0.834
10398SOL    HW132093   5.541   2.243   0.882
10398SOL    HW232094   5.426   2.343   0.823
10399SOL     OW32095   4.990   2.362   3.452
10399SOL    HW132096   5.021   2.287   3.394
10399SOL    HW232097   4.953   2.435   3.394
10400SOL     OW32098   4.409   6.530   0.248
10400SOL    HW132099   4.410   6.630   0.256
10400SOL    HW232100   4.502   6.495   0.256
10401SOL     OW32101   6.587   0.014   3.128
10401SOL    HW132102   6.643   6.997   3.052
10401SOL    HW232103   6.497   0.042   3.093
10402SOL     OW32104   6.530   2.456   5.365
10402SOL    HW132105   6.446   2.421   5.324
10402SOL    HW232106   6.575   2.518   5.301
10403SOL     OW32107   4.565   1.498   3.557
10403SOL    HW132108   4.608   1.485   3.646
10403SOL    HW232109   4.507   1.419   3.536
10404SOL     OW32110   6.118   6.670   5.073
10404SOL    HW132111   6.136   6.644   4.978
10404SOL    HW232112   6.059   6.602   5.116
10405SOL     OW32113   1.115   0.615   5.157
10405SOL    HW132114   1.171   0.614   5.075
10405SOL    HW232115   1.161   0.669   5.228
10406SOL     OW32116   2.463   4.646   3.201
10406SOL    HW132117   2.549   4.658   3.151
10406SOL    HW232118   2.466   4.697   3.287
10407SOL     OW32119   2.725   6.872   6.155
10407SOL    HW132120   2.756   6.946   6.213
10407SOL    HW232121   2.682   6.801   6.211
10408SOL     OW32122   4.443   0.317   1.757
10408SOL    HW132123   4.521   0.380   1.752
10408SOL    HW232124   4.429   0.274   1.668
10409SOL     OW32125   0.222   4.777   0.828
10409SOL    HW132126   0.274   4.842   0.772
10409SOL    HW232127   0.285   4.711   0.870
10410SOL     OW32128   5.443   1.880   1.245
10410SOL    HW132129   5.536   1.918   1.243
10410SOL    HW232130   5.448   1.780   1.248
10411SOL     OW32131   3.263   6.493   3.387
10411SOL    HW132132   3.335   6.473   3.320
10411SOL    HW232133   3.222   6.582   3.365
10412SOL     OW32134   0.523   0.968   0.284
10412SOL    HW132135   0.555   1.053   0.242
10412SOL    HW232136   0.510   0.899   0.213
10413SOL     OW32137   6.689   3.034   0.512
10413SOL    HW132138   6.765   3.073   0.564
10413SOL    HW232139   6.724   2.966   0.447
10414SOL     OW32140   4.148   4.372   5.811
10414SOL    HW132141   4.105   4.318   5.883
10414SOL    HW232142   4.160   4.467   5.843
10415SOL     OW32143   1.635   3.539   4.418
10415SOL    HW132144   1.706   3.536   4.488
10415SOL    HW232145   1.675   3.516   4.329
10416SOL     OW32146   5.833   0.147   4.910
10416SOL    HW132147   5.822   0.050   4.932
10416SOL    HW232148   5.859   0.156   4.814
10417SOL     OW32149   3.025   5.287   4.616
10417SOL    HW132150   2.967   5.210   4.588
10417SOL    HW232151   3.100   5.252   4.673
10418SOL     OW32152   0.185   4.322   6.667
10418SOL    HW132153   0.283   4.314   6.654
10418SOL    HW232154   0.138   4.265   6.599
10419SOL     OW32155   1.676   0.179   6.027
10419SOL    HW132156   1.723   0.092   6.043
10419SOL    HW232157   1.738   0.255   6.050
10420SOL     OW32158   6.830   3.712   3.350
10420SOL    HW132159   6.731   3.703   3.357
10420SOL    HW232160   6.855   3.752   3.262
10421SOL     OW32161   0.638   1.995   3.537
10421SOL    HW132162   0.686   1.920   3.492
10421SOL    HW232163   0.702   2.044   3.597
10422SOL     OW32164   0.087   3.262   5.281
10422SOL    HW132165   0.094   3.163   5.292
10422SOL    HW232166   0.005   3.284   5.228
10423SOL     OW32167   6.309   5.427   4.974
10423SOL    HW132168   6.215   5.414   4.942
10423SOL    HW232169   6.368   5.453   4.898
10424SOL     OW32170   5.123   2.955   0.739
10424SOL    HW132171   5.216   2.973   0.770
10424SOL    HW232172   5.093   3.031   0.681
10425SOL     OW32173   0.772   0.583   1.683
10425SOL    HW132174   0.818   0.539   1.605
10425SOL    HW232175   0.777   0.522   1.762
10426SOL     OW32176   6.043   5.078   0.729
10426SOL    HW132177   6.052   5.065   0.630
10426SOL    HW232178   5.967   5.022   0.763
10427SOL     OW32179   3.970   0.465   6.468
10427SOL    HW132180   3.923   0.383   6.500
10427SOL    HW232181   3.906   0.522   6.416
10428SOL     OW32182   3.789   0.645   3.844
10428SOL    HW132183   3.883   0.651   3.809
10428SOL    HW232184   3.737   0.581   3.787
10429SOL     OW32185   6.875   5.232   0.787
10429SOL    HW132186   6.783   5.235   0.825
10429SOL    HW232187   6.870   5.239   0.687
10430SOL     OW32188   5.123   6.851   4.433
10430SOL    HW132189   5.138   6.752   4.436
10430SOL    HW232190   5.085   6.882   4.520
10431SOL     OW32191   3.510   5.862   4.173
10431SOL    HW132192   3.447   5.787   4.190
10431SOL    HW232193   3.555   5.850   4.085
10432SOL     OW32194   5.792   6.736   4.793
10432SOL    HW132195   5.735   6.814   4.768
10432SOL    HW232196   5.854   6.714   4.718
10433SOL     OW32197   1.567   6.415   1.214
10433SOL    HW132198   1.556   6.475   1.135
10433SOL    HW232199   1.645   6.445   1.269
10434SOL     OW32200   4.361   6.581   3.416
10434SOL    HW132201   4.308   6.603   3.498
10434SOL    HW232202   4.384   6.484   3.417
10435SOL     OW32203   7.010   0.426   4.645
10435SOL    HW132204   6.910   0.422   4.637
10435SOL    HW232205   0.019   0.499   4.708
10436SOL     OW32206   0.836   5.443   6.044
10436SOL    HW132207   0.862   5.350   6.069
10436SOL    HW232208   0.776   5.441   5.964
10437SOL     OW32209   5.428   5.073   5.887
10437SOL    HW132210   5.335   5.075   5.850
10437SOL    HW232211   5.445   4.985   5.931
10438SOL     OW32212   6.230   6.484   0.759
10438SOL    HW132213   6.296   6.428   0.709
10438SOL    HW232214   6.250   6.581   0.744
10439SOL     OW32215   4.458   1.492   6.364
10439SOL    HW132216   4.382   1.443   6.321
10439SOL    HW232217   4.431   1.522   6.455
10440SOL     OW32218   1.303   6.731   0.527
10440SOL    HW132219   1.274   6.809   0.581
10440SOL    HW232220   1.225   6.693   0.478
10441SOL     OW32221   3.980   0.772   0.638
10441SOL    HW132222   3.902   0.836   0.632
10441SOL    HW232223   3.970   0.715   0.720
10442SOL     OW32224   3.213   6.405   6.401
10442SOL    HW132225   3.256   6.390   6.490
10442SOL    HW232226   3.255   6.344   6.334
10443SOL     OW32227   5.194   4.004   4.744
10443SOL    HW132228   5.163   4.099   4.750
10443SOL    HW232229   5.293   4.002   4.731
10444SOL     OW32230   4.058   5.898   4.625
10444SOL    HW132231   3.963   5.917   4.652
10444SOL    HW232232   4.070   5.800   4.612
10445SOL     OW32233   0.815   5.363   4.558
10445SOL    HW132234   0.778   5.349   4.466
10445SOL    HW232235   0.889   5.297   4.574
10446SOL     OW32236   1.308   2.966   5.038
10446SOL    HW132237   1.242   2.899   5.006
10446SOL    HW232238   1.308   3.046   4.978
10447SOL     OW32239   6.873   0.952   2.042
10447SOL    HW132240   6.934   0.929   1.966
10447SOL    HW232241   6.924   0.950   2.128
10448SOL     OW32242   3.646   1.326   1.931
10448SOL    HW132243   3.729   1.316   1.876
10448SOL    HW232244   3.630   1.241   1.981
10449SOL     OW32245   1.977   5.562   4.741
10449SOL    HW132246   2.065   5.551   4.694
10449SOL    HW232247   1.925   5.478   4.734
10450SOL     OW32248   0.367   1.902   0.868
10450SOL    HW132249   0.392   1.976   0.929
10450SOL    HW232250   0.428   1.902   0.788
10451SOL     OW32251   1.735   5.209   2.440
10451SOL    HW132252   1.796   5.145   2.487
10451SOL    HW232253   1.730   5.294   2.491
10452SOL     OW32254   5.803   3.562   3.002
10452SOL    HW132255   5.717   3.589   3.045
10452SOL    HW232256   5.789   3.547   2.904
10453SOL     OW32257   4.355   5.213   1.698
10453SOL    HW132258   4.363   5.240   1.794
10453SOL    HW232259   4.264   5.176   1.681
10454SOL     OW32260   4.521   2.918   0.789
10454SOL    HW132261   4.438   2.971   0.803
10454SOL    HW232262   4.519   2.836   0.846
10455SOL     OW32263   6.762   5.312   2.231
10455SOL    HW132264   6.762   5.297   2.330
10455SOL    HW232265   6.798   5.231   2.185
10456SOL     OW32266   3.000   6.133   1.023
10456SOL    HW132267   2.911   6.142   0.978
10456SOL    HW232268   3.011   6.207   1.090
10457SOL     OW32269   3.488   3.454   2.638
10457SOL    HW132270   3.482   3.370   2.692
10457SOL    HW232271   3.553   3.441   2.563
10458SOL     OW32272   0.274   1.188   6.044
10458SOL    HW132273   0.281   1.145   6.134
10458SOL    HW232274   0.257   1.117   5.975
10459SOL     OW32275   4.778   5.372   2.576
10459SOL    HW132276   4.735   5.442   2.633
10459SOL    HW232277   4.867   5.347   2.615
10460SOL     OW32278   1.490   5.113   1.146
10460SOL    HW132279   1.551   5.191   1.133
10460SOL    HW232280   1.455   5.114   1.240
10461SOL     OW32281   1.216   5.401   5.528
10461SOL    HW132282   1.269   5.322   5.499
10461SOL    HW232283   1.270   5.457   5.591
10462SOL     OW32284   6.063   1.561   3.344
10462SOL    HW132285   6.031   1.577   3.437
10462SOL    HW232286   5.995   1.508   3.294
10463SOL     OW32287   3.965   2.966   5.860
10463SOL    HW132288   3.935   2.897   5.794
10463SOL    HW232289   4.015   3.038   5.813
10464SOL     OW32290   6.040   6.293   1.290
10464SOL    HW132291   6.094   6.276   1.207
10464SOL    HW232292   5.969   6.224   1.298
10465SOL     OW32293   5.983   6.555   1.233
10465SOL    HW132294   6.001   6.465   1.273
10465SOL    HW232295   6.063   6.584   1.181
10466SOL     OW32296   4.662   5.152   5.477
10466SOL    HW132297   4.604   5.169   5.556
10466SOL    HW232298   4.735   5.221   5.473
10467SOL     OW32299   1.047   1.719   5.607
10467SOL    HW132300   0.987   1.797   5.622
10467SOL    HW232301   1.104   1.735   5.525
10468SOL     OW32302   3.995   4.901   3.062
10468SOL    HW132303   4.059   4.898   3.139
10468SOL    HW232304   4.021   4.833   2.994
10469SOL     OW32305   3.543   2.438   6.498
10469SOL    HW132306   3.553   2.399   6.407
10469SOL    HW232307   3.521   2.365   6.563
10470SOL     OW32308   2.833   1.786   3.109
10470SOL    HW132309   2.787   1.707   3.151
10470SOL    HW232310   2.932   1.768   3.104
10471SOL     OW32311   1.974   3.062   1.092
10471SOL    HW132312   1.971   3.161   1.082
10471SOL    HW232313   1.957   3.038   1.188
10472SOL     OW32314   3.265   5.591   0.930
10472SOL    HW132315   3.363   5.609   0.934
10472SOL    HW232316   3.220   5.665   0.879
10473SOL     OW32317   5.785   0.645   0.331
10473SOL    HW132318   5.708   0.643   0.268
10473SOL    HW232319   5.871   0.635   0.280
10474SOL     OW32320   4.465   1.514   4.905
10474SOL    HW132321   4.538   1.582   4.897
10474SOL    HW232322   4.497   1.437   4.960
10475SOL     OW32323   4.211   6.497   2.581
10475SOL    HW132324   4.146   6.458   2.516
10475SOL    HW232325   4.304   6.469   2.556
10476SOL     OW32326   6.955   5.766   6.696
10476SOL    HW132327   0.014   5.817   6.738
10476SOL    HW232328   6.922   5.697   6.759
10477SOL     OW32329   6.282   2.062   4.827
10477SOL    HW132330   6.267   2.142   4.769
10477SOL    HW232331   6.281   2.089   4.923
10478SOL     OW32332   0.209   0.337   1.130
10478SOL    HW132333   0.303   0.312   1.152
10478SOL    HW232334   0.155   0.254   1.118
10479SOL     OW32335   7.010   2.695   1.801
10479SOL    HW132336   7.012   2.671   1.898
10479SOL    HW232337   0.079   2.741   1.776
10480SOL     OW32338   5.990   0.222   1.406
10480SOL    HW132339   6.024   0.307   1.446
10480SOL    HW232340   5.934   0.243   1.326
10481SOL     OW32341   2.547   0.682   4.998
10481SOL    HW132342   2.500   0.760   5.038
10481SOL    HW232343   2.548   0.692   4.898
10482SOL     OW32344   0.630   5.753   4.845
10482SOL    HW132345   0.722   5.731   4.879
10482SOL    HW232346   0.626   5.735   4.747
10483SOL     OW32347   6.805   5.422   0.289
10483SOL    HW132348   6.857   5.383   0.214
10483SOL    HW232349   6.867   5.465   0.354
10484SOL     OW32350   6.507   0.920   1.257
10484SOL    HW132351   6.478   0.889   1.348
10484SOL    HW232352   6.463   0.863   1.187
10485SOL     OW32353   3.255   3.154   2.353
10485SOL    HW132354   3.323   3.204   2.299
10485SOL    HW232355   3.236   3.066   2.309
10486SOL     OW32356   6.503   0.424   5.796
10486SOL    HW132357   6.431   0.476   5.841
10486SOL    HW232358   6.475   0.328   5.788
10487SOL     OW32359   4.648   1.991   1.345
10487SOL    HW132360   4.661   2.090   1.347
10487SOL    HW232361   4.660   1.958   1.252
10488SOL     OW32362   1.716   1.740   6.191
10488SOL    HW132363   1.747   1.745   6.096
10488SOL    HW232364   1.742   1.651   6.230
10489SOL     OW32365   6.337   6.310   4.549
10489SOL    HW132366   6.281   6.270   4.476
10489SOL    HW232367   6.362   6.240   4.615
10490SOL     OW32368   6.027   1.017   0.620
10490SOL    HW132369   6.088   1.052   0.691
10490SOL    HW232370   5.934   1.048   0.638
10491SOL     OW32371   2.503   2.717   6.481
10491SOL    HW132372   2.404   2.702   6.473
10491SOL    HW232373   2.541   2.731   6.390
10492SOL     OW32374   4.377   5.538   0.727
10492SOL    HW132375   4.385   5.548   0.628
10492SOL    HW232376   4.340   5.447   0.748
10493SOL     OW32377   2.859   5.751   1.153
10493SOL    HW132378   2.914   5.693   1.093
10493SOL    HW232379   2.917   5.823   1.191
10494SOL     OW32380   6.466   4.282   5.644
10494SOL    HW132381   6.543   4.256   5.586
10494SOL    HW232382   6.419   4.360   5.604
10495SOL     OW32383   6.503   6.822   0.611
10495SOL    HW132384   6.519   6.736   0.562
10495SOL    HW232385   6.590   6.855   0.650
10496SOL     OW32386   6.332   4.317   4.983
10496SOL    HW132387   6.396   4.360   4.919
10496SOL    HW232388   6.241   4.357   4.971
10497SOL     OW32389   1.256   6.431   2.220
10497SOL    HW132390   1.293   6.362   2.158
10497SOL    HW232391   1.175   6.473   2.179
10498SOL     OW32392   5.940   6.027   1.273
10498SOL    HW132393   5.864   5.967   1.298
10498SOL    HW232394   6.010   5.974   1.225
10499SOL     OW32395   4.768   6.694   1.131
10499SOL    HW132396   4.848   6.698   1.190
10499SOL    HW232397   4.716   6.780   1.139
10500SOL     OW32398   5.638   2.461   5.829
10500SOL    HW132399   5.573   2.503   5.893
10500SOL    HW232400   5.685   2.533   5.778
10501SOL     OW32401   2.186   6.058   2.822
10501SOL    HW132402   2.137   5.994   2.762
10501SOL    HW232403   2.240   6.007   2.888
10502SOL     OW32404   2.465   4.113   1.155
10502SOL    HW132405   2.436   4.018   1.172
10502SOL    HW232406   2.563   4.115   1.137
10503SOL     OW32407   5.896   4.515   0.270
10503SOL    HW132408   5.987   4.494   0.234
10503SOL    HW232409   5.838   4.434   0.263
10504SOL     OW32410   0.230   2.321   5.607
10504SOL    HW132411   0.321   2.314   5.646
10504SOL    HW232412   0.204   2.417   5.600
10505SOL     OW32413   5.263   6.543   1.814
10505SOL    HW132414   5.224   6.550   1.906
10505SOL    HW232415   5.356   6.580   1.814
10506SOL     OW32416   0.492   3.602   0.487
10506SOL    HW132417   0.549   3.644   0.557
10506SOL    HW232418   0.429   3.670   0.450
10507SOL     OW32419   1.927   5.658   6.699
10507SOL    HW132420   1.829   5.673   6.683
10507SOL    HW232421   1.980   5.713   6.635
10508SOL     OW32422   1.198   5.995   4.448
10508SOL    HW132423   1.134   5.984   4.525
10508SOL    HW232424   1.173   5.932   4.375
10509SOL     OW32425   6.029   4.394   4.619
10509SOL    HW132426   6.035   4.303   4.578
10509SOL    HW232427   6.079   4.460   4.562
10510SOL     OW32428   4.771   6.617   0.273
10510SOL    HW132429   4.742   6.523   0.252
10510SOL    HW232430   4.871   6.620   0.279
10511SOL     OW32431   2.795   1.610   1.925
10511SOL    HW132432   2.794   1.693   1.980
10511SOL    HW232433   2.791   1.634   1.828
10512SOL     OW32434   3.891   6.759   6.002
10512SOL    HW132435   3.938   6.672   6.022
10512SOL    HW232436   3.798   6.755   6.037
10513SOL     OW32437   6.496   2.955   3.194
10513SOL    HW132438   6.542   2.878   3.150
10513SOL    HW232439   6.530   2.964   3.288
10514SOL     OW32440   1.547   1.927   1.922
10514SOL    HW132441   1.478   1.903   1.854
10514SOL    HW232442   1.596   2.009   1.892
10515SOL     OW32443   2.309   2.844   3.866
10515SOL    HW132444   2.281   2.939   3.883
10515SOL    HW232445   2.343   2.803   3.951
10516SOL     OW32446   2.658   1.750   0.360
10516SOL    HW132447   2.607   1.704   0.287
10516SOL    HW232448   2.604   1.826   0.395
10517SOL     OW32449   1.484   4.416   1.036
10517SOL    HW132450   1.396   4.369   1.039
10517SOL    HW232451   1.541   4.378   0.964
10518SOL     OW32452   7.015   5.967   1.922
10518SOL    HW132453   0.058   5.924   1.854
10518SOL    HW232454   0.013   5.924   2.011
10519SOL     OW32455   2.879   4.694   0.874
10519SOL    HW132456   2.875   4.790   0.845
10519SOL    HW232457   2.899   4.690   0.972
10520SOL     OW32458   6.695   2.027   6.298
10520SOL    HW132459   6.625   2.040   6.367
10520SOL    HW232460   6.774   1.981   6.338
10521SOL     OW32461   6.341   5.408   1.601
10521SOL    HW132462   6.345   5.442   1.508
10521SOL    HW232463   6.311   5.481   1.662
10522SOL     OW32464   0.408   2.729   2.886
10522SOL    HW132465   0.482   2.665   2.907
10522SOL    HW232466   0.325   2.701   2.935
10523SOL     OW32467   0.494   4.379   2.770
10523SOL    HW132468   0.415   4.410   2.823
10523SOL    HW232469   0.548   4.458   2.741
10524SOL     OW32470   0.599   5.412   3.880
10524SOL    HW132471   0.664   5.465   3.825
10524SOL    HW232472   0.537   5.473   3.929
10525SOL     OW32473   3.815   6.780   5.426
10525SOL    HW132474   3.754   6.840   5.374
10525SOL    HW232475   3.904   6.823   5.437
10526SOL     OW32476   0.539   6.448   1.867
10526SOL    HW132477   0.567   6.464   1.962
10526SOL    HW232478   0.542   6.350   1.848
10527SOL     OW32479   0.811   0.370   6.057
10527SOL    HW132480   0.786   0.430   6.133
10527SOL    HW232481   0.903   0.334   6.072
10528SOL     OW32482   0.863   4.443   6.382
10528SOL    HW132483   0.803   4.439   6.461
10528SOL    HW232484   0.897   4.536   6.370
10529SOL     OW32485   2.022   5.375   5.086
10529SOL    HW132486   2.013   5.418   5.176
10529SOL    HW232487   2.068   5.438   5.023
10530SOL     OW32488   1.103   6.305   6.206
10530SOL    HW132489   1.093   6.339   6.112
10530SOL    HW232490   1.091   6.206   6.206
10531SOL     OW32491   2.878   2.223   4.225
10531SOL    HW132492   2.851   2.142   4.172
10531SOL    HW232493   2.826   2.225   4.310
10532SOL     OW32494   6.714   6.718   6.558
10532SOL    HW132495   6.734   6.810   6.525
10532SOL    HW232496   6.741   6.710   6.654
10533SOL     OW32497   3.159   6.441   4.326
10533SOL    HW132498   3.256   6.419   4.315
10533SOL    HW232499   3.149   6.534   4.361
10534SOL     OW32500   6.971   5.560   2.179
10534SOL    HW132501   6.894   5.622   2.193
10534SOL    HW232502   0.010   5.557   2.261
10535SOL     OW32503   1.541   1.412   2.176
10535SOL    HW132504   1.563   1.504   2.143
10535SOL    HW232505   1.590   1.345   2.120
10536SOL     OW32506   4.504   6.985   4.000
10536SOL    HW132507   4.589   6.958   4.045
10536SOL    HW232508   4.498   0.068   3.998
10537SOL     OW32509   4.899   6.134   4.005
10537SOL    HW132510   4.821   6.102   3.952
10537SOL    HW232511   4.982   6.127   3.950
10538SOL     OW32512   6.000   4.198   2.145
10538SOL    HW132513   5.906   4.170   2.128
10538SOL    HW232514   6.001   4.278   2.206
10539SOL     OW32515   5.954   5.430   1.610
10539SOL    HW132516   5.952   5.491   1.531
10539SOL    HW232517   6.016   5.467   1.679
10540SOL     OW32518   2.092   4.047   6.040
10540SOL    HW132519   2.120   3.976   6.104
10540SOL    HW232520   2.162   4.057   5.969
10541SOL     OW32521   4.009   3.061   3.908
10541SOL    HW132522   4.009   3.092   3.812
10541SOL    HW232523   3.933   2.998   3.922
10542SOL     OW32524   6.654   0.063   5.006
10542SOL    HW132525   6.599   6.997   4.998
10542SOL    HW232526   6.647   0.099   5.099
10543SOL     OW32527   0.590   1.935   4.334
10543SOL    HW132528   0.548   2.025   4.348
10543SOL    HW232529   0.631   1.904   4.420
10544SOL     OW32530   2.290   6.126   3.233
10544SOL    HW132531   2.281   6.032   3.199
10544SOL    HW232532   2.202   6.172   3.224
10545SOL     OW32533   1.297   2.321   1.469
10545SOL    HW132534   1.232   2.331   1.394
10545SOL    HW232535   1.388   2.350   1.439
10546SOL     OW32536   3.908   6.298   1.266
10546SOL    HW132537   3.942   6.347   1.186
10546SOL    HW232538   3.943   6.341   1.349
10547SOL     OW32539   4.717   1.405   4.079
10547SOL    HW132540   4.690   1.475   4.145
10547SOL    HW232541   4.719   1.316   4.124
10548SOL     OW32542   0.661   3.912   3.927
10548SOL    HW132543   0.599   3.973   3.976
10548SOL    HW232544   0.755   3.945   3.936
10549SOL     OW32545   0.391   1.160   0.957
10549SOL    HW132546   0.467   1.179   0.895
10549SOL    HW232547   0.410   1.077   1.010
10550SOL     OW32548   4.506   6.827   3.548
10550SOL    HW132549   4.546   6.897   3.488
10550SOL    HW232550   4.497   6.741   3.498
10551SOL     OW32551   2.169   1.991   6.230
10551SOL    HW132552   2.111   1.910   6.221
10551SOL    HW232553   2.262   1.964   6.252
10552SOL     OW32554   2.431   0.886   5.129
10552SOL    HW132555   2.503   0.952   5.150
10552SOL    HW232556   2.404   0.838   5.212
10553SOL     OW32557   0.133   4.415   0.761
10553SOL    HW132558   0.111   4.513   0.756
10553SOL    HW232559   0.057   4.362   0.724
10554SOL     OW32560   5.250   5.326   2.745
10554SOL    HW132561   5.332   5.269   2.735
10554SOL    HW232562   5.276   5.413   2.787
10555SOL     OW32563   2.727   2.307   0.621
10555SOL    HW132564   2.745   2.301   0.719
10555SOL    HW232565   2.812   2.292   0.570
10556SOL     OW32566   3.095   1.108   3.726
10556SOL    HW132567   3.112   1.012   3.748
10556SOL    HW232568   3.173   1.146   3.677
10557SOL     OW32569   1.590   3.082   4.233
10557SOL    HW132570   1.521   3.095   4.163
10557SOL    HW232571   1.680   3.103   4.196
10558SOL     OW32572   3.594   5.647   6.029
10558SOL    HW132573   3.620   5.652   5.933
10558SOL    HW232574   3.635   5.567   6.071
10559SOL     OW32575   4.001   0.610   1.220
10559SOL    HW132576   4.033   0.666   1.297
10559SOL    HW232577   3.947   0.667   1.158
10560SOL     OW32578   4.338   6.123   2.249
10560SOL    HW132579   4.369   6.060   2.321
10560SOL    HW232580   4.239   6.116   2.239
10561SOL     OW32581   3.703   4.338   1.695
10561SOL    HW132582   3.738   4.301   1.781
10561SOL    HW232583   3.758   4.302   1.619
10562SOL     OW32584   4.189   5.933   0.174
10562SOL    HW132585   4.119   5.869   0.207
10562SOL    HW232586   4.157   5.978   0.091
10563SOL     OW32587   0.724   0.852   1.335
10563SOL    HW132588   0.790   0.778   1.322
10563SOL    HW232589   0.729   0.915   1.257
10564SOL     OW32590   6.168   6.341   4.052
10564SOL    HW132591   6.246   6.283   4.074
10564SOL    HW232592   6.199   6.418   3.996
10565SOL     OW32593   6.882   6.416   5.474
10565SOL    HW132594   6.798   6.364   5.489
10565SOL    HW232595   6.915   6.451   5.561
10566SOL     OW32596   3.090   2.015   6.818
10566SOL    HW132597   3.090   2.113   6.837
10566SOL    HW232598   3.094   2.000   6.720
10567SOL     OW32599   2.255   2.660   5.823
10567SOL    HW132600   2.329   2.681   5.758
10567SOL    HW232601   2.234   2.562   5.819
10568SOL     OW32602   6.046   2.599   0.069
10568SOL    HW132603   5.963   2.649   0.094
10568SOL    HW232604   6.062   2.525   0.135
10569SOL     OW32605   5.538   0.508   1.515
10569SOL    HW132606   5.507   0.519   1.421
10569SOL    HW232607   5.464   0.469   1.570
10570SOL     OW32608   1.699   4.949   3.399
10570SOL    HW132609   1.772   4.880   3.394
10570SOL    HW232610   1.703   4.995   3.488
10571SOL     OW32611   6.910   3.977   5.062
10571SOL    HW132612   6.855   4.003   5.141
10571SOL    HW232613   6.996   4.027   5.062
10572SOL     OW32614   0.178   5.077   2.297
10572SOL    HW132615   0.234   5.157   2.319
10572SOL    HW232616   0.133   5.044   2.380
10573SOL     OW32617   4.937   0.650   5.093
10573SOL    HW132618   4.946   0.587   5.016
10573SOL    HW232619   5.011   0.633   5.159
10574SOL     OW32620   6.579   1.311   3.835
10574SOL    HW132621   6.490   1.352   3.856
10574SOL    HW232622   6.651   1.363   3.881
10575SOL     OW32623   5.907   1.306   3.864
10575SOL    HW132624   5.943   1.216   3.838
10575SOL    HW232625   5.809   1.310   3.842
10576SOL     OW32626   1.454   5.292   2.718
10576SOL    HW132627   1.402   5.225   2.664
10576SOL    HW232628   1.531   5.247   2.763
10577SOL     OW32629   2.231   4.880   0.709
10577SOL    HW132630   2.177   4.855   0.789
10577SOL    HW232631   2.305   4.814   0.696
10578SOL     OW32632   4.765   0.952   3.299
10578SOL    HW132633   4.718   1.022   3.354
10578SOL    HW232634   4.707   0.871   3.293
10579SOL     OW32635   3.548   3.040   1.486
10579SOL    HW132636   3.580   2.948   1.467
10579SOL    HW232637   3.457   3.053   1.447
10580SOL     OW32638   6.572   6.354   6.368
10580SOL    HW132639   6.545   6.382   6.460
10580SOL    HW232640   6.643   6.415   6.334
10581SOL     OW32641   5.259   0.101   3.011
10581SOL    HW132642   5.315   0.180   3.034
10581SOL    HW232643   5.307   0.044   2.945
10582SOL     OW32644   5.235   4.470   6.357
10582SOL    HW132645   5.225   4.569   6.364
10582SOL    HW232646   5.195   4.426   6.438
10583SOL     OW32647   4.485   0.136   4.331
10583SOL    HW132648   4.398   0.089   4.347
10583SOL    HW232649   4.555   0.070   4.304
10584SOL     OW32650   6.620   0.147   6.725
10584SOL    HW132651   6.604   0.182   6.817
10584SOL    HW232652   6.699   0.084   6.726
10585SOL     OW32653   2.061   2.059   5.734
10585SOL    HW132654   2.044   2.129   5.664
10585SOL    HW232655   2.094   2.104   5.818
10586SOL     OW32656   5.072   4.756   5.310
10586SOL    HW132657   5.154   4.734   5.363
10586SOL    HW232658   5.007   4.681   5.317
10587SOL     OW32659   6.925   5.497   6.789
10587SOL    HW132660   6.931   5.397   6.781
10587SOL    HW232661   6.833   5.523   6.818
10588SOL     OW32662   1.964   1.747   5.249
10588SOL    HW132663   1.878   1.777   5.289
10588SOL    HW232664   1.954   1.743   5.149
10589SOL     OW32665   5.227   0.091   4.434
10589SOL    HW132666   5.193   0.003   4.400
10589SOL    HW232667   5.251   0.149   4.357
10590SOL     OW32668   0.082   6.641   1.852
10590SOL    HW132669   0.115   6.585   1.776
10590SOL    HW232670   7.002   6.621   1.869
10591SOL     OW32671   2.173   1.875   1.071
10591SOL    HW132672   2.077   1.846   1.076
10591SOL    HW232673   2.216   1.836   0.990
10592SOL     OW32674   5.797   2.673   4.455
10592SOL    HW132675   5.720   2.737   4.455
10592SOL    HW232676   5.795   2.617   4.372
10593SOL     OW32677   1.846   6.278   0.497
10593SOL    HW132678   1.801   6.336   0.430
10593SOL    HW232679   1.779   6.242   0.561
10594SOL     OW32680   4.156   1.888   3.017
10594SOL    HW132681   4.255   1.900   3.028
10594SOL    HW232682   4.123   1.824   3.086
10595SOL     OW32683   6.158   0.046   6.914
10595SOL    HW132684   6.217   6.994   6.872
10595SOL    HW232685   6.076   0.058   6.859
10596SOL     OW32686   5.113   0.555   6.893
10596SOL    HW132687   5.132   0.490   6.819
10596SOL    HW232688   5.038   0.522   6.949
10597SOL     OW32689   2.224   0.600   5.238
10597SOL    HW132690   2.156   0.673   5.237
10597SOL    HW232691   2.244   0.571   5.144
10598SOL     OW32692   2.833   2.374   6.631
10598SOL    HW132693   2.893   2.450   6.605
10598SOL    HW232694   2.738   2.404   6.626
10599SOL     OW32695   6.448   3.823   6.339
10599SOL    HW132696   6.388   3.903   6.330
10599SOL    HW232697   6.445   3.790   6.433
10600SOL     OW32698   3.715   1.973   1.191
10600SOL    HW132699   3.638   1.969   1.254
10600SOL    HW232700   3.777   1.896   1.209
10601SOL     OW32701   1.260   4.895   5.277
10601SOL    HW132702   1.348   4.919   5.318
10601SOL    HW232703   1.276   4.852   5.188
10602SOL     OW32704   1.109   1.496   0.912
10602SOL    HW132705   1.147   1.455   0.995
10602SOL    HW232706   1.077   1.424   0.851
10603SOL     OW32707   4.964   6.939   3.515
10603SOL    HW132708   4.950   6.869   3.445
10603SOL    HW232709   5.027   6.904   3.585
10604SOL     OW32710   0.281   5.784   5.018
10604SOL    HW132711   0.305   5.828   5.104
10604SOL    HW232712   0.340   5.819   4.945
10605SOL     OW32713   1.939   0.160   6.760
10605SOL    HW132714   1.888   0.077   6.734
10605SOL    HW232715   1.957   0.215   6.678
10606SOL     OW32716   6.629   1.201   1.661
10606SOL    HW132717   6.697   1.197   1.587
10606SOL    HW232718   6.661   1.148   1.739
10607SOL     OW32719   3.838   4.773   0.372
10607SOL    HW132720   3.836   4.794   0.470
10607SOL    HW232721   3.746   4.787   0.334
10608SOL     OW32722   6.990   3.498   3.322
10608SOL    HW132723   6.928   3.575   3.337
10608SOL    HW232724   6.946   3.430   3.264
10609SOL     OW32725   2.417   0.043   6.850
10609SOL    HW132726   2.491   0.077   6.908
10609SOL    HW232727   2.329   0.069   6.891
10610SOL     OW32728   0.095   1.820   4.299
10610SOL    HW132729   0.174   1.814   4.238
10610SOL    HW232730   0.064   1.728   4.322
10611SOL     OW32731   2.526   5.215   5.855
10611SOL    HW132732   2.569   5.144   5.800
10611SOL    HW232733   2.596   5.271   5.899
10612SOL     OW32734   5.025   2.291   4.314
10612SOL    HW132735   5.014   2.388   4.337
10612SOL    HW232736   4.935   2.250   4.297
10613SOL     OW32737   6.431   5.737   4.911
10613SOL    HW132738   6.523   5.775   4.914
10613SOL    HW232739   6.431   5.655   4.853
10614SOL     OW32740   5.178   1.209   4.390
10614SOL    HW132741   5.213   1.201   4.484
10614SOL    HW232742   5.237   1.270   4.337
10615SOL     OW32743   3.440   0.859   5.533
10615SOL    HW132744   3.457   0.929   5.602
10615SOL    HW232745   3.519   0.797   5.529
10616SOL     OW32746   3.184   6.398   6.739
10616SOL    HW132747   3.157   6.320   6.682
10616SOL    HW232748   3.231   6.365   6.821
10617SOL     OW32749   2.409   4.536   1.567
10617SOL    HW132750   2.494   4.488   1.590
10617SOL    HW232751   2.331   4.479   1.592
10618SOL     OW32752   0.885   5.222   5.685
10618SOL    HW132753   0.811   5.214   5.753
10618SOL    HW232754   0.970   5.245   5.732
10619SOL     OW32755   0.851   2.844   3.220
10619SOL    HW132756   0.862   2.849   3.121
10619SOL    HW232757   0.814   2.930   3.255
10620SOL     OW32758   1.280   6.896   5.254
10620SOL    HW132759   1.263   6.836   5.176
10620SOL    HW232760   1.378   6.897   5.275
10621SOL     OW32761   0.397   4.292   1.921
10621SOL    HW132762   0.313   4.239   1.908
10621SOL    HW232763   0.383   4.359   1.994
10622SOL     OW32764   4.585   2.236   1.765
10622SOL    HW132765   4.642   2.223   1.684
10622SOL    HW232766   4.594   2.330   1.797
10623SOL     OW32767   6.455   5.677   5.597
10623SOL    HW132768   6.395   5.683   5.678
10623SOL    HW232769   6.537   5.626   5.621
10624SOL     OW32770   0.436   2.415   5.316
10624SOL    HW132771   0.383   2.480   5.371
10624SOL    HW232772   0.481   2.349   5.376
10625SOL     OW32773   0.436   4.130   1.389
10625SOL    HW132774   0.457   4.228   1.389
10625SOL    HW232775   0.487   4.085   1.462
10626SOL     OW32776   3.055   2.719   1.021
10626SOL    HW132777   3.079   2.764   0.934
10626SOL    HW232778   3.101   2.765   1.096
10627SOL     OW32779   6.321   0.862   6.623
10627SOL    HW132780   6.307   0.845   6.526
10627SOL    HW232781   6.232   0.868   6.669
10628SOL     OW32782   4.592   6.892   1.291
10628SOL    HW132783   4.662   6.948   1.245
10628SOL    HW232784   4.631   6.851   1.373
10629SOL     OW32785   3.089   4.924   4.668
10629SOL    HW132786   3.053   4.868   4.743
10629SOL    HW232787   3.014   4.974   4.625
10630SOL     OW32788   5.815   1.370   2.505
10630SOL    HW132789   5.790   1.361   2.409
10630SOL    HW232790   5.882   1.300   2.529
10631SOL     OW32791   3.805   4.410   5.402
10631SOL    HW132792   3.752   4.404   5.486
10631SOL    HW232793   3.788   4.498   5.358
10632SOL     OW32794   5.039   6.275   3.679
10632SOL    HW132795   5.057   6.177   3.694
10632SOL    HW232796   4.945   6.296   3.703
10633SOL     OW32797   2.402   2.589   1.243
10633SOL    HW132798   2.426   2.509   1.188
10633SOL    HW232799   2.467   2.663   1.226
10634SOL     OW32800   1.672   5.363   0.528
10634SOL    HW132801   1.697   5.444   0.580
10634SOL    HW232802   1.579   5.334   0.553
10635SOL     OW32803   2.048   3.355   6.517
10635SOL    HW132804   1.977   3.409   6.562
10635SOL    HW232805   2.007   3.296   6.448
10636SOL     OW32806   6.886   2.424   1.589
10636SOL    HW132807   6.802   2.455   1.545
10636SOL    HW232808   6.897   2.326   1.576
10637SOL     OW32809   1.336   5.426   6.382
10637SOL    HW132810   1.375   5.336   6.404
10637SOL    HW232811   1.297   5.425   6.290
10638SOL     OW32812   5.095   6.218   3.006
10638SOL    HW132813   5.002   6.230   3.040
10638SOL    HW232814   5.158   6.275   3.059
10639SOL     OW32815   1.865   3.594   2.278
10639SOL    HW132816   1.805   3.532   2.329
10639SOL    HW232817   1.848   3.688   2.307
10640SOL     OW32818   4.877   0.502   3.588
10640SOL    HW132819   4.842   0.469   3.675
10640SOL    HW232820   4.881   0.602   3.588
10641SOL     OW32821   2.155   1.630   2.995
10641SOL    HW132822   2.111   1.546   3.028
10641SOL    HW232823   2.223   1.660   3.062
10642SOL     OW32824   6.142   1.617   0.411
10642SOL    HW132825   6.146   1.574   0.321
10642SOL    HW232826   6.234   1.648   0.437
10643SOL     OW32827   2.165   6.263   5.459
10643SOL    HW132828   2.088   6.232   5.515
10643SOL    HW232829   2.159   6.223   5.368
10644SOL     OW32830   5.445   3.346   1.618
10644SOL    HW132831   5.358   3.394   1.628
10644SOL    HW232832   5.440   3.257   1.663
10645SOL     OW32833   2.281   2.691   4.098
10645SOL    HW132834   2.315   2.740   4.178
10645SOL    HW232835   2.181   2.698   4.094
10646SOL     OW32836   6.893   0.476   6.382
10646SOL    HW132837   6.912   0.561   6.431
10646SOL    HW232838   6.936   0.400   6.430
10647SOL     OW32839   3.501   5.263   5.199
10647SOL    HW132840   3.501   5.163   5.202
10647SOL    HW232841   3.409   5.297   5.214
10648SOL     OW32842   5.957   5.118   6.121
10648SOL    HW132843   5.980   5.020   6.120
10648SOL    HW232844   5.862   5.129   6.148
10649SOL     OW32845   0.671   3.516   3.090
10649SOL    HW132846   0.750   3.457   3.107
10649SOL    HW232847   0.613   3.475   3.020
10650SOL     OW32848   0.664   0.747   4.165
10650SOL    HW132849   0.606   0.680   4.211
10650SOL    HW232850   0.698   0.709   4.079
10651SOL     OW32851   6.294   5.610   5.842
10651SOL    HW132852   6.214   5.670   5.839
10651SOL    HW232853   6.287   5.547   5.919
10652SOL     OW32854   2.160   0.062   6.532
10652SOL    HW132855   2.090   0.050   6.462
10652SOL    HW232856   2.186   6.990   6.569
10653SOL     OW32857   4.083   6.172   5.302
10653SOL    HW132858   4.123   6.083   5.326
10653SOL    HW232859   4.073   6.178   5.203
10654SOL     OW32860   5.024   0.670   6.072
10654SOL    HW132861   5.039   0.692   5.975
10654SOL    HW232862   5.045   0.750   6.128
10655SOL     OW32863   1.698   4.821   0.195
10655SOL    HW132864   1.692   4.766   0.279
10655SOL    HW232865   1.770   4.784   0.136
10656SOL     OW32866   6.769   1.150   2.285
10656SOL    HW132867   6.743   1.246   2.283
10656SOL    HW232868   6.764   1.112   2.192
10657SOL     OW32869   5.583   0.707   4.683
10657SOL    HW132870   5.518   0.762   4.736
10657SOL    HW232871   5.576   0.731   4.586
10658SOL     OW32872   6.057   4.069   4.829
10658SOL    HW132873   6.036   3.973   4.845
10658SOL    HW232874   6.051   4.089   4.732
10659SOL     OW32875   1.137   5.188   0.539
10659SOL    HW132876   1.046   5.149   0.529
10659SOL    HW232877   1.197   5.152   0.467
10660SOL     OW32878   5.990   3.508   5.956
10660SOL    HW132879   5.955   3.430   5.905
10660SOL    HW232880   5.967   3.593   5.908
10661SOL     OW32881   1.534   6.484   0.927
10661SOL    HW132882   1.565   6.420   0.856
10661SOL    HW232883   1.473   6.551   0.887
10662SOL     OW32884   4.404   0.440   2.364
10662SOL    HW132885   4.381   0.460   2.459
10662SOL    HW232886   4.468   0.363   2.360
10663SOL     OW32887   0.576   0.880   2.710
10663SOL    HW132888   0.612   0.922   2.626
10663SOL    HW232889   0.525   0.797   2.686
10664SOL     OW32890   6.352   4.346   5.258
10664SOL    HW132891   6.433   4.303   5.298
10664SOL    HW232892   6.345   4.320   5.162
10665SOL     OW32893   1.442   1.948   0.173
10665SOL    HW132894   1.406   1.922   0.263
10665SOL    HW232895   1.390   1.901   0.102
10666SOL     OW32896   3.076   4.032   1.958
10666SOL    HW132897   2.994   4.066   1.912
10666SOL    HW232898   3.147   4.103   1.958
10667SOL     OW32899   4.567   2.503   3.365
10667SOL    HW132900   4.583   2.474   3.271
10667SOL    HW232901   4.480   2.465   3.397
10668SOL     OW32902   2.867   1.486   4.801
10668SOL    HW132903   2.940   1.429   4.764
10668SOL    HW232904   2.783   1.470   4.750
10669SOL     OW32905   6.017   0.634   1.346
10669SOL    HW132906   6.097   0.690   1.322
10669SOL    HW232907   5.982   0.588   1.264
10670SOL     OW32908   5.492   4.417   4.738
10670SOL    HW132909   5.484   4.336   4.797
10670SOL    HW232910   5.585   4.424   4.703
10671SOL     OW32911   1.908   1.940   4.294
10671SOL    HW132912   1.822   1.901   4.328
10671SOL    HW232913   1.907   2.039   4.306
10672SOL     OW32914   6.736   4.482   1.763
10672SOL    HW132915   6.790   4.400   1.777
10672SOL    HW232916   6.652   4.476   1.817
10673SOL     OW32917   0.585   1.191   0.111
10673SOL    HW132918   0.505   1.246   0.090
10673SOL    HW232919   0.616   1.143   0.029
10674SOL     OW32920   4.142   3.619   4.140
10674SOL    HW132921   4.164   3.529   4.103
10674SOL    HW232922   4.070   3.661   4.085
10675SOL     OW32923   2.065   0.344   6.551
10675SOL    HW132924   2.120   0.424   6.527
10675SOL    HW232925   2.111   0.261   6.520
10676SOL     OW32926   0.390   5.855   5.273
10676SOL    HW132927   0.342   5.926   5.326
10676SOL    HW232928   0.443   5.899   5.200
10677SOL     OW32929   1.194   0.598   1.701
10677SOL    HW132930   1.149   0.687   1.701
10677SOL    HW232931   1.235   0.582   1.791
10678SOL     OW32932   4.733   5.292   4.503
10678SOL    HW132933   4.748   5.250   4.414
10678SOL    HW232934   4.689   5.381   4.491
10679SOL     OW32935   3.944   5.647   6.671
10679SOL    HW132936   3.973   5.738   6.644
10679SOL    HW232937   3.894   5.652   6.758
10680SOL     OW32938   3.767   2.109   4.303
10680SOL    HW132939   3.770   2.108   4.203
10680SOL    HW232940   3.677   2.141   4.333
10681SOL     OW32941   0.054   3.781   0.694
10681SOL    HW132942   0.035   3.755   0.600
10681SOL    HW232943   0.124   3.852   0.696
10682SOL     OW32944   6.974   1.837   5.626
10682SOL    HW132945   6.965   1.906   5.555
10682SOL    HW232946   0.011   1.873   5.702
10683SOL     OW32947   4.855   0.992   3.907
10683SOL    HW132948   4.945   1.002   3.951
10683SOL    HW232949   4.867   0.957   3.814
10684SOL     OW32950   4.824   4.767   2.868
10684SOL    HW132951   4.743   4.721   2.832
10684SOL    HW232952   4.857   4.719   2.949
10685SOL     OW32953   0.768   5.820   1.519
10685SOL    HW132954   0.733   5.728   1.537
10685SOL    HW232955   0.764   5.839   1.421
10686SOL     OW32956   1.264   3.829   5.955
10686SOL    HW132957   1.302   3.764   6.021
10686SOL    HW232958   1.324   3.833   5.875
10687SOL     OW32959   6.107   5.278   4.197
10687SOL    HW132960   6.021   5.230   4.180
10687SOL    HW232961   6.182   5.212   4.196
10688SOL     OW32962   5.892   3.246   2.964
10688SOL    HW132963   5.940   3.231   2.877
10688SOL    HW232964   5.852   3.337   2.964
10689SOL     OW32965   0.033   0.314   3.111
10689SOL    HW132966   6.986   0.269   3.174
10689SOL    HW232967   0.118   0.260   3.106
10690SOL     OW32968   0.466   5.621   4.004
10690SOL    HW132969   0.450   5.673   4.087
10690SOL    HW232970   0.506   5.681   3.934
10691SOL     OW32971   1.442   1.791   2.542
10691SOL    HW132972   1.446   1.755   2.448
10691SOL    HW232973   1.534   1.795   2.580
10692SOL     OW32974   2.429   6.795   4.181
10692SOL    HW132975   2.348   6.853   4.182
10692SOL    HW232976   2.461   6.783   4.087
10693SOL     OW32977   1.311   6.002   1.135
10693SOL    HW132978   1.374   6.049   1.197
10693SOL    HW232979   1.331   6.028   1.041
10694SOL     OW32980   5.266   6.417   0.171
10694SOL    HW132981   5.299   6.499   0.125
10694SOL    HW232982   5.246   6.347   0.103
10695SOL     OW32983   0.952   2.376   2.749
10695SOL    HW132984   0.968   2.441   2.824
10695SOL    HW232985   0.996   2.409   2.666
10696SOL     OW32986   6.843   4.636   3.408
10696SOL    HW132987   6.814   4.603   3.318
10696SOL    HW232988   6.940   4.616   3.421
10697SOL     OW32989   0.505   6.545   5.356
10697SOL    HW132990   0.426   6.523   5.413
10697SOL    HW232991   0.583   6.491   5.386
10698SOL     OW32992   5.745   4.610   7.016
10698SOL    HW132993   5.676   4.607   0.071
10698SOL    HW232994   5.799   4.526   0.002
10699SOL     OW32995   3.916   4.581   1.649
10699SOL    HW132996   3.929   4.559   1.745
10699SOL    HW232997   3.956   4.508   1.592
10700SOL     OW32998   5.712   6.415   0.626
10700SOL    HW132999   5.804   6.423   0.665
10700SOL    HW233000   5.646   6.401   0.700
10701SOL     OW33001   2.669   6.734   6.598
10701SOL    HW133002   2.665   6.830   6.624
10701SOL    HW233003   2.576   6.697   6.591
10702SOL     OW33004   5.313   3.083   1.510
10702SOL    HW133005   5.373   3.136   1.449
10702SOL    HW233006   5.363   3.057   1.592
10703SOL     OW33007   2.689   3.168   5.268
10703SOL    HW133008   2.622   3.110   5.222
10703SOL    HW233009   2.735   3.226   5.200
10704SOL     OW33010   5.562   5.528   2.325
10704SOL    HW133011   5.558   5.431   2.348
10704SOL    HW233012   5.485   5.552   2.265
10705SOL     OW33013   6.240   5.064   1.897
10705SOL    HW133014   6.168   5.049   1.829
10705SOL    HW233015   6.301   4.984   1.899
10706SOL     OW33016   4.504   0.772   2.550
10706SOL    HW133017   4.522   0.744   2.645
10706SOL    HW233018   4.574   0.731   2.491
10707SOL     OW33019   7.003   0.180   4.422
10707SOL    HW133020   6.916   0.190   4.469
10707SOL    HW233021   0.059   0.167   4.489
10708SOL     OW33022   3.872   1.190   1.422
10708SOL    HW133023   3.929   1.263   1.460
10708SOL    HW233024   3.885   1.187   1.323
10709SOL     OW33025   5.335   5.027   5.526
10709SOL    HW133026   5.324   4.931   5.498
10709SOL    HW233027   5.292   5.040   5.615
10710SOL     OW33028   6.941   0.535   4.316
10710SOL    HW133029   7.000   0.584   4.252
10710SOL    HW233030   6.996   0.470   4.368
10711SOL     OW33031   1.850   6.829   4.523
10711SOL    HW133032   1.800   6.745   4.546
10711SOL    HW233033   1.787   6.893   4.478
10712SOL     OW33034   2.895   0.496   1.677
10712SOL    HW133035   2.858   0.580   1.637
10712SOL    HW233036   2.875   0.418   1.617
10713SOL     OW33037   0.571   3.434   2.271
10713SOL    HW133038   0.520   3.413   2.354
10713SOL    HW233039   0.594   3.531   2.269
10714SOL     OW33040   5.689   3.267   5.016
10714SOL    HW133041   5.685   3.308   5.107
10714SOL    HW233042   5.631   3.319   4.954
10715SOL     OW33043   5.368   0.621   2.787
10715SOL    HW133044   5.362   0.664   2.697
10715SOL    HW233045   5.315   0.675   2.853
10716SOL     OW33046   5.964   2.139   3.633
10716SOL    HW133047   5.910   2.163   3.713
10716SOL    HW233048   5.906   2.095   3.565
10717SOL     OW33049   0.742   2.091   1.632
10717SOL    HW133050   0.750   2.003   1.585
10717SOL    HW233051   0.656   2.135   1.606
10718SOL     OW33052   1.596   2.918   6.786
10718SOL    HW133053   1.678   2.961   6.747
10718SOL    HW233054   1.593   2.937   6.885
10719SOL     OW33055   6.451   5.625   2.676
10719SOL    HW133056   6.381   5.676   2.624
10719SOL    HW233057   6.527   5.686   2.698
10720SOL     OW33058   0.642   4.387   4.874
10720SOL    HW133059   0.614   4.299   4.836
10720SOL    HW233060   0.564   4.432   4.918
10721SOL     OW33061   5.752   3.769   5.025
10721SOL    HW133062   5.839   3.800   4.987
10721SOL    HW233063   5.769   3.707   5.102
10722SOL     OW33064   0.843   5.218   6.961
10722SOL    HW133065   0.853   5.150   6.889
10722SOL    HW233066   0.841   5.172   0.033
10723SOL     OW33067   0.364   3.120   5.588
10723SOL    HW133068   0.347   3.217   5.569
10723SOL    HW233069   0.285   3.082   5.637
10724SOL     OW33070   5.998   1.316   6.509
10724SOL    HW133071   6.082   1.336   6.559
10724SOL    HW233072   5.930   1.278   6.572
10725SOL     OW33073   1.055   5.716   4.476
10725SOL    HW133074   0.995   5.684   4.549
10725SOL    HW233075   1.070   5.643   4.410
10726SOL     OW33076   5.584   0.239   5.442
10726SOL    HW133077   5.532   0.266   5.523
10726SOL    HW233078   5.675   0.208   5.469
10727SOL     OW33079   0.136   4.918   5.337
10727SOL    HW133080   0.124   4.982   5.261
10727SOL    HW233081   0.162   4.828   5.300
10728SOL     OW33082   0.177   5.936   6.736
10728SOL    HW133083   0.218   5.901   6.821
10728SOL    HW233084   0.194   6.034   6.728
10729SOL     OW33085   5.309   1.428   1.658
10729SOL    HW133086   5.257   1.501   1.613
10729SOL    HW233087   5.407   1.443   1.642
10730SOL     OW33088   2.134   0.606   1.400
10730SOL    HW133089   2.046   0.605   1.447
10730SOL    HW233090   2.159   0.513   1.372
10731SOL     OW33091   2.999   6.071   0.655
10731SOL    HW133092   2.911   6.103   0.689
10731SOL    HW233093   3.014   6.108   0.563
10732SOL     OW33094   6.320   5.074   4.190
10732SOL    HW133095   6.249   5.003   4.194
10732SOL    HW233096   6.368   5.068   4.103
10733SOL     OW33097   6.707   1.724   1.016
10733SOL    HW133098   6.720   1.723   0.917
10733SOL    HW233099   6.722   1.632   1.052
10734SOL     OW33100   1.036   0.531   0.122
10734SOL    HW133101   1.035   0.583   0.037
10734SOL    HW233102   0.943   0.505   0.146
10735SOL     OW33103   0.923   2.898   2.952
10735SOL    HW133104   0.968   2.964   3.013
10735SOL    HW233105   0.990   2.862   2.887
10736SOL     OW33106   1.569   0.436   3.113
10736SOL    HW133107   1.559   0.377   3.033
10736SOL    HW233108   1.607   0.382   3.189
10737SOL     OW33109   1.902   1.855   1.084
10737SOL    HW133110   1.893   1.930   1.150
10737SOL    HW233111   1.830   1.863   1.015
10738SOL     OW33112   2.548   0.229   3.311
10738SOL    HW133113   2.489   0.308   3.326
10738SOL    HW233114   2.636   0.243   3.356
10739SOL     OW33115   0.975   1.851   0.966
10739SOL    HW133116   0.957   1.772   1.024
10739SOL    HW233117   0.895   1.872   0.910
10740SOL     OW33118   0.121   4.136   5.006
10740SOL    HW133119   0.178   4.195   5.063
10740SOL    HW233120   0.142   4.153   4.910
10741SOL     OW33121   5.690   6.858   1.104
10741SOL    HW133122   5.670   6.849   1.007
10741SOL    HW233123   5.604   6.857   1.156
10742SOL     OW33124   5.184   0.773   0.807
10742SOL    HW133125   5.148   0.720   0.885
10742SOL    HW233126   5.170   0.871   0.825
10743SOL     OW33127   2.510   1.455   5.061
10743SOL    HW133128   2.499   1.554   5.059
10743SOL    HW233129   2.581   1.430   5.127
10744SOL     OW33130   3.334   1.625   0.893
10744SOL    HW133131   3.425   1.613   0.931
10744SOL    HW233132   3.269   1.644   0.966
10745SOL     OW33133   0.358   5.336   6.650
10745SOL    HW133134   0.427   5.331   6.723
10745SOL    HW233135   0.403   5.355   6.563
10746SOL     OW33136   1.900   4.346   1.150
10746SOL    HW133137   1.869   4.437   1.125
10746SOL    HW233138   1.825   4.297   1.194
10747SOL     OW33139   4.465   0.832   3.730
10747SOL    HW133140   4.408   0.754   3.758
10747SOL    HW233141   4.560   0.815   3.756
10748SOL     OW33142   4.827   1.173   1.165
10748SOL    HW133143   4.863   1.265   1.177
10748SOL    HW233144   4.815   1.155   1.068
10749SOL     OW33145   0.710   5.780   2.791
10749SOL    HW133146   0.701   5.701   2.853
10749SOL    HW233147   0.807   5.794   2.771
10750SOL     OW33148   4.627   5.928   5.172
10750SOL    HW133149   4.710   5.945   5.224
10750SOL    HW233150   4.595   6.014   5.131
10751SOL     OW33151   1.819   4.438   4.249
10751SOL    HW133152   1.826   4.339   4.254
10751SOL    HW233153   1.883   4.473   4.180
10752SOL     OW33154   6.157   3.839   6.412
10752SOL    HW133155   6.151   3.740   6.421
10752SOL    HW233156   6.084   3.872   6.353
10753SOL     OW33157   4.933   5.739   4.303
10753SOL    HW133158   5.016   5.763   4.353
10753SOL    HW233159   4.855   5.743   4.365
10754SOL     OW33160   0.758   1.463   3.140
10754SOL    HW133161   0.785   1.551   3.101
10754SOL    HW233162   0.840   1.414   3.170
10755SOL     OW33163   6.867   1.001   6.584
10755SOL    HW133164   6.922   1.075   6.622
10755SOL    HW233165   6.783   0.991   6.636
10756SOL     OW33166   6.890   4.855   0.138
10756SOL    HW133167   6.909   4.794   0.061
10756SOL    HW233168   6.930   4.945   0.119
10757SOL     OW33169   1.322   3.168   0.254
10757SOL    HW133170   1.305   3.114   0.337
10757SOL    HW233171   1.421   3.178   0.242
10758SOL     OW33172   0.664   0.004   3.875
10758SOL    HW133173   0.605   0.003   3.956
10758SOL    HW233174   0.751   0.046   3.897
10759SOL     OW33175   1.529   3.225   1.000
10759SOL    HW133176   1.588   3.277   0.937
10759SOL    HW233177   1.435   3.228   0.967
10760SOL     OW33178   6.453   1.738   1.977
10760SOL    HW133179   6.491   1.725   2.069
10760SOL    HW233180   6.377   1.802   1.982
10761SOL     OW33181   0.749   0.445   6.312
10761SOL    HW133182   0.678   0.504   6.274
10761SOL    HW233183   0.817   0.500   6.360
10762SOL     OW33184   4.186   1.787   4.745
10762SOL    HW133185   4.120   1.776   4.670
10762SOL    HW233186   4.190   1.883   4.773
10763SOL     OW33187   5.108   6.414   2.669
10763SOL    HW133188   5.037   6.413   2.739
10763SOL    HW233189   5.069   6.385   2.582
10764SOL     OW33190   5.479   2.695   5.937
10764SOL    HW133191   5.386   2.663   5.952
10764SOL    HW233192   5.503   2.763   6.006
10765SOL     OW33193   5.406   1.946   0.392
10765SOL    HW133194   5.434   1.850   0.388
10765SOL    HW233195   5.432   1.984   0.480
10766SOL     OW33196   4.868   3.800   0.531
10766SOL    HW133197   4.924   3.865   0.583
10766SOL    HW233198   4.923   3.719   0.510
10767SOL     OW33199   1.225   0.796   0.087
10767SOL    HW133200   1.302   0.836   0.137
10767SOL    HW233201   1.214   0.700   0.115
10768SOL     OW33202   4.589   4.046   1.638
10768SOL    HW133203   4.528   4.080   1.710
10768SOL    HW233204   4.622   3.956   1.664
10769SOL     OW33205   2.611   4.683   4.857
10769SOL    HW133206   2.609   4.772   4.812
10769SOL    HW233207   2.694   4.675   4.913
10770SOL     OW33208   5.634   0.788   5.003
10770SOL    HW133209   5.589   0.817   5.088
10770SOL    HW233210   5.607   0.849   4.929
10771SOL     OW33211   6.242   0.623   3.561
10771SOL    HW133212   6.253   0.571   3.646
10771SOL    HW233213   6.278   0.570   3.485
10772SOL     OW33214   6.592   6.500   4.440
10772SOL    HW133215   6.579   6.404   4.415
10772SOL    HW233216   6.655   6.506   4.518
10773SOL     OW33217   6.429   5.515   6.944
10773SOL    HW133218   6.470   5.465   0.004
10773SOL    HW233219   6.345   5.561   6.974
10774SOL     OW33220   2.017   1.474   0.282
10774SOL    HW133221   2.026   1.486   0.381
10774SOL    HW233222   2.104   1.495   0.238
10775SOL     OW33223   0.019   5.023   0.685
10775SOL    HW133224   6.987   5.087   0.744
10775SOL    HW233225   7.009   4.929   0.708
10776SOL     OW33226   0.282   1.197   6.533
10776SOL    HW133227   0.209   1.265   6.546
10776SOL    HW233228   0.292   1.143   6.616
10777SOL     OW33229   3.226   5.399   3.164
10777SOL    HW133230   3.249   5.360   3.075
10777SOL    HW233231   3.144   5.456   3.155
10778SOL     OW33232   5.912   0.533   4.479
10778SOL    HW133233   5.884   0.522   4.384
10778SOL    HW233234   5.936   0.628   4.497
10779SOL     OW33235   6.708   3.702   3.894
10779SOL    HW133236   6.704   3.697   3.794
10779SOL    HW233237   6.656   3.782   3.925
10780SOL     OW33238   1.820   0.826   3.976
10780SOL    HW133239   1.832   0.871   3.887
10780SOL    HW233240   1.898   0.847   4.035
10781SOL     OW33241   4.420   1.032   3.545
10781SOL    HW133242   4.402   0.955   3.607
10781SOL    HW233243   4.428   0.998   3.452
10782SOL     OW33244   5.666   1.805   1.549
10782SOL    HW133245   5.575   1.787   1.511
10782SOL    HW233246   5.657   1.825   1.647
10783SOL     OW33247   0.613   3.539   3.372
10783SOL    HW133248   0.607   3.551   3.273
10783SOL    HW233249   0.574   3.450   3.397
10784SOL     OW33250   3.842   6.584   4.175
10784SOL    HW133251   3.866   6.673   4.213
10784SOL    HW233252   3.755   6.591   4.125
10785SOL     OW33253   0.327   4.623   1.053
10785SOL    HW133254   0.381   4.558   1.107
10785SOL    HW233255   0.230   4.598   1.058
10786SOL     OW33256   5.833   4.452   3.436
10786SOL    HW133257   5.924   4.456   3.477
10786SOL    HW233258   5.787   4.540   3.448
10787SOL     OW33259   1.919   1.380   4.614
10787SOL    HW133260   1.908   1.434   4.530
10787SOL    HW233261   2.010   1.396   4.652
10788SOL     OW33262   1.832   4.456   6.191
10788SOL    HW133263   1.876   4.367   6.200
10788SOL    HW233264   1.851   4.494   6.100
10789SOL     OW33265   0.227   2.953   6.738
10789SOL    HW133266   0.257   3.043   6.769
10789SOL    HW233267   0.305   2.904   6.699
10790SOL     OW33268   1.175   0.335   1.654
10790SOL    HW133269   1.191   0.431   1.679
10790SOL    HW233270   1.234   0.277   1.710
10791SOL     OW33271   6.942   0.164   1.127
10791SOL    HW133272   6.868   0.097   1.128
10791SOL    HW233273   7.014   0.135   1.190
10792SOL     OW33274   3.105   4.032   4.102
10792SOL    HW133275   3.057   4.055   4.187
10792SOL    HW233276   3.065   3.949   4.063
10793SOL     OW33277   5.402   3.450   4.426
10793SOL    HW133278   5.336   3.450   4.501
10793SOL    HW233279   5.361   3.406   4.345
10794SOL     OW33280   2.946   3.712   3.501
10794SOL    HW133281   2.925   3.631   3.445
10794SOL    HW233282   2.886   3.787   3.476
10795SOL     OW33283   6.518   5.004   2.113
10795SOL    HW133284   6.483   5.097   2.128
10795SOL    HW233285   6.454   4.954   2.055
10796SOL     OW33286   5.553   0.208   6.407
10796SOL    HW133287   5.486   0.135   6.395
10796SOL    HW233288   5.544   0.275   6.333
10797SOL     OW33289   4.166   2.954   1.761
10797SOL    HW133290   4.086   2.993   1.715
10797SOL    HW233291   4.235   3.025   1.773
10798SOL     OW33292   3.293   0.419   0.653
10798SOL    HW133293   3.318   0.400   0.748
10798SOL    HW233294   3.257   0.335   0.611
10799SOL     OW33295   3.833   0.819   1.612
10799SOL    HW133296   3.774   0.888   1.570
10799SOL    HW233297   3.817   0.817   1.711
10800SOL     OW33298   0.439   0.002   6.390
10800SOL    HW133299   0.363   0.063   6.411
10800SOL    HW233300   0.403   6.932   6.355
10801SOL     OW33301   0.543   6.228   6.213
10801SOL    HW133302   0.587   6.181   6.289
10801SOL    HW233303   0.501   6.161   6.152
10802SOL     OW33304   1.162   0.728   2.953
10802SOL    HW133305   1.162   0.767   2.861
10802SOL    HW233306   1.249   0.750   2.999
10803SOL     OW33307   2.493   4.562   6.213
10803SOL    HW133308   2.583   4.587   6.177
10803SOL    HW233309   2.426   4.563   6.139
10804SOL     OW33310   5.348   3.236   2.240
10804SOL    HW133311   5.369   3.311   2.177
10804SOL    HW233312   5.267   3.260   2.294
10805SOL     OW33313   4.271   6.524   6.837
10805SOL    HW133314   4.258   6.425   6.833
10805SOL    HW233315   4.183   6.570   6.827
10806SOL     OW33316   3.954   4.015   5.839
10806SOL    HW133317   3.887   4.065   5.784
10806SOL    HW233318   4.019   4.080   5.879
10807SOL     OW33319   1.406   6.985   2.370
10807SOL    HW133320   1.385   0.044   2.432
10807SOL    HW233321   1.322   6.954   2.326
10808SOL     OW33322   0.507   2.643   5.654
10808SOL    HW133323   0.553   2.650   5.566
10808SOL    HW233324   0.534   2.558   5.699
10809SOL     OW33325   2.886   4.806   3.338
10809SOL    HW133326   2.963   4.864   3.364
10809SOL    HW233327   2.897   4.777   3.243
10810SOL     OW33328   1.442   0.007   3.963
10810SOL    HW133329   1.496   6.941   3.979
10810SOL    HW233330   1.460   0.073   4.036
10811SOL     OW33331   3.861   3.917   6.596
10811SOL    HW133332   3.865   3.983   6.672
10811SOL    HW233333   3.811   3.958   6.520
10812SOL     OW33334   0.512   4.013   7.005
10812SOL    HW133335   0.504   3.947   0.063
10812SOL    HW233336   0.423   4.024   6.960
10813SOL     OW33337   1.688   4.461   6.413
10813SOL    HW133338   1.745   4.459   6.331
10813SOL    HW233339   1.610   4.400   6.401
10814SOL     OW33340   1.204   0.046   6.314
10814SOL    HW133341   1.274   6.992   6.310
10814SOL    HW233342   1.116   0.009   6.284
10815SOL     OW33343   4.553   4.352   3.349
10815SOL    HW133344   4.510   4.432   3.307
10815SOL    HW233345   4.600   4.300   3.278
10816SOL     OW33346   3.065   3.257   2.497
10816SOL    HW133347   2.980   3.278   2.449
10816SOL    HW233348   3.132   3.221   2.431
10817SOL     OW33349   4.536   0.717   2.853
10817SOL    HW133350   4.503   0.812   2.851
10817SOL    HW233351   4.459   0.655   2.835
10818SOL     OW33352   4.419   4.425   5.469
10818SOL    HW133353   4.409   4.351   5.535
10818SOL    HW233354   4.446   4.509   5.516
10819SOL     OW33355   6.506   4.793   6.253
10819SOL    HW133356   6.579   4.780   6.186
10819SOL    HW233357   6.448   4.869   6.225
10820SOL     OW33358   6.874   5.501   4.035
10820SOL    HW133359   6.895   5.561   3.958
10820SOL    HW233360   6.937   5.424   4.036
10821SOL     OW33361   4.789   0.354   2.812
10821SOL    HW133362   4.873   0.301   2.825
10821SOL    HW233363   4.726   0.335   2.887
10822SOL     OW33364   6.645   2.763   3.027
10822SOL    HW133365   6.729   2.815   3.012
10822SOL    HW233366   6.591   2.763   2.943
10823SOL     OW33367   1.304   0.518   1.939
10823SOL    HW133368   1.273   0.496   2.031
10823SOL    HW233369   1.354   0.604   1.940
10824SOL     OW33370   6.963   1.143   3.015
10824SOL    HW133371   0.036   1.185   3.025
10824SOL    HW233372   6.895   1.194   3.067
10825SOL     OW33373   2.441   1.874   6.314
10825SOL    HW133374   2.455   1.922   6.401
10825SOL    HW233375   2.404   1.783   6.332
10826SOL     OW33376   1.069   2.943   3.713
10826SOL    HW133377   0.996   2.971   3.651
10826SOL    HW233378   1.148   2.911   3.660
10827SOL     OW33379   0.089   3.071   4.093
10827SOL    HW133380   0.177   3.023   4.097
10827SOL    HW233381   0.027   3.021   4.033
10828SOL     OW33382   1.219   4.159   0.776
10828SOL    HW133383   1.264   4.169   0.865
10828SOL    HW233384   1.243   4.071   0.736
10829SOL     OW33385   4.713   2.624   0.081
10829SOL    HW133386   4.680   2.664   7.013
10829SOL    HW233387   4.657   2.657   0.157
10830SOL     OW33388   5.261   1.665   2.914
10830SOL    HW133389   5.260   1.728   2.991
10830SOL    HW233390   5.352   1.623   2.907
10831SOL     OW33391   2.932   6.185   3.167
10831SOL    HW133392   2.965   6.092   3.150
10831SOL    HW233393   2.950   6.242   3.087
10832SOL     OW33394   0.917   2.921   6.406
10832SOL    HW133395   1.000   2.975   6.416
10832SOL    HW233396   0.837   2.975   6.435
10833SOL     OW33397   0.555   0.603   1.982
10833SOL    HW133398   0.578   0.700   1.990
10833SOL    HW233399   0.635   0.552   1.954
10834SOL     OW33400   0.447   1.417   1.030
10834SOL    HW133401   0.423   1.321   1.018
10834SOL    HW233402   0.412   1.470   0.953
10835SOL     OW33403   5.439   2.678   0.513
10835SOL    HW133404   5.381   2.600   0.537
10835SOL    HW233405   5.446   2.739   0.592
10836SOL     OW33406   6.205   1.255   4.876
10836SOL    HW133407   6.278   1.317   4.904
10836SOL    HW233408   6.236   1.160   4.887
10837SOL     OW33409   6.494   5.277   1.242
10837SOL    HW133410   6.571   5.329   1.280
10837SOL    HW233411   6.483   5.192   1.292
10838SOL     OW33412   6.723   5.892   3.745
10838SOL    HW133413   6.655   5.946   3.695
10838SOL    HW233414   6.800   5.951   3.770
10839SOL     OW33415   4.429   3.112   1.678
10839SOL    HW133416   4.421   3.042   1.606
10839SOL    HW233417   4.490   3.078   1.749
10840SOL     OW33418   2.689   5.702   3.006
10840SOL    HW133419   2.659   5.795   2.986
10840SOL    HW233420   2.613   5.639   2.989
10841SOL     OW33421   6.378   5.239   5.499
10841SOL    HW133422   6.305   5.282   5.446
10841SOL    HW233423   6.399   5.295   5.579
10842SOL     OW33424   4.816   2.448   1.518
10842SOL    HW133425   4.835   2.546   1.515
10842SOL    HW233426   4.816   2.416   1.613
10843SOL     OW33427   1.155   1.662   1.802
10843SOL    HW133428   1.133   1.758   1.784
10843SOL    HW233429   1.255   1.651   1.810
10844SOL     OW33430   0.535   6.345   3.607
10844SOL    HW133431   0.535   6.445   3.610
10844SOL    HW233432   0.559   6.309   3.697
10845SOL     OW33433   3.291   6.643   5.519
10845SOL    HW133434   3.320   6.564   5.574
10845SOL    HW233435   3.336   6.640   5.430
10846SOL     OW33436   5.407   0.923   0.502
10846SOL    HW133437   5.411   0.850   0.570
10846SOL    HW233438   5.450   0.891   0.417
10847SOL     OW33439   3.723   2.835   6.482
10847SOL    HW133440   3.806   2.890   6.482
10847SOL    HW233441   3.689   2.826   6.388
10848SOL     OW33442   2.708   3.720   0.306
10848SOL    HW133443   2.710   3.647   0.238
10848SOL    HW233444   2.662   3.801   0.268
10849SOL     OW33445   2.084   4.805   4.038
10849SOL    HW133446   2.008   4.823   3.974
10849SOL    HW233447   2.049   4.805   4.131
10850SOL     OW33448   2.318   6.152   6.362
10850SOL    HW133449   2.219   6.133   6.368
10850SOL    HW233450   2.369   6.069   6.385
10851SOL     OW33451   1.859   3.436   0.165
10851SOL    HW133452   1.764   3.463   0.181
10851SOL    HW233453   1.916   3.469   0.240
10852SOL     OW33454   0.930   0.381   6.871
10852SOL    HW133455   1.000   0.441   6.910
10852SOL    HW233456   0.966   0.288   6.863
10853SOL     OW33457   1.813   2.114   5.511
10853SOL    HW133458   1.878   2.182   5.476
10853SOL    HW233459   1.778   2.143   5.600
10854SOL     OW33460   4.340   4.911   5.511
10854SOL    HW133461   4.373   4.986   5.567
10854SOL    HW233462   4.328   4.829   5.567
10855SOL     OW33463   3.972   0.609   0.850
10855SOL    HW133464   4.015   0.537   0.904
10855SOL    HW233465   3.893   0.645   0.900
10856SOL     OW33466   5.262   1.151   0.512
10856SOL    HW133467   5.329   1.077   0.513
10856SOL    HW233468   5.171   1.114   0.533
10857SOL     OW33469   6.910   2.222   3.361
10857SOL    HW133470   6.939   2.201   3.454
10857SOL    HW233471   6.892   2.137   3.312
10858SOL     OW33472   0.596   1.722   6.828
10858SOL    HW133473   0.676   1.679   6.784
10858SOL    HW233474   0.618   1.817   6.850
10859SOL     OW33475   1.242   4.238   4.341
10859SOL    HW133476   1.256   4.255   4.243
10859SOL    HW233477   1.330   4.221   4.384
10860SOL     OW33478   0.218   1.802   5.737
10860SOL    HW133479   0.256   1.787   5.646
10860SOL    HW233480   0.270   1.750   5.804
10861SOL     OW33481   3.570   3.604   3.379
10861SOL    HW133482   3.625   3.671   3.330
10861SOL    HW233483   3.485   3.587   3.328
10862SOL     OW33484   2.320   1.602   6.422
10862SOL    HW133485   2.342   1.518   6.471
10862SOL    HW233486   2.302   1.580   6.326
10863SOL     OW33487   4.167   0.648   4.254
10863SOL    HW133488   4.197   0.600   4.172
10863SOL    HW233489   4.129   0.737   4.229
10864SOL     OW33490   2.269   6.340   0.609
10864SOL    HW133491   2.233   6.259   0.655
10864SOL    HW233492   2.369   6.336   0.608
10865SOL     OW33493   0.033   1.203   1.762
10865SOL    HW133494   7.017   1.168   1.850
10865SOL    HW233495   0.051   1.301   1.769
10866SOL     OW33496   5.180   4.402   1.002
10866SOL    HW133497   5.227   4.366   0.922
10866SOL    HW233498   5.206   4.498   1.016
10867SOL     OW33499   3.382   4.047   6.813
10867SOL    HW133500   3.382   3.956   6.854
10867SOL    HW233501   3.475   4.071   6.787
10868SOL     OW33502   4.553   1.859   4.216
10868SOL    HW133503   4.456   1.859   4.239
10868SOL    HW233504   4.607   1.884   4.296
10869NA      NA33505   6.772   2.196   5.462
10870NA      NA33506   4.446   4.499   5.254
10871NA      NA33507   1.976   3.137   2.177
10872NA      NA33508   5.077   3.878   4.896
10873NA      NA33509   4.274   2.554   5.370
10874NA      NA33510   3.364   4.648   1.675
10875NA      NA33511   6.831   4.773   0.350
10876NA      NA33512   3.428   3.646   3.832
10877NA      NA33513   5.156   6.146   0.425
10878NA      NA33514   3.138   6.782   5.635
10879NA      NA33515   5.617   5.213   1.663
10880NA      NA33516   2.388   0.359   4.367
10881NA      NA33517   3.559   5.376   2.917
10882NA      NA33518   3.917   3.699   2.495
   7.01685   7.01685   7.01685
