Generated by trjconv : CNT in water t= 466.00000
33518
    1C        C    1   2.846   2.770   4.747
    1C        C    2   2.904   2.722   4.867
    1C        C    3   2.847   2.772   4.985
    1C        C    4   2.854   2.778   4.262
    1C        C    5   2.904   2.728   4.384
    1C        C    6   2.851   2.776   4.506
    1C        C    7   3.019   2.643   4.629
    1C        C    8   2.904   2.724   4.626
    1C        C    9   3.081   2.600   4.748
    1C        C   10   3.016   2.636   4.868
    1C        C   11   3.186   2.494   4.979
    1C        C   12   3.065   2.564   4.978
    1C        C   13   2.850   2.771   3.773
    1C        C   14   2.905   2.724   3.895
    1C        C   15   2.855   2.777   4.016
    1C        C   16   3.020   2.649   4.140
    1C        C   17   2.905   2.730   4.139
    1C        C   18   3.083   2.617   4.263
    1C        C   19   3.019   2.646   4.385
    1C        C   20   3.211   2.553   4.505
    1C        C   21   3.079   2.606   4.507
    1C        C   22   3.278   2.528   4.626
    1C        C   23   3.211   2.542   4.750
    1C        C   24   3.418   2.476   4.866
    1C        C   25   3.278   2.502   4.869
    1C        C   26   3.494   2.478   4.984
    1C        C   27   2.854   2.771   3.283
    1C        C   28   2.907   2.725   3.405
    1C        C   29   2.854   2.774   3.527
    1C        C   30   3.017   2.644   3.650
    1C        C   31   2.900   2.723   3.650
    1C        C   32   3.077   2.605   3.772
    1C        C   33   3.017   2.638   3.896
    1C        C   34   3.209   2.551   4.018
    1C        C   35   3.079   2.606   4.019
    1C        C   36   3.276   2.526   4.140
    1C        C   37   3.211   2.556   4.262
    1C        C   38   3.419   2.507   4.383
    1C        C   39   3.280   2.534   4.383
    1C        C   40   3.489   2.501   4.505
    1C        C   41   3.416   2.501   4.627
    1C        C   42   3.632   2.482   4.745
    1C        C   43   3.490   2.472   4.743
    1C        C   44   3.709   2.489   4.864
    1C        C   45   3.633   2.473   4.980
    1C        C   46   2.841   2.756   2.793
    1C        C   47   2.899   2.713   2.915
    1C        C   48   2.849   2.763   3.037
    1C        C   49   3.018   2.637   3.162
    1C        C   50   2.905   2.722   3.161
    1C        C   51   3.081   2.602   3.284
    1C        C   52   3.020   2.640   3.405
    1C        C   53   3.209   2.548   3.528
    1C        C   54   3.081   2.609   3.529
    1C        C   55   3.275   2.524   3.651
    1C        C   56   3.207   2.549   3.772
    1C        C   57   3.414   2.502   3.894
    1C        C   58   3.275   2.529   3.895
    1C        C   59   3.485   2.497   4.016
    1C        C   60   3.415   2.502   4.139
    1C        C   61   3.628   2.496   4.260
    1C        C   62   3.487   2.497   4.260
    1C        C   63   3.700   2.508   4.381
    1C        C   64   3.630   2.502   4.503
    1C        C   65   3.837   2.548   4.623
    1C        C   66   3.702   2.507   4.625
    1C        C   67   3.906   2.570   4.744
    1C        C   68   3.844   2.530   4.864
    1C        C   69   4.053   2.589   4.981
    1C        C   70   3.927   2.528   4.977
    1C        C   71   2.826   2.734   2.308
    1C        C   72   2.885   2.696   2.430
    1C        C   73   2.834   2.748   2.551
    1C        C   74   3.011   2.628   2.674
    1C        C   75   2.892   2.705   2.672
    1C        C   76   3.075   2.596   2.796
    1C        C   77   3.015   2.633   2.918
    1C        C   78   3.209   2.547   3.038
    1C        C   79   3.078   2.599   3.040
    1C        C   80   3.280   2.526   3.159
    1C        C   81   3.213   2.551   3.281
    1C        C   82   3.412   2.493   3.404
    1C        C   83   3.274   2.525   3.405
    1C        C   84   3.481   2.489   3.527
    1C        C   85   3.414   2.499   3.651
    1C        C   86   3.626   2.499   3.769
    1C        C   87   3.485   2.493   3.773
    1C        C   88   3.695   2.507   3.892
    1C        C   89   3.626   2.498   4.015
    1C        C   90   3.831   2.553   4.136
    1C        C   91   3.697   2.507   4.137
    1C        C   92   3.896   2.584   4.257
    1C        C   93   3.834   2.553   4.380
    1C        C   94   4.028   2.641   4.502
    1C        C   95   3.904   2.573   4.501
    1C        C   96   4.091   2.679   4.622
    1C        C   97   4.032   2.636   4.743
    1C        C   98   4.191   2.771   4.865
    1C        C   99   4.098   2.662   4.867
    1C        C  100   4.223   2.841   4.981
    1C        C  101   2.830   2.738   2.070
    1C        C  102   2.993   2.593   2.193
    1C        C  103   2.880   2.681   2.188
    1C        C  104   3.065   2.572   2.314
    1C        C  105   3.002   2.618   2.432
    1C        C  106   3.201   2.536   2.552
    1C        C  107   3.070   2.588   2.552
    1C        C  108   3.273   2.519   2.672
    1C        C  109   3.205   2.540   2.794
    1C        C  110   3.412   2.491   2.914
    1C        C  111   3.273   2.519   2.916
    1C        C  112   3.483   2.485   3.036
    1C        C  113   3.417   2.494   3.160
    1C        C  114   3.626   2.496   3.281
    1C        C  115   3.485   2.485   3.284
    1C        C  116   3.692   2.508   3.405
    1C        C  117   3.622   2.495   3.527
    1C        C  118   3.832   2.548   3.646
    1C        C  119   3.696   2.508   3.647
    1C        C  120   3.897   2.573   3.769
    1C        C  121   3.831   2.545   3.891
    1C        C  122   4.019   2.644   4.011
    1C        C  123   3.896   2.575   4.013
    1C        C  124   4.080   2.684   4.133
    1C        C  125   4.021   2.650   4.256
    1C        C  126   4.195   2.770   4.378
    1C        C  127   4.082   2.685   4.379
    1C        C  128   4.251   2.818   4.498
    1C        C  129   4.197   2.772   4.620
    1C        C  130   4.325   2.940   4.741
    1C        C  131   4.240   2.826   4.743
    1C        C  132   4.359   3.004   4.862
    1C        C  133   4.285   2.966   4.974
    1C        C  134   3.174   2.473   2.082
    1C        C  135   3.040   2.512   2.084
    1C        C  136   3.261   2.475   2.191
    1C        C  137   3.196   2.518   2.309
    1C        C  138   3.406   2.477   2.428
    1C        C  139   3.268   2.506   2.430
    1C        C  140   3.483   2.480   2.546
    1C        C  141   3.412   2.492   2.668
    1C        C  142   3.622   2.487   2.792
    1C        C  143   3.481   2.482   2.791
    1C        C  144   3.694   2.495   2.913
    1C        C  145   3.624   2.481   3.035
    1C        C  146   3.828   2.540   3.155
    1C        C  147   3.695   2.493   3.157
    1C        C  148   3.894   2.566   3.277
    1C        C  149   3.830   2.541   3.400
    1C        C  150   4.020   2.636   3.520
    1C        C  151   3.896   2.568   3.522
    1C        C  152   4.076   2.680   3.642
    1C        C  153   4.019   2.645   3.766
    1C        C  154   4.188   2.772   3.889
    1C        C  155   4.077   2.685   3.889
    1C        C  156   4.241   2.821   4.010
    1C        C  157   4.189   2.774   4.133
    1C        C  158   4.337   2.925   4.253
    1C        C  159   4.245   2.819   4.255
    1C        C  160   4.372   2.990   4.374
    1C        C  161   4.334   2.932   4.497
    1C        C  162   4.443   3.116   4.617
    1C        C  163   4.372   2.994   4.619
    1C        C  164   4.473   3.183   4.737
    1C        C  165   4.442   3.118   4.859
    1C        C  166   4.515   3.322   4.973
    1C        C  167   4.481   3.187   4.975
    1C        C  168   3.477   2.433   2.072
    1C        C  169   3.401   2.453   2.188
    1C        C  170   3.619   2.464   2.306
    1C        C  171   3.477   2.460   2.307
    1C        C  172   3.694   2.484   2.424
    1C        C  173   3.624   2.480   2.546
    1C        C  174   3.825   2.541   2.666
    1C        C  175   3.691   2.497   2.670
    1C        C  176   3.892   2.567   2.788
    1C        C  177   3.828   2.540   2.911
    1C        C  178   4.021   2.629   3.034
    1C        C  179   3.894   2.565   3.033
    1C        C  180   4.081   2.668   3.155
    1C        C  181   4.020   2.631   3.277
    1C        C  182   4.191   2.760   3.399
    1C        C  183   4.082   2.670   3.398
    1C        C  184   4.238   2.814   3.521
    1C        C  185   4.187   2.768   3.644
    1C        C  186   4.335   2.922   3.764
    1C        C  187   4.238   2.819   3.765
    1C        C  188   4.375   2.981   3.886
    1C        C  189   4.332   2.930   4.010
    1C        C  190   4.444   3.110   4.128
    1C        C  191   4.378   2.985   4.132
    1C        C  192   4.473   3.176   4.250
    1C        C  193   4.439   3.114   4.373
    1C        C  194   4.511   3.316   4.493
    1C        C  195   4.467   3.182   4.494
    1C        C  196   4.526   3.388   4.613
    1C        C  197   4.511   3.320   4.736
    1C        C  198   4.556   3.536   4.853
    1C        C  199   4.533   3.395   4.855
    1C        C  200   4.582   3.621   4.965
    1C        C  201   3.616   2.415   2.074
    1C        C  202   3.828   2.510   2.183
    1C        C  203   3.694   2.461   2.185
    1C        C  204   3.898   2.542   2.303
    1C        C  205   3.830   2.522   2.425
    1C        C  206   4.022   2.619   2.542
    1C        C  207   3.896   2.556   2.545
    1C        C  208   4.082   2.658   2.664
    1C        C  209   4.021   2.624   2.787
    1C        C  210   4.187   2.755   2.907
    1C        C  211   4.077   2.666   2.910
    1C        C  212   4.240   2.805   3.028
    1C        C  213   4.191   2.757   3.152
    1C        C  214   4.330   2.916   3.273
    1C        C  215   4.240   2.807   3.274
    1C        C  216   4.369   2.978   3.394
    1C        C  217   4.328   2.924   3.518
    1C        C  218   4.441   3.102   3.639
    1C        C  219   4.373   2.979   3.641
    1C        C  220   4.464   3.172   3.760
    1C        C  221   4.439   3.107   3.883
    1C        C  222   4.510   3.308   4.005
    1C        C  223   4.470   3.173   4.004
    1C        C  224   4.521   3.381   4.125
    1C        C  225   4.510   3.312   4.248
    1C        C  226   4.531   3.524   4.367
    1C        C  227   4.523   3.383   4.369
    1C        C  228   4.525   3.597   4.488
    1C        C  229   4.534   3.529   4.612
    1C        C  230   4.509   3.744   4.726
    1C        C  231   4.543   3.606   4.730
    1C        C  232   4.500   3.818   4.846
    1C        C  233   4.546   3.756   4.962
    1C        C  234   4.016   2.612   2.063
    1C        C  235   3.896   2.541   2.064
    1C        C  236   4.084   2.653   2.178
    1C        C  237   4.021   2.613   2.298
    1C        C  238   4.197   2.737   2.422
    1C        C  239   4.083   2.652   2.419
    1C        C  240   4.250   2.788   2.542
    1C        C  241   4.193   2.746   2.664
    1C        C  242   4.336   2.905   2.784
    1C        C  243   4.244   2.798   2.785
    1C        C  244   4.378   2.964   2.905
    1C        C  245   4.335   2.910   3.029
    1C        C  246   4.443   3.093   3.150
    1C        C  247   4.375   2.970   3.151
    1C        C  248   4.463   3.163   3.272
    1C        C  249   4.435   3.102   3.396
    1C        C  250   4.501   3.306   3.516
    1C        C  251   4.466   3.169   3.517
    1C        C  252   4.518   3.375   3.638
    1C        C  253   4.503   3.307   3.761
    1C        C  254   4.529   3.519   3.878
    1C        C  255   4.522   3.378   3.882
    1C        C  256   4.523   3.591   3.999
    1C        C  257   4.527   3.522   4.123
    1C        C  258   4.498   3.732   4.240
    1C        C  259   4.526   3.594   4.244
    1C        C  260   4.472   3.800   4.362
    1C        C  261   4.492   3.734   4.485
    1C        C  262   4.422   3.938   4.604
    1C        C  263   4.479   3.809   4.604
    1C        C  264   4.401   4.011   4.724
    1C        C  265   4.436   3.944   4.843
    1C        C  266   4.325   4.133   4.956
    1C        C  267   4.400   4.017   4.958
    1C        C  268   4.263   2.776   2.064
    1C        C  269   4.197   2.738   2.181
    1C        C  270   4.347   2.891   2.300
    1C        C  271   4.255   2.783   2.302
    1C        C  272   4.383   2.954   2.421
    1C        C  273   4.341   2.897   2.543
    1C        C  274   4.454   3.082   2.661
    1C        C  275   4.382   2.960   2.662
    1C        C  276   4.477   3.151   2.783
    1C        C  277   4.446   3.088   2.905
    1C        C  278   4.507   3.292   3.026
    1C        C  279   4.475   3.154   3.027
    1C        C  280   4.510   3.366   3.145
    1C        C  281   4.497   3.300   3.269
    1C        C  282   4.519   3.512   3.387
    1C        C  283   4.513   3.370   3.391
    1C        C  284   4.522   3.584   3.509
    1C        C  285   4.528   3.516   3.633
    1C        C  286   4.493   3.725   3.754
    1C        C  287   4.527   3.588   3.755
    1C        C  288   4.475   3.796   3.875
    1C        C  289   4.495   3.729   3.997
    1C        C  290   4.429   3.933   4.114
    1C        C  291   4.477   3.800   4.118
    1C        C  292   4.396   3.994   4.238
    1C        C  293   4.423   3.932   4.362
    1C        C  294   4.330   4.127   4.477
    1C        C  295   4.394   4.002   4.481
    1C        C  296   4.289   4.190   4.597
    1C        C  297   4.330   4.134   4.720
    1C        C  298   4.204   4.316   4.838
    1C        C  299   4.288   4.200   4.838
    1C        C  300   4.176   4.402   4.949
    1C        C  301   4.356   2.879   2.062
    1C        C  302   4.470   3.068   2.177
    1C        C  303   4.397   2.945   2.179
    1C        C  304   4.479   3.142   2.298
    1C        C  305   4.450   3.079   2.421
    1C        C  306   4.516   3.285   2.538
    1C        C  307   4.482   3.148   2.540
    1C        C  308   4.522   3.357   2.659
    1C        C  309   4.511   3.288   2.782
    1C        C  310   4.528   3.501   2.897
    1C        C  311   4.523   3.360   2.903
    1C        C  312   4.518   3.574   3.018
    1C        C  313   4.518   3.507   3.142
    1C        C  314   4.494   3.719   3.262
    1C        C  315   4.515   3.580   3.264
    1C        C  316   4.479   3.788   3.384
    1C        C  317   4.496   3.723   3.509
    1C        C  318   4.427   3.924   3.628
    1C        C  319   4.475   3.791   3.631
    1C        C  320   4.397   3.991   3.748
    1C        C  321   4.427   3.929   3.872
    1C        C  322   4.314   4.112   3.993
    1C        C  323   4.395   3.996   3.992
    1C        C  324   4.276   4.173   4.114
    1C        C  325   4.319   4.112   4.234
    1C        C  326   4.186   4.280   4.354
    1C        C  327   4.285   4.179   4.354
    1C        C  328   4.134   4.335   4.473
    1C        C  329   4.190   4.292   4.596
    1C        C  330   4.026   4.432   4.713
    1C        C  331   4.141   4.349   4.715
    1C        C  332   3.975   4.488   4.833
    1C        C  333   4.055   4.474   4.946
    1C        C  334   4.552   3.267   2.061
    1C        C  335   4.534   3.128   2.064
    1C        C  336   4.539   3.350   2.174
    1C        C  337   4.516   3.279   2.294
    1C        C  338   4.524   3.494   2.410
    1C        C  339   4.525   3.352   2.414
    1C        C  340   4.518   3.567   2.531
    1C        C  341   4.532   3.498   2.654
    1C        C  342   4.501   3.711   2.774
    1C        C  343   4.525   3.571   2.775
    1C        C  344   4.480   3.782   2.894
    1C        C  345   4.497   3.714   3.017
    1C        C  346   4.428   3.916   3.136
    1C        C  347   4.480   3.785   3.137
    1C        C  348   4.399   3.981   3.258
    1C        C  349   4.430   3.920   3.382
    1C        C  350   4.323   4.104   3.502
    1C        C  351   4.399   3.985   3.503
    1C        C  352   4.277   4.162   3.622
    1C        C  353   4.318   4.108   3.745
    1C        C  354   4.173   4.261   3.867
    1C        C  355   4.271   4.160   3.868
    1C        C  356   4.118   4.313   3.987
    1C        C  357   4.175   4.272   4.109
    1C        C  358   4.008   4.397   4.229
    1C        C  359   4.126   4.320   4.233
    1C        C  360   3.949   4.438   4.351
    1C        C  361   4.016   4.413   4.473
    1C        C  362   3.828   4.517   4.592
    1C        C  363   3.957   4.458   4.593
    1C        C  364   3.764   4.543   4.715
    1C        C  365   3.842   4.535   4.832
    1C        C  366   3.630   4.589   4.950
    1C        C  367   3.767   4.568   4.946
    1C        C  368   4.506   3.562   2.054
    1C        C  369   4.528   3.490   2.172
    1C        C  370   4.504   3.707   2.286
    1C        C  371   4.524   3.568   2.290
    1C        C  372   4.487   3.777   2.408
    1C        C  373   4.502   3.707   2.530
    1C        C  374   4.431   3.908   2.648
    1C        C  375   4.485   3.778   2.651
    1C        C  376   4.398   3.975   2.768
    1C        C  377   4.430   3.914   2.891
    1C        C  378   4.315   4.093   3.011
    1C        C  379   4.396   3.978   3.013
    1C        C  380   4.271   4.148   3.134
    1C        C  381   4.317   4.096   3.257
    1C        C  382   4.172   4.251   3.379
    1C        C  383   4.273   4.152   3.379
    1C        C  384   4.117   4.299   3.500
    1C        C  385   4.172   4.257   3.623
    1C        C  386   4.004   4.389   3.741
    1C        C  387   4.118   4.306   3.744
    1C        C  388   3.943   4.431   3.862
    1C        C  389   4.002   4.393   3.985
    1C        C  390   3.816   4.492   4.109
    1C        C  391   3.944   4.431   4.108
    1C        C  392   3.750   4.519   4.231
    1C        C  393   3.821   4.497   4.351
    1C        C  394   3.618   4.558   4.474
    1C        C  395   3.758   4.536   4.471
    1C        C  396   3.548   4.564   4.596
    1C        C  397   3.624   4.563   4.715
    1C        C  398   3.411   4.555   4.840
    1C        C  399   3.551   4.577   4.835
    1C        C  400   3.345   4.508   4.954
    1C        C  401   4.498   3.700   2.051
    1C        C  402   4.445   3.913   2.163
    1C        C  403   4.492   3.780   2.166
    1C        C  404   4.408   3.975   2.284
    1C        C  405   4.438   3.909   2.406
    1C        C  406   4.324   4.092   2.524
    1C        C  407   4.397   3.971   2.526
    1C        C  408   4.273   4.144   2.645
    1C        C  409   4.318   4.091   2.768
    1C        C  410   4.173   4.249   2.889
    1C        C  411   4.271   4.148   2.888
    1C        C  412   4.117   4.292   3.012
    1C        C  413   4.171   4.249   3.135
    1C        C  414   4.001   4.375   3.254
    1C        C  415   4.120   4.298   3.256
    1C        C  416   3.940   4.410   3.377
    1C        C  417   4.001   4.379   3.501
    1C        C  418   3.810   4.479   3.619
    1C        C  419   3.940   4.424   3.620
    1C        C  420   3.745   4.503   3.742
    1C        C  421   3.813   4.487   3.864
    1C        C  422   3.611   4.541   3.987
    1C        C  423   3.749   4.515   3.987
    1C        C  424   3.541   4.550   4.109
    1C        C  425   3.611   4.546   4.232
    1C        C  426   3.401   4.553   4.357
    1C        C  427   3.542   4.557   4.355
    1C        C  428   3.331   4.550   4.479
    1C        C  429   3.407   4.557   4.599
    1C        C  430   3.197   4.518   4.724
    1C        C  431   3.336   4.548   4.721
    1C        C  432   3.126   4.499   4.846
    1C        C  433   3.206   4.498   4.961
    1C        C  434   4.386   4.126   2.050
    1C        C  435   4.450   4.001   2.054
    1C        C  436   4.307   4.167   2.163
    1C        C  437   4.334   4.096   2.283
    1C        C  438   4.180   4.249   2.401
    1C        C  439   4.282   4.151   2.402
    1C        C  440   4.124   4.294   2.523
    1C        C  441   4.174   4.245   2.645
    1C        C  442   4.006   4.377   2.769
    1C        C  443   4.122   4.296   2.766
    1C        C  444   3.941   4.411   2.890
    1C        C  445   4.001   4.373   3.012
    1C        C  446   3.811   4.471   3.130
    1C        C  447   3.938   4.410   3.133
    1C        C  448   3.745   4.493   3.253
    1C        C  449   3.813   4.471   3.375
    1C        C  450   3.607   4.533   3.498
    1C        C  451   3.745   4.500   3.496
    1C        C  452   3.539   4.547   3.620
    1C        C  453   3.608   4.538   3.743
    1C        C  454   3.398   4.544   3.866
    1C        C  455   3.539   4.552   3.866
    1C        C  456   3.329   4.538   3.990
    1C        C  457   3.400   4.545   4.111
    1C        C  458   3.193   4.510   4.237
    1C        C  459   3.332   4.537   4.235
    1C        C  460   3.127   4.490   4.361
    1C        C  461   3.194   4.516   4.482
    1C        C  462   2.999   4.433   4.606
    1C        C  463   3.126   4.496   4.604
    1C        C  464   2.929   4.404   4.725
    1C        C  465   2.993   4.446   4.844
    1C        C  466   2.801   4.340   4.961
    1C        C  467   2.908   4.431   4.958
    1C        C  468   4.124   4.284   2.043
    1C        C  469   4.190   4.249   2.162
    1C        C  470   4.001   4.363   2.281
    1C        C  471   4.127   4.298   2.280
    1C        C  472   3.935   4.392   2.402
    1C        C  473   4.003   4.368   2.523
    1C        C  474   3.814   4.464   2.644
    1C        C  475   3.944   4.408   2.645
    1C        C  476   3.746   4.490   2.765
    1C        C  477   3.813   4.469   2.887
    1C        C  478   3.606   4.525   3.011
    1C        C  479   3.745   4.496   3.008
    1C        C  480   3.535   4.531   3.133
    1C        C  481   3.606   4.522   3.254
    1C        C  482   3.394   4.540   3.375
    1C        C  483   3.536   4.534   3.376
    1C        C  484   3.327   4.536   3.499
    1C        C  485   3.398   4.546   3.621
    1C        C  486   3.191   4.501   3.747
    1C        C  487   3.328   4.536   3.744
    1C        C  488   3.125   4.483   3.871
    1C        C  489   3.191   4.507   3.993
    1C        C  490   3.000   4.418   4.117
    1C        C  491   3.125   4.483   4.116
    1C        C  492   2.942   4.383   4.241
    1C        C  493   3.001   4.425   4.362
    1C        C  494   2.828   4.304   4.486
    1C        C  495   2.940   4.391   4.485
    1C        C  496   2.768   4.259   4.606
    1C        C  497   2.816   4.318   4.725
    1C        C  498   2.667   4.166   4.849
    1C        C  499   2.753   4.278   4.845
    1C        C  500   2.595   4.118   4.959
    1C        C  501   4.004   4.355   2.043
    1C        C  502   3.814   4.462   2.156
    1C        C  503   3.942   4.403   2.159
    1C        C  504   3.744   4.474   2.278
    1C        C  505   3.807   4.451   2.402
    1C        C  506   3.605   4.511   2.520
    1C        C  507   3.744   4.485   2.524
    1C        C  508   3.537   4.519   2.644
    1C        C  509   3.607   4.519   2.766
    1C        C  510   3.396   4.525   2.885
    1C        C  511   3.537   4.526   2.888
    1C        C  512   3.325   4.522   3.007
    1C        C  513   3.393   4.535   3.130
    1C        C  514   3.187   4.501   3.254
    1C        C  515   3.324   4.535   3.253
    1C        C  516   3.125   4.474   3.378
    1C        C  517   3.191   4.497   3.501
    1C        C  518   3.000   4.413   3.625
    1C        C  519   3.125   4.479   3.624
    1C        C  520   2.943   4.372   3.748
    1C        C  521   3.001   4.415   3.870
    1C        C  522   2.842   4.280   3.997
    1C        C  523   2.944   4.377   3.994
    1C        C  524   2.794   4.232   4.121
    1C        C  525   2.838   4.287   4.243
    1C        C  526   2.703   4.128   4.365
    1C        C  527   2.787   4.241   4.367
    1C        C  528   2.661   4.073   4.489
    1C        C  529   2.687   4.143   4.608
    1C        C  530   2.584   3.961   4.732
    1C        C  531   2.642   4.091   4.732
    1C        C  532   2.541   3.903   4.854
    1C        C  533   2.530   3.993   4.964
    1C        C  534   3.619   4.555   2.040
    1C        C  535   3.751   4.506   2.039
    1C        C  536   3.537   4.532   2.155
    1C        C  537   3.606   4.510   2.277
    1C        C  538   3.393   4.518   2.399
    1C        C  539   3.534   4.518   2.398
    1C        C  540   3.322   4.510   2.521
    1C        C  541   3.395   4.515   2.642
    1C        C  542   3.186   4.483   2.766
    1C        C  543   3.324   4.512   2.763
    1C        C  544   3.120   4.462   2.889
    1C        C  545   3.188   4.487   3.011
    1C        C  546   2.997   4.400   3.134
    1C        C  547   3.121   4.466   3.133
    1C        C  548   2.942   4.364   3.259
    1C        C  549   3.000   4.408   3.381
    1C        C  550   2.833   4.283   3.504
    1C        C  551   2.938   4.377   3.504
    1C        C  552   2.786   4.231   3.627
    1C        C  553   2.838   4.278   3.750
    1C        C  554   2.704   4.119   3.876
    1C        C  555   2.792   4.229   3.874
    1C        C  556   2.670   4.057   3.998
    1C        C  557   2.707   4.121   4.118
    1C        C  558   2.598   3.945   4.248
    1C        C  559   2.663   4.070   4.243
    1C        C  560   2.570   3.878   4.369
    1C        C  561   2.595   3.948   4.490
    1C        C  562   2.532   3.749   4.617
    1C        C  563   2.567   3.886   4.613
    1C        C  564   2.518   3.682   4.740
    1C        C  565   2.519   3.761   4.858
    1C        C  566   2.532   3.547   4.976
    1C        C  567   2.525   3.686   4.976
    1C        C  568   3.329   4.477   2.038
    1C        C  569   3.396   4.514   2.155
    1C        C  570   3.185   4.477   2.280
    1C        C  571   3.323   4.513   2.277
    1C        C  572   3.118   4.453   2.402
    1C        C  573   3.184   4.478   2.524
    1C        C  574   2.988   4.402   2.647
    1C        C  575   3.113   4.467   2.646
    1C        C  576   2.931   4.361   2.770
    1C        C  577   2.995   4.396   2.890
    1C        C  578   2.825   4.272   3.017
    1C        C  579   2.933   4.363   3.013
    1C        C  580   2.778   4.222   3.140
    1C        C  581   2.832   4.276   3.259
    1C        C  582   2.699   4.115   3.385
    1C        C  583   2.784   4.228   3.383
    1C        C  584   2.661   4.060   3.510
    1C        C  585   2.702   4.118   3.632
    1C        C  586   2.598   3.934   3.756
    1C        C  587   2.668   4.056   3.755
    1C        C  588   2.573   3.869   3.879
    1C        C  589   2.604   3.932   4.002
    1C        C  590   2.536   3.739   4.128
    1C        C  591   2.574   3.875   4.127
    1C        C  592   2.522   3.670   4.251
    1C        C  593   2.534   3.742   4.373
    1C        C  594   2.510   3.536   4.498
    1C        C  595   2.513   3.677   4.497
    1C        C  596   2.515   3.464   4.620
    1C        C  597   2.513   3.540   4.740
    1C        C  598   2.531   3.328   4.864
    1C        C  599   2.520   3.468   4.861
    1C        C  600   2.535   3.249   4.979
    1C        C  601   3.197   4.438   2.044
    1C        C  602   2.985   4.387   2.158
    1C        C  603   3.119   4.439   2.161
    1C        C  604   2.924   4.360   2.284
    1C        C  605   2.988   4.399   2.404
    1C        C  606   2.819   4.272   2.529
    1C        C  607   2.928   4.362   2.526
    1C        C  608   2.770   4.219   2.651
    1C        C  609   2.825   4.268   2.772
    1C        C  610   2.690   4.107   2.896
    1C        C  611   2.776   4.219   2.895
    1C        C  612   2.652   4.052   3.020
    1C        C  613   2.691   4.111   3.143
    1C        C  614   2.590   3.928   3.266
    1C        C  615   2.655   4.053   3.266
    1C        C  616   2.568   3.868   3.392
    1C        C  617   2.603   3.931   3.514
    1C        C  618   2.531   3.730   3.637
    1C        C  619   2.571   3.866   3.635
    1C        C  620   2.519   3.663   3.761
    1C        C  621   2.533   3.734   3.882
    1C        C  622   2.506   3.527   4.013
    1C        C  623   2.522   3.668   4.007
    1C        C  624   2.504   3.457   4.135
    1C        C  625   2.509   3.530   4.256
    1C        C  626   2.528   3.321   4.379
    1C        C  627   2.507   3.461   4.379
    1C        C  628   2.555   3.254   4.501
    1C        C  629   2.532   3.324   4.621
    1C        C  630   2.596   3.122   4.744
    1C        C  631   2.545   3.255   4.744
    1C        C  632   2.622   3.052   4.865
    1C        C  633   2.565   3.112   4.982
    1C        C  634   2.783   4.299   2.053
    1C        C  635   2.893   4.385   2.049
    1C        C  636   2.750   4.227   2.168
    1C        C  637   2.811   4.274   2.287
    1C        C  638   2.679   4.109   2.410
    1C        C  639   2.765   4.221   2.409
    1C        C  640   2.642   4.046   2.531
    1C        C  641   2.686   4.106   2.652
    1C        C  642   2.587   3.920   2.778
    1C        C  643   2.648   4.048   2.775
    1C        C  644   2.564   3.855   2.901
    1C        C  645   2.589   3.926   3.021
    1C        C  646   2.530   3.724   3.147
    1C        C  647   2.564   3.861   3.144
    1C        C  648   2.518   3.658   3.272
    1C        C  649   2.535   3.731   3.392
    1C        C  650   2.509   3.520   3.519
    1C        C  651   2.519   3.661   3.514
    1C        C  652   2.511   3.453   3.643
    1C        C  653   2.510   3.522   3.767
    1C        C  654   2.539   3.318   3.890
    1C        C  655   2.508   3.455   3.891
    1C        C  656   2.557   3.253   4.014
    1C        C  657   2.527   3.317   4.136
    1C        C  658   2.607   3.122   4.258
    1C        C  659   2.547   3.250   4.259
    1C        C  660   2.644   3.062   4.381
    1C        C  661   2.604   3.122   4.502
    1C        C  662   2.715   2.941   4.627
    1C        C  663   2.635   3.057   4.624
    1C        C  664   2.752   2.877   4.747
    1C        C  665   2.702   2.933   4.868
    1C        C  666   2.745   2.867   4.983
    1C        C  667   2.682   4.021   2.054
    1C        C  668   2.691   4.099   2.169
    1C        C  669   2.585   3.914   2.291
    1C        C  670   2.643   4.044   2.290
    1C        C  671   2.557   3.850   2.413
    1C        C  672   2.583   3.918   2.535
    1C        C  673   2.512   3.720   2.660
    1C        C  674   2.553   3.855   2.658
    1C        C  675   2.510   3.649   2.782
    1C        C  676   2.526   3.719   2.904
    1C        C  677   2.502   3.510   3.031
    1C        C  678   2.514   3.651   3.027
    1C        C  679   2.507   3.442   3.155
    1C        C  680   2.505   3.517   3.275
    1C        C  681   2.532   3.309   3.400
    1C        C  682   2.507   3.448   3.398
    1C        C  683   2.552   3.243   3.524
    1C        C  684   2.530   3.313   3.644
    1C        C  685   2.608   3.118   3.771
    1C        C  686   2.551   3.247   3.768
    1C        C  687   2.643   3.057   3.894
    1C        C  688   2.611   3.122   4.015
    1C        C  689   2.717   2.939   4.140
    1C        C  690   2.638   3.056   4.137
    1C        C  691   2.758   2.882   4.262
    1C        C  692   2.719   2.942   4.384
    1C        C  693   2.758   2.882   4.506
    1C        C  694   2.629   3.891   2.056
    1C        C  695   2.526   3.704   2.176
    1C        C  696   2.577   3.836   2.173
    1C        C  697   2.501   3.640   2.299
    1C        C  698   2.519   3.714   2.418
    1C        C  699   2.488   3.505   2.541
    1C        C  700   2.502   3.646   2.540
    1C        C  701   2.498   3.434   2.663
    1C        C  702   2.504   3.507   2.784
    1C        C  703   2.525   3.301   2.912
    1C        C  704   2.502   3.441   2.908
    1C        C  705   2.546   3.232   3.033
    1C        C  706   2.529   3.303   3.154
    1C        C  707   2.602   3.109   3.280
    1C        C  708   2.547   3.239   3.279
    1C        C  709   2.638   3.050   3.403
    1C        C  710   2.610   3.114   3.526
    1C        C  711   2.717   2.934   3.650
    1C        C  712   2.643   3.055   3.650
    1C        C  713   2.759   2.879   3.773
    1C        C  714   2.723   2.941   3.894
    1C        C  715   2.764   2.886   4.018
    1C        C  716   2.449   3.500   2.064
    1C        C  717   2.490   3.634   2.060
    1C        C  718   2.460   3.422   2.184
    1C        C  719   2.473   3.501   2.302
    1C        C  720   2.511   3.290   2.426
    1C        C  721   2.483   3.429   2.423
    1C        C  722   2.538   3.225   2.548
    1C        C  723   2.518   3.295   2.670
    1C        C  724   2.592   3.097   2.791
    1C        C  725   2.539   3.228   2.792
    1C        C  726   2.626   3.034   2.913
    1C        C  727   2.602   3.102   3.034
    1C        C  728   2.709   2.925   3.159
    1C        C  729   2.629   3.041   3.159
    1C        C  730   2.757   2.873   3.282
    1C        C  731   2.716   2.933   3.403
    1C        C  732   2.758   2.878   3.527
    1C        C  733   2.493   3.200   2.070
    1C        C  734   2.487   3.282   2.184
    1C        C  735   2.586   3.090   2.304
    1C        C  736   2.524   3.218   2.306
    1C        C  737   2.619   3.025   2.425
    1C        C  738   2.591   3.094   2.545
    1C        C  739   2.700   2.915   2.671
    1C        C  740   2.623   3.034   2.668
    1C        C  741   2.745   2.860   2.793
    1C        C  742   2.702   2.915   2.916
    1C        C  743   2.752   2.865   3.038
    1C        C  744   2.552   3.074   2.074
    1C        C  745   2.686   2.896   2.186
    1C        C  746   2.612   3.016   2.186
    1C        C  747   2.731   2.841   2.308
    1C        C  748   2.694   2.906   2.427
    1C        C  749   2.741   2.855   2.550
    1C        C  750   2.741   2.844   2.068
    1C        C  751   3.659   2.296   1.998
    1C        O  752   3.742   2.218   2.053
    1C        O  753   3.632   2.294   1.861
    1C        C  754   4.638   3.058   1.985
    1C        O  755   4.661   3.093   1.866
    1C        O  756   4.746   2.994   2.047
    1C        C  757   4.444   4.213   1.945
    1C        O  758   4.500   4.318   1.985
    1C        O  759   4.393   4.226   1.816
    1C        C  760   3.585   4.656   1.937
    1C        O  761   3.574   4.777   1.971
    1C        O  762   3.597   4.624   1.801
    1C        C  763   2.894   4.494   1.949
    1C        O  764   2.847   4.474   1.833
    1C        O  765   2.870   4.627   1.984
    1C        C  766   2.325   3.472   1.988
    1C        O  767   2.331   3.437   1.867
    1C        O  768   2.205   3.444   2.053
    1C        C  769   4.701   3.590   5.049
    1C        O  770   4.681   3.527   5.156
    1C        O  771   4.822   3.660   5.047
    1C        C  772   4.278   4.456   5.041
    1C        O  773   4.255   4.489   5.161
    1C        O  774   4.386   4.527   4.988
    1C        C  775   4.133   2.551   5.100
    1C        O  776   4.164   2.434   5.133
    1C        O  777   4.116   2.617   5.223
    1C        C  778   2.879   4.548   5.044
    1C        O  779   2.803   4.640   5.005
    1C        O  780   2.861   4.523   5.181
    1C        C  781   2.450   3.047   5.049
    1C        O  782   2.338   3.030   4.995
    1C        O  783   2.430   3.053   5.186
    1C        C  784   2.402   3.996   5.037
    1C        O  785   2.312   4.083   5.021
    1C        O  786   2.374   3.918   5.150
    1C        C  787   2.953   2.404   2.033
    1C        O  788   2.876   2.424   1.935
    1C        O  789   2.898   2.298   2.105
    1C        C  790   3.200   2.377   5.068
    1C        O  791   3.165   2.262   5.032
    1C        O  792   3.255   2.383   5.197
    1C        H  793   4.259   3.042   5.044
    1C        H  794   4.234   2.792   5.075
    1C        H  795   4.491   3.134   5.067
    1C        H  796   4.538   3.372   5.064
    1C        H  797   4.580   3.818   5.043
    1C        H  798   4.378   3.959   5.045
    1C        H  799   4.340   4.195   5.042
    1C        H  800   4.031   4.532   5.032
    1C        H  801   3.816   4.550   5.039
    1C        H  802   3.589   4.618   5.044
    1C        H  803   3.399   4.455   5.030
    1C        H  804   3.171   4.442   5.044
    1C        H  805   3.907   2.443   5.039
    1C        H  806   3.681   2.425   5.062
    1C        H  807   2.990   2.527   5.045
    1C        H  808   3.445   2.496   5.077
    1C        H  809   2.868   2.729   5.080
    1C        H  810   2.685   2.880   5.071
    1C        H  811   2.491   3.284   5.070
    1C        H  812   2.505   3.502   5.069
    1C        H  813   2.486   3.731   5.065
    1C        H  814   2.616   4.161   5.054
    1C        H  815   2.747   4.328   5.053
    1C        H  816   2.715   2.880   1.970
    1C        H  817   2.863   2.702   1.974
    1C        H  818   3.212   2.435   1.989
    1C        H  819   3.449   2.490   1.986
    1C        H  820   3.848   2.520   1.971
    1C        H  821   4.030   2.672   1.975
    1C        H  822   4.252   2.714   1.977
    1C        H  823   4.379   2.923   1.967
    1C        H  824   4.578   3.314   1.968
    1C        H  825   4.437   3.516   1.986
    1C        H  826   4.459   3.741   1.960
    1C        H  827   3.783   4.467   1.945
    1C        H  828   3.995   4.416   1.955
    1C        H  829   4.171   4.273   1.948
    1C        H  830   4.497   3.962   1.967
    1C        H  831   2.615   3.838   1.963
    1C        H  832   2.706   4.065   1.959
    1C        H  833   2.698   4.338   2.000
    1C        H  834   3.364   4.516   1.945
    1C        H  835   3.156   4.387   1.959
    1C        H  836   2.513   3.007   2.000
    1C        H  837   2.401   3.201   2.016
    1C        H  838   2.458   3.688   1.974
    2V3OU   H29  839   2.805   3.546   5.216
    2V3OU   C27  840   2.786   3.500   5.316
    2V3OU   H27  841   2.720   3.571   5.373
    2V3OU   H28  842   2.735   3.401   5.302
    2V3OU   O11  843   2.910   3.475   5.381
    2V3OU   C15  844   2.920   3.394   5.493
    2V3OU   C13  845   3.052   3.368   5.537
    2V3OU   C14  846   3.078   3.259   5.620
    2V3OU   C16  847   2.967   3.184   5.658
    2V3OU    H6  848   2.992   3.102   5.727
    2V3OU   C12  849   3.217   3.230   5.662
    2V3OU    O2  850   3.240   3.128   5.731
    2V3OU   C10  851   3.331   3.310   5.616
    2V3OU    C8  852   3.462   3.270   5.644
    2V3OU   O10  853   3.493   3.156   5.712
    2V3OU   H26  854   3.405   3.118   5.726
    2V3OU    C6  855   3.569   3.348   5.589
    2V3OU    C5  856   3.539   3.470   5.530
    2V3OU    C4  857   3.709   3.298   5.584
    2V3OU    H4  858   3.729   3.235   5.675
    2V3OU    H5  859   3.716   3.228   5.496
    2V3OU    C2  860   3.821   3.403   5.583
    2V3OU    O6  861   3.807   3.475   5.706
    2V3OU   H21  862   3.767   3.556   5.671
    2V3OU    C3  863   3.783   3.498   5.469
    2V3OU    H2  864   3.862   3.576   5.455
    2V3OU    H3  865   3.782   3.440   5.372
    2V3OU   C25  866   3.954   3.327   5.571
    2V3OU    O7  867   3.997   3.297   5.460
    2V3OU   C26  868   4.030   3.293   5.698
    2V3OU   H22  869   4.071   3.383   5.750
    2V3OU   H23  870   4.113   3.222   5.671
    2V3OU    O8  871   3.956   3.214   5.788
    2V3OU   H24  872   3.922   3.267   5.862
    2V3OU    C1  873   3.647   3.564   5.485
    2V3OU    H1  874   3.623   3.616   5.388
    2V3OU    O3  875   3.663   3.660   5.590
    2V3OU   C19  876   3.619   3.795   5.579
    2V3OU    H9  877   3.523   3.811   5.521
    2V3OU    O4  878   3.714   3.859   5.496
    2V3OU   C20  879   3.844   3.873   5.555
    2V3OU   H10  880   3.897   3.775   5.565
    2V3OU   C24  881   3.608   3.863   5.715
    2V3OU   H16  882   3.541   3.802   5.781
    2V3OU   H17  883   3.559   3.961   5.691
    2V3OU   C23  884   3.746   3.877   5.781
    2V3OU   H15  885   3.792   3.775   5.800
    2V3OU    N1  886   3.743   3.956   5.903
    2V3OU   H19  887   3.813   3.924   5.967
    2V3OU   H20  888   3.653   3.938   5.942
    2V3OU   C21  889   3.848   3.949   5.688
    2V3OU   H11  890   3.949   3.931   5.734
    2V3OU    O5  891   3.828   4.090   5.681
    2V3OU   H18  892   3.782   4.104   5.765
    2V3OU   C22  893   3.916   3.948   5.444
    2V3OU   H12  894   3.864   4.045   5.422
    2V3OU   H13  895   3.907   3.891   5.348
    2V3OU   H14  896   4.024   3.960   5.470
    2V3OU   C11  897   3.159   3.467   5.514
    2V3OU    O1  898   3.130   3.583   5.479
    2V3OU    C9  899   3.298   3.421   5.534
    2V3OU    C7  900   3.404   3.503   5.497
    2V3OU    O9  901   3.389   3.618   5.421
    2V3OU   H25  902   3.293   3.633   5.412
    2V3OU   C17  903   2.813   3.313   5.535
    2V3OU    H7  904   2.709   3.342   5.519
    2V3OU   C18  905   2.835   3.210   5.625
    2V3OU    H8  906   2.757   3.149   5.674
    3SOL     OW  907   4.007   3.145   3.911
    3SOL    HW1  908   3.963   3.088   3.979
    3SOL    HW2  909   4.040   3.229   3.954
    4SOL     OW  910   6.810   6.482   0.701
    4SOL    HW1  911   6.789   6.517   0.792
    4SOL    HW2  912   6.906   6.501   0.680
    5SOL     OW  913   4.699   2.296   6.942
    5SOL    HW1  914   4.680   2.253   6.854
    5SOL    HW2  915   4.697   2.227   7.014
    6SOL     OW  916   5.341   0.949   2.894
    6SOL    HW1  917   5.326   1.029   2.952
    6SOL    HW2  918   5.319   0.973   2.799
    7SOL     OW  919   1.221   4.081   4.265
    7SOL    HW1  920   1.121   4.080   4.258
    7SOL    HW2  921   1.258   3.991   4.242
    8SOL     OW  922   1.230   3.472   4.824
    8SOL    HW1  923   1.173   3.440   4.899
    8SOL    HW2  924   1.294   3.399   4.797
    9SOL     OW  925   6.893   0.742   6.159
    9SOL    HW1  926   6.915   0.682   6.235
    9SOL    HW2  927   6.925   0.835   6.179
   10SOL     OW  928   5.110   4.615   1.999
   10SOL    HW1  929   5.154   4.534   2.038
   10SOL    HW2  930   5.155   4.697   2.033
   11SOL     OW  931   2.392   2.307   0.298
   11SOL    HW1  932   2.456   2.376   0.333
   11SOL    HW2  933   2.301   2.348   0.291
   12SOL     OW  934   3.528   4.907   3.018
   12SOL    HW1  935   3.444   4.892   3.069
   12SOL    HW2  936   3.506   4.925   2.922
   13SOL     OW  937   5.763   5.997   1.141
   13SOL    HW1  938   5.741   6.084   1.097
   13SOL    HW2  939   5.834   5.950   1.090
   14SOL     OW  940   4.346   5.745   5.523
   14SOL    HW1  941   4.353   5.778   5.618
   14SOL    HW2  942   4.380   5.816   5.461
   15SOL     OW  943   0.361   6.675   5.956
   15SOL    HW1  944   0.445   6.724   5.932
   15SOL    HW2  945   0.370   6.637   6.048
   16SOL     OW  946   1.589   4.451   5.094
   16SOL    HW1  947   1.531   4.510   5.037
   16SOL    HW2  948   1.684   4.460   5.065
   17SOL     OW  949   6.375   1.583   5.594
   17SOL    HW1  950   6.399   1.533   5.511
   17SOL    HW2  951   6.344   1.675   5.570
   18SOL     OW  952   2.407   0.887   6.306
   18SOL    HW1  953   2.421   0.958   6.236
   18SOL    HW2  954   2.313   0.854   6.301
   19SOL     OW  955   2.858   6.845   3.469
   19SOL    HW1  956   2.799   6.804   3.539
   19SOL    HW2  957   2.819   6.933   3.441
   20SOL     OW  958   6.560   1.516   5.800
   20SOL    HW1  959   6.490   1.552   5.738
   20SOL    HW2  960   6.533   1.425   5.831
   21SOL     OW  961   2.670   4.608   3.146
   21SOL    HW1  962   2.661   4.608   3.047
   21SOL    HW2  963   2.718   4.691   3.175
   22SOL     OW  964   1.310   0.516   6.779
   22SOL    HW1  965   1.285   0.523   6.683
   22SOL    HW2  966   1.237   0.471   6.830
   23SOL     OW  967   5.974   4.925   1.295
   23SOL    HW1  968   5.896   4.908   1.355
   23SOL    HW2  969   6.059   4.921   1.348
   24SOL     OW  970   4.512   0.768   0.811
   24SOL    HW1  971   4.582   0.700   0.789
   24SOL    HW2  972   4.423   0.735   0.777
   25SOL     OW  973   1.620   1.444   4.541
   25SOL    HW1  974   1.543   1.489   4.587
   25SOL    HW2  975   1.606   1.345   4.543
   26SOL     OW  976   0.650   3.079   6.757
   26SOL    HW1  977   0.592   3.150   6.718
   26SOL    HW2  978   0.690   3.024   6.683
   27SOL     OW  979   5.933   0.745   1.368
   27SOL    HW1  980   5.888   0.656   1.375
   27SOL    HW2  981   5.961   0.775   1.459
   28SOL     OW  982   2.406   1.127   5.434
   28SOL    HW1  983   2.486   1.121   5.494
   28SOL    HW2  984   2.417   1.205   5.372
   29SOL     OW  985   0.610   6.962   1.235
   29SOL    HW1  986   0.595   6.864   1.217
   29SOL    HW2  987   0.531   6.999   1.284
   30SOL     OW  988   4.891   0.177   5.076
   30SOL    HW1  989   4.880   0.084   5.041
   30SOL    HW2  990   4.988   0.197   5.087
   31SOL     OW  991   1.098   2.968   5.142
   31SOL    HW1  992   1.073   2.872   5.128
   31SOL    HW2  993   1.123   3.010   5.055
   32SOL     OW  994   3.180   0.364   1.772
   32SOL    HW1  995   3.152   0.270   1.752
   32SOL    HW2  996   3.130   0.427   1.712
   33SOL     OW  997   1.602   5.746   6.125
   33SOL    HW1  998   1.553   5.712   6.045
   33SOL    HW2  999   1.548   5.728   6.207
   34SOL     OW 1000   2.211   5.073   5.437
   34SOL    HW1 1001   2.212   5.126   5.353
   34SOL    HW2 1002   2.300   5.080   5.483
   35SOL     OW 1003   2.467   3.173   6.896
   35SOL    HW1 1004   2.464   3.118   6.979
   35SOL    HW2 1005   2.551   3.229   6.895
   36SOL     OW 1006   3.916   1.025   4.288
   36SOL    HW1 1007   3.885   0.987   4.200
   36SOL    HW2 1008   3.837   1.058   4.339
   37SOL     OW 1009   2.654   0.733   3.951
   37SOL    HW1 1010   2.575   0.769   4.001
   37SOL    HW2 1011   2.712   0.680   4.013
   38SOL     OW 1012   1.009   4.001   2.837
   38SOL    HW1 1013   1.057   3.914   2.827
   38SOL    HW2 1014   0.953   3.999   2.920
   39SOL     OW 1015   6.816   5.099   0.188
   39SOL    HW1 1016   6.832   5.010   0.231
   39SOL    HW2 1017   6.783   5.164   0.256
   40SOL     OW 1018   4.385   1.769   0.688
   40SOL    HW1 1019   4.413   1.849   0.636
   40SOL    HW2 1020   4.355   1.697   0.625
   41SOL     OW 1021   5.173   4.122   1.254
   41SOL    HW1 1022   5.145   4.043   1.308
   41SOL    HW2 1023   5.094   4.182   1.238
   42SOL     OW 1024   2.911   5.144   6.566
   42SOL    HW1 1025   2.912   5.109   6.659
   42SOL    HW2 1026   2.830   5.201   6.553
   43SOL     OW 1027   3.798   6.730   5.188
   43SOL    HW1 1028   3.826   6.815   5.233
   43SOL    HW2 1029   3.729   6.751   5.118
   44SOL     OW 1030   6.949   1.301   5.615
   44SOL    HW1 1031   6.957   1.202   5.628
   44SOL    HW2 1032   6.904   1.341   5.695
   45SOL     OW 1033   2.228   4.943   6.545
   45SOL    HW1 1034   2.227   4.968   6.448
   45SOL    HW2 1035   2.137   4.909   6.571
   46SOL     OW 1036   0.452   3.258   4.177
   46SOL    HW1 1037   0.492   3.331   4.122
   46SOL    HW2 1038   0.525   3.201   4.215
   47SOL     OW 1039   6.308   3.376   0.907
   47SOL    HW1 1040   6.293   3.383   0.808
   47SOL    HW2 1041   6.364   3.295   0.927
   48SOL     OW 1042   6.067   3.935   1.272
   48SOL    HW1 1043   6.010   3.976   1.201
   48SOL    HW2 1044   6.159   3.919   1.235
   49SOL     OW 1045   3.367   4.101   0.072
   49SOL    HW1 1046   3.341   4.167   0.143
   49SOL    HW2 1047   3.329   4.011   0.095
   50SOL     OW 1048   6.412   2.790   0.462
   50SOL    HW1 1049   6.367   2.716   0.511
   50SOL    HW2 1050   6.454   2.852   0.528
   51SOL     OW 1051   1.976   5.682   2.873
   51SOL    HW1 1052   2.034   5.601   2.869
   51SOL    HW2 1053   1.880   5.655   2.872
   52SOL     OW 1054   6.454   3.244   2.049
   52SOL    HW1 1055   6.418   3.246   2.143
   52SOL    HW2 1056   6.452   3.150   2.015
   53SOL     OW 1057   4.178   0.617   1.865
   53SOL    HW1 1058   4.179   0.602   1.766
   53SOL    HW2 1059   4.197   0.713   1.885
   54SOL     OW 1060   5.479   6.993   6.570
   54SOL    HW1 1061   5.552   6.938   6.530
   54SOL    HW2 1062   5.500   0.066   6.559
   55SOL     OW 1063   1.038   3.480   6.220
   55SOL    HW1 1064   1.122   3.427   6.218
   55SOL    HW2 1065   1.014   3.507   6.126
   56SOL     OW 1066   0.853   2.508   6.621
   56SOL    HW1 1067   0.872   2.475   6.713
   56SOL    HW2 1068   0.772   2.568   6.623
   57SOL     OW 1069   4.499   6.360   0.164
   57SOL    HW1 1070   4.412   6.356   0.214
   57SOL    HW2 1071   4.482   6.385   0.069
   58SOL     OW 1072   0.589   0.410   0.337
   58SOL    HW1 1073   0.630   0.433   0.248
   58SOL    HW2 1074   0.573   0.311   0.341
   59SOL     OW 1075   5.393   3.373   5.485
   59SOL    HW1 1076   5.444   3.306   5.432
   59SOL    HW2 1077   5.456   3.433   5.533
   60SOL     OW 1078   5.238   1.814   2.438
   60SOL    HW1 1079   5.261   1.808   2.341
   60SOL    HW2 1080   5.200   1.904   2.458
   61SOL     OW 1081   0.441   5.881   4.544
   61SOL    HW1 1082   0.518   5.906   4.603
   61SOL    HW2 1083   0.442   5.938   4.462
   62SOL     OW 1084   6.160   2.881   2.347
   62SOL    HW1 1085   6.094   2.809   2.329
   62SOL    HW2 1086   6.149   2.914   2.441
   63SOL     OW 1087   4.148   6.706   5.743
   63SOL    HW1 1088   4.186   6.799   5.747
   63SOL    HW2 1089   4.066   6.706   5.686
   64SOL     OW 1090   0.866   4.127   5.176
   64SOL    HW1 1091   0.934   4.162   5.111
   64SOL    HW2 1092   0.836   4.036   5.148
   65SOL     OW 1093   0.593   6.137   4.873
   65SOL    HW1 1094   0.535   6.064   4.910
   65SOL    HW2 1095   0.535   6.207   4.831
   66SOL     OW 1096   3.683   0.921   2.181
   66SOL    HW1 1097   3.655   1.015   2.196
   66SOL    HW2 1098   3.696   0.905   2.083
   67SOL     OW 1099   0.194   2.871   1.797
   67SOL    HW1 1100   0.196   2.796   1.863
   67SOL    HW2 1101   0.269   2.935   1.816
   68SOL     OW 1102   6.863   1.872   5.833
   68SOL    HW1 1103   6.784   1.852   5.891
   68SOL    HW2 1104   6.904   1.786   5.801
   69SOL     OW 1105   1.064   6.038   6.479
   69SOL    HW1 1106   0.964   6.042   6.478
   69SOL    HW2 1107   1.092   5.942   6.490
   70SOL     OW 1108   5.175   3.646   3.984
   70SOL    HW1 1109   5.122   3.716   3.934
   70SOL    HW2 1110   5.215   3.582   3.919
   71SOL     OW 1111   5.292   2.148   4.642
   71SOL    HW1 1112   5.264   2.244   4.636
   71SOL    HW2 1113   5.293   2.108   4.550
   72SOL     OW 1114   0.574   0.429   2.847
   72SOL    HW1 1115   0.638   0.503   2.829
   72SOL    HW2 1116   0.498   0.434   2.783
   73SOL     OW 1117   3.331   0.848   0.773
   73SOL    HW1 1118   3.347   0.807   0.863
   73SOL    HW2 1119   3.400   0.815   0.709
   74SOL     OW 1120   2.319   2.341   1.204
   74SOL    HW1 1121   2.307   2.398   1.123
   74SOL    HW2 1122   2.282   2.388   1.284
   75SOL     OW 1123   3.081   3.220   0.897
   75SOL    HW1 1124   3.022   3.161   0.842
   75SOL    HW2 1125   3.043   3.229   0.989
   76SOL     OW 1126   3.728   4.724   5.447
   76SOL    HW1 1127   3.818   4.683   5.454
   76SOL    HW2 1128   3.684   4.724   5.537
   77SOL     OW 1129   0.435   5.480   4.321
   77SOL    HW1 1130   0.405   5.572   4.295
   77SOL    HW2 1131   0.369   5.441   4.385
   78SOL     OW 1132   4.844   1.751   1.299
   78SOL    HW1 1133   4.789   1.809   1.359
   78SOL    HW2 1134   4.785   1.683   1.255
   79SOL     OW 1135   0.945   4.488   3.187
   79SOL    HW1 1136   0.993   4.574   3.169
   79SOL    HW2 1137   0.875   4.503   3.257
   80SOL     OW 1138   3.689   1.007   5.300
   80SOL    HW1 1139   3.687   1.105   5.283
   80SOL    HW2 1140   3.633   0.961   5.230
   81SOL     OW 1141   4.799   5.402   1.868
   81SOL    HW1 1142   4.820   5.332   1.800
   81SOL    HW2 1143   4.781   5.358   1.956
   82SOL     OW 1144   2.957   6.145   2.027
   82SOL    HW1 1145   2.891   6.090   2.079
   82SOL    HW2 1146   3.040   6.157   2.081
   83SOL     OW 1147   5.609   1.242   4.740
   83SOL    HW1 1148   5.629   1.319   4.800
   83SOL    HW2 1149   5.511   1.239   4.721
   84SOL     OW 1150   5.198   2.548   2.244
   84SOL    HW1 1151   5.214   2.521   2.149
   84SOL    HW2 1152   5.100   2.566   2.257
   85SOL     OW 1153   2.589   6.762   4.105
   85SOL    HW1 1154   2.618   6.827   4.035
   85SOL    HW2 1155   2.668   6.707   4.134
   86SOL     OW 1156   5.820   0.027   0.347
   86SOL    HW1 1157   5.839   6.990   0.271
   86SOL    HW2 1158   5.833   0.122   0.318
   87SOL     OW 1159   2.425   4.399   6.249
   87SOL    HW1 1160   2.483   4.332   6.203
   87SOL    HW2 1161   2.455   4.491   6.224
   88SOL     OW 1162   2.925   3.476   1.064
   88SOL    HW1 1163   2.971   3.407   1.120
   88SOL    HW2 1164   2.828   3.479   1.088
   89SOL     OW 1165   3.451   3.887   3.949
   89SOL    HW1 1166   3.459   3.986   3.936
   89SOL    HW2 1167   3.522   3.856   4.012
   90SOL     OW 1168   4.845   3.531   1.883
   90SOL    HW1 1169   4.853   3.433   1.865
   90SOL    HW2 1170   4.850   3.582   1.796
   91SOL     OW 1171   4.090   5.165   5.608
   91SOL    HW1 1172   4.047   5.222   5.679
   91SOL    HW2 1173   4.070   5.203   5.518
   92SOL     OW 1174   5.087   3.368   6.586
   92SOL    HW1 1175   5.166   3.420   6.620
   92SOL    HW2 1176   5.105   3.336   6.493
   93SOL     OW 1177   3.203   3.695   2.437
   93SOL    HW1 1178   3.220   3.672   2.341
   93SOL    HW2 1179   3.183   3.793   2.444
   94SOL     OW 1180   3.360   2.104   4.682
   94SOL    HW1 1181   3.411   2.121   4.767
   94SOL    HW2 1182   3.263   2.121   4.698
   95SOL     OW 1183   0.470   0.365   3.754
   95SOL    HW1 1184   0.521   0.406   3.829
   95SOL    HW2 1185   0.461   0.267   3.770
   96SOL     OW 1186   6.417   4.933   6.784
   96SOL    HW1 1187   6.487   4.911   6.853
   96SOL    HW2 1188   6.459   4.932   6.693
   97SOL     OW 1189   2.056   4.498   5.195
   97SOL    HW1 1190   2.088   4.404   5.192
   97SOL    HW2 1191   2.132   4.559   5.218
   98SOL     OW 1192   1.929   2.095   3.212
   98SOL    HW1 1193   1.929   2.097   3.312
   98SOL    HW2 1194   1.835   2.098   3.178
   99SOL     OW 1195   3.691   3.873   5.229
   99SOL    HW1 1196   3.602   3.848   5.192
   99SOL    HW2 1197   3.687   3.874   5.329
  100SOL     OW 1198   6.933   0.954   5.106
  100SOL    HW1 1199   6.929   0.974   5.204
  100SOL    HW2 1200   6.842   0.962   5.066
  101SOL     OW 1201   6.274   3.810   2.281
  101SOL    HW1 1202   6.345   3.797   2.350
  101SOL    HW2 1203   6.186   3.824   2.326
  102SOL     OW 1204   4.816   6.936   0.276
  102SOL    HW1 1205   4.886   6.901   0.338
  102SOL    HW2 1206   4.727   6.933   0.322
  103SOL     OW 1207   2.889   1.041   2.031
  103SOL    HW1 1208   2.867   0.947   2.006
  103SOL    HW2 1209   2.979   1.064   1.995
  104SOL     OW 1210   6.635   4.871   2.001
  104SOL    HW1 1211   6.548   4.827   2.026
  104SOL    HW2 1212   6.709   4.804   2.007
  105SOL     OW 1213   6.193   0.759   5.480
  105SOL    HW1 1214   6.237   0.685   5.531
  105SOL    HW2 1215   6.242   0.845   5.497
  106SOL     OW 1216   4.976   4.526   1.320
  106SOL    HW1 1217   4.935   4.436   1.306
  106SOL    HW2 1218   5.070   4.525   1.284
  107SOL     OW 1219   5.868   0.317   1.560
  107SOL    HW1 1220   5.809   0.240   1.535
  107SOL    HW2 1221   5.816   0.380   1.618
  108SOL     OW 1222   2.792   1.049   4.219
  108SOL    HW1 1223   2.854   0.982   4.259
  108SOL    HW2 1224   2.710   1.058   4.276
  109SOL     OW 1225   1.655   1.225   4.321
  109SOL    HW1 1226   1.583   1.167   4.282
  109SOL    HW2 1227   1.668   1.305   4.262
  110SOL     OW 1228   3.396   4.206   6.036
  110SOL    HW1 1229   3.347   4.200   5.950
  110SOL    HW2 1230   3.452   4.124   6.049
  111SOL     OW 1231   6.209   3.190   1.422
  111SOL    HW1 1232   6.260   3.144   1.350
  111SOL    HW2 1233   6.271   3.244   1.478
  112SOL     OW 1234   4.940   6.256   6.420
  112SOL    HW1 1235   4.993   6.185   6.374
  112SOL    HW2 1236   4.894   6.312   6.352
  113SOL     OW 1237   0.492   5.371   2.593
  113SOL    HW1 1238   0.563   5.316   2.638
  113SOL    HW2 1239   0.511   5.375   2.495
  114SOL     OW 1240   6.951   2.700   2.276
  114SOL    HW1 1241   6.912   2.645   2.202
  114SOL    HW2 1242   7.019   2.763   2.239
  115SOL     OW 1243   5.248   0.479   3.198
  115SOL    HW1 1244   5.326   0.419   3.178
  115SOL    HW2 1245   5.257   0.564   3.147
  116SOL     OW 1246   0.238   4.986   0.371
  116SOL    HW1 1247   0.216   4.939   0.456
  116SOL    HW2 1248   0.321   4.946   0.331
  117SOL     OW 1249   2.141   2.393   0.252
  117SOL    HW1 1250   2.085   2.335   0.192
  117SOL    HW2 1251   2.102   2.392   0.344
  118SOL     OW 1252   0.099   2.063   2.926
  118SOL    HW1 1253   0.017   2.009   2.945
  118SOL    HW2 1254   0.077   2.136   2.861
  119SOL     OW 1255   6.049   0.010   5.917
  119SOL    HW1 1256   6.053   0.101   5.958
  119SOL    HW2 1257   6.062   0.017   5.818
  120SOL     OW 1258   5.583   2.770   5.074
  120SOL    HW1 1259   5.595   2.684   5.024
  120SOL    HW2 1260   5.616   2.846   5.018
  121SOL     OW 1261   1.020   4.950   6.779
  121SOL    HW1 1262   1.005   4.967   6.876
  121SOL    HW2 1263   1.110   4.910   6.765
  122SOL     OW 1264   6.670   4.573   6.272
  122SOL    HW1 1265   6.726   4.643   6.316
  122SOL    HW2 1266   6.639   4.606   6.183
  123SOL     OW 1267   1.021   2.209   1.899
  123SOL    HW1 1268   1.055   2.292   1.855
  123SOL    HW2 1269   0.967   2.234   1.980
  124SOL     OW 1270   1.847   3.212   0.004
  124SOL    HW1 1271   1.838   3.301   6.983
  124SOL    HW2 1272   1.841   3.139   6.960
  125SOL     OW 1273   4.519   3.020   0.546
  125SOL    HW1 1274   4.495   3.075   0.466
  125SOL    HW2 1275   4.528   3.079   0.626
  126SOL     OW 1276   4.084   3.608   4.451
  126SOL    HW1 1277   4.122   3.520   4.481
  126SOL    HW2 1278   4.098   3.619   4.353
  127SOL     OW 1279   0.204   5.657   5.792
  127SOL    HW1 1280   0.195   5.743   5.741
  127SOL    HW2 1281   0.222   5.677   5.888
  128SOL     OW 1282   4.666   3.256   6.881
  128SOL    HW1 1283   4.667   3.167   6.836
  128SOL    HW2 1284   4.610   3.321   6.829
  129SOL     OW 1285   1.363   5.484   2.082
  129SOL    HW1 1286   1.279   5.524   2.044
  129SOL    HW2 1287   1.409   5.553   2.139
  130SOL     OW 1288   6.549   3.016   3.620
  130SOL    HW1 1289   6.511   3.092   3.567
  130SOL    HW2 1290   6.535   3.033   3.717
  131SOL     OW 1291   0.327   2.296   3.419
  131SOL    HW1 1292   0.302   2.323   3.326
  131SOL    HW2 1293   0.385   2.368   3.459
  132SOL     OW 1294   3.527   3.095   2.117
  132SOL    HW1 1295   3.524   3.151   2.034
  132SOL    HW2 1296   3.437   3.095   2.161
  133SOL     OW 1297   5.747   6.464   6.353
  133SOL    HW1 1298   5.817   6.402   6.387
  133SOL    HW2 1299   5.790   6.540   6.304
  134SOL     OW 1300   5.677   1.425   1.412
  134SOL    HW1 1301   5.733   1.343   1.401
  134SOL    HW2 1302   5.600   1.405   1.473
  135SOL     OW 1303   4.764   2.919   3.827
  135SOL    HW1 1304   4.678   2.968   3.836
  135SOL    HW2 1305   4.787   2.907   3.730
  136SOL     OW 1306   3.359   0.373   6.377
  136SOL    HW1 1307   3.320   0.420   6.298
  136SOL    HW2 1308   3.416   0.437   6.429
  137SOL     OW 1309   3.284   3.417   6.241
  137SOL    HW1 1310   3.241   3.375   6.161
  137SOL    HW2 1311   3.345   3.351   6.285
  138SOL     OW 1312   0.957   5.141   5.985
  138SOL    HW1 1313   0.970   5.082   6.064
  138SOL    HW2 1314   1.044   5.183   5.960
  139SOL     OW 1315   2.007   6.495   1.159
  139SOL    HW1 1316   1.908   6.488   1.169
  139SOL    HW2 1317   2.051   6.459   1.241
  140SOL     OW 1318   3.245   0.434   1.377
  140SOL    HW1 1319   3.296   0.372   1.436
  140SOL    HW2 1320   3.280   0.527   1.389
  141SOL     OW 1321   6.919   2.934   0.611
  141SOL    HW1 1322   6.946   3.015   0.663
  141SOL    HW2 1323   6.820   2.927   0.609
  142SOL     OW 1324   1.707   4.309   1.472
  142SOL    HW1 1325   1.650   4.231   1.498
  142SOL    HW2 1326   1.713   4.373   1.549
  143SOL     OW 1327   4.637   6.147   2.223
  143SOL    HW1 1328   4.569   6.109   2.160
  143SOL    HW2 1329   4.690   6.072   2.263
  144SOL     OW 1330   3.321   5.225   3.827
  144SOL    HW1 1331   3.369   5.257   3.909
  144SOL    HW2 1332   3.235   5.275   3.816
  145SOL     OW 1333   6.814   4.451   3.162
  145SOL    HW1 1334   6.852   4.538   3.129
  145SOL    HW2 1335   6.724   4.469   3.203
  146SOL     OW 1336   4.972   0.592   6.241
  146SOL    HW1 1337   4.915   0.510   6.236
  146SOL    HW2 1338   5.065   0.566   6.268
  147SOL     OW 1339   4.950   1.153   4.954
  147SOL    HW1 1340   5.039   1.155   4.999
  147SOL    HW2 1341   4.962   1.141   4.856
  148SOL     OW 1342   1.527   5.918   1.520
  148SOL    HW1 1343   1.625   5.911   1.500
  148SOL    HW2 1344   1.512   5.992   1.586
  149SOL     OW 1345   2.096   2.396   4.928
  149SOL    HW1 1346   2.100   2.479   4.984
  149SOL    HW2 1347   2.087   2.316   4.988
  150SOL     OW 1348   4.269   1.582   5.155
  150SOL    HW1 1349   4.226   1.552   5.070
  150SOL    HW2 1350   4.364   1.550   5.158
  151SOL     OW 1351   4.279   2.872   1.420
  151SOL    HW1 1352   4.183   2.864   1.391
  151SOL    HW2 1353   4.299   2.967   1.442
  152SOL     OW 1354   0.367   2.464   0.520
  152SOL    HW1 1355   0.351   2.365   0.527
  152SOL    HW2 1356   0.403   2.485   0.429
  153SOL     OW 1357   2.550   1.530   3.508
  153SOL    HW1 1358   2.565   1.511   3.411
  153SOL    HW2 1359   2.633   1.568   3.548
  154SOL     OW 1360   6.548   1.746   2.676
  154SOL    HW1 1361   6.618   1.791   2.731
  154SOL    HW2 1362   6.459   1.787   2.696
  155SOL     OW 1363   0.958   6.558   2.292
  155SOL    HW1 1364   0.901   6.579   2.372
  155SOL    HW2 1365   1.019   6.635   2.273
  156SOL     OW 1366   5.665   2.801   0.712
  156SOL    HW1 1367   5.705   2.868   0.775
  156SOL    HW2 1368   5.618   2.730   0.764
  157SOL     OW 1369   4.140   5.535   0.524
  157SOL    HW1 1370   4.043   5.556   0.509
  157SOL    HW2 1371   4.190   5.549   0.438
  158SOL     OW 1372   6.949   2.809   3.934
  158SOL    HW1 1373   7.002   2.894   3.934
  158SOL    HW2 1374   6.856   2.829   3.903
  159SOL     OW 1375   6.188   5.257   0.676
  159SOL    HW1 1376   6.095   5.230   0.701
  159SOL    HW2 1377   6.188   5.294   0.584
  160SOL     OW 1378   6.519   0.039   1.968
  160SOL    HW1 1379   6.515   6.996   2.042
  160SOL    HW2 1380   6.562   7.021   1.888
  161SOL     OW 1381   0.814   5.891   0.945
  161SOL    HW1 1382   0.862   5.808   0.969
  161SOL    HW2 1383   0.733   5.901   1.003
  162SOL     OW 1384   4.811   6.641   6.890
  162SOL    HW1 1385   4.793   6.553   6.933
  162SOL    HW2 1386   4.869   6.697   6.949
  163SOL     OW 1387   0.336   3.951   2.438
  163SOL    HW1 1388   0.396   4.018   2.393
  163SOL    HW2 1389   0.266   4.000   2.490
  164SOL     OW 1390   2.979   2.105   4.095
  164SOL    HW1 1391   2.974   2.023   4.038
  164SOL    HW2 1392   3.031   2.085   4.178
  165SOL     OW 1393   0.490   5.974   3.521
  165SOL    HW1 1394   0.528   5.881   3.526
  165SOL    HW2 1395   0.392   5.968   3.497
  166SOL     OW 1396   6.519   4.064   2.934
  166SOL    HW1 1397   6.562   3.976   2.957
  166SOL    HW2 1398   6.586   4.137   2.941
  167SOL     OW 1399   2.605   1.700   6.948
  167SOL    HW1 1400   2.576   1.613   6.987
  167SOL    HW2 1401   2.685   1.734   6.998
  168SOL     OW 1402   4.173   4.091   1.466
  168SOL    HW1 1403   4.213   4.177   1.498
  168SOL    HW2 1404   4.245   4.029   1.437
  169SOL     OW 1405   4.662   2.393   0.945
  169SOL    HW1 1406   4.711   2.409   0.859
  169SOL    HW2 1407   4.600   2.469   0.963
  170SOL     OW 1408   6.987   6.128   2.322
  170SOL    HW1 1409   6.905   6.181   2.299
  170SOL    HW2 1410   0.020   6.120   2.240
  171SOL     OW 1411   3.431   3.450   0.679
  171SOL    HW1 1412   3.461   3.436   0.584
  171SOL    HW2 1413   3.366   3.379   0.704
  172SOL     OW 1414   0.275   2.200   6.570
  172SOL    HW1 1415   0.231   2.252   6.496
  172SOL    HW2 1416   0.371   2.227   6.577
  173SOL     OW 1417   6.623   1.498   4.283
  173SOL    HW1 1418   6.701   1.541   4.238
  173SOL    HW2 1419   6.538   1.533   4.243
  174SOL     OW 1420   5.460   5.344   5.107
  174SOL    HW1 1421   5.523   5.405   5.155
  174SOL    HW2 1422   5.368   5.383   5.109
  175SOL     OW 1423   0.664   6.711   1.477
  175SOL    HW1 1424   0.734   6.735   1.545
  175SOL    HW2 1425   0.582   6.765   1.494
  176SOL     OW 1426   6.170   4.237   1.221
  176SOL    HW1 1427   6.081   4.231   1.266
  176SOL    HW2 1428   6.241   4.206   1.284
  177SOL     OW 1429   5.668   2.666   4.279
  177SOL    HW1 1430   5.742   2.643   4.342
  177SOL    HW2 1431   5.692   2.637   4.187
  178SOL     OW 1432   2.273   6.230   5.388
  178SOL    HW1 1433   2.372   6.232   5.402
  178SOL    HW2 1434   2.245   6.137   5.362
  179SOL     OW 1435   3.412   4.550   0.729
  179SOL    HW1 1436   3.394   4.473   0.790
  179SOL    HW2 1437   3.479   4.522   0.660
  180SOL     OW 1438   3.756   1.083   0.633
  180SOL    HW1 1439   3.782   1.119   0.543
  180SOL    HW2 1440   3.686   1.013   0.621
  181SOL     OW 1441   3.369   2.051   5.506
  181SOL    HW1 1442   3.322   2.006   5.430
  181SOL    HW2 1443   3.303   2.078   5.575
  182SOL     OW 1444   3.803   2.847   6.157
  182SOL    HW1 1445   3.766   2.836   6.249
  182SOL    HW2 1446   3.836   2.759   6.123
  183SOL     OW 1447   3.894   1.326   3.429
  183SOL    HW1 1448   3.820   1.271   3.388
  183SOL    HW2 1449   3.863   1.420   3.441
  184SOL     OW 1450   5.062   5.785   3.653
  184SOL    HW1 1451   5.020   5.719   3.716
  184SOL    HW2 1452   4.992   5.822   3.592
  185SOL     OW 1453   6.988   0.387   4.438
  185SOL    HW1 1454   0.040   0.447   4.415
  185SOL    HW2 1455   7.015   0.292   4.422
  186SOL     OW 1456   4.177   6.530   4.320
  186SOL    HW1 1457   4.079   6.549   4.320
  186SOL    HW2 1458   4.195   6.445   4.271
  187SOL     OW 1459   4.183   6.090   1.805
  187SOL    HW1 1460   4.252   6.157   1.833
  187SOL    HW2 1461   4.093   6.119   1.837
  188SOL     OW 1462   1.259   3.120   3.373
  188SOL    HW1 1463   1.281   3.152   3.281
  188SOL    HW2 1464   1.290   3.187   3.441
  189SOL     OW 1465   5.938   5.087   5.866
  189SOL    HW1 1466   5.888   5.172   5.880
  189SOL    HW2 1467   6.006   5.076   5.939
  190SOL     OW 1468   6.340   0.564   0.129
  190SOL    HW1 1469   6.326   0.585   0.226
  190SOL    HW2 1470   6.254   0.577   0.079
  191SOL     OW 1471   0.287   0.784   5.269
  191SOL    HW1 1472   0.286   0.718   5.344
  191SOL    HW2 1473   0.240   0.745   5.190
  192SOL     OW 1474   0.587   5.143   0.838
  192SOL    HW1 1475   0.627   5.230   0.811
  192SOL    HW2 1476   0.488   5.145   0.823
  193SOL     OW 1477   2.876   6.277   0.412
  193SOL    HW1 1478   2.884   6.251   0.508
  193SOL    HW2 1479   2.930   6.360   0.395
  194SOL     OW 1480   4.167   6.427   2.063
  194SOL    HW1 1481   4.248   6.415   2.120
  194SOL    HW2 1482   4.124   6.516   2.083
  195SOL     OW 1483   3.781   1.096   0.908
  195SOL    HW1 1484   3.799   1.098   0.810
  195SOL    HW2 1485   3.749   1.185   0.939
  196SOL     OW 1486   3.083   2.236   6.920
  196SOL    HW1 1487   3.012   2.307   6.919
  196SOL    HW2 1488   3.148   2.253   6.846
  197SOL     OW 1489   2.543   6.200   0.363
  197SOL    HW1 1490   2.642   6.214   0.364
  197SOL    HW2 1491   2.500   6.260   0.429
  198SOL     OW 1492   4.063   0.864   0.038
  198SOL    HW1 1493   4.049   0.767   0.015
  198SOL    HW2 1494   3.989   0.918   7.022
  199SOL     OW 1495   0.227   0.614   2.535
  199SOL    HW1 1496   0.157   0.574   2.475
  199SOL    HW2 1497   0.294   0.664   2.480
  200SOL     OW 1498   0.120   4.136   3.134
  200SOL    HW1 1499   0.097   4.040   3.117
  200SOL    HW2 1500   0.059   4.172   3.206
  201SOL     OW 1501   4.204   1.481   6.638
  201SOL    HW1 1502   4.108   1.492   6.662
  201SOL    HW2 1503   4.233   1.388   6.657
  202SOL     OW 1504   3.395   0.468   2.702
  202SOL    HW1 1505   3.343   0.412   2.767
  202SOL    HW2 1506   3.484   0.491   2.741
  203SOL     OW 1507   5.478   2.491   6.879
  203SOL    HW1 1508   5.469   2.436   6.796
  203SOL    HW2 1509   5.402   2.472   6.941
  204SOL     OW 1510   2.878   5.877   1.278
  204SOL    HW1 1511   2.779   5.879   1.264
  204SOL    HW2 1512   2.899   5.815   1.354
  205SOL     OW 1513   6.612   0.487   0.136
  205SOL    HW1 1514   6.640   0.425   0.062
  205SOL    HW2 1515   6.512   0.492   0.139
  206SOL     OW 1516   0.868   4.312   1.207
  206SOL    HW1 1517   0.915   4.389   1.251
  206SOL    HW2 1518   0.770   4.317   1.227
  207SOL     OW 1519   4.701   0.627   5.827
  207SOL    HW1 1520   4.794   0.663   5.822
  207SOL    HW2 1521   4.636   0.696   5.796
  208SOL     OW 1522   3.470   4.724   6.014
  208SOL    HW1 1523   3.484   4.721   6.113
  208SOL    HW2 1524   3.520   4.649   5.971
  209SOL     OW 1525   6.471   5.426   5.705
  209SOL    HW1 1526   6.543   5.493   5.718
  209SOL    HW2 1527   6.408   5.430   5.782
  210SOL     OW 1528   4.142   2.097   2.247
  210SOL    HW1 1529   4.237   2.127   2.255
  210SOL    HW2 1530   4.139   2.010   2.197
  211SOL     OW 1531   1.458   1.970   2.133
  211SOL    HW1 1532   1.387   1.975   2.064
  211SOL    HW2 1533   1.501   1.880   2.130
  212SOL     OW 1534   0.943   5.027   3.786
  212SOL    HW1 1535   0.989   4.987   3.706
  212SOL    HW2 1536   0.959   4.969   3.866
  213SOL     OW 1537   4.397   2.715   6.864
  213SOL    HW1 1538   4.474   2.678   6.916
  213SOL    HW2 1539   4.351   2.641   6.816
  214SOL     OW 1540   1.676   0.190   2.478
  214SOL    HW1 1541   1.668   0.138   2.393
  214SOL    HW2 1542   1.695   0.127   2.553
  215SOL     OW 1543   3.140   3.527   2.635
  215SOL    HW1 1544   3.170   3.595   2.568
  215SOL    HW2 1545   3.191   3.443   2.623
  216SOL     OW 1546   0.552   6.352   6.091
  216SOL    HW1 1547   0.505   6.428   6.136
  216SOL    HW2 1548   0.571   6.376   5.995
  217SOL     OW 1549   0.117   2.785   3.565
  217SOL    HW1 1550   0.041   2.720   3.575
  217SOL    HW2 1551   0.200   2.744   3.604
  218SOL     OW 1552   1.174   3.879   5.751
  218SOL    HW1 1553   1.135   3.844   5.666
  218SOL    HW2 1554   1.268   3.845   5.760
  219SOL     OW 1555   4.501   4.887   0.129
  219SOL    HW1 1556   4.473   4.929   0.042
  219SOL    HW2 1557   4.596   4.912   0.148
  220SOL     OW 1558   3.201   5.237   0.253
  220SOL    HW1 1559   3.190   5.292   0.170
  220SOL    HW2 1560   3.219   5.297   0.331
  221SOL     OW 1561   6.524   2.198   4.046
  221SOL    HW1 1562   6.439   2.172   4.000
  221SOL    HW2 1563   6.601   2.179   3.986
  222SOL     OW 1564   1.288   6.238   5.151
  222SOL    HW1 1565   1.247   6.317   5.105
  222SOL    HW2 1566   1.350   6.192   5.087
  223SOL     OW 1567   6.648   3.905   1.702
  223SOL    HW1 1568   6.594   3.931   1.623
  223SOL    HW2 1569   6.743   3.935   1.690
  224SOL     OW 1570   3.169   2.196   1.765
  224SOL    HW1 1571   3.070   2.195   1.755
  224SOL    HW2 1572   3.196   2.134   1.839
  225SOL     OW 1573   6.801   0.278   0.483
  225SOL    HW1 1574   6.824   0.341   0.409
  225SOL    HW2 1575   6.875   0.211   0.494
  226SOL     OW 1576   6.657   5.668   0.994
  226SOL    HW1 1577   6.696   5.741   1.049
  226SOL    HW2 1578   6.731   5.618   0.947
  227SOL     OW 1579   1.474   2.787   4.078
  227SOL    HW1 1580   1.474   2.883   4.049
  227SOL    HW2 1581   1.381   2.751   4.073
  228SOL     OW 1582   3.836   0.079   3.245
  228SOL    HW1 1583   3.845   0.150   3.315
  228SOL    HW2 1584   3.927   0.052   3.213
  229SOL     OW 1585   6.107   5.485   2.475
  229SOL    HW1 1586   6.045   5.488   2.553
  229SOL    HW2 1587   6.199   5.458   2.506
  230SOL     OW 1588   1.568   4.015   5.731
  230SOL    HW1 1589   1.545   3.918   5.742
  230SOL    HW2 1590   1.615   4.047   5.813
  231SOL     OW 1591   0.679   1.893   6.874
  231SOL    HW1 1592   0.740   1.865   6.948
  231SOL    HW2 1593   0.706   1.983   6.840
  232SOL     OW 1594   1.905   5.051   6.790
  232SOL    HW1 1595   1.824   5.041   6.847
  232SOL    HW2 1596   1.922   4.966   6.740
  233SOL     OW 1597   2.684   1.019   5.963
  233SOL    HW1 1598   2.587   1.017   5.984
  233SOL    HW2 1599   2.709   0.935   5.914
  234SOL     OW 1600   2.705   5.925   6.868
  234SOL    HW1 1601   2.745   6.005   6.912
  234SOL    HW2 1602   2.772   5.883   6.807
  235SOL     OW 1603   3.580   3.249   4.835
  235SOL    HW1 1604   3.656   3.215   4.779
  235SOL    HW2 1605   3.534   3.171   4.879
  236SOL     OW 1606   6.812   2.850   5.823
  236SOL    HW1 1607   6.846   2.912   5.894
  236SOL    HW2 1608   6.796   2.902   5.739
  237SOL     OW 1609   0.819   6.880   1.995
  237SOL    HW1 1610   0.854   6.787   2.003
  237SOL    HW2 1611   0.875   6.942   2.050
  238SOL     OW 1612   5.798   2.269   1.953
  238SOL    HW1 1613   5.840   2.352   1.917
  238SOL    HW2 1614   5.708   2.290   1.990
  239SOL     OW 1615   0.744   5.447   0.637
  239SOL    HW1 1616   0.763   5.462   0.540
  239SOL    HW2 1617   0.817   5.485   0.692
  240SOL     OW 1618   6.763   3.982   5.270
  240SOL    HW1 1619   6.763   3.918   5.193
  240SOL    HW2 1620   6.736   3.934   5.354
  241SOL     OW 1621   0.150   0.967   3.402
  241SOL    HW1 1622   0.221   0.915   3.449
  241SOL    HW2 1623   0.149   1.061   3.436
  242SOL     OW 1624   2.209   3.029   3.754
  242SOL    HW1 1625   2.202   3.048   3.852
  242SOL    HW2 1626   2.257   2.943   3.741
  243SOL     OW 1627   4.666   0.688   5.146
  243SOL    HW1 1628   4.729   0.765   5.142
  243SOL    HW2 1629   4.717   0.603   5.138
  244SOL     OW 1630   6.641   1.156   5.498
  244SOL    HW1 1631   6.648   1.250   5.532
  244SOL    HW2 1632   6.596   1.100   5.568
  245SOL     OW 1633   6.194   1.637   3.550
  245SOL    HW1 1634   6.170   1.547   3.586
  245SOL    HW2 1635   6.199   1.703   3.625
  246SOL     OW 1636   4.969   3.137   3.102
  246SOL    HW1 1637   5.059   3.095   3.091
  246SOL    HW2 1638   4.928   3.152   3.012
  247SOL     OW 1639   3.243   1.397   3.443
  247SOL    HW1 1640   3.246   1.496   3.456
  247SOL    HW2 1641   3.296   1.372   3.362
  248SOL     OW 1642   5.923   1.450   2.834
  248SOL    HW1 1643   5.851   1.509   2.869
  248SOL    HW2 1644   5.930   1.368   2.890
  249SOL     OW 1645   2.965   0.250   3.554
  249SOL    HW1 1646   2.941   0.167   3.605
  249SOL    HW2 1647   2.929   0.242   3.460
  250SOL     OW 1648   4.674   3.054   6.051
  250SOL    HW1 1649   4.720   3.038   6.138
  250SOL    HW2 1650   4.577   3.028   6.059
  251SOL     OW 1651   2.291   2.686   0.482
  251SOL    HW1 1652   2.233   2.750   0.532
  251SOL    HW2 1653   2.347   2.634   0.546
  252SOL     OW 1654   0.592   1.308   6.322
  252SOL    HW1 1655   0.615   1.227   6.268
  252SOL    HW2 1656   0.550   1.377   6.263
  253SOL     OW 1657   2.648   3.882   6.065
  253SOL    HW1 1658   2.634   3.800   6.009
  253SOL    HW2 1659   2.659   3.961   6.005
  254SOL     OW 1660   5.901   3.788   5.477
  254SOL    HW1 1661   5.957   3.706   5.487
  254SOL    HW2 1662   5.833   3.792   5.550
  255SOL     OW 1663   3.555   2.074   3.635
  255SOL    HW1 1664   3.616   2.115   3.567
  255SOL    HW2 1665   3.476   2.034   3.589
  256SOL     OW 1666   6.333   5.640   0.074
  256SOL    HW1 1667   6.251   5.584   0.086
  256SOL    HW2 1668   6.307   5.737   0.078
  257SOL     OW 1669   2.800   5.550   5.737
  257SOL    HW1 1670   2.809   5.649   5.747
  257SOL    HW2 1671   2.857   5.504   5.805
  258SOL     OW 1672   4.791   3.938   4.168
  258SOL    HW1 1673   4.874   3.993   4.160
  258SOL    HW2 1674   4.731   3.958   4.090
  259SOL     OW 1675   1.540   2.250   2.971
  259SOL    HW1 1676   1.554   2.180   2.901
  259SOL    HW2 1677   1.588   2.223   3.055
  260SOL     OW 1678   6.287   6.979   6.385
  260SOL    HW1 1679   6.253   0.019   6.316
  260SOL    HW2 1680   6.229   6.984   6.466
  261SOL     OW 1681   1.162   1.795   2.829
  261SOL    HW1 1682   1.226   1.752   2.767
  261SOL    HW2 1683   1.200   1.881   2.863
  262SOL     OW 1684   1.388   5.233   2.213
  262SOL    HW1 1685   1.414   5.325   2.183
  262SOL    HW2 1686   1.290   5.229   2.232
  263SOL     OW 1687   0.583   1.668   4.396
  263SOL    HW1 1688   0.677   1.695   4.413
  263SOL    HW2 1689   0.581   1.577   4.354
  264SOL     OW 1690   2.553   4.643   6.164
  264SOL    HW1 1691   2.587   4.674   6.253
  264SOL    HW2 1692   2.626   4.650   6.096
  265SOL     OW 1693   5.336   5.168   5.361
  265SOL    HW1 1694   5.290   5.256   5.353
  265SOL    HW2 1695   5.413   5.164   5.297
  266SOL     OW 1696   4.225   2.616   0.557
  266SOL    HW1 1697   4.284   2.537   0.545
  266SOL    HW2 1698   4.269   2.697   0.517
  267SOL     OW 1699   1.452   1.329   5.883
  267SOL    HW1 1700   1.407   1.255   5.934
  267SOL    HW2 1701   1.401   1.414   5.895
  268SOL     OW 1702   3.415   5.239   4.337
  268SOL    HW1 1703   3.401   5.330   4.375
  268SOL    HW2 1704   3.355   5.174   4.384
  269SOL     OW 1705   0.993   1.058   5.947
  269SOL    HW1 1706   0.948   0.973   5.975
  269SOL    HW2 1707   1.084   1.037   5.912
  270SOL     OW 1708   5.016   0.658   3.696
  270SOL    HW1 1709   5.026   0.595   3.772
  270SOL    HW2 1710   5.100   0.712   3.686
  271SOL     OW 1711   1.517   1.340   6.912
  271SOL    HW1 1712   1.616   1.324   6.910
  271SOL    HW2 1713   1.477   1.287   6.986
  272SOL     OW 1714   4.206   5.676   2.947
  272SOL    HW1 1715   4.201   5.621   2.864
  272SOL    HW2 1716   4.263   5.757   2.930
  273SOL     OW 1717   2.748   0.181   4.933
  273SOL    HW1 1718   2.787   0.142   5.017
  273SOL    HW2 1719   2.809   0.252   4.897
  274SOL     OW 1720   5.992   2.105   1.399
  274SOL    HW1 1721   5.920   2.046   1.363
  274SOL    HW2 1722   6.008   2.181   1.336
  275SOL     OW 1723   5.839   5.664   5.061
  275SOL    HW1 1724   5.918   5.675   5.121
  275SOL    HW2 1725   5.868   5.632   4.971
  276SOL     OW 1726   6.326   6.289   3.977
  276SOL    HW1 1727   6.292   6.212   4.029
  276SOL    HW2 1728   6.252   6.353   3.959
  277SOL     OW 1729   4.772   1.275   5.661
  277SOL    HW1 1730   4.684   1.322   5.672
  277SOL    HW2 1731   4.836   1.336   5.615
  278SOL     OW 1732   5.851   3.018   3.138
  278SOL    HW1 1733   5.947   3.023   3.112
  278SOL    HW2 1734   5.811   2.933   3.104
  279SOL     OW 1735   0.115   3.633   4.948
  279SOL    HW1 1736   0.036   3.594   4.901
  279SOL    HW2 1737   0.083   3.698   5.018
  280SOL     OW 1738   3.142   0.649   3.157
  280SOL    HW1 1739   3.170   0.694   3.072
  280SOL    HW2 1740   3.216   0.655   3.224
  281SOL     OW 1741   6.037   6.245   3.639
  281SOL    HW1 1742   6.041   6.336   3.680
  281SOL    HW2 1743   5.981   6.249   3.556
  282SOL     OW 1744   2.399   1.964   0.427
  282SOL    HW1 1745   2.427   1.956   0.332
  282SOL    HW2 1746   2.478   1.949   0.486
  283SOL     OW 1747   6.979   2.033   4.660
  283SOL    HW1 1748   6.881   2.049   4.646
  283SOL    HW2 1749   0.005   2.119   4.647
  284SOL     OW 1750   4.876   6.117   3.330
  284SOL    HW1 1751   4.799   6.154   3.279
  284SOL    HW2 1752   4.940   6.190   3.352
  285SOL     OW 1753   4.291   0.479   6.270
  285SOL    HW1 1754   4.357   0.443   6.335
  285SOL    HW2 1755   4.199   0.462   6.303
  286SOL     OW 1756   2.191   4.861   5.263
  286SOL    HW1 1757   2.201   4.924   5.340
  286SOL    HW2 1758   2.261   4.790   5.270
  287SOL     OW 1759   3.151   6.926   6.350
  287SOL    HW1 1760   3.181   7.021   6.354
  287SOL    HW2 1761   3.173   6.881   6.437
  288SOL     OW 1762   4.316   0.487   1.235
  288SOL    HW1 1763   4.317   0.536   1.147
  288SOL    HW2 1764   4.226   0.495   1.277
  289SOL     OW 1765   6.159   5.958   3.240
  289SOL    HW1 1766   6.222   6.007   3.180
  289SOL    HW2 1767   6.096   5.904   3.184
  290SOL     OW 1768   3.626   0.512   6.182
  290SOL    HW1 1769   3.575   0.493   6.098
  290SOL    HW2 1770   3.565   0.505   6.261
  291SOL     OW 1771   2.946   6.704   4.954
  291SOL    HW1 1772   2.876   6.755   4.903
  291SOL    HW2 1773   3.002   6.769   5.006
  292SOL     OW 1774   4.417   0.230   4.280
  292SOL    HW1 1775   4.430   0.176   4.197
  292SOL    HW2 1776   4.424   0.327   4.258
  293SOL     OW 1777   5.614   7.008   2.061
  293SOL    HW1 1778   5.581   6.987   2.153
  293SOL    HW2 1779   5.630   0.083   2.054
  294SOL     OW 1780   6.282   0.549   5.950
  294SOL    HW1 1781   6.298   0.456   5.983
  294SOL    HW2 1782   6.282   0.612   6.027
  295SOL     OW 1783   1.273   1.844   4.804
  295SOL    HW1 1784   1.362   1.887   4.786
  295SOL    HW2 1785   1.212   1.912   4.846
  296SOL     OW 1786   6.981   1.974   0.720
  296SOL    HW1 1787   6.894   1.973   0.769
  296SOL    HW2 1788   0.003   1.886   0.732
  297SOL     OW 1789   5.285   3.044   3.488
  297SOL    HW1 1790   5.215   3.095   3.438
  297SOL    HW2 1791   5.253   3.024   3.580
  298SOL     OW 1792   4.111   0.243   6.026
  298SOL    HW1 1793   4.046   0.317   6.011
  298SOL    HW2 1794   4.192   0.256   5.968
  299SOL     OW 1795   0.890   0.867   0.077
  299SOL    HW1 1796   0.911   0.962   0.103
  299SOL    HW2 1797   0.941   0.844   7.018
  300SOL     OW 1798   4.411   0.267   3.441
  300SOL    HW1 1799   4.369   0.348   3.400
  300SOL    HW2 1800   4.460   0.294   3.525
  301SOL     OW 1801   6.285   5.773   1.012
  301SOL    HW1 1802   6.354   5.807   1.077
  301SOL    HW2 1803   6.298   5.675   0.998
  302SOL     OW 1804   0.758   5.280   1.682
  302SOL    HW1 1805   0.685   5.219   1.651
  302SOL    HW2 1806   0.838   5.268   1.624
  303SOL     OW 1807   5.585   6.235   3.097
  303SOL    HW1 1808   5.555   6.302   3.030
  303SOL    HW2 1809   5.505   6.186   3.133
  304SOL     OW 1810   2.429   5.722   4.837
  304SOL    HW1 1811   2.369   5.722   4.758
  304SOL    HW2 1812   2.513   5.672   4.816
  305SOL     OW 1813   0.983   3.000   2.392
  305SOL    HW1 1814   1.045   3.010   2.314
  305SOL    HW2 1815   1.017   2.928   2.452
  306SOL     OW 1816   0.390   6.410   3.058
  306SOL    HW1 1817   0.330   6.474   3.104
  306SOL    HW2 1818   0.456   6.460   3.002
  307SOL     OW 1819   3.560   2.923   4.098
  307SOL    HW1 1820   3.545   2.890   4.192
  307SOL    HW2 1821   3.490   2.884   4.038
  308SOL     OW 1822   5.318   2.789   3.193
  308SOL    HW1 1823   5.369   2.728   3.132
  308SOL    HW2 1824   5.254   2.735   3.248
  309SOL     OW 1825   1.715   6.632   6.877
  309SOL    HW1 1826   1.698   6.553   6.936
  309SOL    HW2 1827   1.639   6.696   6.884
  310SOL     OW 1828   5.184   0.504   5.103
  310SOL    HW1 1829   5.251   0.565   5.144
  310SOL    HW2 1830   5.114   0.481   5.171
  311SOL     OW 1831   2.022   5.754   2.570
  311SOL    HW1 1832   1.965   5.835   2.566
  311SOL    HW2 1833   2.027   5.720   2.664
  312SOL     OW 1834   3.967   0.899   3.282
  312SOL    HW1 1835   3.890   0.949   3.244
  312SOL    HW2 1836   3.948   0.877   3.378
  313SOL     OW 1837   4.166   3.588   2.755
  313SOL    HW1 1838   4.122   3.568   2.667
  313SOL    HW2 1839   4.176   3.686   2.765
  314SOL     OW 1840   2.237   5.684   5.759
  314SOL    HW1 1841   2.152   5.726   5.727
  314SOL    HW2 1842   2.300   5.755   5.789
  315SOL     OW 1843   6.280   0.667   3.665
  315SOL    HW1 1844   6.296   0.676   3.567
  315SOL    HW2 1845   6.368   0.659   3.712
  316SOL     OW 1846   4.016   1.164   6.310
  316SOL    HW1 1847   4.093   1.128   6.258
  316SOL    HW2 1848   4.044   1.181   6.405
  317SOL     OW 1849   1.329   1.596   1.939
  317SOL    HW1 1850   1.397   1.557   1.877
  317SOL    HW2 1851   1.250   1.627   1.886
  318SOL     OW 1852   1.039   0.305   4.883
  318SOL    HW1 1853   0.972   0.319   4.810
  318SOL    HW2 1854   1.069   0.210   4.883
  319SOL     OW 1855   1.302   1.355   2.470
  319SOL    HW1 1856   1.270   1.285   2.534
  319SOL    HW2 1857   1.236   1.430   2.468
  320SOL     OW 1858   5.904   2.292   6.153
  320SOL    HW1 1859   5.817   2.337   6.134
  320SOL    HW2 1860   5.889   2.212   6.211
  321SOL     OW 1861   4.764   3.115   0.801
  321SOL    HW1 1862   4.757   3.214   0.809
  321SOL    HW2 1863   4.678   3.073   0.830
  322SOL     OW 1864   3.331   3.657   5.832
  322SOL    HW1 1865   3.288   3.606   5.758
  322SOL    HW2 1866   3.412   3.607   5.864
  323SOL     OW 1867   1.068   3.891   2.111
  323SOL    HW1 1868   1.157   3.848   2.128
  323SOL    HW2 1869   0.996   3.824   2.129
  324SOL     OW 1870   0.109   0.146   3.006
  324SOL    HW1 1871   0.047   0.097   3.068
  324SOL    HW2 1872   0.074   0.238   2.990
  325SOL     OW 1873   0.162   3.865   1.670
  325SOL    HW1 1874   0.132   3.927   1.743
  325SOL    HW2 1875   0.086   3.805   1.644
  326SOL     OW 1876   0.971   6.593   6.167
  326SOL    HW1 1877   1.061   6.609   6.208
  326SOL    HW2 1878   0.955   6.495   6.159
  327SOL     OW 1879   5.016   5.282   3.775
  327SOL    HW1 1880   4.980   5.351   3.712
  327SOL    HW2 1881   5.008   5.315   3.869
  328SOL     OW 1882   1.909   4.030   2.738
  328SOL    HW1 1883   1.906   3.965   2.662
  328SOL    HW2 1884   1.877   3.987   2.821
  329SOL     OW 1885   3.110   3.500   2.052
  329SOL    HW1 1886   3.019   3.464   2.071
  329SOL    HW2 1887   3.105   3.565   1.977
  330SOL     OW 1888   2.960   5.938   0.853
  330SOL    HW1 1889   3.036   5.936   0.788
  330SOL    HW2 1890   2.934   5.845   0.877
  331SOL     OW 1891   5.571   5.130   6.758
  331SOL    HW1 1892   5.642   5.109   6.691
  331SOL    HW2 1893   5.568   5.058   6.827
  332SOL     OW 1894   6.052   2.095   3.404
  332SOL    HW1 1895   6.140   2.112   3.447
  332SOL    HW2 1896   6.057   2.010   3.351
  333SOL     OW 1897   2.971   0.982   5.633
  333SOL    HW1 1898   2.911   0.921   5.685
  333SOL    HW2 1899   2.940   1.076   5.644
  334SOL     OW 1900   4.066   3.212   3.382
  334SOL    HW1 1901   4.053   3.186   3.477
  334SOL    HW2 1902   4.071   3.129   3.325
  335SOL     OW 1903   3.828   0.960   6.942
  335SOL    HW1 1904   3.811   0.876   6.891
  335SOL    HW2 1905   3.741   0.996   6.977
  336SOL     OW 1906   2.939   1.589   3.738
  336SOL    HW1 1907   3.032   1.575   3.770
  336SOL    HW2 1908   2.914   1.516   3.674
  337SOL     OW 1909   1.671   0.360   6.177
  337SOL    HW1 1910   1.673   0.329   6.272
  337SOL    HW2 1911   1.607   0.304   6.125
  338SOL     OW 1912   3.988   1.687   1.246
  338SOL    HW1 1913   3.951   1.761   1.303
  338SOL    HW2 1914   3.999   1.720   1.153
  339SOL     OW 1915   3.888   5.551   4.724
  339SOL    HW1 1916   3.945   5.624   4.763
  339SOL    HW2 1917   3.922   5.527   4.633
  340SOL     OW 1918   5.148   2.210   4.296
  340SOL    HW1 1919   5.163   2.136   4.361
  340SOL    HW2 1920   5.129   2.171   4.206
  341SOL     OW 1921   6.281   6.116   2.735
  341SOL    HW1 1922   6.361   6.084   2.787
  341SOL    HW2 1923   6.308   6.192   2.677
  342SOL     OW 1924   4.593   2.197   2.199
  342SOL    HW1 1925   4.679   2.247   2.188
  342SOL    HW2 1926   4.581   2.134   2.122
  343SOL     OW 1927   6.761   5.688   2.724
  343SOL    HW1 1928   6.780   5.786   2.732
  343SOL    HW2 1929   6.816   5.650   2.649
  344SOL     OW 1930   1.725   2.649   1.657
  344SOL    HW1 1931   1.824   2.643   1.645
  344SOL    HW2 1932   1.704   2.660   1.754
  345SOL     OW 1933   6.829   3.645   3.865
  345SOL    HW1 1934   6.927   3.654   3.880
  345SOL    HW2 1935   6.812   3.613   3.771
  346SOL     OW 1936   2.194   6.703   3.366
  346SOL    HW1 1937   2.125   6.764   3.328
  346SOL    HW2 1938   2.278   6.755   3.384
  347SOL     OW 1939   2.471   4.844   0.687
  347SOL    HW1 1940   2.448   4.765   0.743
  347SOL    HW2 1941   2.444   4.928   0.735
  348SOL     OW 1942   4.477   5.261   1.273
  348SOL    HW1 1943   4.533   5.326   1.325
  348SOL    HW2 1944   4.487   5.279   1.175
  349SOL     OW 1945   6.438   4.319   1.432
  349SOL    HW1 1946   6.437   4.413   1.397
  349SOL    HW2 1947   6.345   4.292   1.457
  350SOL     OW 1948   3.415   2.938   0.395
  350SOL    HW1 1949   3.414   2.868   0.323
  350SOL    HW2 1950   3.509   2.968   0.411
  351SOL     OW 1951   3.168   4.474   1.007
  351SOL    HW1 1952   3.236   4.417   0.959
  351SOL    HW2 1953   3.129   4.540   0.942
  352SOL     OW 1954   4.146   0.124   3.123
  352SOL    HW1 1955   4.245   0.132   3.134
  352SOL    HW2 1956   4.105   0.214   3.128
  353SOL     OW 1957   2.118   6.929   6.742
  353SOL    HW1 1958   2.085   6.928   6.647
  353SOL    HW2 1959   2.082   6.848   6.790
  354SOL     OW 1960   0.349   2.918   0.570
  354SOL    HW1 1961   0.276   2.849   0.561
  354SOL    HW2 1962   0.308   3.009   0.567
  355SOL     OW 1963   1.983   2.055   2.570
  355SOL    HW1 1964   1.900   2.052   2.515
  355SOL    HW2 1965   2.001   2.149   2.598
  356SOL     OW 1966   1.002   6.902   6.212
  356SOL    HW1 1967   1.077   6.934   6.156
  356SOL    HW2 1968   0.959   6.822   6.168
  357SOL     OW 1969   5.327   6.930   5.137
  357SOL    HW1 1970   5.418   6.891   5.154
  357SOL    HW2 1971   5.303   6.919   5.041
  358SOL     OW 1972   4.034   5.605   0.045
  358SOL    HW1 1973   4.018   5.701   0.069
  358SOL    HW2 1974   4.125   5.578   0.076
  359SOL     OW 1975   2.277   1.762   2.676
  359SOL    HW1 1976   2.312   1.833   2.615
  359SOL    HW2 1977   2.236   1.805   2.757
  360SOL     OW 1978   1.175   4.518   4.212
  360SOL    HW1 1979   1.244   4.572   4.163
  360SOL    HW2 1980   1.102   4.493   4.148
  361SOL     OW 1981   6.425   0.762   2.928
  361SOL    HW1 1982   6.418   0.664   2.948
  361SOL    HW2 1983   6.473   0.775   2.841
  362SOL     OW 1984   4.252   4.855   0.888
  362SOL    HW1 1985   4.251   4.873   0.790
  362SOL    HW2 1986   4.162   4.826   0.919
  363SOL     OW 1987   5.611   5.156   2.131
  363SOL    HW1 1988   5.613   5.248   2.091
  363SOL    HW2 1989   5.630   5.088   2.060
  364SOL     OW 1990   0.811   6.302   6.144
  364SOL    HW1 1991   0.836   6.287   6.240
  364SOL    HW2 1992   0.712   6.293   6.134
  365SOL     OW 1993   4.862   1.840   3.180
  365SOL    HW1 1994   4.854   1.778   3.101
  365SOL    HW2 1995   4.771   1.867   3.211
  366SOL     OW 1996   5.422   1.927   6.983
  366SOL    HW1 1997   5.448   2.024   6.986
  366SOL    HW2 1998   5.503   1.870   7.000
  367SOL     OW 1999   5.115   1.725   5.700
  367SOL    HW1 2000   5.017   1.712   5.715
  367SOL    HW2 2001   5.146   1.804   5.753
  368SOL     OW 2002   6.169   2.340   6.253
  368SOL    HW1 2003   6.072   2.345   6.232
  368SOL    HW2 2004   6.202   2.430   6.283
  369SOL     OW 2005   6.180   2.945   2.596
  369SOL    HW1 2006   6.124   2.985   2.669
  369SOL    HW2 2007   6.238   2.873   2.634
  370SOL     OW 2008   2.009   3.368   3.487
  370SOL    HW1 2009   2.056   3.279   3.490
  370SOL    HW2 2010   1.910   3.353   3.490
  371SOL     OW 2011   1.413   5.126   6.623
  371SOL    HW1 2012   1.458   5.064   6.558
  371SOL    HW2 2013   1.478   5.151   6.695
  372SOL     OW 2014   3.154   6.399   6.508
  372SOL    HW1 2015   3.136   6.333   6.581
  372SOL    HW2 2016   3.091   6.477   6.517
  373SOL     OW 2017   5.873   5.726   4.255
  373SOL    HW1 2018   5.825   5.655   4.204
  373SOL    HW2 2019   5.807   5.779   4.308
  374SOL     OW 2020   2.694   1.985   3.055
  374SOL    HW1 2021   2.688   2.072   3.104
  374SOL    HW2 2022   2.790   1.960   3.043
  375SOL     OW 2023   1.315   4.992   4.989
  375SOL    HW1 2024   1.284   4.907   5.033
  375SOL    HW2 2025   1.367   5.047   5.055
  376SOL     OW 2026   2.758   0.884   4.521
  376SOL    HW1 2027   2.674   0.831   4.507
  376SOL    HW2 2028   2.822   0.866   4.446
  377SOL     OW 2029   0.758   2.113   6.772
  377SOL    HW1 2030   0.853   2.108   6.802
  377SOL    HW2 2031   0.754   2.158   6.682
  378SOL     OW 2032   3.609   0.939   1.710
  378SOL    HW1 2033   3.657   0.980   1.632
  378SOL    HW2 2034   3.512   0.927   1.686
  379SOL     OW 2035   6.600   1.688   6.324
  379SOL    HW1 2036   6.625   1.606   6.272
  379SOL    HW2 2037   6.563   1.661   6.413
  380SOL     OW 2038   3.997   1.919   1.041
  380SOL    HW1 2039   4.096   1.914   1.025
  380SOL    HW2 2040   3.974   2.009   1.079
  381SOL     OW 2041   1.840   3.838   3.204
  381SOL    HW1 2042   1.931   3.798   3.197
  381SOL    HW2 2043   1.796   3.837   3.115
  382SOL     OW 2044   5.292   0.317   0.070
  382SOL    HW1 2045   5.328   0.296   7.003
  382SOL    HW2 2046   5.368   0.340   0.131
  383SOL     OW 2047   4.058   2.929   0.640
  383SOL    HW1 2048   4.085   2.833   0.628
  383SOL    HW2 2049   3.963   2.934   0.669
  384SOL     OW 2050   5.786   4.252   4.938
  384SOL    HW1 2051   5.713   4.198   4.897
  384SOL    HW2 2052   5.794   4.229   5.035
  385SOL     OW 2053   4.453   4.233   0.305
  385SOL    HW1 2054   4.516   4.157   0.289
  385SOL    HW2 2055   4.506   4.315   0.328
  386SOL     OW 2056   3.454   6.483   3.915
  386SOL    HW1 2057   3.514   6.536   3.974
  386SOL    HW2 2058   3.365   6.473   3.959
  387SOL     OW 2059   2.120   5.912   3.594
  387SOL    HW1 2060   2.167   5.841   3.648
  387SOL    HW2 2061   2.167   5.999   3.605
  388SOL     OW 2062   2.142   3.087   6.364
  388SOL    HW1 2063   2.200   3.012   6.332
  388SOL    HW2 2064   2.106   3.065   6.455
  389SOL     OW 2065   2.947   3.763   3.209
  389SOL    HW1 2066   2.882   3.771   3.133
  389SOL    HW2 2067   2.967   3.666   3.226
  390SOL     OW 2068   2.024   1.225   4.511
  390SOL    HW1 2069   1.945   1.190   4.460
  390SOL    HW2 2070   2.097   1.157   4.512
  391SOL     OW 2071   0.673   3.209   6.990
  391SOL    HW1 2072   0.688   3.181   6.895
  391SOL    HW2 2073   0.590   3.265   6.995
  392SOL     OW 2074   2.554   4.835   2.749
  392SOL    HW1 2075   2.463   4.800   2.731
  392SOL    HW2 2076   2.619   4.795   2.684
  393SOL     OW 2077   5.908   4.773   4.578
  393SOL    HW1 2078   5.813   4.803   4.574
  393SOL    HW2 2079   5.969   4.852   4.573
  394SOL     OW 2080   1.372   0.233   0.579
  394SOL    HW1 2081   1.464   0.272   0.570
  394SOL    HW2 2082   1.360   0.160   0.512
  395SOL     OW 2083   4.885   4.254   1.303
  395SOL    HW1 2084   4.872   4.284   1.209
  395SOL    HW2 2085   4.802   4.211   1.336
  396SOL     OW 2086   3.540   4.175   3.672
  396SOL    HW1 2087   3.515   4.240   3.601
  396SOL    HW2 2088   3.464   4.112   3.689
  397SOL     OW 2089   4.597   1.828   5.699
  397SOL    HW1 2090   4.585   1.872   5.609
  397SOL    HW2 2091   4.508   1.817   5.742
  398SOL     OW 2092   1.165   4.915   2.481
  398SOL    HW1 2093   1.111   4.835   2.506
  398SOL    HW2 2094   1.108   4.997   2.488
  399SOL     OW 2095   4.909   5.009   1.212
  399SOL    HW1 2096   4.875   5.047   1.126
  399SOL    HW2 2097   5.004   4.981   1.202
  400SOL     OW 2098   0.342   5.931   5.241
  400SOL    HW1 2099   0.358   5.834   5.262
  400SOL    HW2 2100   0.323   5.980   5.326
  401SOL     OW 2101   5.048   2.280   6.935
  401SOL    HW1 2102   5.042   2.202   6.873
  401SOL    HW2 2103   4.956   2.316   6.952
  402SOL     OW 2104   6.150   5.885   1.410
  402SOL    HW1 2105   6.088   5.835   1.350
  402SOL    HW2 2106   6.108   5.971   1.438
  403SOL     OW 2107   4.535   2.265   5.792
  403SOL    HW1 2108   4.517   2.196   5.862
  403SOL    HW2 2109   4.448   2.293   5.750
  404SOL     OW 2110   0.815   0.039   4.289
  404SOL    HW1 2111   0.814   6.963   4.297
  404SOL    HW2 2112   0.839   0.064   4.195
  405SOL     OW 2113   0.916   2.409   1.139
  405SOL    HW1 2114   0.988   2.450   1.195
  405SOL    HW2 2115   0.957   2.369   1.057
  406SOL     OW 2116   1.662   2.599   4.055
  406SOL    HW1 2117   1.684   2.632   3.963
  406SOL    HW2 2118   1.575   2.640   4.084
  407SOL     OW 2119   2.647   0.550   5.195
  407SOL    HW1 2120   2.662   0.643   5.228
  407SOL    HW2 2121   2.568   0.510   5.241
  408SOL     OW 2122   1.940   0.525   3.647
  408SOL    HW1 2123   1.866   0.492   3.588
  408SOL    HW2 2124   1.903   0.545   3.737
  409SOL     OW 2125   5.596   3.302   3.692
  409SOL    HW1 2126   5.595   3.371   3.765
  409SOL    HW2 2127   5.575   3.346   3.605
  410SOL     OW 2128   2.455   0.905   6.583
  410SOL    HW1 2129   2.450   0.940   6.489
  410SOL    HW2 2130   2.517   0.962   6.636
  411SOL     OW 2131   6.278   4.711   4.991
  411SOL    HW1 2132   6.360   4.686   5.042
  411SOL    HW2 2133   6.225   4.628   4.970
  412SOL     OW 2134   4.158   0.405   2.286
  412SOL    HW1 2135   4.081   0.463   2.314
  412SOL    HW2 2136   4.125   0.338   2.219
  413SOL     OW 2137   3.333   6.401   0.440
  413SOL    HW1 2138   3.402   6.429   0.507
  413SOL    HW2 2139   3.267   6.340   0.484
  414SOL     OW 2140   4.305   4.090   0.489
  414SOL    HW1 2141   4.353   4.138   0.416
  414SOL    HW2 2142   4.243   4.022   0.449
  415SOL     OW 2143   2.166   6.763   1.411
  415SOL    HW1 2144   2.200   6.783   1.503
  415SOL    HW2 2145   2.120   6.674   1.411
  416SOL     OW 2146   4.237   6.136   4.926
  416SOL    HW1 2147   4.159   6.194   4.949
  416SOL    HW2 2148   4.311   6.193   4.890
  417SOL     OW 2149   4.159   6.184   2.342
  417SOL    HW1 2150   4.078   6.241   2.359
  417SOL    HW2 2151   4.226   6.200   2.414
  418SOL     OW 2152   4.832   5.625   0.464
  418SOL    HW1 2153   4.923   5.586   0.477
  418SOL    HW2 2154   4.836   5.724   0.479
  419SOL     OW 2155   0.278   6.614   1.230
  419SOL    HW1 2156   0.374   6.641   1.235
  419SOL    HW2 2157   0.237   6.620   1.321
  420SOL     OW 2158   5.080   4.382   0.097
  420SOL    HW1 2159   5.000   4.334   0.062
  420SOL    HW2 2160   5.127   4.428   0.022
  421SOL     OW 2161   2.442   6.348   6.382
  421SOL    HW1 2162   2.355   6.327   6.427
  421SOL    HW2 2163   2.494   6.264   6.367
  422SOL     OW 2164   5.694   4.112   6.440
  422SOL    HW1 2165   5.656   4.049   6.373
  422SOL    HW2 2166   5.620   4.158   6.490
  423SOL     OW 2167   6.079   2.863   7.003
  423SOL    HW1 2168   6.105   2.785   0.036
  423SOL    HW2 2169   6.112   2.947   0.021
  424SOL     OW 2170   2.810   4.235   0.846
  424SOL    HW1 2171   2.752   4.291   0.905
  424SOL    HW2 2172   2.753   4.190   0.777
  425SOL     OW 2173   3.190   1.521   1.110
  425SOL    HW1 2174   3.119   1.541   1.043
  425SOL    HW2 2175   3.170   1.434   1.155
  426SOL     OW 2176   5.094   3.143   6.073
  426SOL    HW1 2177   5.013   3.088   6.055
  426SOL    HW2 2178   5.174   3.101   6.029
  427SOL     OW 2179   5.674   4.173   1.287
  427SOL    HW1 2180   5.578   4.194   1.265
  427SOL    HW2 2181   5.677   4.089   1.341
  428SOL     OW 2182   4.221   0.453   5.506
  428SOL    HW1 2183   4.125   0.462   5.532
  428SOL    HW2 2184   4.233   0.482   5.411
  429SOL     OW 2185   1.656   4.884   6.917
  429SOL    HW1 2186   1.622   4.963   6.967
  429SOL    HW2 2187   1.691   4.816   6.982
  430SOL     OW 2188   1.355   6.862   4.800
  430SOL    HW1 2189   1.285   6.927   4.770
  430SOL    HW2 2190   1.445   6.895   4.772
  431SOL     OW 2191   3.901   2.065   0.178
  431SOL    HW1 2192   3.835   2.045   0.250
  431SOL    HW2 2193   3.883   2.008   0.098
  432SOL     OW 2194   6.854   1.337   0.432
  432SOL    HW1 2195   6.830   1.341   0.529
  432SOL    HW2 2196   6.880   1.243   0.408
  433SOL     OW 2197   3.084   6.461   4.951
  433SOL    HW1 2198   3.032   6.546   4.943
  433SOL    HW2 2199   3.181   6.478   4.930
  434SOL     OW 2200   5.669   3.562   1.246
  434SOL    HW1 2201   5.626   3.476   1.275
  434SOL    HW2 2202   5.631   3.638   1.298
  435SOL     OW 2203   3.254   3.793   6.471
  435SOL    HW1 2204   3.300   3.815   6.557
  435SOL    HW2 2205   3.323   3.777   6.400
  436SOL     OW 2206   1.492   0.753   0.834
  436SOL    HW1 2207   1.447   0.664   0.828
  436SOL    HW2 2208   1.564   0.749   0.903
  437SOL     OW 2209   0.200   0.431   6.353
  437SOL    HW1 2210   0.191   0.464   6.259
  437SOL    HW2 2211   0.240   0.339   6.353
  438SOL     OW 2212   1.706   3.224   1.899
  438SOL    HW1 2213   1.610   3.255   1.903
  438SOL    HW2 2214   1.749   3.261   1.817
  439SOL     OW 2215   6.256   5.059   2.158
  439SOL    HW1 2216   6.235   4.962   2.144
  439SOL    HW2 2217   6.201   5.114   2.095
  440SOL     OW 2218   0.790   2.318   3.703
  440SOL    HW1 2219   0.771   2.284   3.611
  440SOL    HW2 2220   0.799   2.241   3.766
  441SOL     OW 2221   1.465   1.515   3.049
  441SOL    HW1 2222   1.539   1.481   2.992
  441SOL    HW2 2223   1.385   1.456   3.039
  442SOL     OW 2224   6.668   3.994   6.993
  442SOL    HW1 2225   6.634   3.900   6.989
  442SOL    HW2 2226   6.653   4.039   6.905
  443SOL     OW 2227   1.413   3.634   5.019
  443SOL    HW1 2228   1.376   3.722   5.050
  443SOL    HW2 2229   1.360   3.601   4.941
  444SOL     OW 2230   4.411   2.368   6.225
  444SOL    HW1 2231   4.370   2.323   6.304
  444SOL    HW2 2232   4.486   2.427   6.256
  445SOL     OW 2233   2.375   4.464   3.692
  445SOL    HW1 2234   2.440   4.537   3.668
  445SOL    HW2 2235   2.376   4.393   3.622
  446SOL     OW 2236   3.967   5.144   3.644
  446SOL    HW1 2237   3.895   5.085   3.682
  446SOL    HW2 2238   3.966   5.136   3.544
  447SOL     OW 2239   0.137   5.249   0.371
  447SOL    HW1 2240   0.172   5.157   0.354
  447SOL    HW2 2241   0.053   5.244   0.425
  448SOL     OW 2242   4.068   0.972   5.328
  448SOL    HW1 2243   3.984   0.919   5.334
  448SOL    HW2 2244   4.125   0.954   5.409
  449SOL     OW 2245   6.057   1.003   4.412
  449SOL    HW1 2246   6.140   1.005   4.356
  449SOL    HW2 2247   6.006   0.919   4.392
  450SOL     OW 2248   0.218   5.921   3.545
  450SOL    HW1 2249   0.121   5.938   3.562
  450SOL    HW2 2250   0.263   5.894   3.630
  451SOL     OW 2251   0.565   1.360   2.476
  451SOL    HW1 2252   0.522   1.409   2.552
  451SOL    HW2 2253   0.497   1.299   2.434
  452SOL     OW 2254   0.363   4.238   0.648
  452SOL    HW1 2255   0.264   4.226   0.650
  452SOL    HW2 2256   0.386   4.330   0.619
  453SOL     OW 2257   3.239   1.544   6.577
  453SOL    HW1 2258   3.229   1.444   6.572
  453SOL    HW2 2259   3.160   1.587   6.532
  454SOL     OW 2260   0.621   6.440   6.822
  454SOL    HW1 2261   0.686   6.514   6.838
  454SOL    HW2 2262   0.554   6.469   6.753
  455SOL     OW 2263   6.160   0.421   3.840
  455SOL    HW1 2264   6.166   0.433   3.939
  455SOL    HW2 2265   6.071   0.453   3.808
  456SOL     OW 2266   4.289   5.827   6.398
  456SOL    HW1 2267   4.244   5.760   6.339
  456SOL    HW2 2268   4.260   5.813   6.493
  457SOL     OW 2269   2.299   4.294   3.118
  457SOL    HW1 2270   2.253   4.277   3.206
  457SOL    HW2 2271   2.324   4.207   3.076
  458SOL     OW 2272   5.990   5.849   5.407
  458SOL    HW1 2273   5.920   5.915   5.380
  458SOL    HW2 2274   6.039   5.884   5.487
  459SOL     OW 2275   1.171   0.539   2.754
  459SOL    HW1 2276   1.228   0.571   2.831
  459SOL    HW2 2277   1.157   0.441   2.763
  460SOL     OW 2278   6.490   1.719   2.305
  460SOL    HW1 2279   6.590   1.720   2.309
  460SOL    HW2 2280   6.455   1.653   2.371
  461SOL     OW 2281   4.626   0.014   5.018
  461SOL    HW1 2282   4.550   0.032   5.080
  461SOL    HW2 2283   4.680   0.097   5.006
  462SOL     OW 2284   3.085   2.907   6.151
  462SOL    HW1 2285   3.043   2.997   6.147
  462SOL    HW2 2286   3.148   2.896   6.074
  463SOL     OW 2287   6.195   5.185   3.204
  463SOL    HW1 2288   6.265   5.245   3.244
  463SOL    HW2 2289   6.214   5.173   3.107
  464SOL     OW 2290   1.633   1.554   6.796
  464SOL    HW1 2291   1.583   1.489   6.854
  464SOL    HW2 2292   1.583   1.570   6.711
  465SOL     OW 2293   0.335   1.870   3.852
  465SOL    HW1 2294   0.332   1.837   3.946
  465SOL    HW2 2295   0.429   1.877   3.821
  466SOL     OW 2296   0.747   6.924   3.668
  466SOL    HW1 2297   0.723   6.830   3.693
  466SOL    HW2 2298   0.672   6.964   3.614
  467SOL     OW 2299   1.323   0.375   5.322
  467SOL    HW1 2300   1.248   0.402   5.262
  467SOL    HW2 2301   1.300   0.289   5.367
  468SOL     OW 2302   3.790   5.756   0.836
  468SOL    HW1 2303   3.849   5.729   0.760
  468SOL    HW2 2304   3.812   5.701   0.917
  469SOL     OW 2305   2.330   5.697   0.406
  469SOL    HW1 2306   2.351   5.795   0.405
  469SOL    HW2 2307   2.394   5.649   0.347
  470SOL     OW 2308   4.237   0.868   2.295
  470SOL    HW1 2309   4.305   0.798   2.321
  470SOL    HW2 2310   4.145   0.834   2.315
  471SOL     OW 2311   1.865   2.734   4.899
  471SOL    HW1 2312   1.862   2.817   4.844
  471SOL    HW2 2313   1.870   2.654   4.839
  472SOL     OW 2314   4.976   5.214   6.329
  472SOL    HW1 2315   5.011   5.277   6.259
  472SOL    HW2 2316   4.898   5.163   6.292
  473SOL     OW 2317   0.558   2.982   2.050
  473SOL    HW1 2318   0.625   2.970   1.977
  473SOL    HW2 2319   0.532   2.892   2.087
  474SOL     OW 2320   4.368   5.175   4.250
  474SOL    HW1 2321   4.395   5.090   4.295
  474SOL    HW2 2322   4.295   5.156   4.185
  475SOL     OW 2323   0.080   6.750   6.377
  475SOL    HW1 2324   0.109   6.724   6.469
  475SOL    HW2 2325   0.120   6.687   6.311
  476SOL     OW 2326   6.216   4.434   2.257
  476SOL    HW1 2327   6.186   4.409   2.165
  476SOL    HW2 2328   6.316   4.432   2.261
  477SOL     OW 2329   2.004   4.921   4.375
  477SOL    HW1 2330   2.078   4.854   4.362
  477SOL    HW2 2331   1.963   4.941   4.286
  478SOL     OW 2332   3.586   5.542   3.361
  478SOL    HW1 2333   3.629   5.456   3.387
  478SOL    HW2 2334   3.636   5.583   3.284
  479SOL     OW 2335   2.592   2.512   0.353
  479SOL    HW1 2336   2.653   2.592   0.359
  479SOL    HW2 2337   2.636   2.433   0.396
  480SOL     OW 2338   1.643   0.042   1.971
  480SOL    HW1 2339   1.686   0.131   1.958
  480SOL    HW2 2340   1.689   6.998   1.914
  481SOL     OW 2341   2.836   0.419   1.983
  481SOL    HW1 2342   2.934   0.402   1.993
  481SOL    HW2 2343   2.804   0.476   2.059
  482SOL     OW 2344   5.347   4.585   2.432
  482SOL    HW1 2345   5.430   4.566   2.380
  482SOL    HW2 2346   5.316   4.501   2.477
  483SOL     OW 2347   5.776   1.798   1.933
  483SOL    HW1 2348   5.845   1.748   1.985
  483SOL    HW2 2349   5.698   1.738   1.916
  484SOL     OW 2350   0.310   2.825   4.238
  484SOL    HW1 2351   0.291   2.922   4.226
  484SOL    HW2 2352   0.228   2.772   4.218
  485SOL     OW 2353   3.621   4.920   2.403
  485SOL    HW1 2354   3.681   4.895   2.326
  485SOL    HW2 2355   3.541   4.969   2.368
  486SOL     OW 2356   0.893   1.641   0.499
  486SOL    HW1 2357   0.937   1.596   0.577
  486SOL    HW2 2358   0.824   1.705   0.532
  487SOL     OW 2359   0.648   2.250   0.199
  487SOL    HW1 2360   0.630   2.152   0.198
  487SOL    HW2 2361   0.628   2.288   0.108
  488SOL     OW 2362   0.741   1.932   1.735
  488SOL    HW1 2363   0.648   1.941   1.699
  488SOL    HW2 2364   0.737   1.911   1.833
  489SOL     OW 2365   3.853   6.157   0.240
  489SOL    HW1 2366   3.948   6.186   0.228
  489SOL    HW2 2367   3.803   6.172   0.154
  490SOL     OW 2368   6.075   6.402   3.964
  490SOL    HW1 2369   6.036   6.405   3.872
  490SOL    HW2 2370   6.009   6.438   4.030
  491SOL     OW 2371   0.460   2.453   2.822
  491SOL    HW1 2372   0.508   2.385   2.877
  491SOL    HW2 2373   0.366   2.424   2.808
  492SOL     OW 2374   3.241   0.838   5.883
  492SOL    HW1 2375   3.331   0.796   5.869
  492SOL    HW2 2376   3.175   0.796   5.821
  493SOL     OW 2377   6.497   4.636   6.015
  493SOL    HW1 2378   6.509   4.568   5.943
  493SOL    HW2 2379   6.563   4.711   6.002
  494SOL     OW 2380   0.721   6.185   0.183
  494SOL    HW1 2381   0.643   6.173   0.122
  494SOL    HW2 2382   0.767   6.271   0.162
  495SOL     OW 2383   5.144   4.903   2.604
  495SOL    HW1 2384   5.150   5.002   2.616
  495SOL    HW2 2385   5.184   4.878   2.515
  496SOL     OW 2386   5.884   3.295   3.114
  496SOL    HW1 2387   5.874   3.197   3.130
  496SOL    HW2 2388   5.915   3.310   3.020
  497SOL     OW 2389   3.135   0.999   5.191
  497SOL    HW1 2390   3.231   0.987   5.217
  497SOL    HW2 2391   3.128   1.074   5.125
  498SOL     OW 2392   0.671   2.776   2.422
  498SOL    HW1 2393   0.579   2.747   2.447
  498SOL    HW2 2394   0.666   2.865   2.376
  499SOL     OW 2395   3.185   0.406   4.642
  499SOL    HW1 2396   3.221   0.407   4.549
  499SOL    HW2 2397   3.207   0.318   4.685
  500SOL     OW 2398   0.756   4.101   2.974
  500SOL    HW1 2399   0.794   4.190   2.948
  500SOL    HW2 2400   0.663   4.114   3.009
  501SOL     OW 2401   2.615   2.739   6.930
  501SOL    HW1 2402   2.670   2.663   6.896
  501SOL    HW2 2403   2.575   2.714   7.018
  502SOL     OW 2404   4.942   4.222   6.138
  502SOL    HW1 2405   4.847   4.251   6.153
  502SOL    HW2 2406   4.970   4.248   6.046
  503SOL     OW 2407   6.080   4.466   5.849
  503SOL    HW1 2408   6.057   4.398   5.919
  503SOL    HW2 2409   6.135   4.539   5.889
  504SOL     OW 2410   2.326   6.059   4.383
  504SOL    HW1 2411   2.234   6.021   4.374
  504SOL    HW2 2412   2.388   6.012   4.319
  505SOL     OW 2413   4.041   0.360   6.313
  505SOL    HW1 2414   4.002   0.276   6.352
  505SOL    HW2 2415   4.063   0.344   6.217
  506SOL     OW 2416   1.867   4.438   5.019
  506SOL    HW1 2417   1.916   4.430   4.932
  506SOL    HW2 2418   1.930   4.472   5.089
  507SOL     OW 2419   3.198   0.049   4.529
  507SOL    HW1 2420   3.099   0.052   4.519
  507SOL    HW2 2421   3.224   0.089   4.617
  508SOL     OW 2422   5.924   3.667   2.938
  508SOL    HW1 2423   5.873   3.752   2.926
  508SOL    HW2 2424   6.011   3.687   2.984
  509SOL     OW 2425   4.067   1.346   1.619
  509SOL    HW1 2426   4.140   1.406   1.650
  509SOL    HW2 2427   4.049   1.361   1.522
  510SOL     OW 2428   6.617   4.718   5.718
  510SOL    HW1 2429   6.675   4.663   5.778
  510SOL    HW2 2430   6.669   4.745   5.637
  511SOL     OW 2431   0.399   6.048   0.588
  511SOL    HW1 2432   0.423   6.126   0.646
  511SOL    HW2 2433   0.394   5.965   0.645
  512SOL     OW 2434   1.402   3.532   6.872
  512SOL    HW1 2435   1.386   3.510   6.968
  512SOL    HW2 2436   1.436   3.452   6.824
  513SOL     OW 2437   6.431   5.977   3.123
  513SOL    HW1 2438   6.471   6.031   3.198
  513SOL    HW2 2439   6.370   6.035   3.069
  514SOL     OW 2440   0.027   2.020   4.309
  514SOL    HW1 2441   0.017   1.920   4.315
  514SOL    HW2 2442   6.961   2.063   4.314
  515SOL     OW 2443   2.495   0.136   5.675
  515SOL    HW1 2444   2.477   0.231   5.651
  515SOL    HW2 2445   2.430   0.077   5.627
  516SOL     OW 2446   2.736   5.138   1.707
  516SOL    HW1 2447   2.781   5.227   1.702
  516SOL    HW2 2448   2.669   5.139   1.782
  517SOL     OW 2449   5.091   6.914   1.619
  517SOL    HW1 2450   5.125   6.994   1.570
  517SOL    HW2 2451   5.160   6.842   1.618
  518SOL     OW 2452   2.129   2.399   1.944
  518SOL    HW1 2453   2.159   2.310   1.977
  518SOL    HW2 2454   2.143   2.467   2.016
  519SOL     OW 2455   0.273   0.556   4.618
  519SOL    HW1 2456   0.261   0.458   4.629
  519SOL    HW2 2457   0.361   0.584   4.656
  520SOL     OW 2458   5.618   4.679   5.989
  520SOL    HW1 2459   5.713   4.648   5.989
  520SOL    HW2 2460   5.605   4.744   5.914
  521SOL     OW 2461   6.912   1.783   6.125
  521SOL    HW1 2462   6.928   1.806   6.029
  521SOL    HW2 2463   6.821   1.814   6.152
  522SOL     OW 2464   3.799   2.810   5.240
  522SOL    HW1 2465   3.794   2.713   5.263
  522SOL    HW2 2466   3.832   2.862   5.319
  523SOL     OW 2467   6.830   6.898   4.081
  523SOL    HW1 2468   6.797   6.947   4.000
  523SOL    HW2 2469   6.788   6.807   4.085
  524SOL     OW 2470   2.728   0.917   6.794
  524SOL    HW1 2471   2.695   0.908   6.888
  524SOL    HW2 2472   2.766   0.829   6.764
  525SOL     OW 2473   2.935   3.526   6.141
  525SOL    HW1 2474   2.843   3.553   6.170
  525SOL    HW2 2475   3.002   3.585   6.186
  526SOL     OW 2476   2.999   5.193   4.696
  526SOL    HW1 2477   3.047   5.153   4.775
  526SOL    HW2 2478   2.901   5.187   4.710
  527SOL     OW 2479   6.547   1.224   5.860
  527SOL    HW1 2480   6.529   1.172   5.943
  527SOL    HW2 2481   6.511   1.175   5.781
  528SOL     OW 2482   1.391   1.507   5.032
  528SOL    HW1 2483   1.431   1.417   5.052
  528SOL    HW2 2484   1.299   1.494   4.995
  529SOL     OW 2485   1.030   5.208   4.942
  529SOL    HW1 2486   1.032   5.111   4.967
  529SOL    HW2 2487   1.110   5.254   4.981
  530SOL     OW 2488   2.469   3.234   5.378
  530SOL    HW1 2489   2.404   3.310   5.375
  530SOL    HW2 2490   2.458   3.177   5.297
  531SOL     OW 2491   0.685   0.478   1.410
  531SOL    HW1 2492   0.647   0.386   1.403
  531SOL    HW2 2493   0.768   0.476   1.466
  532SOL     OW 2494   1.573   1.710   5.639
  532SOL    HW1 2495   1.535   1.765   5.713
  532SOL    HW2 2496   1.540   1.745   5.551
  533SOL     OW 2497   5.205   6.465   4.680
  533SOL    HW1 2498   5.269   6.527   4.725
  533SOL    HW2 2499   5.237   6.371   4.689
  534SOL     OW 2500   4.386   5.412   3.116
  534SOL    HW1 2501   4.348   5.463   3.193
  534SOL    HW2 2502   4.474   5.372   3.144
  535SOL     OW 2503   0.370   3.935   3.748
  535SOL    HW1 2504   0.442   3.989   3.791
  535SOL    HW2 2505   0.406   3.845   3.723
  536SOL     OW 2506   1.499   5.518   1.489
  536SOL    HW1 2507   1.554   5.442   1.525
  536SOL    HW2 2508   1.547   5.562   1.414
  537SOL     OW 2509   2.236   6.506   3.177
  537SOL    HW1 2510   2.215   6.596   3.216
  537SOL    HW2 2511   2.208   6.503   3.081
  538SOL     OW 2512   1.350   5.468   3.565
  538SOL    HW1 2513   1.292   5.469   3.484
  538SOL    HW2 2514   1.399   5.380   3.570
  539SOL     OW 2515   1.484   5.409   1.851
  539SOL    HW1 2516   1.500   5.317   1.816
  539SOL    HW2 2517   1.434   5.404   1.937
  540SOL     OW 2518   0.961   2.029   2.553
  540SOL    HW1 2519   0.960   2.124   2.585
  540SOL    HW2 2520   0.917   1.971   2.622
  541SOL     OW 2521   2.795   6.205   4.941
  541SOL    HW1 2522   2.892   6.201   4.915
  541SOL    HW2 2523   2.739   6.193   4.859
  542SOL     OW 2524   5.447   5.913   6.977
  542SOL    HW1 2525   5.407   5.979   0.017
  542SOL    HW2 2526   5.497   5.843   0.003
  543SOL     OW 2527   1.236   4.790   0.056
  543SOL    HW1 2528   1.306   4.848   0.014
  543SOL    HW2 2529   1.268   4.760   0.146
  544SOL     OW 2530   0.701   5.113   0.206
  544SOL    HW1 2531   0.727   5.019   0.184
  544SOL    HW2 2532   0.611   5.113   0.251
  545SOL     OW 2533   3.756   1.264   3.020
  545SOL    HW1 2534   3.840   1.316   3.034
  545SOL    HW2 2535   3.708   1.299   2.939
  546SOL     OW 2536   1.086   3.335   1.270
  546SOL    HW1 2537   1.094   3.406   1.201
  546SOL    HW2 2538   1.018   3.268   1.241
  547SOL     OW 2539   2.445   2.687   0.828
  547SOL    HW1 2540   2.437   2.786   0.826
  547SOL    HW2 2541   2.498   2.656   0.749
  548SOL     OW 2542   3.812   2.948   4.073
  548SOL    HW1 2543   3.862   2.942   4.159
  548SOL    HW2 2544   3.714   2.942   4.090
  549SOL     OW 2545   4.955   3.626   1.504
  549SOL    HW1 2546   4.926   3.682   1.582
  549SOL    HW2 2547   4.925   3.532   1.518
  550SOL     OW 2548   6.907   3.094   2.268
  550SOL    HW1 2549   6.868   3.001   2.262
  550SOL    HW2 2550   6.951   3.117   2.181
  551SOL     OW 2551   6.958   1.430   0.913
  551SOL    HW1 2552   6.931   1.441   1.008
  551SOL    HW2 2553   0.014   1.369   0.908
  552SOL     OW 2554   3.971   4.952   0.754
  552SOL    HW1 2555   4.025   4.933   0.671
  552SOL    HW2 2556   3.952   4.866   0.801
  553SOL     OW 2557   2.290   1.335   1.668
  553SOL    HW1 2558   2.363   1.373   1.725
  553SOL    HW2 2559   2.320   1.249   1.628
  554SOL     OW 2560   5.666   0.081   5.633
  554SOL    HW1 2561   5.590   0.145   5.618
  554SOL    HW2 2562   5.749   0.117   5.590
  555SOL     OW 2563   1.547   4.842   4.681
  555SOL    HW1 2564   1.624   4.831   4.618
  555SOL    HW2 2565   1.536   4.758   4.734
  556SOL     OW 2566   5.888   1.989   3.670
  556SOL    HW1 2567   5.953   2.016   3.599
  556SOL    HW2 2568   5.799   2.028   3.650
  557SOL     OW 2569   6.964   6.075   6.631
  557SOL    HW1 2570   6.900   6.146   6.661
  557SOL    HW2 2571   6.981   6.084   6.533
  558SOL     OW 2572   4.389   3.473   5.278
  558SOL    HW1 2573   4.366   3.378   5.300
  558SOL    HW2 2574   4.487   3.487   5.290
  559SOL     OW 2575   0.379   5.951   6.484
  559SOL    HW1 2576   0.397   5.909   6.573
  559SOL    HW2 2577   0.351   6.046   6.497
  560SOL     OW 2578   4.733   6.356   6.956
  560SOL    HW1 2579   4.662   6.287   6.949
  560SOL    HW2 2580   4.803   6.327   7.021
  561SOL     OW 2581   6.052   7.017   0.459
  561SOL    HW1 2582   6.107   6.983   0.383
  561SOL    HW2 2583   5.958   0.007   0.428
  562SOL     OW 2584   5.328   1.207   6.355
  562SOL    HW1 2585   5.362   1.299   6.372
  562SOL    HW2 2586   5.268   1.207   6.275
  563SOL     OW 2587   2.563   6.161   4.027
  563SOL    HW1 2588   2.638   6.100   4.051
  563SOL    HW2 2589   2.591   6.256   4.045
  564SOL     OW 2590   1.041   1.658   6.660
  564SOL    HW1 2591   1.007   1.578   6.612
  564SOL    HW2 2592   1.137   1.645   6.683
  565SOL     OW 2593   4.596   3.721   5.779
  565SOL    HW1 2594   4.520   3.707   5.842
  565SOL    HW2 2595   4.672   3.765   5.828
  566SOL     OW 2596   4.305   5.240   3.542
  566SOL    HW1 2597   4.331   5.143   3.539
  566SOL    HW2 2598   4.373   5.294   3.492
  567SOL     OW 2599   2.958   3.332   4.979
  567SOL    HW1 2600   2.883   3.379   4.931
  567SOL    HW2 2601   3.041   3.338   4.924
  568SOL     OW 2602   3.200   2.516   0.416
  568SOL    HW1 2603   3.123   2.565   0.376
  568SOL    HW2 2604   3.280   2.526   0.357
  569SOL     OW 2605   1.477   2.763   0.624
  569SOL    HW1 2606   1.503   2.706   0.547
  569SOL    HW2 2607   1.437   2.848   0.591
  570SOL     OW 2608   1.132   6.395   0.519
  570SOL    HW1 2609   1.232   6.391   0.521
  570SOL    HW2 2610   1.100   6.446   0.599
  571SOL     OW 2611   3.702   5.137   2.810
  571SOL    HW1 2612   3.627   5.127   2.875
  571SOL    HW2 2613   3.788   5.148   2.860
  572SOL     OW 2614   1.811   3.965   5.448
  572SOL    HW1 2615   1.718   3.943   5.417
  572SOL    HW2 2616   1.818   3.950   5.546
  573SOL     OW 2617   4.211   1.347   5.390
  573SOL    HW1 2618   4.170   1.305   5.309
  573SOL    HW2 2619   4.141   1.363   5.459
  574SOL     OW 2620   2.512   2.252   3.973
  574SOL    HW1 2621   2.473   2.288   4.058
  574SOL    HW2 2622   2.468   2.165   3.951
  575SOL     OW 2623   6.598   2.885   0.202
  575SOL    HW1 2624   6.534   2.855   0.273
  575SOL    HW2 2625   6.681   2.921   0.245
  576SOL     OW 2626   1.213   2.126   2.579
  576SOL    HW1 2627   1.263   2.040   2.567
  576SOL    HW2 2628   1.115   2.109   2.568
  577SOL     OW 2629   2.746   1.807   3.769
  577SOL    HW1 2630   2.793   1.720   3.755
  577SOL    HW2 2631   2.694   1.831   3.687
  578SOL     OW 2632   0.406   3.317   3.683
  578SOL    HW1 2633   0.470   3.283   3.752
  578SOL    HW2 2634   0.406   3.256   3.604
  579SOL     OW 2635   4.680   2.225   0.412
  579SOL    HW1 2636   4.751   2.237   0.342
  579SOL    HW2 2637   4.683   2.302   0.476
  580SOL     OW 2638   1.663   5.529   6.637
  580SOL    HW1 2639   1.615   5.539   6.724
  580SOL    HW2 2640   1.685   5.433   6.622
  581SOL     OW 2641   3.915   3.006   2.894
  581SOL    HW1 2642   3.863   2.989   2.810
  581SOL    HW2 2643   3.991   3.068   2.874
  582SOL     OW 2644   5.211   3.938   2.293
  582SOL    HW1 2645   5.240   3.852   2.336
  582SOL    HW2 2646   5.130   3.973   2.341
  583SOL     OW 2647   2.283   4.321   0.572
  583SOL    HW1 2648   2.293   4.413   0.609
  583SOL    HW2 2649   2.219   4.322   0.496
  584SOL     OW 2650   0.178   4.833   5.023
  584SOL    HW1 2651   0.115   4.879   5.086
  584SOL    HW2 2652   0.168   4.872   4.932
  585SOL     OW 2653   6.934   2.107   5.977
  585SOL    HW1 2654   6.932   2.023   5.922
  585SOL    HW2 2655   6.862   2.103   6.046
  586SOL     OW 2656   2.786   6.559   0.777
  586SOL    HW1 2657   2.725   6.638   0.786
  586SOL    HW2 2658   2.880   6.590   0.763
  587SOL     OW 2659   0.983   3.400   5.750
  587SOL    HW1 2660   0.986   3.323   5.686
  587SOL    HW2 2661   0.930   3.374   5.830
  588SOL     OW 2662   3.312   6.049   1.750
  588SOL    HW1 2663   3.345   6.062   1.657
  588SOL    HW2 2664   3.215   6.072   1.755
  589SOL     OW 2665   3.586   5.173   2.575
  589SOL    HW1 2666   3.488   5.181   2.596
  589SOL    HW2 2667   3.637   5.160   2.660
  590SOL     OW 2668   0.168   2.019   1.867
  590SOL    HW1 2669   0.203   2.113   1.875
  590SOL    HW2 2670   0.243   1.955   1.881
  591SOL     OW 2671   3.550   0.165   3.491
  591SOL    HW1 2672   3.607   0.144   3.570
  591SOL    HW2 2673   3.454   0.170   3.518
  592SOL     OW 2674   4.907   0.709   0.280
  592SOL    HW1 2675   4.831   0.664   0.326
  592SOL    HW2 2676   4.976   0.736   0.348
  593SOL     OW 2677   4.964   2.416   4.139
  593SOL    HW1 2678   4.999   2.340   4.194
  593SOL    HW2 2679   4.934   2.382   4.049
  594SOL     OW 2680   3.892   3.984   1.515
  594SOL    HW1 2681   3.991   3.990   1.499
  594SOL    HW2 2682   3.846   4.054   1.459
  595SOL     OW 2683   3.848   6.051   4.165
  595SOL    HW1 2684   3.777   6.113   4.199
  595SOL    HW2 2685   3.883   5.996   4.240
  596SOL     OW 2686   0.636   4.803   2.608
  596SOL    HW1 2687   0.688   4.730   2.651
  596SOL    HW2 2688   0.539   4.779   2.607
  597SOL     OW 2689   4.278   0.365   5.811
  597SOL    HW1 2690   4.211   0.391   5.742
  597SOL    HW2 2691   4.292   0.442   5.874
  598SOL     OW 2692   3.819   4.407   0.256
  598SOL    HW1 2693   3.726   4.380   0.229
  598SOL    HW2 2694   3.818   4.501   0.289
  599SOL     OW 2695   6.589   0.086   2.515
  599SOL    HW1 2696   6.573   0.088   2.613
  599SOL    HW2 2697   6.646   0.008   2.491
  600SOL     OW 2698   1.622   0.407   0.295
  600SOL    HW1 2699   1.640   0.444   0.386
  600SOL    HW2 2700   1.542   0.452   0.256
  601SOL     OW 2701   2.941   5.635   3.924
  601SOL    HW1 2702   2.844   5.624   3.903
  601SOL    HW2 2703   2.986   5.684   3.849
  602SOL     OW 2704   2.184   0.342   1.162
  602SOL    HW1 2705   2.258   0.386   1.213
  602SOL    HW2 2706   2.141   0.409   1.101
  603SOL     OW 2707   4.059   2.185   3.290
  603SOL    HW1 2708   3.992   2.172   3.217
  603SOL    HW2 2709   4.133   2.243   3.256
  604SOL     OW 2710   0.866   3.731   6.373
  604SOL    HW1 2711   0.943   3.795   6.369
  604SOL    HW2 2712   0.898   3.641   6.401
  605SOL     OW 2713   5.990   0.122   3.418
  605SOL    HW1 2714   5.945   0.176   3.489
  605SOL    HW2 2715   5.948   0.143   3.329
  606SOL     OW 2716   3.989   0.594   3.790
  606SOL    HW1 2717   4.029   0.516   3.742
  606SOL    HW2 2718   4.047   0.619   3.868
  607SOL     OW 2719   5.217   1.263   4.103
  607SOL    HW1 2720   5.145   1.194   4.110
  607SOL    HW2 2721   5.251   1.267   4.009
  608SOL     OW 2722   3.764   0.814   0.871
  608SOL    HW1 2723   3.775   0.910   0.899
  608SOL    HW2 2724   3.729   0.761   0.948
  609SOL     OW 2725   3.262   3.008   4.437
  609SOL    HW1 2726   3.180   3.052   4.473
  609SOL    HW2 2727   3.252   2.992   4.339
  610SOL     OW 2728   5.292   2.791   4.016
  610SOL    HW1 2729   5.389   2.815   4.016
  610SOL    HW2 2730   5.282   2.692   4.026
  611SOL     OW 2731   0.448   0.195   0.565
  611SOL    HW1 2732   0.473   0.210   0.661
  611SOL    HW2 2733   0.361   0.241   0.547
  612SOL     OW 2734   2.586   5.141   6.058
  612SOL    HW1 2735   2.563   5.063   6.116
  612SOL    HW2 2736   2.641   5.206   6.110
  613SOL     OW 2737   3.722   1.914   6.952
  613SOL    HW1 2738   3.661   1.882   7.024
  613SOL    HW2 2739   3.688   2.000   6.915
  614SOL     OW 2740   5.558   4.540   1.311
  614SOL    HW1 2741   5.499   4.465   1.281
  614SOL    HW2 2742   5.520   4.580   1.395
  615SOL     OW 2743   6.956   6.601   0.921
  615SOL    HW1 2744   6.997   6.579   0.832
  615SOL    HW2 2745   7.004   6.679   0.962
  616SOL     OW 2746   5.711   1.078   4.254
  616SOL    HW1 2747   5.659   1.116   4.330
  616SOL    HW2 2748   5.766   1.001   4.286
  617SOL     OW 2749   0.555   4.725   5.942
  617SOL    HW1 2750   0.620   4.778   5.887
  617SOL    HW2 2751   0.473   4.780   5.958
  618SOL     OW 2752   5.916   3.367   0.647
  618SOL    HW1 2753   5.860   3.346   0.727
  618SOL    HW2 2754   5.877   3.322   0.567
  619SOL     OW 2755   2.494   0.312   0.871
  619SOL    HW1 2756   2.450   0.399   0.892
  619SOL    HW2 2757   2.450   0.271   0.790
  620SOL     OW 2758   5.931   1.616   2.080
  620SOL    HW1 2759   5.916   1.525   2.121
  620SOL    HW2 2760   6.016   1.654   2.116
  621SOL     OW 2761   3.451   0.869   6.529
  621SOL    HW1 2762   3.487   0.944   6.474
  621SOL    HW2 2763   3.510   0.854   6.608
  622SOL     OW 2764   1.222   1.737   5.108
  622SOL    HW1 2765   1.261   1.720   5.017
  622SOL    HW2 2766   1.239   1.832   5.134
  623SOL     OW 2767   5.992   6.762   3.776
  623SOL    HW1 2768   5.941   6.761   3.862
  623SOL    HW2 2769   6.051   6.843   3.773
  624SOL     OW 2770   6.623   0.567   6.505
  624SOL    HW1 2771   6.531   0.557   6.467
  624SOL    HW2 2772   6.638   0.662   6.531
  625SOL     OW 2773   2.413   1.109   0.190
  625SOL    HW1 2774   2.510   1.134   0.191
  625SOL    HW2 2775   2.384   1.095   0.095
  626SOL     OW 2776   0.672   5.080   3.771
  626SOL    HW1 2777   0.768   5.098   3.754
  626SOL    HW2 2778   0.653   5.090   3.869
  627SOL     OW 2779   6.661   0.266   6.994
  627SOL    HW1 2780   6.735   0.229   6.938
  627SOL    HW2 2781   6.643   0.205   0.047
  628SOL     OW 2782   5.006   4.955   5.310
  628SOL    HW1 2783   5.065   4.886   5.267
  628SOL    HW2 2784   4.932   4.909   5.359
  629SOL     OW 2785   0.078   6.951   5.981
  629SOL    HW1 2786   0.122   6.944   6.070
  629SOL    HW2 2787   7.004   6.933   5.990
  630SOL     OW 2788   6.766   1.119   0.895
  630SOL    HW1 2789   6.667   1.112   0.888
  630SOL    HW2 2790   6.801   1.180   0.824
  631SOL     OW 2791   1.964   2.600   5.116
  631SOL    HW1 2792   1.922   2.651   5.041
  631SOL    HW2 2793   1.904   2.602   5.196
  632SOL     OW 2794   3.026   3.248   7.018
  632SOL    HW1 2795   3.090   3.192   0.048
  632SOL    HW2 2796   2.990   3.193   6.942
  633SOL     OW 2797   2.088   5.852   1.726
  633SOL    HW1 2798   2.159   5.804   1.675
  633SOL    HW2 2799   2.044   5.920   1.667
  634SOL     OW 2800   3.036   3.387   4.181
  634SOL    HW1 2801   2.992   3.477   4.179
  634SOL    HW2 2802   3.065   3.362   4.089
  635SOL     OW 2803   5.979   0.613   6.241
  635SOL    HW1 2804   5.913   0.587   6.311
  635SOL    HW2 2805   5.931   0.628   6.154
  636SOL     OW 2806   2.589   0.635   6.590
  636SOL    HW1 2807   2.522   0.707   6.603
  636SOL    HW2 2808   2.653   0.634   6.666
  637SOL     OW 2809   6.456   1.184   1.370
  637SOL    HW1 2810   6.361   1.214   1.376
  637SOL    HW2 2811   6.504   1.236   1.300
  638SOL     OW 2812   6.656   3.329   4.006
  638SOL    HW1 2813   6.598   3.410   4.003
  638SOL    HW2 2814   6.651   3.287   4.096
  639SOL     OW 2815   4.921   4.672   3.250
  639SOL    HW1 2816   4.962   4.583   3.230
  639SOL    HW2 2817   4.867   4.703   3.172
  640SOL     OW 2818   0.874   2.253   2.127
  640SOL    HW1 2819   0.867   2.166   2.176
  640SOL    HW2 2820   0.794   2.309   2.147
  641SOL     OW 2821   2.055   5.083   4.590
  641SOL    HW1 2822   2.044   5.011   4.521
  641SOL    HW2 2823   1.965   5.107   4.626
  642SOL     OW 2824   0.779   3.898   5.050
  642SOL    HW1 2825   0.683   3.870   5.062
  642SOL    HW2 2826   0.809   3.876   4.958
  643SOL     OW 2827   4.748   4.990   6.608
  643SOL    HW1 2828   4.824   4.981   6.543
  643SOL    HW2 2829   4.664   5.013   6.559
  644SOL     OW 2830   6.285   6.902   4.573
  644SOL    HW1 2831   6.264   6.927   4.668
  644SOL    HW2 2832   6.209   6.851   4.534
  645SOL     OW 2833   4.263   4.703   2.227
  645SOL    HW1 2834   4.256   4.680   2.324
  645SOL    HW2 2835   4.182   4.754   2.199
  646SOL     OW 2836   4.019   0.676   5.619
  646SOL    HW1 2837   3.977   0.759   5.656
  646SOL    HW2 2838   3.990   0.663   5.524
  647SOL     OW 2839   4.541   2.379   5.414
  647SOL    HW1 2840   4.500   2.460   5.374
  647SOL    HW2 2841   4.628   2.403   5.457
  648SOL     OW 2842   5.804   2.228   3.300
  648SOL    HW1 2843   5.751   2.145   3.285
  648SOL    HW2 2844   5.900   2.205   3.314
  649SOL     OW 2845   2.084   5.238   0.944
  649SOL    HW1 2846   1.993   5.260   0.909
  649SOL    HW2 2847   2.152   5.293   0.896
  650SOL     OW 2848   6.662   5.242   1.206
  650SOL    HW1 2849   6.571   5.242   1.247
  650SOL    HW2 2850   6.713   5.322   1.238
  651SOL     OW 2851   1.536   7.001   4.677
  651SOL    HW1 2852   1.538   0.075   4.658
  651SOL    HW2 2853   1.628   6.969   4.700
  652SOL     OW 2854   3.539   6.409   1.594
  652SOL    HW1 2855   3.555   6.506   1.574
  652SOL    HW2 2856   3.537   6.395   1.692
  653SOL     OW 2857   1.165   6.349   1.813
  653SOL    HW1 2858   1.127   6.436   1.842
  653SOL    HW2 2859   1.090   6.284   1.797
  654SOL     OW 2860   0.021   6.836   4.625
  654SOL    HW1 2861   7.020   6.787   4.709
  654SOL    HW2 2862   0.056   6.771   4.558
  655SOL     OW 2863   6.853   4.722   1.945
  655SOL    HW1 2864   6.952   4.722   1.958
  655SOL    HW2 2865   6.832   4.705   1.849
  656SOL     OW 2866   3.709   6.744   0.496
  656SOL    HW1 2867   3.761   6.827   0.475
  656SOL    HW2 2868   3.626   6.769   0.546
  657SOL     OW 2869   3.901   3.097   1.956
  657SOL    HW1 2870   3.865   3.169   1.897
  657SOL    HW2 2871   3.828   3.065   2.018
  658SOL     OW 2872   2.203   3.361   3.985
  658SOL    HW1 2873   2.128   3.348   3.920
  658SOL    HW2 2874   2.235   3.456   3.980
  659SOL     OW 2875   2.166   6.771   5.869
  659SOL    HW1 2876   2.251   6.824   5.873
  659SOL    HW2 2877   2.181   6.688   5.814
  660SOL     OW 2878   4.775   4.359   2.417
  660SOL    HW1 2879   4.812   4.432   2.360
  660SOL    HW2 2880   4.779   4.272   2.367
  661SOL     OW 2881   4.317   4.650   4.521
  661SOL    HW1 2882   4.320   4.673   4.424
  661SOL    HW2 2883   4.242   4.585   4.537
  662SOL     OW 2884   4.911   3.241   0.176
  662SOL    HW1 2885   4.823   3.215   0.135
  662SOL    HW2 2886   4.897   3.315   0.241
  663SOL     OW 2887   0.466   4.481   0.584
  663SOL    HW1 2888   0.562   4.506   0.600
  663SOL    HW2 2889   0.419   4.557   0.539
  664SOL     OW 2890   1.774   6.947   6.915
  664SOL    HW1 2891   1.774   6.912   6.821
  664SOL    HW2 2892   1.797   0.021   6.914
  665SOL     OW 2893   4.391   5.851   0.956
  665SOL    HW1 2894   4.409   5.763   1.001
  665SOL    HW2 2895   4.296   5.854   0.926
  666SOL     OW 2896   3.928   2.308   0.046
  666SOL    HW1 2897   3.928   2.216   0.085
  666SOL    HW2 2898   3.920   2.375   0.119
  667SOL     OW 2899   0.690   3.189   2.777
  667SOL    HW1 2900   0.678   3.094   2.806
  667SOL    HW2 2901   0.759   3.193   2.704
  668SOL     OW 2902   5.214   0.095   0.871
  668SOL    HW1 2903   5.274   0.168   0.903
  668SOL    HW2 2904   5.260   0.043   0.799
  669SOL     OW 2905   1.641   5.879   3.240
  669SOL    HW1 2906   1.660   5.873   3.338
  669SOL    HW2 2907   1.698   5.949   3.198
  670SOL     OW 2908   3.207   3.638   3.859
  670SOL    HW1 2909   3.295   3.603   3.827
  670SOL    HW2 2910   3.217   3.673   3.953
  671SOL     OW 2911   2.007   6.990   5.691
  671SOL    HW1 2912   2.032   0.025   5.768
  671SOL    HW2 2913   1.957   6.911   5.725
  672SOL     OW 2914   2.168   3.070   4.029
  672SOL    HW1 2915   2.098   3.074   4.100
  672SOL    HW2 2916   2.217   3.158   4.026
  673SOL     OW 2917   5.420   0.546   0.723
  673SOL    HW1 2918   5.497   0.548   0.659
  673SOL    HW2 2919   5.356   0.474   0.695
  674SOL     OW 2920   0.225   1.476   3.600
  674SOL    HW1 2921   0.283   1.397   3.623
  674SOL    HW2 2922   0.166   1.498   3.677
  675SOL     OW 2923   6.947   2.725   4.809
  675SOL    HW1 2924   6.883   2.687   4.743
  675SOL    HW2 2925   6.921   2.695   4.901
  676SOL     OW 2926   1.740   4.845   4.461
  676SOL    HW1 2927   1.830   4.886   4.443
  676SOL    HW2 2928   1.751   4.748   4.482
  677SOL     OW 2929   6.525   0.477   0.801
  677SOL    HW1 2930   6.566   0.426   0.876
  677SOL    HW2 2931   6.529   0.575   0.820
  678SOL     OW 2932   2.877   1.064   6.216
  678SOL    HW1 2933   2.808   0.991   6.218
  678SOL    HW2 2934   2.846   1.137   6.154
  679SOL     OW 2935   4.380   0.082   2.582
  679SOL    HW1 2936   4.476   0.072   2.556
  679SOL    HW2 2937   4.324   0.017   2.531
  680SOL     OW 2938   4.663   4.256   6.135
  680SOL    HW1 2939   4.640   4.217   6.046
  680SOL    HW2 2940   4.626   4.348   6.142
  681SOL     OW 2941   0.834   6.546   1.312
  681SOL    HW1 2942   0.789   6.626   1.352
  681SOL    HW2 2943   0.898   6.507   1.378
  682SOL     OW 2944   2.047   6.055   6.834
  682SOL    HW1 2945   2.090   6.008   6.757
  682SOL    HW2 2946   2.116   6.077   6.903
  683SOL     OW 2947   4.519   1.808   0.352
  683SOL    HW1 2948   4.446   1.776   0.292
  683SOL    HW2 2949   4.571   1.730   0.386
  684SOL     OW 2950   0.261   5.613   6.366
  684SOL    HW1 2951   0.200   5.558   6.422
  684SOL    HW2 2952   0.235   5.710   6.373
  685SOL     OW 2953   5.503   0.317   5.620
  685SOL    HW1 2954   5.512   0.344   5.524
  685SOL    HW2 2955   5.561   0.376   5.676
  686SOL     OW 2956   5.105   4.596   2.951
  686SOL    HW1 2957   5.009   4.570   2.941
  686SOL    HW2 2958   5.158   4.514   2.975
  687SOL     OW 2959   6.892   3.799   5.869
  687SOL    HW1 2960   6.792   3.797   5.882
  687SOL    HW2 2961   6.937   3.792   5.958
  688SOL     OW 2962   0.344   4.390   5.999
  688SOL    HW1 2963   0.382   4.423   6.085
  688SOL    HW2 2964   0.298   4.466   5.952
  689SOL     OW 2965   6.332   3.830   5.696
  689SOL    HW1 2966   6.353   3.775   5.615
  689SOL    HW2 2967   6.233   3.838   5.705
  690SOL     OW 2968   1.401   2.530   3.410
  690SOL    HW1 2969   1.376   2.478   3.329
  690SOL    HW2 2970   1.321   2.577   3.446
  691SOL     OW 2971   1.167   2.642   6.589
  691SOL    HW1 2972   1.208   2.725   6.551
  691SOL    HW2 2973   1.126   2.588   6.515
  692SOL     OW 2974   2.666   0.100   2.581
  692SOL    HW1 2975   2.605   0.178   2.563
  692SOL    HW2 2976   2.622   0.038   2.646
  693SOL     OW 2977   6.888   2.399   2.167
  693SOL    HW1 2978   6.882   2.350   2.080
  693SOL    HW2 2979   6.799   2.397   2.212
  694SOL     OW 2980   2.146   6.603   0.954
  694SOL    HW1 2981   2.098   6.632   0.871
  694SOL    HW2 2982   2.080   6.577   1.024
  695SOL     OW 2983   4.953   6.027   5.244
  695SOL    HW1 2984   5.050   6.017   5.220
  695SOL    HW2 2985   4.923   6.119   5.222
  696SOL     OW 2986   4.410   4.676   2.543
  696SOL    HW1 2987   4.327   4.671   2.597
  696SOL    HW2 2988   4.445   4.770   2.544
  697SOL     OW 2989   0.963   4.020   4.247
  697SOL    HW1 2990   0.955   3.924   4.223
  697SOL    HW2 2991   0.872   4.060   4.255
  698SOL     OW 2992   4.778   0.269   3.268
  698SOL    HW1 2993   4.853   0.315   3.221
  698SOL    HW2 2994   4.702   0.256   3.205
  699SOL     OW 2995   1.736   4.217   0.847
  699SOL    HW1 2996   1.729   4.210   0.947
  699SOL    HW2 2997   1.828   4.249   0.823
  700SOL     OW 2998   2.792   2.394   4.447
  700SOL    HW1 2999   2.861   2.336   4.490
  700SOL    HW2 3000   2.792   2.378   4.348
  701SOL     OW 3001   0.355   3.723   6.263
  701SOL    HW1 3002   0.303   3.741   6.180
  701SOL    HW2 3003   0.437   3.781   6.265
  702SOL     OW 3004   5.036   6.370   4.278
  702SOL    HW1 3005   5.037   6.272   4.299
  702SOL    HW2 3006   5.013   6.421   4.361
  703SOL     OW 3007   3.768   3.837   6.824
  703SOL    HW1 3008   3.841   3.791   6.875
  703SOL    HW2 3009   3.809   3.892   6.751
  704SOL     OW 3010   1.735   0.223   6.713
  704SOL    HW1 3011   1.748   0.321   6.702
  704SOL    HW2 3012   1.813   0.184   6.763
  705SOL     OW 3013   5.902   1.878   2.284
  705SOL    HW1 3014   5.839   1.814   2.240
  705SOL    HW2 3015   5.908   1.961   2.230
  706SOL     OW 3016   3.884   1.858   3.649
  706SOL    HW1 3017   3.967   1.817   3.687
  706SOL    HW2 3018   3.905   1.948   3.610
  707SOL     OW 3019   4.858   0.411   1.562
  707SOL    HW1 3020   4.906   0.453   1.485
  707SOL    HW2 3021   4.924   0.383   1.632
  708SOL     OW 3022   4.069   0.843   1.563
  708SOL    HW1 3023   4.122   0.901   1.625
  708SOL    HW2 3024   4.069   0.883   1.472
  709SOL     OW 3025   0.955   4.712   0.576
  709SOL    HW1 3026   0.991   4.626   0.613
  709SOL    HW2 3027   0.981   4.788   0.637
  710SOL     OW 3028   3.087   3.975   2.930
  710SOL    HW1 3029   3.116   3.916   2.854
  710SOL    HW2 3030   2.988   3.987   2.927
  711SOL     OW 3031   6.683   1.305   4.462
  711SOL    HW1 3032   6.648   1.375   4.400
  711SOL    HW2 3033   6.659   1.329   4.556
  712SOL     OW 3034   1.588   3.979   1.185
  712SOL    HW1 3035   1.501   3.943   1.217
  712SOL    HW2 3036   1.601   3.956   1.089
  713SOL     OW 3037   3.685   3.216   2.777
  713SOL    HW1 3038   3.721   3.134   2.733
  713SOL    HW2 3039   3.750   3.250   2.845
  714SOL     OW 3040   5.189   4.776   5.161
  714SOL    HW1 3041   5.273   4.774   5.215
  714SOL    HW2 3042   5.210   4.793   5.065
  715SOL     OW 3043   4.372   6.992   6.286
  715SOL    HW1 3044   4.440   0.035   6.316
  715SOL    HW2 3045   4.351   6.930   6.361
  716SOL     OW 3046   0.228   4.646   1.403
  716SOL    HW1 3047   0.174   4.599   1.472
  716SOL    HW2 3048   0.224   4.596   1.317
  717SOL     OW 3049   6.086   2.816   0.701
  717SOL    HW1 3050   6.025   2.821   0.623
  717SOL    HW2 3051   6.147   2.737   0.691
  718SOL     OW 3052   3.689   3.599   6.084
  718SOL    HW1 3053   3.692   3.549   6.170
  718SOL    HW2 3054   3.780   3.636   6.063
  719SOL     OW 3055   6.103   4.459   0.992
  719SOL    HW1 3056   6.010   4.489   1.011
  719SOL    HW2 3057   6.138   4.405   1.069
  720SOL     OW 3058   2.390   1.683   6.376
  720SOL    HW1 3059   2.316   1.651   6.317
  720SOL    HW2 3060   2.478   1.652   6.339
  721SOL     OW 3061   1.407   0.043   5.915
  721SOL    HW1 3062   1.499   0.011   5.897
  721SOL    HW2 3063   1.410   0.123   5.975
  722SOL     OW 3064   3.967   0.231   4.985
  722SOL    HW1 3065   3.919   0.144   4.995
  722SOL    HW2 3066   3.983   0.248   4.888
  723SOL     OW 3067   1.244   2.923   2.232
  723SOL    HW1 3068   1.265   2.942   2.136
  723SOL    HW2 3069   1.241   2.824   2.246
  724SOL     OW 3070   0.147   0.753   4.468
  724SOL    HW1 3071   0.123   0.820   4.538
  724SOL    HW2 3072   0.192   0.675   4.511
  725SOL     OW 3073   1.774   4.789   2.347
  725SOL    HW1 3074   1.715   4.864   2.319
  725SOL    HW2 3075   1.760   4.710   2.287
  726SOL     OW 3076   3.899   0.107   6.866
  726SOL    HW1 3077   3.967   0.050   6.911
  726SOL    HW2 3078   3.811   0.061   6.864
  727SOL     OW 3079   2.712   5.299   3.876
  727SOL    HW1 3080   2.797   5.332   3.918
  727SOL    HW2 3081   2.692   5.207   3.910
  728SOL     OW 3082   6.605   4.090   4.570
  728SOL    HW1 3083   6.692   4.093   4.619
  728SOL    HW2 3084   6.537   4.043   4.625
  729SOL     OW 3085   2.616   0.442   1.562
  729SOL    HW1 3086   2.686   0.458   1.492
  729SOL    HW2 3087   2.642   0.490   1.646
  730SOL     OW 3088   6.455   0.398   3.400
  730SOL    HW1 3089   6.404   0.397   3.487
  730SOL    HW2 3090   6.489   0.491   3.383
  731SOL     OW 3091   5.792   3.977   4.673
  731SOL    HW1 3092   5.857   3.911   4.635
  731SOL    HW2 3093   5.768   3.949   4.766
  732SOL     OW 3094   6.752   3.072   0.937
  732SOL    HW1 3095   6.774   2.988   0.985
  732SOL    HW2 3096   6.834   3.108   0.892
  733SOL     OW 3097   4.676   4.273   3.746
  733SOL    HW1 3098   4.644   4.277   3.652
  733SOL    HW2 3099   4.746   4.343   3.761
  734SOL     OW 3100   6.645   4.449   1.086
  734SOL    HW1 3101   6.552   4.478   1.061
  734SOL    HW2 3102   6.691   4.523   1.134
  735SOL     OW 3103   1.910   4.268   6.434
  735SOL    HW1 3104   1.851   4.349   6.437
  735SOL    HW2 3105   1.975   4.278   6.359
  736SOL     OW 3106   6.766   0.800   3.589
  736SOL    HW1 3107   6.780   0.899   3.599
  736SOL    HW2 3108   6.847   0.759   3.547
  737SOL     OW 3109   5.134   3.588   0.875
  737SOL    HW1 3110   5.084   3.551   0.953
  737SOL    HW2 3111   5.073   3.591   0.795
  738SOL     OW 3112   0.118   3.808   3.831
  738SOL    HW1 3113   0.169   3.737   3.880
  738SOL    HW2 3114   0.179   3.884   3.808
  739SOL     OW 3115   4.196   6.171   6.116
  739SOL    HW1 3116   4.233   6.263   6.128
  739SOL    HW2 3117   4.193   6.124   6.204
  740SOL     OW 3118   6.536   6.565   1.630
  740SOL    HW1 3119   6.441   6.592   1.644
  740SOL    HW2 3120   6.560   6.575   1.533
  741SOL     OW 3121   1.936   6.521   3.089
  741SOL    HW1 3122   1.963   6.491   2.997
  741SOL    HW2 3123   1.946   6.445   3.153
  742SOL     OW 3124   1.525   6.624   3.520
  742SOL    HW1 3125   1.479   6.581   3.443
  742SOL    HW2 3126   1.563   6.712   3.491
  743SOL     OW 3127   1.843   3.655   3.941
  743SOL    HW1 3128   1.771   3.621   3.880
  743SOL    HW2 3129   1.807   3.662   4.034
  744SOL     OW 3130   0.286   5.668   0.159
  744SOL    HW1 3131   0.349   5.590   0.149
  744SOL    HW2 3132   0.337   5.753   0.148
  745SOL     OW 3133   1.720   5.849   2.702
  745SOL    HW1 3134   1.720   5.766   2.646
  745SOL    HW2 3135   1.795   5.908   2.675
  746SOL     OW 3136   1.425   0.371   4.836
  746SOL    HW1 3137   1.388   0.318   4.912
  746SOL    HW2 3138   1.418   0.468   4.856
  747SOL     OW 3139   4.408   4.986   3.579
  747SOL    HW1 3140   4.391   4.920   3.651
  747SOL    HW2 3141   4.506   5.004   3.572
  748SOL     OW 3142   4.165   3.760   0.939
  748SOL    HW1 3143   4.065   3.765   0.946
  748SOL    HW2 3144   4.190   3.714   0.854
  749SOL     OW 3145   0.314   2.467   5.213
  749SOL    HW1 3146   0.261   2.426   5.288
  749SOL    HW2 3147   0.411   2.464   5.236
  750SOL     OW 3148   2.010   3.719   6.953
  750SOL    HW1 3149   2.053   3.629   6.945
  750SOL    HW2 3150   1.931   3.712   7.013
  751SOL     OW 3151   4.427   1.110   0.289
  751SOL    HW1 3152   4.359   1.063   0.232
  751SOL    HW2 3153   4.498   1.045   0.316
  752SOL     OW 3154   4.468   2.445   2.289
  752SOL    HW1 3155   4.442   2.497   2.208
  752SOL    HW2 3156   4.510   2.358   2.261
  753SOL     OW 3157   2.102   3.060   4.645
  753SOL    HW1 3158   2.089   2.969   4.606
  753SOL    HW2 3159   2.114   3.127   4.571
  754SOL     OW 3160   3.773   5.015   6.670
  754SOL    HW1 3161   3.676   5.034   6.654
  754SOL    HW2 3162   3.796   5.039   6.765
  755SOL     OW 3163   0.784   5.928   0.304
  755SOL    HW1 3164   0.772   6.026   0.288
  755SOL    HW2 3165   0.741   5.877   0.229
  756SOL     OW 3166   4.903   0.710   1.514
  756SOL    HW1 3167   4.962   0.662   1.580
  756SOL    HW2 3168   4.919   0.809   1.521
  757SOL     OW 3169   0.365   6.693   3.489
  757SOL    HW1 3170   0.326   6.605   3.517
  757SOL    HW2 3171   0.299   6.744   3.435
  758SOL     OW 3172   3.625   2.081   1.112
  758SOL    HW1 3173   3.692   2.156   1.116
  758SOL    HW2 3174   3.662   2.002   1.161
  759SOL     OW 3175   0.908   1.906   0.267
  759SOL    HW1 3176   0.968   1.984   0.247
  759SOL    HW2 3177   0.926   1.873   0.360
  760SOL     OW 3178   5.460   1.075   6.862
  760SOL    HW1 3179   5.509   1.161   6.879
  760SOL    HW2 3180   5.371   1.078   6.909
  761SOL     OW 3181   6.212   2.332   0.206
  761SOL    HW1 3182   6.248   2.317   0.114
  761SOL    HW2 3183   6.274   2.392   0.257
  762SOL     OW 3184   2.232   6.116   3.730
  762SOL    HW1 3185   2.310   6.071   3.772
  762SOL    HW2 3186   2.158   6.125   3.796
  763SOL     OW 3187   4.178   5.764   6.650
  763SOL    HW1 3188   4.105   5.832   6.648
  763SOL    HW2 3189   4.154   5.690   6.713
  764SOL     OW 3190   3.513   1.743   1.997
  764SOL    HW1 3191   3.430   1.798   2.000
  764SOL    HW2 3192   3.570   1.774   1.921
  765SOL     OW 3193   6.936   0.021   2.618
  765SOL    HW1 3194   7.011   7.016   2.677
  765SOL    HW2 3195   6.852   6.997   2.644
  766SOL     OW 3196   0.178   6.689   0.034
  766SOL    HW1 3197   0.111   6.621   0.003
  766SOL    HW2 3198   0.271   6.654   0.019
  767SOL     OW 3199   6.348   6.324   2.566
  767SOL    HW1 3200   6.275   6.390   2.588
  767SOL    HW2 3201   6.352   6.312   2.467
  768SOL     OW 3202   2.826   6.590   2.952
  768SOL    HW1 3203   2.792   6.643   3.030
  768SOL    HW2 3204   2.914   6.626   2.923
  769SOL     OW 3205   4.693   0.371   5.100
  769SOL    HW1 3206   4.766   0.303   5.090
  769SOL    HW2 3207   4.654   0.365   5.192
  770SOL     OW 3208   3.047   4.874   3.841
  770SOL    HW1 3209   3.141   4.902   3.862
  770SOL    HW2 3210   3.000   4.849   3.926
  771SOL     OW 3211   1.281   5.125   3.270
  771SOL    HW1 3212   1.377   5.100   3.262
  771SOL    HW2 3213   1.224   5.044   3.253
  772SOL     OW 3214   6.634   4.060   6.736
  772SOL    HW1 3215   6.543   4.057   6.695
  772SOL    HW2 3216   6.686   3.979   6.707
  773SOL     OW 3217   6.683   4.285   2.428
  773SOL    HW1 3218   6.614   4.356   2.413
  773SOL    HW2 3219   6.722   4.258   2.340
  774SOL     OW 3220   1.412   1.521   1.505
  774SOL    HW1 3221   1.355   1.480   1.433
  774SOL    HW2 3222   1.507   1.520   1.476
  775SOL     OW 3223   1.387   2.121   4.450
  775SOL    HW1 3224   1.313   2.068   4.492
  775SOL    HW2 3225   1.473   2.070   4.458
  776SOL     OW 3226   1.891   0.447   6.003
  776SOL    HW1 3227   1.829   0.478   5.930
  776SOL    HW2 3228   1.842   0.389   6.066
  777SOL     OW 3229   4.545   1.022   0.967
  777SOL    HW1 3230   4.624   1.018   1.028
  777SOL    HW2 3231   4.546   0.942   0.907
  778SOL     OW 3232   4.354   0.743   3.706
  778SOL    HW1 3233   4.382   0.832   3.744
  778SOL    HW2 3234   4.290   0.758   3.631
  779SOL     OW 3235   0.658   2.417   2.180
  779SOL    HW1 3236   0.604   2.439   2.099
  779SOL    HW2 3237   0.720   2.493   2.201
  780SOL     OW 3238   6.027   3.103   4.247
  780SOL    HW1 3239   6.111   3.096   4.193
  780SOL    HW2 3240   5.954   3.139   4.189
  781SOL     OW 3241   6.859   1.106   5.971
  781SOL    HW1 3242   6.922   1.067   6.038
  781SOL    HW2 3243   6.897   1.096   5.880
  782SOL     OW 3244   0.499   3.031   0.974
  782SOL    HW1 3245   0.549   3.033   0.887
  782SOL    HW2 3246   0.401   3.018   0.955
  783SOL     OW 3247   3.335   5.410   0.413
  783SOL    HW1 3248   3.341   5.493   0.358
  783SOL    HW2 3249   3.322   5.435   0.509
  784SOL     OW 3250   3.808   1.025   4.930
  784SOL    HW1 3251   3.844   1.091   4.996
  784SOL    HW2 3252   3.809   1.064   4.838
  785SOL     OW 3253   6.230   1.467   3.144
  785SOL    HW1 3254   6.241   1.451   3.046
  785SOL    HW2 3255   6.134   1.478   3.166
  786SOL     OW 3256   0.240   6.787   0.280
  786SOL    HW1 3257   0.207   6.732   0.203
  786SOL    HW2 3258   0.205   6.880   0.272
  787SOL     OW 3259   2.646   2.317   6.375
  787SOL    HW1 3260   2.713   2.245   6.392
  787SOL    HW2 3261   2.554   2.281   6.390
  788SOL     OW 3262   2.047   3.625   4.424
  788SOL    HW1 3263   2.109   3.615   4.502
  788SOL    HW2 3264   1.970   3.561   4.435
  789SOL     OW 3265   5.048   3.972   1.423
  789SOL    HW1 3266   5.021   4.045   1.485
  789SOL    HW2 3267   5.020   3.883   1.461
  790SOL     OW 3268   2.952   1.371   3.577
  790SOL    HW1 3269   3.044   1.334   3.586
  790SOL    HW2 3270   2.890   1.298   3.547
  791SOL     OW 3271   3.408   1.356   5.010
  791SOL    HW1 3272   3.430   1.274   4.956
  791SOL    HW2 3273   3.492   1.409   5.025
  792SOL     OW 3274   5.877   0.502   2.489
  792SOL    HW1 3275   5.844   0.428   2.431
  792SOL    HW2 3276   5.809   0.576   2.491
  793SOL     OW 3277   5.292   0.313   0.617
  793SOL    HW1 3278   5.209   0.259   0.632
  793SOL    HW2 3279   5.372   0.254   0.624
  794SOL     OW 3280   2.433   4.569   5.828
  794SOL    HW1 3281   2.409   4.652   5.778
  794SOL    HW2 3282   2.364   4.551   5.898
  795SOL     OW 3283   4.094   4.903   6.092
  795SOL    HW1 3284   4.059   4.936   6.180
  795SOL    HW2 3285   4.036   4.828   6.059
  796SOL     OW 3286   6.675   2.942   6.169
  796SOL    HW1 3287   6.587   2.988   6.154
  796SOL    HW2 3288   6.743   2.979   6.105
  797SOL     OW 3289   5.728   2.621   4.032
  797SOL    HW1 3290   5.712   2.551   3.962
  797SOL    HW2 3291   5.817   2.663   4.016
  798SOL     OW 3292   5.292   0.735   0.090
  798SOL    HW1 3293   5.323   0.741   0.185
  798SOL    HW2 3294   5.217   0.669   0.083
  799SOL     OW 3295   6.536   1.844   3.135
  799SOL    HW1 3296   6.582   1.817   3.220
  799SOL    HW2 3297   6.484   1.928   3.150
  800SOL     OW 3298   5.081   1.135   2.285
  800SOL    HW1 3299   5.099   1.182   2.199
  800SOL    HW2 3300   5.126   1.185   2.360
  801SOL     OW 3301   0.162   2.205   3.160
  801SOL    HW1 3302   0.141   2.136   3.229
  801SOL    HW2 3303   0.160   2.162   3.069
  802SOL     OW 3304   5.471   1.333   0.216
  802SOL    HW1 3305   5.374   1.321   0.236
  802SOL    HW2 3306   5.491   1.431   0.209
  803SOL     OW 3307   6.026   5.349   4.140
  803SOL    HW1 3308   5.937   5.347   4.095
  803SOL    HW2 3309   6.023   5.292   4.222
  804SOL     OW 3310   0.761   6.647   0.224
  804SOL    HW1 3311   0.704   6.566   0.220
  804SOL    HW2 3312   0.782   6.669   0.319
  805SOL     OW 3313   3.316   2.894   6.000
  805SOL    HW1 3314   3.380   2.821   6.022
  805SOL    HW2 3315   3.364   2.982   6.001
  806SOL     OW 3316   4.938   1.845   6.981
  806SOL    HW1 3317   4.878   1.765   6.976
  806SOL    HW2 3318   4.957   1.866   0.053
  807SOL     OW 3319   1.064   0.820   3.177
  807SOL    HW1 3320   1.024   0.747   3.122
  807SOL    HW2 3321   0.999   0.848   3.248
  808SOL     OW 3322   5.360   2.958   6.062
  808SOL    HW1 3323   5.398   2.866   6.056
  808SOL    HW2 3324   5.348   2.995   5.970
  809SOL     OW 3325   0.605   4.588   0.280
  809SOL    HW1 3326   0.635   4.604   0.374
  809SOL    HW2 3327   0.676   4.619   0.217
  810SOL     OW 3328   5.633   3.492   0.464
  810SOL    HW1 3329   5.651   3.556   0.538
  810SOL    HW2 3330   5.598   3.406   0.502
  811SOL     OW 3331   5.329   4.882   3.895
  811SOL    HW1 3332   5.302   4.966   3.848
  811SOL    HW2 3333   5.249   4.842   3.940
  812SOL     OW 3334   0.371   0.034   1.322
  812SOL    HW1 3335   0.361   0.041   1.421
  812SOL    HW2 3336   0.287   7.020   1.282
  813SOL     OW 3337   4.476   5.390   2.577
  813SOL    HW1 3338   4.424   5.371   2.493
  813SOL    HW2 3339   4.414   5.389   2.655
  814SOL     OW 3340   5.875   6.448   1.655
  814SOL    HW1 3341   5.874   6.508   1.575
  814SOL    HW2 3342   5.843   6.499   1.735
  815SOL     OW 3343   6.834   2.351   0.827
  815SOL    HW1 3344   6.766   2.389   0.890
  815SOL    HW2 3345   6.818   2.387   0.735
  816SOL     OW 3346   6.585   6.027   0.980
  816SOL    HW1 3347   6.597   5.943   1.032
  816SOL    HW2 3348   6.623   6.104   1.031
  817SOL     OW 3349   1.825   3.589   2.098
  817SOL    HW1 3350   1.729   3.567   2.116
  817SOL    HW2 3351   1.858   3.535   2.021
  818SOL     OW 3352   6.122   1.715   0.648
  818SOL    HW1 3353   6.094   1.807   0.622
  818SOL    HW2 3354   6.213   1.696   0.611
  819SOL     OW 3355   6.825   2.371   2.941
  819SOL    HW1 3356   6.903   2.401   2.995
  819SOL    HW2 3357   6.750   2.435   2.952
  820SOL     OW 3358   0.620   2.493   4.335
  820SOL    HW1 3359   0.610   2.442   4.250
  820SOL    HW2 3360   0.548   2.467   4.399
  821SOL     OW 3361   1.298   3.922   0.195
  821SOL    HW1 3362   1.287   3.957   0.102
  821SOL    HW2 3363   1.213   3.877   0.223
  822SOL     OW 3364   0.890   4.297   4.423
  822SOL    HW1 3365   0.813   4.263   4.369
  822SOL    HW2 3366   0.935   4.220   4.469
  823SOL     OW 3367   4.508   3.765   6.728
  823SOL    HW1 3368   4.570   3.727   6.795
  823SOL    HW2 3369   4.545   3.751   6.636
  824SOL     OW 3370   4.888   2.782   5.471
  824SOL    HW1 3371   4.921   2.873   5.446
  824SOL    HW2 3372   4.955   2.736   5.529
  825SOL     OW 3373   2.072   3.344   2.526
  825SOL    HW1 3374   2.061   3.245   2.534
  825SOL    HW2 3375   2.126   3.377   2.603
  826SOL     OW 3376   6.137   3.073   6.672
  826SOL    HW1 3377   6.143   3.143   6.743
  826SOL    HW2 3378   6.043   3.039   6.667
  827SOL     OW 3379   3.630   5.842   0.100
  827SOL    HW1 3380   3.598   5.749   0.122
  827SOL    HW2 3381   3.705   5.836   0.034
  828SOL     OW 3382   5.792   0.962   5.205
  828SOL    HW1 3383   5.713   0.986   5.261
  828SOL    HW2 3384   5.849   0.896   5.253
  829SOL     OW 3385   2.998   3.123   4.276
  829SOL    HW1 3386   2.984   3.116   4.375
  829SOL    HW2 3387   2.970   3.213   4.244
  830SOL     OW 3388   4.735   4.083   5.159
  830SOL    HW1 3389   4.675   4.029   5.219
  830SOL    HW2 3390   4.750   4.173   5.199
  831SOL     OW 3391   6.352   0.765   5.200
  831SOL    HW1 3392   6.420   0.809   5.259
  831SOL    HW2 3393   6.336   0.822   5.120
  832SOL     OW 3394   2.051   2.518   6.979
  832SOL    HW1 3395   2.005   2.439   7.019
  832SOL    HW2 3396   2.150   2.501   6.975
  833SOL     OW 3397   6.295   6.951   6.772
  833SOL    HW1 3398   6.392   6.973   6.759
  833SOL    HW2 3399   6.241   7.003   6.706
  834SOL     OW 3400   3.006   3.869   4.230
  834SOL    HW1 3401   3.013   3.930   4.310
  834SOL    HW2 3402   3.042   3.916   4.150
  835SOL     OW 3403   3.221   6.529   4.154
  835SOL    HW1 3404   3.153   6.571   4.214
  835SOL    HW2 3405   3.188   6.529   4.060
  836SOL     OW 3406   3.305   0.493   0.076
  836SOL    HW1 3407   3.403   0.498   0.059
  836SOL    HW2 3408   3.280   0.400   0.102
  837SOL     OW 3409   4.894   0.395   5.985
  837SOL    HW1 3410   4.900   0.495   5.981
  837SOL    HW2 3411   4.981   0.356   5.955
  838SOL     OW 3412   2.110   5.782   4.339
  838SOL    HW1 3413   2.086   5.862   4.394
  838SOL    HW2 3414   2.088   5.800   4.243
  839SOL     OW 3415   2.982   1.542   3.367
  839SOL    HW1 3416   2.957   1.485   3.446
  839SOL    HW2 3417   3.076   1.574   3.378
  840SOL     OW 3418   1.195   1.076   7.024
  840SOL    HW1 3419   1.214   1.130   6.942
  840SOL    HW2 3420   1.099   1.049   0.000
  841SOL     OW 3421   6.913   3.588   0.101
  841SOL    HW1 3422   6.976   3.662   0.124
  841SOL    HW2 3423   6.951   3.500   0.130
  842SOL     OW 3424   3.629   5.016   3.396
  842SOL    HW1 3425   3.646   5.114   3.394
  842SOL    HW2 3426   3.694   4.972   3.458
  843SOL     OW 3427   6.466   2.248   1.800
  843SOL    HW1 3428   6.421   2.314   1.860
  843SOL    HW2 3429   6.423   2.158   1.811
  844SOL     OW 3430   4.866   5.899   0.492
  844SOL    HW1 3431   4.965   5.891   0.501
  844SOL    HW2 3432   4.828   5.941   0.574
  845SOL     OW 3433   0.042   4.422   4.362
  845SOL    HW1 3434   0.038   4.323   4.376
  845SOL    HW2 3435   0.118   4.460   4.414
  846SOL     OW 3436   6.250   1.598   6.744
  846SOL    HW1 3437   6.176   1.637   6.690
  846SOL    HW2 3438   6.231   1.611   6.842
  847SOL     OW 3439   5.290   3.438   1.553
  847SOL    HW1 3440   5.253   3.361   1.604
  847SOL    HW2 3441   5.288   3.520   1.610
  848SOL     OW 3442   6.228   0.223   5.990
  848SOL    HW1 3443   6.157   0.279   6.034
  848SOL    HW2 3444   6.316   0.239   6.036
  849SOL     OW 3445   0.404   5.065   4.796
  849SOL    HW1 3446   0.415   5.122   4.715
  849SOL    HW2 3447   0.332   4.998   4.781
  850SOL     OW 3448   4.195   1.030   2.914
  850SOL    HW1 3449   4.157   1.110   2.868
  850SOL    HW2 3450   4.290   1.017   2.886
  851SOL     OW 3451   0.970   1.057   6.781
  851SOL    HW1 3452   1.019   1.009   6.709
  851SOL    HW2 3453   1.013   1.145   6.799
  852SOL     OW 3454   2.386   3.406   6.681
  852SOL    HW1 3455   2.475   3.363   6.668
  852SOL    HW2 3456   2.328   3.346   6.736
  853SOL     OW 3457   1.040   3.224   1.696
  853SOL    HW1 3458   1.026   3.321   1.681
  853SOL    HW2 3459   1.040   3.176   1.608
  854SOL     OW 3460   5.287   5.474   2.736
  854SOL    HW1 3461   5.226   5.411   2.783
  854SOL    HW2 3462   5.382   5.445   2.751
  855SOL     OW 3463   5.537   0.156   1.602
  855SOL    HW1 3464   5.618   0.119   1.555
  855SOL    HW2 3465   5.497   0.086   1.661
  856SOL     OW 3466   2.082   6.097   5.032
  856SOL    HW1 3467   2.077   6.183   4.982
  856SOL    HW2 3468   1.990   6.066   5.055
  857SOL     OW 3469   5.921   3.678   1.434
  857SOL    HW1 3470   5.926   3.778   1.430
  857SOL    HW2 3471   5.857   3.645   1.364
  858SOL     OW 3472   3.222   5.124   1.394
  858SOL    HW1 3473   3.187   5.194   1.332
  858SOL    HW2 3474   3.211   5.034   1.352
  859SOL     OW 3475   6.912   5.031   6.960
  859SOL    HW1 3476   6.994   5.017   7.016
  859SOL    HW2 3477   6.838   5.067   7.017
  860SOL     OW 3478   2.643   4.835   0.982
  860SOL    HW1 3479   2.551   4.862   1.012
  860SOL    HW2 3480   2.659   4.739   1.006
  861SOL     OW 3481   3.233   5.955   5.657
  861SOL    HW1 3482   3.150   5.998   5.693
  861SOL    HW2 3483   3.294   5.932   5.732
  862SOL     OW 3484   4.927   4.327   4.426
  862SOL    HW1 3485   4.920   4.326   4.525
  862SOL    HW2 3486   4.875   4.250   4.388
  863SOL     OW 3487   6.735   0.836   0.843
  863SOL    HW1 3488   6.768   0.758   0.898
  863SOL    HW2 3489   6.781   0.919   0.873
  864SOL     OW 3490   6.285   4.202   2.503
  864SOL    HW1 3491   6.281   4.169   2.409
  864SOL    HW2 3492   6.270   4.301   2.504
  865SOL     OW 3493   1.880   6.651   4.106
  865SOL    HW1 3494   1.897   6.744   4.140
  865SOL    HW2 3495   1.879   6.652   4.006
  866SOL     OW 3496   3.308   1.915   2.039
  866SOL    HW1 3497   3.223   1.930   1.987
  866SOL    HW2 3498   3.287   1.867   2.123
  867SOL     OW 3499   2.727   2.932   6.786
  867SOL    HW1 3500   2.728   2.926   6.687
  867SOL    HW2 3501   2.682   2.851   6.825
  868SOL     OW 3502   5.542   1.429   3.063
  868SOL    HW1 3503   5.583   1.365   3.129
  868SOL    HW2 3504   5.614   1.485   3.022
  869SOL     OW 3505   6.248   6.066   1.963
  869SOL    HW1 3506   6.290   5.975   1.961
  869SOL    HW2 3507   6.148   6.056   1.957
  870SOL     OW 3508   6.554   1.541   1.038
  870SOL    HW1 3509   6.574   1.606   1.111
  870SOL    HW2 3510   6.502   1.586   0.966
  871SOL     OW 3511   6.025   2.297   1.206
  871SOL    HW1 3512   5.929   2.314   1.231
  871SOL    HW2 3513   6.053   2.362   1.136
  872SOL     OW 3514   6.317   2.121   3.485
  872SOL    HW1 3515   6.341   2.028   3.515
  872SOL    HW2 3516   6.351   2.187   3.552
  873SOL     OW 3517   3.366   6.451   4.541
  873SOL    HW1 3518   3.274   6.490   4.548
  873SOL    HW2 3519   3.394   6.414   4.630
  874SOL     OW 3520   1.229   3.843   5.097
  874SOL    HW1 3521   1.268   3.915   5.154
  874SOL    HW2 3522   1.164   3.789   5.150
  875SOL     OW 3523   6.011   3.604   0.568
  875SOL    HW1 3524   5.977   3.510   0.576
  875SOL    HW2 3525   5.982   3.642   0.480
  876SOL     OW 3526   0.085   3.370   1.734
  876SOL    HW1 3527   0.103   3.438   1.805
  876SOL    HW2 3528   0.050   3.287   1.776
  877SOL     OW 3529   4.870   5.831   0.045
  877SOL    HW1 3530   4.902   5.744   0.082
  877SOL    HW2 3531   4.852   5.821   6.971
  878SOL     OW 3532   3.005   4.949   0.599
  878SOL    HW1 3533   3.052   4.948   0.686
  878SOL    HW2 3534   2.911   4.915   0.611
  879SOL     OW 3535   4.399   2.399   2.894
  879SOL    HW1 3536   4.450   2.466   2.840
  879SOL    HW2 3537   4.338   2.348   2.834
  880SOL     OW 3538   3.617   5.655   0.461
  880SOL    HW1 3539   3.709   5.676   0.428
  880SOL    HW2 3540   3.565   5.610   0.388
  881SOL     OW 3541   3.714   5.091   4.812
  881SOL    HW1 3542   3.785   5.035   4.769
  881SOL    HW2 3543   3.625   5.064   4.777
  882SOL     OW 3544   1.296   0.741   4.008
  882SOL    HW1 3545   1.220   0.724   3.946
  882SOL    HW2 3546   1.309   0.662   4.068
  883SOL     OW 3547   3.305   5.466   5.898
  883SOL    HW1 3548   3.275   5.374   5.875
  883SOL    HW2 3549   3.313   5.520   5.814
  884SOL     OW 3550   5.244   3.263   1.749
  884SOL    HW1 3551   5.321   3.305   1.798
  884SOL    HW2 3552   5.169   3.247   1.812
  885SOL     OW 3553   5.634   6.366   0.577
  885SOL    HW1 3554   5.593   6.394   0.664
  885SOL    HW2 3555   5.681   6.444   0.536
  886SOL     OW 3556   4.468   1.894   6.381
  886SOL    HW1 3557   4.489   1.986   6.351
  886SOL    HW2 3558   4.532   1.829   6.339
  887SOL     OW 3559   3.785   6.777   5.765
  887SOL    HW1 3560   3.816   6.864   5.802
  887SOL    HW2 3561   3.787   6.707   5.837
  888SOL     OW 3562   6.509   5.717   3.211
  888SOL    HW1 3563   6.608   5.710   3.224
  888SOL    HW2 3564   6.484   5.813   3.197
  889SOL     OW 3565   0.360   6.372   4.955
  889SOL    HW1 3566   0.403   6.375   4.865
  889SOL    HW2 3567   0.430   6.378   5.026
  890SOL     OW 3568   2.667   4.620   2.262
  890SOL    HW1 3569   2.591   4.593   2.202
  890SOL    HW2 3570   2.752   4.624   2.209
  891SOL     OW 3571   5.344   3.201   6.848
  891SOL    HW1 3572   5.340   3.193   6.749
  891SOL    HW2 3573   5.433   3.169   6.881
  892SOL     OW 3574   2.817   5.062   0.978
  892SOL    HW1 3575   2.766   4.976   0.985
  892SOL    HW2 3576   2.754   5.138   0.965
  893SOL     OW 3577   1.101   0.144   0.007
  893SOL    HW1 3578   1.036   0.098   0.067
  893SOL    HW2 3579   1.176   0.082   7.010
  894SOL     OW 3580   1.176   5.672   3.965
  894SOL    HW1 3581   1.094   5.619   3.944
  894SOL    HW2 3582   1.150   5.757   4.012
  895SOL     OW 3583   2.443   6.518   4.679
  895SOL    HW1 3584   2.374   6.508   4.750
  895SOL    HW2 3585   2.414   6.588   4.614
  896SOL     OW 3586   5.725   6.895   2.528
  896SOL    HW1 3587   5.736   6.956   2.449
  896SOL    HW2 3588   5.744   6.946   2.612
  897SOL     OW 3589   5.301   1.886   6.394
  897SOL    HW1 3590   5.321   1.917   6.487
  897SOL    HW2 3591   5.260   1.795   6.397
  898SOL     OW 3592   5.788   6.393   3.215
  898SOL    HW1 3593   5.770   6.489   3.195
  898SOL    HW2 3594   5.718   6.336   3.172
  899SOL     OW 3595   0.423   4.529   5.617
  899SOL    HW1 3596   0.460   4.615   5.583
  899SOL    HW2 3597   0.386   4.541   5.709
  900SOL     OW 3598   0.951   5.657   3.257
  900SOL    HW1 3599   0.973   5.741   3.306
  900SOL    HW2 3600   0.865   5.619   3.290
  901SOL     OW 3601   6.195   1.280   4.215
  901SOL    HW1 3602   6.277   1.288   4.158
  901SOL    HW2 3603   6.119   1.248   4.159
  902SOL     OW 3604   0.051   6.141   0.328
  902SOL    HW1 3605   0.025   6.191   0.410
  902SOL    HW2 3606   6.993   6.101   0.286
  903SOL     OW 3607   1.580   5.107   0.595
  903SOL    HW1 3608   1.664   5.053   0.593
  903SOL    HW2 3609   1.532   5.091   0.682
  904SOL     OW 3610   1.760   1.854   3.766
  904SOL    HW1 3611   1.689   1.829   3.700
  904SOL    HW2 3612   1.848   1.820   3.733
  905SOL     OW 3613   5.929   2.344   5.312
  905SOL    HW1 3614   6.007   2.397   5.346
  905SOL    HW2 3615   5.948   2.312   5.220
  906SOL     OW 3616   6.431   3.196   5.956
  906SOL    HW1 3617   6.359   3.203   6.025
  906SOL    HW2 3618   6.506   3.258   5.981
  907SOL     OW 3619   6.094   2.171   2.563
  907SOL    HW1 3620   6.036   2.190   2.484
  907SOL    HW2 3621   6.190   2.187   2.538
  908SOL     OW 3622   1.925   1.059   4.332
  908SOL    HW1 3623   1.832   1.065   4.297
  908SOL    HW2 3624   1.989   1.060   4.255
  909SOL     OW 3625   3.744   1.578   2.087
  909SOL    HW1 3626   3.816   1.526   2.043
  909SOL    HW2 3627   3.678   1.610   2.018
  910SOL     OW 3628   2.149   1.995   0.538
  910SOL    HW1 3629   2.163   2.085   0.579
  910SOL    HW2 3630   2.234   1.964   0.497
  911SOL     OW 3631   0.096   4.689   1.019
  911SOL    HW1 3632   0.168   4.640   1.069
  911SOL    HW2 3633   0.115   4.787   1.021
  912SOL     OW 3634   0.844   6.779   5.978
  912SOL    HW1 3635   0.924   6.811   5.927
  912SOL    HW2 3636   0.870   6.706   6.040
  913SOL     OW 3637   3.190   0.877   2.164
  913SOL    HW1 3638   3.150   0.804   2.109
  913SOL    HW2 3639   3.289   0.876   2.154
  914SOL     OW 3640   3.000   6.287   2.836
  914SOL    HW1 3641   2.929   6.331   2.782
  914SOL    HW2 3642   3.072   6.253   2.776
  915SOL     OW 3643   0.605   2.847   0.621
  915SOL    HW1 3644   0.513   2.878   0.597
  915SOL    HW2 3645   0.605   2.747   0.630
  916SOL     OW 3646   1.990   3.008   2.743
  916SOL    HW1 3647   2.073   2.970   2.783
  916SOL    HW2 3648   2.007   3.035   2.648
  917SOL     OW 3649   4.059   1.826   0.200
  917SOL    HW1 3650   4.042   1.922   0.222
  917SOL    HW2 3651   4.011   1.802   0.116
  918SOL     OW 3652   1.961   0.428   6.447
  918SOL    HW1 3653   1.864   0.442   6.465
  918SOL    HW2 3654   1.985   0.333   6.464
  919SOL     OW 3655   2.901   6.022   2.557
  919SOL    HW1 3656   2.848   5.953   2.507
  919SOL    HW2 3657   2.888   6.007   2.656
  920SOL     OW 3658   2.260   0.805   3.829
  920SOL    HW1 3659   2.232   0.777   3.737
  920SOL    HW2 3660   2.351   0.845   3.826
  921SOL     OW 3661   5.544   5.604   4.849
  921SOL    HW1 3662   5.549   5.546   4.931
  921SOL    HW2 3663   5.603   5.684   4.861
  922SOL     OW 3664   2.667   3.392   6.752
  922SOL    HW1 3665   2.638   3.479   6.713
  922SOL    HW2 3666   2.711   3.337   6.682
  923SOL     OW 3667   3.795   0.394   6.894
  923SOL    HW1 3668   3.765   0.413   6.800
  923SOL    HW2 3669   3.799   0.295   6.907
  924SOL     OW 3670   5.820   3.106   3.405
  924SOL    HW1 3671   5.721   3.100   3.402
  924SOL    HW2 3672   5.857   3.094   3.313
  925SOL     OW 3673   0.019   1.763   3.498
  925SOL    HW1 3674   0.040   1.675   3.541
  925SOL    HW2 3675   0.060   1.837   3.551
  926SOL     OW 3676   5.271   6.233   0.885
  926SOL    HW1 3677   5.248   6.254   0.980
  926SOL    HW2 3678   5.195   6.259   0.826
  927SOL     OW 3679   3.841   5.072   5.083
  927SOL    HW1 3680   3.772   5.085   5.012
  927SOL    HW2 3681   3.798   5.030   5.163
  928SOL     OW 3682   1.734   1.524   1.113
  928SOL    HW1 3683   1.725   1.591   1.186
  928SOL    HW2 3684   1.717   1.432   1.150
  929SOL     OW 3685   0.327   2.059   2.201
  929SOL    HW1 3686   0.377   2.000   2.264
  929SOL    HW2 3687   0.299   2.142   2.248
  930SOL     OW 3688   5.297   5.708   4.281
  930SOL    HW1 3689   5.244   5.684   4.362
  930SOL    HW2 3690   5.245   5.770   4.223
  931SOL     OW 3691   1.767   2.781   2.606
  931SOL    HW1 3692   1.751   2.859   2.546
  931SOL    HW2 3693   1.802   2.813   2.694
  932SOL     OW 3694   4.748   6.708   0.905
  932SOL    HW1 3695   4.750   6.808   0.915
  932SOL    HW2 3696   4.762   6.683   0.809
  933SOL     OW 3697   1.942   5.991   2.926
  933SOL    HW1 3698   1.970   5.896   2.912
  933SOL    HW2 3699   1.944   6.012   3.024
  934SOL     OW 3700   2.788   1.043   5.404
  934SOL    HW1 3701   2.812   1.132   5.443
  934SOL    HW2 3702   2.829   0.970   5.460
  935SOL     OW 3703   3.674   3.254   6.477
  935SOL    HW1 3704   3.710   3.163   6.496
  935SOL    HW2 3705   3.725   3.322   6.531
  936SOL     OW 3706   1.114   1.643   1.273
  936SOL    HW1 3707   1.190   1.642   1.208
  936SOL    HW2 3708   1.126   1.569   1.339
  937SOL     OW 3709   4.993   1.942   4.644
  937SOL    HW1 3710   4.976   1.970   4.550
  937SOL    HW2 3711   4.924   1.875   4.672
  938SOL     OW 3712   0.613   2.661   6.718
  938SOL    HW1 3713   0.628   2.747   6.766
  938SOL    HW2 3714   0.549   2.604   6.769
  939SOL     OW 3715   5.941   0.968   5.659
  939SOL    HW1 3716   5.966   0.920   5.744
  939SOL    HW2 3717   5.868   1.033   5.678
  940SOL     OW 3718   6.538   1.056   4.410
  940SOL    HW1 3719   6.507   1.064   4.315
  940SOL    HW2 3720   6.555   1.147   4.448
  941SOL     OW 3721   5.471   2.818   4.435
  941SOL    HW1 3722   5.395   2.753   4.441
  941SOL    HW2 3723   5.538   2.785   4.369
  942SOL     OW 3724   5.723   6.630   5.203
  942SOL    HW1 3725   5.804   6.683   5.181
  942SOL    HW2 3726   5.740   6.574   5.284
  943SOL     OW 3727   5.516   2.320   1.278
  943SOL    HW1 3728   5.437   2.380   1.261
  943SOL    HW2 3729   5.523   2.301   1.376
  944SOL     OW 3730   5.561   4.613   4.181
  944SOL    HW1 3731   5.517   4.542   4.236
  944SOL    HW2 3732   5.602   4.681   4.242
  945SOL     OW 3733   5.325   4.311   4.711
  945SOL    HW1 3734   5.420   4.340   4.698
  945SOL    HW2 3735   5.311   4.221   4.670
  946SOL     OW 3736   5.691   2.460   5.405
  946SOL    HW1 3737   5.767   2.399   5.383
  946SOL    HW2 3738   5.721   2.555   5.394
  947SOL     OW 3739   2.020   2.648   6.043
  947SOL    HW1 3740   1.982   2.634   6.134
  947SOL    HW2 3741   2.046   2.744   6.032
  948SOL     OW 3742   3.869   2.498   0.229
  948SOL    HW1 3743   3.793   2.467   0.286
  948SOL    HW2 3744   3.927   2.560   0.282
  949SOL     OW 3745   6.082   5.960   6.389
  949SOL    HW1 3746   6.152   5.889   6.398
  949SOL    HW2 3747   6.003   5.923   6.341
  950SOL     OW 3748   4.406   4.990   1.315
  950SOL    HW1 3749   4.450   5.077   1.291
  950SOL    HW2 3750   4.400   4.932   1.235
  951SOL     OW 3751   0.649   1.523   2.998
  951SOL    HW1 3752   0.582   1.462   3.041
  951SOL    HW2 3753   0.607   1.611   2.978
  952SOL     OW 3754   5.208   2.116   2.660
  952SOL    HW1 3755   5.197   2.038   2.722
  952SOL    HW2 3756   5.152   2.101   2.579
  953SOL     OW 3757   4.555   6.657   6.807
  953SOL    HW1 3758   4.650   6.660   6.837
  953SOL    HW2 3759   4.546   6.595   6.729
  954SOL     OW 3760   6.613   6.566   0.506
  954SOL    HW1 3761   6.682   6.540   0.574
  954SOL    HW2 3762   6.522   6.544   0.541
  955SOL     OW 3763   0.385   6.732   2.757
  955SOL    HW1 3764   0.468   6.682   2.779
  955SOL    HW2 3765   0.354   6.708   2.665
  956SOL     OW 3766   1.207   2.802   1.249
  956SOL    HW1 3767   1.270   2.875   1.278
  956SOL    HW2 3768   1.173   2.822   1.157
  957SOL     OW 3769   2.261   5.753   4.609
  957SOL    HW1 3770   2.211   5.838   4.625
  957SOL    HW2 3771   2.246   5.723   4.515
  958SOL     OW 3772   4.772   2.619   1.181
  958SOL    HW1 3773   4.721   2.705   1.184
  958SOL    HW2 3774   4.757   2.575   1.092
  959SOL     OW 3775   1.870   4.592   2.959
  959SOL    HW1 3776   1.838   4.546   3.042
  959SOL    HW2 3777   1.912   4.680   2.983
  960SOL     OW 3778   1.606   5.182   4.389
  960SOL    HW1 3779   1.596   5.210   4.294
  960SOL    HW2 3780   1.517   5.156   4.426
  961SOL     OW 3781   3.974   0.452   2.042
  961SOL    HW1 3782   3.924   0.532   2.074
  961SOL    HW2 3783   4.064   0.481   2.008
  962SOL     OW 3784   1.687   0.980   4.075
  962SOL    HW1 3785   1.648   1.072   4.067
  962SOL    HW2 3786   1.741   0.960   3.994
  963SOL     OW 3787   6.841   0.288   0.896
  963SOL    HW1 3788   6.808   0.353   0.828
  963SOL    HW2 3789   6.931   0.255   0.870
  964SOL     OW 3790   5.461   3.379   1.875
  964SOL    HW1 3791   5.514   3.345   1.798
  964SOL    HW2 3792   5.523   3.414   1.946
  965SOL     OW 3793   0.629   2.104   0.499
  965SOL    HW1 3794   0.537   2.143   0.503
  965SOL    HW2 3795   0.637   2.045   0.419
  966SOL     OW 3796   6.590   2.541   3.000
  966SOL    HW1 3797   6.617   2.606   2.930
  966SOL    HW2 3798   6.502   2.501   2.976
  967SOL     OW 3799   1.699   5.948   1.799
  967SOL    HW1 3800   1.775   5.946   1.865
  967SOL    HW2 3801   1.704   5.866   1.742
  968SOL     OW 3802   5.239   3.265   2.868
  968SOL    HW1 3803   5.327   3.218   2.865
  968SOL    HW2 3804   5.254   3.364   2.865
  969SOL     OW 3805   4.495   5.768   6.005
  969SOL    HW1 3806   4.572   5.706   6.019
  969SOL    HW2 3807   4.410   5.715   6.000
  970SOL     OW 3808   4.425   2.532   5.184
  970SOL    HW1 3809   4.444   2.630   5.184
  970SOL    HW2 3810   4.331   2.516   5.213
  971SOL     OW 3811   6.599   1.514   1.797
  971SOL    HW1 3812   6.577   1.504   1.894
  971SOL    HW2 3813   6.518   1.547   1.747
  972SOL     OW 3814   6.246   5.315   0.953
  972SOL    HW1 3815   6.300   5.399   0.957
  972SOL    HW2 3816   6.211   5.302   0.860
  973SOL     OW 3817   5.715   4.090   5.890
  973SOL    HW1 3818   5.686   4.180   5.923
  973SOL    HW2 3819   5.801   4.100   5.839
  974SOL     OW 3820   2.462   1.040   3.906
  974SOL    HW1 3821   2.424   1.042   3.814
  974SOL    HW2 3822   2.522   1.119   3.920
  975SOL     OW 3823   3.176   6.579   5.202
  975SOL    HW1 3824   3.109   6.626   5.260
  975SOL    HW2 3825   3.129   6.520   5.138
  976SOL     OW 3826   0.240   4.677   3.634
  976SOL    HW1 3827   0.190   4.705   3.552
  976SOL    HW2 3828   0.175   4.643   3.702
  977SOL     OW 3829   2.140   0.890   3.533
  977SOL    HW1 3830   2.052   0.927   3.502
  977SOL    HW2 3831   2.149   0.795   3.503
  978SOL     OW 3832   5.336   3.417   4.641
  978SOL    HW1 3833   5.296   3.329   4.618
  978SOL    HW2 3834   5.362   3.465   4.557
  979SOL     OW 3835   6.112   0.874   3.168
  979SOL    HW1 3836   6.053   0.843   3.242
  979SOL    HW2 3837   6.088   0.967   3.142
  980SOL     OW 3838   5.968   1.811   4.567
  980SOL    HW1 3839   5.956   1.715   4.593
  980SOL    HW2 3840   5.907   1.832   4.490
  981SOL     OW 3841   0.338   1.978   5.101
  981SOL    HW1 3842   0.331   2.065   5.152
  981SOL    HW2 3843   0.250   1.930   5.107
  982SOL     OW 3844   1.421   3.249   1.725
  982SOL    HW1 3845   1.377   3.210   1.644
  982SOL    HW2 3846   1.518   3.265   1.706
  983SOL     OW 3847   6.088   2.205   2.859
  983SOL    HW1 3848   6.123   2.115   2.884
  983SOL    HW2 3849   6.072   2.208   2.760
  984SOL     OW 3850   4.317   1.985   4.440
  984SOL    HW1 3851   4.376   1.962   4.363
  984SOL    HW2 3852   4.260   2.063   4.417
  985SOL     OW 3853   3.545   5.686   0.703
  985SOL    HW1 3854   3.616   5.724   0.762
  985SOL    HW2 3855   3.578   5.681   0.610
  986SOL     OW 3856   4.384   4.945   6.134
  986SOL    HW1 3857   4.296   4.957   6.089
  986SOL    HW2 3858   4.421   5.034   6.159
  987SOL     OW 3859   4.275   6.791   2.381
  987SOL    HW1 3860   4.229   6.879   2.370
  987SOL    HW2 3861   4.293   6.752   2.290
  988SOL     OW 3862   3.482   3.646   1.579
  988SOL    HW1 3863   3.548   3.683   1.644
  988SOL    HW2 3864   3.515   3.558   1.544
  989SOL     OW 3865   0.574   0.263   5.545
  989SOL    HW1 3866   0.560   0.361   5.536
  989SOL    HW2 3867   0.485   0.217   5.548
  990SOL     OW 3868   4.594   0.227   3.908
  990SOL    HW1 3869   4.613   0.306   3.967
  990SOL    HW2 3870   4.563   0.150   3.964
  991SOL     OW 3871   6.969   1.394   5.138
  991SOL    HW1 3872   6.936   1.439   5.055
  991SOL    HW2 3873   0.034   1.433   5.164
  992SOL     OW 3874   0.464   3.653   0.127
  992SOL    HW1 3875   0.409   3.638   0.210
  992SOL    HW2 3876   0.486   3.565   0.086
  993SOL     OW 3877   3.051   4.909   3.304
  993SOL    HW1 3878   3.060   4.914   3.404
  993SOL    HW2 3879   2.998   4.828   3.280
  994SOL     OW 3880   2.866   3.445   2.958
  994SOL    HW1 3881   2.915   3.359   2.944
  994SOL    HW2 3882   2.863   3.466   3.056
  995SOL     OW 3883   2.094   1.774   5.249
  995SOL    HW1 3884   2.190   1.786   5.273
  995SOL    HW2 3885   2.086   1.754   5.151
  996SOL     OW 3886   1.981   4.112   2.360
  996SOL    HW1 3887   2.017   4.026   2.323
  996SOL    HW2 3888   1.892   4.094   2.403
  997SOL     OW 3889   0.191   1.167   1.488
  997SOL    HW1 3890   0.227   1.080   1.456
  997SOL    HW2 3891   0.135   1.152   1.569
  998SOL     OW 3892   4.436   6.733   2.131
  998SOL    HW1 3893   4.506   6.776   2.188
  998SOL    HW2 3894   4.456   6.751   2.035
  999SOL     OW 3895   6.705   5.463   1.599
  999SOL    HW1 3896   6.692   5.369   1.630
  999SOL    HW2 3897   6.633   5.487   1.533
 1000SOL     OW 3898   3.468   2.043   4.084
 1000SOL    HW1 3899   3.415   2.065   4.002
 1000SOL    HW2 3900   3.435   1.957   4.122
 1001SOL     OW 3901   5.017   0.198   5.624
 1001SOL    HW1 3902   5.107   0.175   5.662
 1001SOL    HW2 3903   4.989   0.289   5.657
 1002SOL     OW 3904   6.258   1.133   0.422
 1002SOL    HW1 3905   6.356   1.134   0.404
 1002SOL    HW2 3906   6.210   1.184   0.350
 1003SOL     OW 3907   3.941   6.069   2.868
 1003SOL    HW1 3908   3.912   5.983   2.908
 1003SOL    HW2 3909   3.886   6.090   2.788
 1004SOL     OW 3910   6.631   6.870   0.434
 1004SOL    HW1 3911   6.565   6.945   0.434
 1004SOL    HW2 3912   6.583   6.783   0.442
 1005SOL     OW 3913   0.735   6.911   3.118
 1005SOL    HW1 3914   0.635   6.913   3.125
 1005SOL    HW2 3915   0.774   6.910   3.210
 1006SOL     OW 3916   2.356   5.262   1.139
 1006SOL    HW1 3917   2.415   5.200   1.190
 1006SOL    HW2 3918   2.260   5.240   1.157
 1007SOL     OW 3919   0.093   1.230   3.452
 1007SOL    HW1 3920   7.022   1.255   3.474
 1007SOL    HW2 3921   0.154   1.271   3.519
 1008SOL     OW 3922   1.996   3.365   3.812
 1008SOL    HW1 3923   1.996   3.458   3.775
 1008SOL    HW2 3924   2.006   3.300   3.737
 1009SOL     OW 3925   0.932   6.277   5.028
 1009SOL    HW1 3926   0.860   6.212   5.004
 1009SOL    HW2 3927   0.899   6.338   5.100
 1010SOL     OW 3928   4.686   2.540   0.447
 1010SOL    HW1 3929   4.675   2.628   0.493
 1010SOL    HW2 3930   4.695   2.555   0.348
 1011SOL     OW 3931   2.532   5.844   3.600
 1011SOL    HW1 3932   2.604   5.912   3.611
 1011SOL    HW2 3933   2.503   5.842   3.504
 1012SOL     OW 3934   5.006   5.174   6.951
 1012SOL    HW1 3935   5.081   5.233   6.979
 1012SOL    HW2 3936   4.943   5.225   6.892
 1013SOL     OW 3937   0.869   0.881   0.923
 1013SOL    HW1 3938   0.853   0.863   0.826
 1013SOL    HW2 3939   0.908   0.973   0.933
 1014SOL     OW 3940   4.978   6.426   5.876
 1014SOL    HW1 3941   5.048   6.413   5.946
 1014SOL    HW2 3942   5.003   6.376   5.794
 1015SOL     OW 3943   3.554   5.825   4.540
 1015SOL    HW1 3944   3.455   5.835   4.545
 1015SOL    HW2 3945   3.581   5.740   4.586
 1016SOL     OW 3946   3.893   2.969   1.223
 1016SOL    HW1 3947   3.924   2.922   1.305
 1016SOL    HW2 3948   3.874   2.901   1.151
 1017SOL     OW 3949   4.341   2.808   0.431
 1017SOL    HW1 3950   4.352   2.807   0.332
 1017SOL    HW2 3951   4.381   2.892   0.468
 1018SOL     OW 3952   1.246   2.559   2.831
 1018SOL    HW1 3953   1.273   2.466   2.805
 1018SOL    HW2 3954   1.323   2.621   2.816
 1019SOL     OW 3955   0.523   1.537   6.626
 1019SOL    HW1 3956   0.427   1.521   6.602
 1019SOL    HW2 3957   0.564   1.601   6.561
 1020SOL     OW 3958   2.470   1.632   1.464
 1020SOL    HW1 3959   2.468   1.676   1.554
 1020SOL    HW2 3960   2.522   1.547   1.470
 1021SOL     OW 3961   6.848   0.968   0.608
 1021SOL    HW1 3962   6.946   0.977   0.589
 1021SOL    HW2 3963   6.835   0.943   0.704
 1022SOL     OW 3964   4.156   3.478   6.228
 1022SOL    HW1 3965   4.097   3.514   6.155
 1022SOL    HW2 3966   4.252   3.496   6.205
 1023SOL     OW 3967   5.457   0.659   2.483
 1023SOL    HW1 3968   5.460   0.702   2.574
 1023SOL    HW2 3969   5.362   0.641   2.459
 1024SOL     OW 3970   6.805   1.472   3.896
 1024SOL    HW1 3971   6.762   1.550   3.849
 1024SOL    HW2 3972   6.749   1.390   3.881
 1025SOL     OW 3973   3.402   4.934   1.145
 1025SOL    HW1 3974   3.446   4.892   1.066
 1025SOL    HW2 3975   3.319   4.883   1.168
 1026SOL     OW 3976   2.172   1.832   0.118
 1026SOL    HW1 3977   2.121   1.768   0.061
 1026SOL    HW2 3978   2.154   1.815   0.214
 1027SOL     OW 3979   2.958   4.828   2.434
 1027SOL    HW1 3980   3.045   4.800   2.473
 1027SOL    HW2 3981   2.955   4.803   2.337
 1028SOL     OW 3982   1.439   6.067   0.645
 1028SOL    HW1 3983   1.486   5.998   0.591
 1028SOL    HW2 3984   1.380   6.122   0.586
 1029SOL     OW 3985   2.566   6.994   6.394
 1029SOL    HW1 3986   2.522   0.059   6.401
 1029SOL    HW2 3987   2.664   7.005   6.411
 1030SOL     OW 3988   4.069   3.645   5.101
 1030SOL    HW1 3989   4.015   3.729   5.099
 1030SOL    HW2 3990   4.142   3.654   5.168
 1031SOL     OW 3991   2.508   5.534   2.002
 1031SOL    HW1 3992   2.471   5.459   2.056
 1031SOL    HW2 3993   2.437   5.568   1.940
 1032SOL     OW 3994   1.318   1.329   4.477
 1032SOL    HW1 3995   1.348   1.397   4.410
 1032SOL    HW2 3996   1.226   1.296   4.453
 1033SOL     OW 3997   2.691   5.594   2.208
 1033SOL    HW1 3998   2.626   5.558   2.141
 1033SOL    HW2 3999   2.652   5.586   2.300
 1034SOL     OW 4000   1.672   4.914   3.898
 1034SOL    HW1 4001   1.599   4.940   3.961
 1034SOL    HW2 4002   1.755   4.892   3.949
 1035SOL     OW 4003   2.935   1.079   4.860
 1035SOL    HW1 4004   2.855   1.096   4.803
 1035SOL    HW2 4005   2.959   1.162   4.910
 1036SOL     OW 4006   4.495   3.022   0.842
 1036SOL    HW1 4007   4.517   2.933   0.801
 1036SOL    HW2 4008   4.412   3.058   0.801
 1037SOL     OW 4009   2.147   1.323   0.090
 1037SOL    HW1 4010   2.144   1.257   0.165
 1037SOL    HW2 4011   2.242   1.352   0.075
 1038SOL     OW 4012   2.002   1.220   5.240
 1038SOL    HW1 4013   1.945   1.262   5.170
 1038SOL    HW2 4014   2.050   1.291   5.291
 1039SOL     OW 4015   3.961   2.166   4.194
 1039SOL    HW1 4016   3.957   2.144   4.096
 1039SOL    HW2 4017   3.869   2.166   4.232
 1040SOL     OW 4018   6.354   4.605   2.830
 1040SOL    HW1 4019   6.450   4.629   2.844
 1040SOL    HW2 4020   6.324   4.542   2.901
 1041SOL     OW 4021   0.636   0.854   4.381
 1041SOL    HW1 4022   0.713   0.793   4.399
 1041SOL    HW2 4023   0.577   0.814   4.311
 1042SOL     OW 4024   5.528   4.973   0.669
 1042SOL    HW1 4025   5.568   5.040   0.732
 1042SOL    HW2 4026   5.588   4.892   0.665
 1043SOL     OW 4027   3.123   1.992   6.435
 1043SOL    HW1 4028   3.221   1.988   6.456
 1043SOL    HW2 4029   3.100   1.922   6.368
 1044SOL     OW 4030   4.167   3.603   1.860
 1044SOL    HW1 4031   4.153   3.505   1.878
 1044SOL    HW2 4032   4.139   3.656   1.940
 1045SOL     OW 4033   2.975   1.334   3.176
 1045SOL    HW1 4034   2.958   1.422   3.221
 1045SOL    HW2 4035   2.945   1.339   3.081
 1046SOL     OW 4036   3.859   0.297   1.364
 1046SOL    HW1 4037   3.903   0.211   1.390
 1046SOL    HW2 4038   3.801   0.329   1.438
 1047SOL     OW 4039   0.975   4.846   2.813
 1047SOL    HW1 4040   1.047   4.913   2.832
 1047SOL    HW2 4041   1.014   4.768   2.764
 1048SOL     OW 4042   4.925   4.475   5.529
 1048SOL    HW1 4043   4.883   4.475   5.439
 1048SOL    HW2 4044   4.858   4.503   5.598
 1049SOL     OW 4045   0.187   3.781   4.717
 1049SOL    HW1 4046   0.096   3.813   4.692
 1049SOL    HW2 4047   0.181   3.723   4.798
 1050SOL     OW 4048   3.708   0.726   0.099
 1050SOL    HW1 4049   3.707   0.724   0.199
 1050SOL    HW2 4050   3.798   0.697   0.065
 1051SOL     OW 4051   4.630   4.699   0.329
 1051SOL    HW1 4052   4.567   4.773   0.307
 1051SOL    HW2 4053   4.721   4.723   0.295
 1052SOL     OW 4054   3.577   0.523   4.963
 1052SOL    HW1 4055   3.487   0.555   4.933
 1052SOL    HW2 4056   3.641   0.527   4.886
 1053SOL     OW 4057   4.547   4.426   3.938
 1053SOL    HW1 4058   4.553   4.344   3.996
 1053SOL    HW2 4059   4.546   4.398   3.842
 1054SOL     OW 4060   3.636   5.586   4.660
 1054SOL    HW1 4061   3.585   5.535   4.729
 1054SOL    HW2 4062   3.734   5.569   4.672
 1055SOL     OW 4063   4.757   6.241   5.135
 1055SOL    HW1 4064   4.698   6.274   5.208
 1055SOL    HW2 4065   4.710   6.168   5.085
 1056SOL     OW 4066   1.701   6.515   5.159
 1056SOL    HW1 4067   1.642   6.464   5.222
 1056SOL    HW2 4068   1.774   6.560   5.211
 1057SOL     OW 4069   3.053   3.876   2.661
 1057SOL    HW1 4070   2.997   3.801   2.628
 1057SOL    HW2 4071   3.047   3.953   2.598
 1058SOL     OW 4072   3.341   1.299   1.679
 1058SOL    HW1 4073   3.415   1.361   1.652
 1058SOL    HW2 4074   3.348   1.214   1.626
 1059SOL     OW 4075   4.150   1.747   1.565
 1059SOL    HW1 4076   4.107   1.750   1.656
 1059SOL    HW2 4077   4.105   1.813   1.505
 1060SOL     OW 4078   1.455   1.906   5.890
 1060SOL    HW1 4079   1.393   1.975   5.853
 1060SOL    HW2 4080   1.526   1.951   5.944
 1061SOL     OW 4081   3.573   5.341   1.620
 1061SOL    HW1 4082   3.667   5.317   1.596
 1061SOL    HW2 4083   3.544   5.286   1.699
 1062SOL     OW 4084   6.085   5.691   5.205
 1062SOL    HW1 4085   6.143   5.624   5.251
 1062SOL    HW2 4086   6.035   5.744   5.273
 1063SOL     OW 4087   1.684   2.731   7.012
 1063SOL    HW1 4088   1.615   2.783   6.962
 1063SOL    HW2 4089   1.658   2.634   7.012
 1064SOL     OW 4090   6.876   2.742   1.893
 1064SOL    HW1 4091   6.858   2.810   1.965
 1064SOL    HW2 4092   6.802   2.675   1.891
 1065SOL     OW 4093   6.230   6.626   4.460
 1065SOL    HW1 4094   6.218   6.531   4.430
 1065SOL    HW2 4095   6.226   6.630   4.559
 1066SOL     OW 4096   4.704   0.756   3.359
 1066SOL    HW1 4097   4.633   0.785   3.295
 1066SOL    HW2 4098   4.703   0.656   3.366
 1067SOL     OW 4099   1.814   3.207   2.176
 1067SOL    HW1 4100   1.797   3.243   2.085
 1067SOL    HW2 4101   1.908   3.227   2.204
 1068SOL     OW 4102   0.522   3.787   2.336
 1068SOL    HW1 4103   0.441   3.837   2.365
 1068SOL    HW2 4104   0.583   3.773   2.414
 1069SOL     OW 4105   4.089   4.240   1.221
 1069SOL    HW1 4106   4.142   4.186   1.286
 1069SOL    HW2 4107   4.021   4.181   1.177
 1070SOL     OW 4108   2.201   0.718   0.393
 1070SOL    HW1 4109   2.128   0.660   0.358
 1070SOL    HW2 4110   2.162   0.796   0.441
 1071SOL     OW 4111   3.671   6.926   3.466
 1071SOL    HW1 4112   3.678   7.006   3.407
 1071SOL    HW2 4113   3.637   6.848   3.414
 1072SOL     OW 4114   3.795   6.317   2.998
 1072SOL    HW1 4115   3.728   6.265   3.051
 1072SOL    HW2 4116   3.861   6.254   2.957
 1073SOL     OW 4117   2.465   4.500   2.658
 1073SOL    HW1 4118   2.528   4.428   2.631
 1073SOL    HW2 4119   2.432   4.483   2.751
 1074SOL     OW 4120   1.057   5.255   1.599
 1074SOL    HW1 4121   1.132   5.250   1.665
 1074SOL    HW2 4122   1.094   5.271   1.508
 1075SOL     OW 4123   6.104   4.659   4.224
 1075SOL    HW1 4124   6.077   4.755   4.231
 1075SOL    HW2 4125   6.101   4.630   4.128
 1076SOL     OW 4126   0.589   4.386   3.670
 1076SOL    HW1 4127   0.558   4.480   3.688
 1076SOL    HW2 4128   0.570   4.362   3.575
 1077SOL     OW 4129   4.313   0.206   0.876
 1077SOL    HW1 4130   4.246   0.192   0.949
 1077SOL    HW2 4131   4.366   0.289   0.895
 1078SOL     OW 4132   1.108   2.116   1.442
 1078SOL    HW1 4133   1.054   2.131   1.525
 1078SOL    HW2 4134   1.073   2.036   1.393
 1079SOL     OW 4135   2.713   5.247   3.579
 1079SOL    HW1 4136   2.669   5.216   3.663
 1079SOL    HW2 4137   2.768   5.173   3.540
 1080SOL     OW 4138   1.922   5.424   4.653
 1080SOL    HW1 4139   1.880   5.409   4.564
 1080SOL    HW2 4140   1.878   5.365   4.721
 1081SOL     OW 4141   1.709   0.698   0.374
 1081SOL    HW1 4142   1.619   0.735   0.350
 1081SOL    HW2 4143   1.729   0.718   0.470
 1082SOL     OW 4144   1.739   6.818   6.118
 1082SOL    HW1 4145   1.695   6.729   6.107
 1082SOL    HW2 4146   1.784   6.843   6.032
 1083SOL     OW 4147   3.336   3.473   1.273
 1083SOL    HW1 4148   3.308   3.525   1.193
 1083SOL    HW2 4149   3.387   3.533   1.335
 1084SOL     OW 4150   6.170   4.105   0.990
 1084SOL    HW1 4151   6.096   4.042   1.013
 1084SOL    HW2 4152   6.188   4.165   1.069
 1085SOL     OW 4153   2.151   3.865   4.093
 1085SOL    HW1 4154   2.070   3.900   4.047
 1085SOL    HW2 4155   2.175   3.775   4.056
 1086SOL     OW 4156   4.389   4.554   2.042
 1086SOL    HW1 4157   4.420   4.460   2.057
 1086SOL    HW2 4158   4.325   4.580   2.114
 1087SOL     OW 4159   4.483   2.861   5.293
 1087SOL    HW1 4160   4.506   2.948   5.337
 1087SOL    HW2 4161   4.548   2.843   5.219
 1088SOL     OW 4162   4.979   4.261   4.045
 1088SOL    HW1 4163   4.979   4.163   4.023
 1088SOL    HW2 4164   5.050   4.280   4.113
 1089SOL     OW 4165   0.265   0.103   3.351
 1089SOL    HW1 4166   0.331   0.171   3.318
 1089SOL    HW2 4167   0.231   0.131   3.441
 1090SOL     OW 4168   1.639   1.297   6.502
 1090SOL    HW1 4169   1.702   1.319   6.577
 1090SOL    HW2 4170   1.692   1.276   6.420
 1091SOL     OW 4171   1.679   1.950   5.031
 1091SOL    HW1 4172   1.710   1.925   4.940
 1091SOL    HW2 4173   1.751   2.002   5.078
 1092SOL     OW 4174   2.234   4.262   1.387
 1092SOL    HW1 4175   2.310   4.196   1.388
 1092SOL    HW2 4176   2.203   4.278   1.481
 1093SOL     OW 4177   0.484   2.009   2.577
 1093SOL    HW1 4178   0.507   2.101   2.545
 1093SOL    HW2 4179   0.480   1.947   2.499
 1094SOL     OW 4180   0.362   6.370   1.238
 1094SOL    HW1 4181   0.296   6.445   1.245
 1094SOL    HW2 4182   0.345   6.319   1.154
 1095SOL     OW 4183   5.621   3.595   6.249
 1095SOL    HW1 4184   5.556   3.671   6.254
 1095SOL    HW2 4185   5.662   3.592   6.158
 1096SOL     OW 4186   3.442   4.436   1.683
 1096SOL    HW1 4187   3.377   4.485   1.625
 1096SOL    HW2 4188   3.498   4.502   1.734
 1097SOL     OW 4189   0.785   5.400   5.302
 1097SOL    HW1 4190   0.691   5.383   5.332
 1097SOL    HW2 4191   0.848   5.351   5.362
 1098SOL     OW 4192   4.464   2.090   2.408
 1098SOL    HW1 4193   4.512   2.096   2.495
 1098SOL    HW2 4194   4.519   2.136   2.337
 1099SOL     OW 4195   4.298   1.958   3.860
 1099SOL    HW1 4196   4.376   1.895   3.863
 1099SOL    HW2 4197   4.230   1.923   3.795
 1100SOL     OW 4198   0.712   0.996   6.744
 1100SOL    HW1 4199   0.805   1.016   6.775
 1100SOL    HW2 4200   0.689   1.055   6.667
 1101SOL     OW 4201   5.553   3.020   1.063
 1101SOL    HW1 4202   5.652   3.006   1.071
 1101SOL    HW2 4203   5.507   2.974   1.140
 1102SOL     OW 4204   0.763   4.527   3.367
 1102SOL    HW1 4205   0.700   4.604   3.377
 1102SOL    HW2 4206   0.711   4.442   3.357
 1103SOL     OW 4207   0.982   2.491   1.554
 1103SOL    HW1 4208   1.037   2.478   1.637
 1103SOL    HW2 4209   0.893   2.529   1.579
 1104SOL     OW 4210   3.429   5.112   6.105
 1104SOL    HW1 4211   3.482   5.170   6.043
 1104SOL    HW2 4212   3.486   5.036   6.136
 1105SOL     OW 4213   4.311   4.193   6.536
 1105SOL    HW1 4214   4.246   4.269   6.536
 1105SOL    HW2 4215   4.310   4.149   6.626
 1106SOL     OW 4216   0.120   2.578   6.061
 1106SOL    HW1 4217   0.172   2.555   6.143
 1106SOL    HW2 4218   0.150   2.520   5.985
 1107SOL     OW 4219   0.725   0.003   0.991
 1107SOL    HW1 4220   0.730   6.992   1.085
 1107SOL    HW2 4221   0.702   0.100   0.993
 1108SOL     OW 4222   1.071   1.239   5.398
 1108SOL    HW1 4223   0.976   1.266   5.413
 1108SOL    HW2 4224   1.078   1.139   5.395
 1109SOL     OW 4225   4.721   0.376   4.090
 1109SOL    HW1 4226   4.765   0.287   4.105
 1109SOL    HW2 4227   4.783   0.449   4.117
 1110SOL     OW 4228   2.864   3.399   2.125
 1110SOL    HW1 4229   2.774   3.356   2.116
 1110SOL    HW2 4230   2.858   3.477   2.187
 1111SOL     OW 4231   5.642   0.066   0.085
 1111SOL    HW1 4232   5.573   0.086   0.155
 1111SOL    HW2 4233   5.695   7.010   0.113
 1112SOL     OW 4234   6.636   0.966   2.324
 1112SOL    HW1 4235   6.718   0.967   2.267
 1112SOL    HW2 4236   6.565   0.912   2.279
 1113SOL     OW 4237   6.754   3.603   2.306
 1113SOL    HW1 4238   6.706   3.516   2.317
 1113SOL    HW2 4239   6.718   3.650   2.225
 1114SOL     OW 4240   4.707   1.737   5.112
 1114SOL    HW1 4241   4.775   1.746   5.039
 1114SOL    HW2 4242   4.754   1.733   5.201
 1115SOL     OW 4243   2.894   3.591   0.827
 1115SOL    HW1 4244   2.921   3.532   0.903
 1115SOL    HW2 4245   2.908   3.686   0.853
 1116SOL     OW 4246   4.145   0.301   4.093
 1116SOL    HW1 4247   4.208   0.297   4.170
 1116SOL    HW2 4248   4.059   0.344   4.123
 1117SOL     OW 4249   2.900   2.749   1.491
 1117SOL    HW1 4250   2.950   2.681   1.544
 1117SOL    HW2 4251   2.848   2.703   1.419
 1118SOL     OW 4252   2.133   3.617   3.935
 1118SOL    HW1 4253   2.036   3.612   3.956
 1118SOL    HW2 4254   2.145   3.619   3.835
 1119SOL     OW 4255   4.187   4.038   1.764
 1119SOL    HW1 4256   4.271   4.092   1.777
 1119SOL    HW2 4257   4.138   4.071   1.683
 1120SOL     OW 4258   3.984   0.534   5.362
 1120SOL    HW1 4259   4.066   0.519   5.308
 1120SOL    HW2 4260   3.913   0.574   5.303
 1121SOL     OW 4261   5.813   3.415   1.772
 1121SOL    HW1 4262   5.733   3.397   1.715
 1121SOL    HW2 4263   5.812   3.355   1.852
 1122SOL     OW 4264   4.851   3.528   6.592
 1122SOL    HW1 4265   4.875   3.622   6.620
 1122SOL    HW2 4266   4.934   3.473   6.589
 1123SOL     OW 4267   3.693   0.496   2.436
 1123SOL    HW1 4268   3.734   0.468   2.523
 1123SOL    HW2 4269   3.607   0.544   2.454
 1124SOL     OW 4270   0.706   4.208   4.819
 1124SOL    HW1 4271   0.792   4.170   4.784
 1124SOL    HW2 4272   0.727   4.283   4.882
 1125SOL     OW 4273   3.409   3.338   5.087
 1125SOL    HW1 4274   3.326   3.293   5.118
 1125SOL    HW2 4275   3.486   3.311   5.145
 1126SOL     OW 4276   5.396   6.203   1.774
 1126SOL    HW1 4277   5.322   6.136   1.765
 1126SOL    HW2 4278   5.468   6.182   1.707
 1127SOL     OW 4279   1.711   4.693   6.698
 1127SOL    HW1 4280   1.705   4.595   6.717
 1127SOL    HW2 4281   1.694   4.745   6.781
 1128SOL     OW 4282   2.770   1.681   4.474
 1128SOL    HW1 4283   2.731   1.601   4.429
 1128SOL    HW2 4284   2.847   1.716   4.420
 1129SOL     OW 4285   5.535   0.668   7.007
 1129SOL    HW1 4286   5.452   0.711   0.018
 1129SOL    HW2 4287   5.510   0.595   6.943
 1130SOL     OW 4288   0.637   4.640   6.754
 1130SOL    HW1 4289   0.711   4.590   6.799
 1130SOL    HW2 4290   0.607   4.590   6.673
 1131SOL     OW 4291   0.340   5.919   5.713
 1131SOL    HW1 4292   0.387   5.947   5.797
 1131SOL    HW2 4293   0.389   5.843   5.671
 1132SOL     OW 4294   5.415   6.940   5.523
 1132SOL    HW1 4295   5.356   6.864   5.549
 1132SOL    HW2 4296   5.490   6.948   5.589
 1133SOL     OW 4297   0.383   3.190   1.531
 1133SOL    HW1 4298   0.328   3.196   1.448
 1133SOL    HW2 4299   0.472   3.235   1.516
 1134SOL     OW 4300   5.327   2.468   6.456
 1134SOL    HW1 4301   5.362   2.398   6.394
 1134SOL    HW2 4302   5.378   2.553   6.444
 1135SOL     OW 4303   2.948   1.900   3.023
 1135SOL    HW1 4304   2.997   1.975   3.069
 1135SOL    HW2 4305   2.982   1.813   3.057
 1136SOL     OW 4306   3.670   5.288   3.731
 1136SOL    HW1 4307   3.644   5.347   3.807
 1136SOL    HW2 4308   3.764   5.307   3.705
 1137SOL     OW 4309   1.423   1.020   5.854
 1137SOL    HW1 4310   1.423   1.072   5.769
 1137SOL    HW2 4311   1.500   0.956   5.853
 1138SOL     OW 4312   0.629   3.461   5.817
 1138SOL    HW1 4313   0.683   3.540   5.788
 1138SOL    HW2 4314   0.574   3.485   5.896
 1139SOL     OW 4315   1.315   5.974   2.447
 1139SOL    HW1 4316   1.225   5.967   2.491
 1139SOL    HW2 4317   1.305   5.959   2.349
 1140SOL     OW 4318   3.628   1.783   4.076
 1140SOL    HW1 4319   3.600   1.865   4.125
 1140SOL    HW2 4320   3.649   1.807   3.981
 1141SOL     OW 4321   6.452   5.669   5.415
 1141SOL    HW1 4322   6.549   5.648   5.421
 1141SOL    HW2 4323   6.435   5.727   5.336
 1142SOL     OW 4324   6.158   0.471   4.107
 1142SOL    HW1 4325   6.097   0.527   4.163
 1142SOL    HW2 4326   6.225   0.426   4.165
 1143SOL     OW 4327   4.296   1.976   2.739
 1143SOL    HW1 4328   4.388   1.967   2.703
 1143SOL    HW2 4329   4.267   2.072   2.736
 1144SOL     OW 4330   0.239   5.714   4.192
 1144SOL    HW1 4331   0.175   5.647   4.231
 1144SOL    HW2 4332   0.214   5.806   4.223
 1145SOL     OW 4333   0.397   5.530   4.790
 1145SOL    HW1 4334   0.472   5.468   4.813
 1145SOL    HW2 4335   0.427   5.625   4.801
 1146SOL     OW 4336   5.641   2.025   0.960
 1146SOL    HW1 4337   5.691   1.983   0.884
 1146SOL    HW2 4338   5.544   2.031   0.936
 1147SOL     OW 4339   0.101   2.850   2.168
 1147SOL    HW1 4340   0.186   2.898   2.188
 1147SOL    HW2 4341   0.091   2.839   2.069
 1148SOL     OW 4342   3.462   6.880   0.547
 1148SOL    HW1 4343   3.450   6.940   0.626
 1148SOL    HW2 4344   3.380   6.825   0.533
 1149SOL     OW 4345   6.625   3.087   2.617
 1149SOL    HW1 4346   6.690   3.123   2.550
 1149SOL    HW2 4347   6.674   3.026   2.680
 1150SOL     OW 4348   1.665   4.722   0.123
 1150SOL    HW1 4349   1.602   4.796   0.143
 1150SOL    HW2 4350   1.623   4.634   0.148
 1151SOL     OW 4351   5.350   5.282   6.350
 1151SOL    HW1 4352   5.401   5.366   6.369
 1151SOL    HW2 4353   5.315   5.244   6.435
 1152SOL     OW 4354   1.215   0.102   4.746
 1152SOL    HW1 4355   1.258   0.162   4.813
 1152SOL    HW2 4356   1.226   0.141   4.654
 1153SOL     OW 4357   2.614   5.285   3.007
 1153SOL    HW1 4358   2.704   5.327   3.024
 1153SOL    HW2 4359   2.544   5.357   3.003
 1154SOL     OW 4360   0.721   3.968   1.697
 1154SOL    HW1 4361   0.629   4.007   1.704
 1154SOL    HW2 4362   0.789   4.042   1.695
 1155SOL     OW 4363   3.846   5.801   1.854
 1155SOL    HW1 4364   3.929   5.790   1.800
 1155SOL    HW2 4365   3.846   5.890   1.899
 1156SOL     OW 4366   2.313   0.282   4.372
 1156SOL    HW1 4367   2.299   0.308   4.468
 1156SOL    HW2 4368   2.262   0.198   4.353
 1157SOL     OW 4369   0.494   2.979   3.964
 1157SOL    HW1 4370   0.409   3.012   4.005
 1157SOL    HW2 4371   0.478   2.890   3.921
 1158SOL     OW 4372   4.850   5.162   5.684
 1158SOL    HW1 4373   4.898   5.167   5.597
 1158SOL    HW2 4374   4.782   5.235   5.689
 1159SOL     OW 4375   4.188   5.230   3.780
 1159SOL    HW1 4376   4.239   5.231   3.694
 1159SOL    HW2 4377   4.097   5.193   3.765
 1160SOL     OW 4378   3.390   3.733   1.142
 1160SOL    HW1 4379   3.457   3.703   1.074
 1160SOL    HW2 4380   3.435   3.791   1.210
 1161SOL     OW 4381   5.238   1.179   3.340
 1161SOL    HW1 4382   5.317   1.180   3.401
 1161SOL    HW2 4383   5.167   1.239   3.377
 1162SOL     OW 4384   3.489   4.105   2.120
 1162SOL    HW1 4385   3.495   4.151   2.031
 1162SOL    HW2 4386   3.482   4.173   2.193
 1163SOL     OW 4387   5.171   1.918   2.835
 1163SOL    HW1 4388   5.228   1.936   2.915
 1163SOL    HW2 4389   5.175   1.820   2.812
 1164SOL     OW 4390   5.972   3.309   3.501
 1164SOL    HW1 4391   5.931   3.370   3.570
 1164SOL    HW2 4392   5.908   3.236   3.478
 1165SOL     OW 4393   1.184   4.892   3.164
 1165SOL    HW1 4394   1.097   4.853   3.191
 1165SOL    HW2 4395   1.179   4.925   3.070
 1166SOL     OW 4396   4.397   2.769   6.282
 1166SOL    HW1 4397   4.392   2.718   6.369
 1166SOL    HW2 4398   4.306   2.769   6.239
 1167SOL     OW 4399   4.677   1.433   5.332
 1167SOL    HW1 4400   4.629   1.440   5.245
 1167SOL    HW2 4401   4.621   1.384   5.398
 1168SOL     OW 4402   6.067   6.679   2.986
 1168SOL    HW1 4403   6.142   6.735   2.950
 1168SOL    HW2 4404   6.097   6.633   3.070
 1169SOL     OW 4405   0.716   3.628   1.882
 1169SOL    HW1 4406   0.625   3.621   1.924
 1169SOL    HW2 4407   0.768   3.701   1.926
 1170SOL     OW 4408   3.342   0.875   1.050
 1170SOL    HW1 4409   3.425   0.929   1.067
 1170SOL    HW2 4410   3.265   0.917   1.096
 1171SOL     OW 4411   2.667   5.641   0.651
 1171SOL    HW1 4412   2.657   5.737   0.624
 1171SOL    HW2 4413   2.697   5.636   0.747
 1172SOL     OW 4414   3.085   3.700   5.051
 1172SOL    HW1 4415   2.991   3.729   5.069
 1172SOL    HW2 4416   3.106   3.619   5.106
 1173SOL     OW 4417   3.742   1.131   6.624
 1173SOL    HW1 4418   3.647   1.127   6.655
 1173SOL    HW2 4419   3.744   1.157   6.528
 1174SOL     OW 4420   2.663   5.970   0.891
 1174SOL    HW1 4421   2.652   5.945   0.795
 1174SOL    HW2 4422   2.754   6.009   0.905
 1175SOL     OW 4423   6.316   4.778   5.668
 1175SOL    HW1 4424   6.314   4.716   5.590
 1175SOL    HW2 4425   6.409   4.783   5.704
 1176SOL     OW 4426   5.437   4.480   0.994
 1176SOL    HW1 4427   5.529   4.491   0.958
 1176SOL    HW2 4428   5.371   4.520   0.930
 1177SOL     OW 4429   6.282   2.566   6.095
 1177SOL    HW1 4430   6.316   2.523   6.178
 1177SOL    HW2 4431   6.338   2.646   6.073
 1178SOL     OW 4432   6.237   3.544   1.992
 1178SOL    HW1 4433   6.224   3.498   2.080
 1178SOL    HW2 4434   6.273   3.636   2.008
 1179SOL     OW 4435   2.231   5.333   6.214
 1179SOL    HW1 4436   2.252   5.340   6.117
 1179SOL    HW2 4437   2.304   5.377   6.267
 1180SOL     OW 4438   2.693   1.490   4.009
 1180SOL    HW1 4439   2.613   1.459   4.059
 1180SOL    HW2 4440   2.699   1.442   3.921
 1181SOL     OW 4441   1.990   4.305   3.059
 1181SOL    HW1 4442   2.028   4.341   2.975
 1181SOL    HW2 4443   2.057   4.312   3.133
 1182SOL     OW 4444   2.059   4.016   3.469
 1182SOL    HW1 4445   1.970   4.045   3.436
 1182SOL    HW2 4446   2.055   3.997   3.567
 1183SOL     OW 4447   4.757   5.771   1.172
 1183SOL    HW1 4448   4.705   5.723   1.243
 1183SOL    HW2 4449   4.819   5.836   1.214
 1184SOL     OW 4450   3.139   2.858   5.730
 1184SOL    HW1 4451   3.191   2.837   5.648
 1184SOL    HW2 4452   3.190   2.923   5.786
 1185SOL     OW 4453   1.877   0.964   6.961
 1185SOL    HW1 4454   1.870   0.902   0.015
 1185SOL    HW2 4455   1.971   0.998   6.953
 1186SOL     OW 4456   4.861   1.423   4.949
 1186SOL    HW1 4457   4.790   1.425   4.878
 1186SOL    HW2 4458   4.899   1.331   4.956
 1187SOL     OW 4459   6.199   0.544   5.154
 1187SOL    HW1 4460   6.267   0.471   5.165
 1187SOL    HW2 4461   6.240   0.631   5.181
 1188SOL     OW 4462   1.632   0.176   5.614
 1188SOL    HW1 4463   1.628   0.082   5.581
 1188SOL    HW2 4464   1.579   0.235   5.554
 1189SOL     OW 4465   5.405   0.746   1.779
 1189SOL    HW1 4466   5.319   0.727   1.826
 1189SOL    HW2 4467   5.386   0.782   1.688
 1190SOL     OW 4468   4.437   5.080   3.069
 1190SOL    HW1 4469   4.447   5.169   3.024
 1190SOL    HW2 4470   4.344   5.045   3.053
 1191SOL     OW 4471   3.021   5.518   6.425
 1191SOL    HW1 4472   2.960   5.508   6.503
 1191SOL    HW2 4473   2.989   5.592   6.366
 1192SOL     OW 4474   5.252   5.165   2.664
 1192SOL    HW1 4475   5.325   5.203   2.607
 1192SOL    HW2 4476   5.291   5.125   2.747
 1193SOL     OW 4477   4.930   0.607   4.125
 1193SOL    HW1 4478   4.956   0.633   4.218
 1193SOL    HW2 4479   4.978   0.522   4.100
 1194SOL     OW 4480   6.026   0.115   0.971
 1194SOL    HW1 4481   6.007   0.210   0.949
 1194SOL    HW2 4482   6.013   0.058   0.890
 1195SOL     OW 4483   5.013   0.542   6.594
 1195SOL    HW1 4484   4.967   0.574   6.511
 1195SOL    HW2 4485   5.109   0.525   6.574
 1196SOL     OW 4486   0.630   5.345   2.357
 1196SOL    HW1 4487   0.711   5.288   2.342
 1196SOL    HW2 4488   0.623   5.413   2.284
 1197SOL     OW 4489   3.818   5.355   6.006
 1197SOL    HW1 4490   3.723   5.380   5.988
 1197SOL    HW2 4491   3.822   5.288   6.080
 1198SOL     OW 4492   2.834   1.949   2.456
 1198SOL    HW1 4493   2.838   1.857   2.496
 1198SOL    HW2 4494   2.782   2.009   2.517
 1199SOL     OW 4495   4.056   3.472   2.508
 1199SOL    HW1 4496   4.059   3.380   2.547
 1199SOL    HW2 4497   4.099   3.471   2.418
 1200SOL     OW 4498   3.999   3.721   6.908
 1200SOL    HW1 4499   4.047   3.786   6.967
 1200SOL    HW2 4500   3.968   3.643   6.962
 1201SOL     OW 4501   1.055   1.078   5.118
 1201SOL    HW1 4502   0.969   1.129   5.130
 1201SOL    HW2 4503   1.079   1.075   5.021
 1202SOL     OW 4504   5.986   0.082   4.649
 1202SOL    HW1 4505   5.925   0.159   4.634
 1202SOL    HW2 4506   5.952   0.002   4.600
 1203SOL     OW 4507   5.752   0.075   1.469
 1203SOL    HW1 4508   5.850   0.062   1.482
 1203SOL    HW2 4509   5.719   0.015   1.396
 1204SOL     OW 4510   3.045   0.792   0.816
 1204SOL    HW1 4511   3.140   0.816   0.796
 1204SOL    HW2 4512   3.010   0.732   0.743
 1205SOL     OW 4513   6.746   2.835   5.205
 1205SOL    HW1 4514   6.840   2.868   5.206
 1205SOL    HW2 4515   6.733   2.774   5.127
 1206SOL     OW 4516   2.187   2.077   4.748
 1206SOL    HW1 4517   2.224   2.169   4.734
 1206SOL    HW2 4518   2.246   2.026   4.811
 1207SOL     OW 4519   5.849   6.938   6.469
 1207SOL    HW1 4520   5.805   6.944   6.379
 1207SOL    HW2 4521   5.810   6.863   6.521
 1208SOL     OW 4522   3.956   3.977   3.413
 1208SOL    HW1 4523   4.013   3.919   3.471
 1208SOL    HW2 4524   3.880   4.014   3.467
 1209SOL     OW 4525   5.778   5.109   4.338
 1209SOL    HW1 4526   5.760   5.043   4.410
 1209SOL    HW2 4527   5.701   5.172   4.330
 1210SOL     OW 4528   3.758   6.926   2.420
 1210SOL    HW1 4529   3.706   6.849   2.456
 1210SOL    HW2 4530   3.747   7.005   2.481
 1211SOL     OW 4531   0.193   4.362   4.706
 1211SOL    HW1 4532   0.210   4.390   4.800
 1211SOL    HW2 4533   0.170   4.443   4.651
 1212SOL     OW 4534   1.632   3.921   4.869
 1212SOL    HW1 4535   1.725   3.956   4.858
 1212SOL    HW2 4536   1.621   3.837   4.816
 1213SOL     OW 4537   5.907   1.995   5.367
 1213SOL    HW1 4538   5.954   1.933   5.304
 1213SOL    HW2 4539   5.835   1.945   5.415
 1214SOL     OW 4540   2.179   3.117   3.477
 1214SOL    HW1 4541   2.177   3.102   3.576
 1214SOL    HW2 4542   2.273   3.109   3.444
 1215SOL     OW 4543   1.286   4.712   1.820
 1215SOL    HW1 4544   1.378   4.685   1.849
 1215SOL    HW2 4545   1.243   4.768   1.891
 1216SOL     OW 4546   2.357   0.334   1.997
 1216SOL    HW1 4547   2.421   0.340   2.074
 1216SOL    HW2 4548   2.264   0.324   2.032
 1217SOL     OW 4549   1.299   6.699   2.075
 1217SOL    HW1 4550   1.342   6.789   2.086
 1217SOL    HW2 4551   1.370   6.629   2.068
 1218SOL     OW 4552   0.544   3.717   3.560
 1218SOL    HW1 4553   0.516   3.717   3.464
 1218SOL    HW2 4554   0.644   3.714   3.566
 1219SOL     OW 4555   3.719   6.120   2.298
 1219SOL    HW1 4556   3.817   6.133   2.287
 1219SOL    HW2 4557   3.691   6.151   2.389
 1220SOL     OW 4558   6.229   3.856   3.509
 1220SOL    HW1 4559   6.152   3.799   3.478
 1220SOL    HW2 4560   6.203   3.952   3.507
 1221SOL     OW 4561   4.723   3.854   0.109
 1221SOL    HW1 4562   4.796   3.906   0.065
 1221SOL    HW2 4563   4.661   3.917   0.157
 1222SOL     OW 4564   6.990   6.450   1.573
 1222SOL    HW1 4565   0.041   6.386   1.588
 1222SOL    HW2 4566   6.976   6.463   1.475
 1223SOL     OW 4567   6.193   6.844   6.073
 1223SOL    HW1 4568   6.146   6.886   5.995
 1223SOL    HW2 4569   6.142   6.864   6.157
 1224SOL     OW 4570   4.776   4.937   2.150
 1224SOL    HW1 4571   4.688   4.971   2.184
 1224SOL    HW2 4572   4.761   4.883   2.067
 1225SOL     OW 4573   4.896   2.224   0.237
 1225SOL    HW1 4574   4.984   2.269   0.219
 1225SOL    HW2 4575   4.911   2.127   0.252
 1226SOL     OW 4576   5.892   5.602   1.178
 1226SOL    HW1 4577   5.906   5.517   1.229
 1226SOL    HW2 4578   5.824   5.587   1.106
 1227SOL     OW 4579   5.338   3.970   5.923
 1227SOL    HW1 4580   5.301   3.888   5.967
 1227SOL    HW2 4581   5.421   3.946   5.872
 1228SOL     OW 4582   3.670   2.978   3.006
 1228SOL    HW1 4583   3.606   2.932   2.944
 1228SOL    HW2 4584   3.757   2.992   2.959
 1229SOL     OW 4585   2.114   5.478   2.782
 1229SOL    HW1 4586   2.193   5.500   2.724
 1229SOL    HW2 4587   2.132   5.394   2.833
 1230SOL     OW 4588   5.407   5.147   1.219
 1230SOL    HW1 4589   5.487   5.152   1.279
 1230SOL    HW2 4590   5.378   5.240   1.195
 1231SOL     OW 4591   1.427   2.260   6.423
 1231SOL    HW1 4592   1.497   2.324   6.454
 1231SOL    HW2 4593   1.442   2.239   6.326
 1232SOL     OW 4594   3.319   0.505   5.509
 1232SOL    HW1 4595   3.416   0.518   5.532
 1232SOL    HW2 4596   3.277   0.595   5.495
 1233SOL     OW 4597   0.094   6.071   5.323
 1233SOL    HW1 4598   0.156   6.086   5.399
 1233SOL    HW2 4599   0.121   5.989   5.272
 1234SOL     OW 4600   6.817   3.255   0.248
 1234SOL    HW1 4601   6.739   3.315   0.266
 1234SOL    HW2 4602   6.832   3.247   0.150
 1235SOL     OW 4603   6.450   5.185   0.536
 1235SOL    HW1 4604   6.354   5.195   0.561
 1235SOL    HW2 4605   6.459   5.189   0.436
 1236SOL     OW 4606   1.348   1.597   2.208
 1236SOL    HW1 4607   1.269   1.645   2.247
 1236SOL    HW2 4608   1.331   1.577   2.111
 1237SOL     OW 4609   0.593   0.259   4.279
 1237SOL    HW1 4610   0.673   0.201   4.295
 1237SOL    HW2 4611   0.521   0.237   4.344
 1238SOL     OW 4612   6.752   0.511   4.435
 1238SOL    HW1 4613   6.777   0.606   4.415
 1238SOL    HW2 4614   6.835   0.459   4.456
 1239SOL     OW 4615   6.553   4.744   4.689
 1239SOL    HW1 4616   6.504   4.682   4.749
 1239SOL    HW2 4617   6.520   4.733   4.595
 1240SOL     OW 4618   6.203   4.388   3.317
 1240SOL    HW1 4619   6.262   4.438   3.381
 1240SOL    HW2 4620   6.108   4.415   3.331
 1241SOL     OW 4621   4.935   4.818   5.029
 1241SOL    HW1 4622   5.026   4.803   5.068
 1241SOL    HW2 4623   4.915   4.745   4.963
 1242SOL     OW 4624   1.078   4.664   6.896
 1242SOL    HW1 4625   1.115   4.694   6.984
 1242SOL    HW2 4626   1.116   4.720   6.823
 1243SOL     OW 4627   0.967   4.693   4.641
 1243SOL    HW1 4628   1.021   4.640   4.576
 1243SOL    HW2 4629   0.998   4.788   4.640
 1244SOL     OW 4630   5.033   0.634   4.885
 1244SOL    HW1 4631   4.997   0.692   4.958
 1244SOL    HW2 4632   5.101   0.571   4.922
 1245SOL     OW 4633   4.780   6.748   1.318
 1245SOL    HW1 4634   4.743   6.840   1.300
 1245SOL    HW2 4635   4.812   6.708   1.232
 1246SOL     OW 4636   4.826   1.662   0.295
 1246SOL    HW1 4637   4.754   1.627   0.354
 1246SOL    HW2 4638   4.814   1.761   0.283
 1247SOL     OW 4639   6.961   0.014   3.701
 1247SOL    HW1 4640   7.010   6.972   3.756
 1247SOL    HW2 4641   7.012   0.100   3.699
 1248SOL     OW 4642   1.168   0.070   4.427
 1248SOL    HW1 4643   1.211   7.010   4.462
 1248SOL    HW2 4644   1.189   0.079   4.330
 1249SOL     OW 4645   5.735   4.630   6.931
 1249SOL    HW1 4646   5.762   4.534   6.924
 1249SOL    HW2 4647   5.643   4.637   6.970
 1250SOL     OW 4648   6.654   3.159   5.089
 1250SOL    HW1 4649   6.665   3.217   5.170
 1250SOL    HW2 4650   6.735   3.170   5.030
 1251SOL     OW 4651   3.053   0.412   3.053
 1251SOL    HW1 4652   3.083   0.493   3.104
 1251SOL    HW2 4653   3.116   0.397   2.976
 1252SOL     OW 4654   1.447   5.403   6.806
 1252SOL    HW1 4655   1.416   5.498   6.804
 1252SOL    HW2 4656   1.370   5.344   6.830
 1253SOL     OW 4657   3.272   1.133   0.792
 1253SOL    HW1 4658   3.365   1.164   0.771
 1253SOL    HW2 4659   3.262   1.038   0.761
 1254SOL     OW 4660   6.661   1.153   1.561
 1254SOL    HW1 4661   6.715   1.230   1.528
 1254SOL    HW2 4662   6.575   1.148   1.510
 1255SOL     OW 4663   5.571   1.625   5.622
 1255SOL    HW1 4664   5.580   1.638   5.523
 1255SOL    HW2 4665   5.488   1.572   5.641
 1256SOL     OW 4666   0.828   5.828   4.330
 1256SOL    HW1 4667   0.788   5.858   4.416
 1256SOL    HW2 4668   0.782   5.872   4.253
 1257SOL     OW 4669   0.315   5.556   3.958
 1257SOL    HW1 4670   0.261   5.624   3.909
 1257SOL    HW2 4671   0.333   5.589   4.051
 1258SOL     OW 4672   4.281   6.673   4.667
 1258SOL    HW1 4673   4.347   6.701   4.736
 1258SOL    HW2 4674   4.317   6.695   4.576
 1259SOL     OW 4675   5.914   0.481   3.744
 1259SOL    HW1 4676   5.880   0.469   3.837
 1259SOL    HW2 4677   5.893   0.400   3.690
 1260SOL     OW 4678   1.912   0.963   2.085
 1260SOL    HW1 4679   1.815   0.940   2.095
 1260SOL    HW2 4680   1.955   0.897   2.023
 1261SOL     OW 4681   6.455   4.352   6.180
 1261SOL    HW1 4682   6.553   4.371   6.183
 1261SOL    HW2 4683   6.424   4.351   6.085
 1262SOL     OW 4684   4.796   4.954   0.503
 1262SOL    HW1 4685   4.850   4.919   0.579
 1262SOL    HW2 4686   4.713   4.997   0.537
 1263SOL     OW 4687   0.150   2.223   1.460
 1263SOL    HW1 4688   0.138   2.271   1.373
 1263SOL    HW2 4689   0.175   2.128   1.442
 1264SOL     OW 4690   0.121   3.315   3.669
 1264SOL    HW1 4691   0.215   3.309   3.702
 1264SOL    HW2 4692   0.079   3.224   3.672
 1265SOL     OW 4693   6.506   4.452   5.305
 1265SOL    HW1 4694   6.535   4.447   5.400
 1265SOL    HW2 4695   6.585   4.465   5.246
 1266SOL     OW 4696   2.783   1.639   4.751
 1266SOL    HW1 4697   2.707   1.693   4.786
 1266SOL    HW2 4698   2.802   1.665   4.656
 1267SOL     OW 4699   6.901   4.977   3.051
 1267SOL    HW1 4700   6.806   4.953   3.070
 1267SOL    HW2 4701   6.908   5.076   3.038
 1268SOL     OW 4702   5.853   2.585   0.622
 1268SOL    HW1 4703   5.823   2.542   0.536
 1268SOL    HW2 4704   5.795   2.664   0.642
 1269SOL     OW 4705   6.857   5.317   5.347
 1269SOL    HW1 4706   6.876   5.327   5.444
 1269SOL    HW2 4707   6.942   5.294   5.299
 1270SOL     OW 4708   1.745   3.140   4.962
 1270SOL    HW1 4709   1.789   3.154   5.051
 1270SOL    HW2 4710   1.646   3.145   4.972
 1271SOL     OW 4711   3.664   1.375   2.770
 1271SOL    HW1 4712   3.676   1.462   2.817
 1271SOL    HW2 4713   3.718   1.376   2.686
 1272SOL     OW 4714   0.475   5.582   1.303
 1272SOL    HW1 4715   0.474   5.491   1.344
 1272SOL    HW2 4716   0.436   5.577   1.211
 1273SOL     OW 4717   2.827   5.791   6.652
 1273SOL    HW1 4718   2.750   5.773   6.591
 1273SOL    HW2 4719   2.864   5.882   6.634
 1274SOL     OW 4720   6.898   2.293   1.908
 1274SOL    HW1 4721   6.887   2.197   1.932
 1274SOL    HW2 4722   6.921   2.301   1.811
 1275SOL     OW 4723   3.641   1.768   4.560
 1275SOL    HW1 4724   3.561   1.828   4.549
 1275SOL    HW2 4725   3.703   1.808   4.627
 1276SOL     OW 4726   6.797   0.251   2.887
 1276SOL    HW1 4727   6.745   0.316   2.831
 1276SOL    HW2 4728   6.734   0.205   2.950
 1277SOL     OW 4729   0.223   0.301   4.661
 1277SOL    HW1 4730   0.153   0.257   4.604
 1277SOL    HW2 4731   0.295   0.235   4.680
 1278SOL     OW 4732   2.204   1.819   5.931
 1278SOL    HW1 4733   2.280   1.769   5.890
 1278SOL    HW2 4734   2.231   1.915   5.943
 1279SOL     OW 4735   2.656   5.609   7.013
 1279SOL    HW1 4736   2.569   5.602   0.037
 1279SOL    HW2 4737   2.729   5.628   0.055
 1280SOL     OW 4738   2.895   6.824   3.794
 1280SOL    HW1 4739   2.995   6.823   3.788
 1280SOL    HW2 4740   2.859   6.732   3.777
 1281SOL     OW 4741   1.095   6.100   3.156
 1281SOL    HW1 4742   1.032   6.178   3.160
 1281SOL    HW2 4743   1.136   6.096   3.065
 1282SOL     OW 4744   0.882   1.318   1.345
 1282SOL    HW1 4745   0.816   1.392   1.349
 1282SOL    HW2 4746   0.835   1.230   1.351
 1283SOL     OW 4747   5.627   4.915   5.217
 1283SOL    HW1 4748   5.679   4.833   5.192
 1283SOL    HW2 4749   5.603   4.966   5.134
 1284SOL     OW 4750   2.659   2.460   1.787
 1284SOL    HW1 4751   2.577   2.509   1.817
 1284SOL    HW2 4752   2.728   2.465   1.859
 1285SOL     OW 4753   4.635   2.788   5.022
 1285SOL    HW1 4754   4.692   2.754   5.097
 1285SOL    HW2 4755   4.687   2.856   4.969
 1286SOL     OW 4756   5.614   4.363   1.562
 1286SOL    HW1 4757   5.641   4.369   1.465
 1286SOL    HW2 4758   5.516   4.342   1.568
 1287SOL     OW 4759   7.010   6.213   6.325
 1287SOL    HW1 4760   0.075   6.232   6.366
 1287SOL    HW2 4761   7.022   6.151   6.247
 1288SOL     OW 4762   0.058   3.198   1.028
 1288SOL    HW1 4763   0.051   3.280   1.083
 1288SOL    HW2 4764   0.132   3.209   0.961
 1289SOL     OW 4765   0.362   5.986   2.843
 1289SOL    HW1 4766   0.323   5.922   2.776
 1289SOL    HW2 4767   0.436   6.038   2.800
 1290SOL     OW 4768   0.823   6.373   0.460
 1290SOL    HW1 4769   0.863   6.412   0.378
 1290SOL    HW2 4770   0.885   6.306   0.499
 1291SOL     OW 4771   1.832   5.921   6.985
 1291SOL    HW1 4772   1.764   5.994   6.994
 1291SOL    HW2 4773   1.902   5.949   6.919
 1292SOL     OW 4774   0.991   5.243   0.681
 1292SOL    HW1 4775   0.936   5.239   0.598
 1292SOL    HW2 4776   0.997   5.338   0.712
 1293SOL     OW 4777   0.539   2.333   6.590
 1293SOL    HW1 4778   0.558   2.431   6.601
 1293SOL    HW2 4779   0.570   2.304   6.499
 1294SOL     OW 4780   0.153   2.373   2.148
 1294SOL    HW1 4781   0.057   2.371   2.176
 1294SOL    HW2 4782   0.197   2.453   2.188
 1295SOL     OW 4783   5.815   2.649   1.778
 1295SOL    HW1 4784   5.861   2.568   1.813
 1295SOL    HW2 4785   5.718   2.630   1.765
 1296SOL     OW 4786   3.404   1.983   6.466
 1296SOL    HW1 4787   3.391   1.993   6.564
 1296SOL    HW2 4788   3.444   1.894   6.446
 1297SOL     OW 4789   6.621   1.407   5.227
 1297SOL    HW1 4790   6.627   1.469   5.149
 1297SOL    HW2 4791   6.698   1.424   5.289
 1298SOL     OW 4792   6.233   2.752   3.168
 1298SOL    HW1 4793   6.303   2.732   3.237
 1298SOL    HW2 4794   6.272   2.739   3.077
 1299SOL     OW 4795   1.273   3.791   4.125
 1299SOL    HW1 4796   1.335   3.735   4.069
 1299SOL    HW2 4797   1.276   3.759   4.219
 1300SOL     OW 4798   3.719   2.897   2.100
 1300SOL    HW1 4799   3.707   2.837   2.021
 1300SOL    HW2 4800   3.650   2.968   2.100
 1301SOL     OW 4801   1.078   6.811   4.156
 1301SOL    HW1 4802   1.016   6.774   4.087
 1301SOL    HW2 4803   1.161   6.847   4.112
 1302SOL     OW 4804   2.889   6.396   4.664
 1302SOL    HW1 4805   2.958   6.355   4.723
 1302SOL    HW2 4806   2.803   6.345   4.673
 1303SOL     OW 4807   3.387   1.843   1.002
 1303SOL    HW1 4808   3.420   1.793   0.922
 1303SOL    HW2 4809   3.453   1.834   1.076
 1304SOL     OW 4810   2.384   0.197   6.484
 1304SOL    HW1 4811   2.351   0.254   6.409
 1304SOL    HW2 4812   2.454   0.247   6.535
 1305SOL     OW 4813   4.585   0.497   4.872
 1305SOL    HW1 4814   4.619   0.434   4.941
 1305SOL    HW2 4815   4.499   0.538   4.903
 1306SOL     OW 4816   0.623   4.570   4.278
 1306SOL    HW1 4817   0.584   4.565   4.186
 1306SOL    HW2 4818   0.599   4.488   4.329
 1307SOL     OW 4819   1.291   2.057   4.155
 1307SOL    HW1 4820   1.199   2.095   4.142
 1307SOL    HW2 4821   1.313   2.057   4.253
 1308SOL     OW 4822   4.947   6.233   3.788
 1308SOL    HW1 4823   4.898   6.307   3.833
 1308SOL    HW2 4824   5.006   6.187   3.855
 1309SOL     OW 4825   6.480   2.388   4.437
 1309SOL    HW1 4826   6.394   2.339   4.426
 1309SOL    HW2 4827   6.462   2.485   4.452
 1310SOL     OW 4828   5.689   3.713   4.447
 1310SOL    HW1 4829   5.755   3.761   4.505
 1310SOL    HW2 4830   5.733   3.687   4.361
 1311SOL     OW 4831   5.859   6.342   5.083
 1311SOL    HW1 4832   5.773   6.360   5.130
 1311SOL    HW2 4833   5.841   6.294   4.997
 1312SOL     OW 4834   0.732   0.372   0.611
 1312SOL    HW1 4835   0.710   0.275   0.603
 1312SOL    HW2 4836   0.648   0.426   0.611
 1313SOL     OW 4837   3.255   5.184   4.575
 1313SOL    HW1 4838   3.289   5.270   4.615
 1313SOL    HW2 4839   3.155   5.183   4.580
 1314SOL     OW 4840   0.887   1.456   5.592
 1314SOL    HW1 4841   0.805   1.414   5.552
 1314SOL    HW2 4842   0.912   1.408   5.676
 1315SOL     OW 4843   2.386   1.599   2.283
 1315SOL    HW1 4844   2.350   1.543   2.208
 1315SOL    HW2 4845   2.310   1.644   2.329
 1316SOL     OW 4846   2.662   6.896   3.913
 1316SOL    HW1 4847   2.642   6.985   3.873
 1316SOL    HW2 4848   2.751   6.865   3.882
 1317SOL     OW 4849   6.742   5.047   4.246
 1317SOL    HW1 4850   6.685   5.126   4.269
 1317SOL    HW2 4851   6.810   5.075   4.179
 1318SOL     OW 4852   0.391   6.940   0.734
 1318SOL    HW1 4853   0.443   6.948   0.649
 1318SOL    HW2 4854   0.295   6.923   0.712
 1319SOL     OW 4855   6.216   1.345   0.107
 1319SOL    HW1 4856   6.301   1.292   0.106
 1319SOL    HW2 4857   6.148   1.300   0.049
 1320SOL     OW 4858   5.646   5.144   5.722
 1320SOL    HW1 4859   5.718   5.206   5.754
 1320SOL    HW2 4860   5.688   5.060   5.687
 1321SOL     OW 4861   3.496   2.745   0.200
 1321SOL    HW1 4862   3.535   2.731   0.110
 1321SOL    HW2 4863   3.558   2.708   0.270
 1322SOL     OW 4864   6.392   1.731   4.050
 1322SOL    HW1 4865   6.349   1.693   4.133
 1322SOL    HW2 4866   6.488   1.753   4.069
 1323SOL     OW 4867   0.053   1.712   5.041
 1323SOL    HW1 4868   7.021   1.631   5.026
 1323SOL    HW2 4869   0.009   1.792   4.999
 1324SOL     OW 4870   1.602   3.643   1.716
 1324SOL    HW1 4871   1.585   3.723   1.658
 1324SOL    HW2 4872   1.533   3.638   1.788
 1325SOL     OW 4873   2.994   6.238   3.406
 1325SOL    HW1 4874   2.926   6.285   3.349
 1325SOL    HW2 4875   2.989   6.140   3.390
 1326SOL     OW 4876   5.177   2.975   4.516
 1326SOL    HW1 4877   5.235   2.905   4.558
 1326SOL    HW2 4878   5.165   2.955   4.419
 1327SOL     OW 4879   4.143   4.978   2.953
 1327SOL    HW1 4880   4.095   4.905   3.003
 1327SOL    HW2 4881   4.078   5.050   2.930
 1328SOL     OW 4882   1.655   2.019   6.875
 1328SOL    HW1 4883   1.557   2.023   6.895
 1328SOL    HW2 4884   1.670   2.025   6.777
 1329SOL     OW 4885   1.087   1.320   0.594
 1329SOL    HW1 4886   1.117   1.396   0.652
 1329SOL    HW2 4887   1.098   1.234   0.643
 1330SOL     OW 4888   0.174   0.022   1.118
 1330SOL    HW1 4889   0.258   0.014   1.065
 1330SOL    HW2 4890   0.102   0.059   1.059
 1331SOL     OW 4891   5.506   0.284   1.852
 1331SOL    HW1 4892   5.584   0.231   1.885
 1331SOL    HW2 4893   5.507   0.286   1.752
 1332SOL     OW 4894   4.124   1.196   1.299
 1332SOL    HW1 4895   4.147   1.098   1.303
 1332SOL    HW2 4896   4.208   1.249   1.287
 1333SOL     OW 4897   3.893   3.866   5.060
 1333SOL    HW1 4898   3.899   3.958   5.021
 1333SOL    HW2 4899   3.813   3.860   5.119
 1334SOL     OW 4900   0.548   4.032   4.671
 1334SOL    HW1 4901   0.591   4.119   4.696
 1334SOL    HW2 4902   0.559   3.967   4.746
 1335SOL     OW 4903   2.402   5.092   3.036
 1335SOL    HW1 4904   2.489   5.140   3.032
 1335SOL    HW2 4905   2.354   5.115   3.121
 1336SOL     OW 4906   0.864   0.486   5.253
 1336SOL    HW1 4907   0.844   0.412   5.317
 1336SOL    HW2 4908   0.854   0.574   5.299
 1337SOL     OW 4909   1.902   2.260   6.429
 1337SOL    HW1 4910   1.917   2.233   6.334
 1337SOL    HW2 4911   1.911   2.359   6.437
 1338SOL     OW 4912   4.482   5.611   6.625
 1338SOL    HW1 4913   4.488   5.624   6.526
 1338SOL    HW2 4914   4.570   5.632   6.667
 1339SOL     OW 4915   6.880   4.220   5.523
 1339SOL    HW1 4916   6.801   4.205   5.582
 1339SOL    HW2 4917   6.850   4.227   5.428
 1340SOL     OW 4918   1.228   2.197   0.476
 1340SOL    HW1 4919   1.305   2.132   0.476
 1340SOL    HW2 4920   1.151   2.157   0.526
 1341SOL     OW 4921   3.454   1.504   3.718
 1341SOL    HW1 4922   3.510   1.585   3.700
 1341SOL    HW2 4923   3.454   1.446   3.637
 1342SOL     OW 4924   0.539   6.237   0.720
 1342SOL    HW1 4925   0.553   6.289   0.636
 1342SOL    HW2 4926   0.628   6.212   0.759
 1343SOL     OW 4927   3.734   6.098   3.697
 1343SOL    HW1 4928   3.798   6.052   3.760
 1343SOL    HW2 4929   3.676   6.031   3.653
 1344SOL     OW 4930   6.396   1.113   2.406
 1344SOL    HW1 4931   6.355   1.023   2.423
 1344SOL    HW2 4932   6.495   1.108   2.419
 1345SOL     OW 4933   0.428   0.482   2.268
 1345SOL    HW1 4934   0.359   0.413   2.291
 1345SOL    HW2 4935   0.460   0.467   2.174
 1346SOL     OW 4936   0.090   0.244   3.676
 1346SOL    HW1 4937   0.033   0.295   3.741
 1346SOL    HW2 4938   0.168   0.300   3.648
 1347SOL     OW 4939   6.368   6.572   3.648
 1347SOL    HW1 4940   6.437   6.627   3.600
 1347SOL    HW2 4941   6.303   6.535   3.582
 1348SOL     OW 4942   5.959   4.027   4.315
 1348SOL    HW1 4943   5.963   4.086   4.234
 1348SOL    HW2 4944   5.883   3.963   4.306
 1349SOL     OW 4945   3.404   2.974   6.883
 1349SOL    HW1 4946   3.435   2.946   6.974
 1349SOL    HW2 4947   3.360   3.064   6.889
 1350SOL     OW 4948   3.086   0.245   6.552
 1350SOL    HW1 4949   3.160   0.278   6.611
 1350SOL    HW2 4950   3.124   0.185   6.482
 1351SOL     OW 4951   0.191   1.356   3.219
 1351SOL    HW1 4952   0.160   1.314   3.304
 1351SOL    HW2 4953   0.123   1.422   3.187
 1352SOL     OW 4954   0.182   0.958   3.113
 1352SOL    HW1 4955   0.193   1.007   3.200
 1352SOL    HW2 4956   0.210   0.863   3.125
 1353SOL     OW 4957   0.689   4.151   4.311
 1353SOL    HW1 4958   0.630   4.225   4.343
 1353SOL    HW2 4959   0.652   4.063   4.340
 1354SOL     OW 4960   0.387   6.681   2.467
 1354SOL    HW1 4961   0.303   6.726   2.437
 1354SOL    HW2 4962   0.467   6.731   2.434
 1355SOL     OW 4963   4.949   3.119   6.728
 1355SOL    HW1 4964   4.958   3.045   6.662
 1355SOL    HW2 4965   4.964   3.207   6.682
 1356SOL     OW 4966   3.546   3.386   2.615
 1356SOL    HW1 4967   3.606   3.322   2.662
 1356SOL    HW2 4968   3.463   3.400   2.669
 1357SOL     OW 4969   2.583   2.997   5.857
 1357SOL    HW1 4970   2.525   2.922   5.891
 1357SOL    HW2 4971   2.680   2.970   5.865
 1358SOL     OW 4972   2.092   2.671   6.570
 1358SOL    HW1 4973   2.187   2.688   6.597
 1358SOL    HW2 4974   2.031   2.692   6.647
 1359SOL     OW 4975   6.563   2.453   0.092
 1359SOL    HW1 4976   6.640   2.516   0.087
 1359SOL    HW2 4977   6.577   2.377   0.029
 1360SOL     OW 4978   3.833   3.795   3.820
 1360SOL    HW1 4979   3.742   3.796   3.779
 1360SOL    HW2 4980   3.851   3.883   3.864
 1361SOL     OW 4981   1.028   5.919   0.148
 1361SOL    HW1 4982   0.961   5.852   0.181
 1361SOL    HW2 4983   0.982   5.987   0.091
 1362SOL     OW 4984   3.071   3.483   5.869
 1362SOL    HW1 4985   3.092   3.546   5.943
 1362SOL    HW2 4986   3.107   3.392   5.891
 1363SOL     OW 4987   6.437   5.922   2.286
 1363SOL    HW1 4988   6.521   5.972   2.263
 1363SOL    HW2 4989   6.358   5.980   2.267
 1364SOL     OW 4990   0.039   3.273   1.425
 1364SOL    HW1 4991   0.100   3.342   1.463
 1364SOL    HW2 4992   0.083   3.184   1.428
 1365SOL     OW 4993   0.250   3.518   6.916
 1365SOL    HW1 4994   0.235   3.617   6.921
 1365SOL    HW2 4995   0.196   3.480   6.841
 1366SOL     OW 4996   6.951   1.682   0.720
 1366SOL    HW1 4997   6.862   1.712   0.687
 1366SOL    HW2 4998   6.939   1.628   0.803
 1367SOL     OW 4999   0.098   5.981   4.230
 1367SOL    HW1 5000   0.101   6.036   4.147
 1367SOL    HW2 5001   0.016   6.003   4.282
 1368SOL     OW 5002   0.209   0.036   4.356
 1368SOL    HW1 5003   0.173   0.084   4.436
 1368SOL    HW2 5004   0.138   7.004   4.315
 1369SOL     OW 5005   2.756   6.333   3.060
 1369SOL    HW1 5006   2.660   6.359   3.066
 1369SOL    HW2 5007   2.799   6.378   2.982
 1370SOL     OW 5008   6.931   2.569   3.364
 1370SOL    HW1 5009   6.934   2.564   3.464
 1370SOL    HW2 5010   6.876   2.648   3.337
 1371SOL     OW 5011   5.567   1.923   5.203
 1371SOL    HW1 5012   5.476   1.957   5.226
 1371SOL    HW2 5013   5.585   1.937   5.105
 1372SOL     OW 5014   6.288   2.281   6.978
 1372SOL    HW1 5015   6.355   2.309   6.910
 1372SOL    HW2 5016   6.197   2.278   6.936
 1373SOL     OW 5017   4.723   2.722   2.079
 1373SOL    HW1 5018   4.728   2.821   2.065
 1373SOL    HW2 5019   4.690   2.679   1.995
 1374SOL     OW 5020   5.126   4.975   0.404
 1374SOL    HW1 5021   5.152   4.902   0.466
 1374SOL    HW2 5022   5.071   5.043   0.453
 1375SOL     OW 5023   5.907   6.112   4.582
 1375SOL    HW1 5024   5.886   6.016   4.568
 1375SOL    HW2 5025   5.846   6.168   4.525
 1376SOL     OW 5026   1.987   4.810   6.624
 1376SOL    HW1 5027   1.896   4.775   6.603
 1376SOL    HW2 5028   2.024   4.762   6.704
 1377SOL     OW 5029   1.753   1.864   2.732
 1377SOL    HW1 5030   1.748   1.921   2.650
 1377SOL    HW2 5031   1.848   1.859   2.763
 1378SOL     OW 5032   4.952   2.346   4.476
 1378SOL    HW1 5033   4.954   2.423   4.413
 1378SOL    HW2 5034   5.026   2.282   4.453
 1379SOL     OW 5035   5.323   5.398   1.135
 1379SOL    HW1 5036   5.307   5.496   1.134
 1379SOL    HW2 5037   5.246   5.351   1.092
 1380SOL     OW 5038   6.909   5.578   0.951
 1380SOL    HW1 5039   6.972   5.635   0.899
 1380SOL    HW2 5040   6.911   5.485   0.915
 1381SOL     OW 5041   5.976   2.402   5.675
 1381SOL    HW1 5042   5.949   2.485   5.626
 1381SOL    HW2 5043   6.066   2.415   5.716
 1382SOL     OW 5044   4.315   2.820   1.081
 1382SOL    HW1 5045   4.369   2.847   1.160
 1382SOL    HW2 5046   4.248   2.892   1.061
 1383SOL     OW 5047   0.681   0.669   1.921
 1383SOL    HW1 5048   0.776   0.699   1.931
 1383SOL    HW2 5049   0.655   0.673   1.824
 1384SOL     OW 5050   5.090   0.792   1.301
 1384SOL    HW1 5051   5.181   0.801   1.341
 1384SOL    HW2 5052   5.027   0.756   1.370
 1385SOL     OW 5053   1.653   5.389   2.382
 1385SOL    HW1 5054   1.665   5.399   2.283
 1385SOL    HW2 5055   1.559   5.360   2.401
 1386SOL     OW 5056   2.861   5.943   3.918
 1386SOL    HW1 5057   2.776   5.889   3.912
 1386SOL    HW2 5058   2.917   5.926   3.837
 1387SOL     OW 5059   4.153   5.825   2.021
 1387SOL    HW1 5060   4.190   5.812   1.929
 1387SOL    HW2 5061   4.082   5.896   2.018
 1388SOL     OW 5062   0.014   0.653   1.391
 1388SOL    HW1 5063   7.007   0.734   1.341
 1388SOL    HW2 5064   6.964   0.585   1.394
 1389SOL     OW 5065   6.580   0.831   3.168
 1389SOL    HW1 5066   6.651   0.884   3.122
 1389SOL    HW2 5067   6.509   0.806   3.102
 1390SOL     OW 5068   0.092   2.838   5.862
 1390SOL    HW1 5069   0.113   2.763   5.924
 1390SOL    HW2 5070   7.019   2.836   5.838
 1391SOL     OW 5071   6.459   1.639   3.480
 1391SOL    HW1 5072   6.466   1.607   3.386
 1391SOL    HW2 5073   6.363   1.658   3.502
 1392SOL     OW 5074   4.674   5.185   5.268
 1392SOL    HW1 5075   4.602   5.131   5.311
 1392SOL    HW2 5076   4.633   5.266   5.226
 1393SOL     OW 5077   4.738   6.720   5.581
 1393SOL    HW1 5078   4.651   6.769   5.569
 1393SOL    HW2 5079   4.745   6.687   5.676
 1394SOL     OW 5080   2.810   5.767   5.438
 1394SOL    HW1 5081   2.795   5.865   5.441
 1394SOL    HW2 5082   2.730   5.719   5.473
 1395SOL     OW 5083   3.384   4.660   5.596
 1395SOL    HW1 5084   3.324   4.708   5.533
 1395SOL    HW2 5085   3.339   4.577   5.630
 1396SOL     OW 5086   6.752   6.475   4.580
 1396SOL    HW1 5087   6.710   6.536   4.647
 1396SOL    HW2 5088   6.693   6.469   4.500
 1397SOL     OW 5089   5.803   0.324   4.335
 1397SOL    HW1 5090   5.861   0.405   4.329
 1397SOL    HW2 5091   5.776   0.309   4.430
 1398SOL     OW 5092   1.306   1.453   5.391
 1398SOL    HW1 5093   1.243   1.375   5.389
 1398SOL    HW2 5094   1.302   1.501   5.303
 1399SOL     OW 5095   3.450   5.595   0.957
 1399SOL    HW1 5096   3.456   5.626   0.862
 1399SOL    HW2 5097   3.373   5.641   1.002
 1400SOL     OW 5098   6.599   0.998   1.975
 1400SOL    HW1 5099   6.676   0.935   1.971
 1400SOL    HW2 5100   6.622   1.082   1.926
 1401SOL     OW 5101   0.416   2.188   5.516
 1401SOL    HW1 5102   0.473   2.109   5.539
 1401SOL    HW2 5103   0.468   2.251   5.459
 1402SOL     OW 5104   0.062   3.243   0.349
 1402SOL    HW1 5105   0.090   3.337   0.329
 1402SOL    HW2 5106   6.989   3.232   0.331
 1403SOL     OW 5107   2.745   6.706   1.924
 1403SOL    HW1 5108   2.785   6.787   1.968
 1403SOL    HW2 5109   2.782   6.696   1.832
 1404SOL     OW 5110   5.607   0.583   0.327
 1404SOL    HW1 5111   5.536   0.644   0.363
 1404SOL    HW2 5112   5.695   0.632   0.325
 1405SOL     OW 5113   2.032   3.912   1.177
 1405SOL    HW1 5114   2.016   4.009   1.193
 1405SOL    HW2 5115   2.009   3.889   1.083
 1406SOL     OW 5116   0.776   4.476   1.675
 1406SOL    HW1 5117   0.749   4.385   1.707
 1406SOL    HW2 5118   0.849   4.512   1.733
 1407SOL     OW 5119   6.387   1.317   1.900
 1407SOL    HW1 5120   6.372   1.416   1.902
 1407SOL    HW2 5121   6.392   1.283   1.994
 1408SOL     OW 5122   5.507   0.720   6.241
 1408SOL    HW1 5123   5.530   0.671   6.324
 1408SOL    HW2 5124   5.493   0.817   6.262
 1409SOL     OW 5125   0.069   0.246   4.176
 1409SOL    HW1 5126   0.110   0.181   4.111
 1409SOL    HW2 5127   0.137   0.315   4.201
 1410SOL     OW 5128   1.029   3.003   6.858
 1410SOL    HW1 5129   1.066   3.072   6.920
 1410SOL    HW2 5130   0.951   2.958   6.901
 1411SOL     OW 5131   2.081   6.516   2.513
 1411SOL    HW1 5132   2.153   6.498   2.446
 1411SOL    HW2 5133   2.039   6.430   2.540
 1412SOL     OW 5134   2.097   2.828   0.602
 1412SOL    HW1 5135   2.001   2.846   0.581
 1412SOL    HW2 5136   2.116   2.851   0.697
 1413SOL     OW 5137   2.518   1.031   4.379
 1413SOL    HW1 5138   2.490   1.094   4.451
 1413SOL    HW2 5139   2.508   0.937   4.411
 1414SOL     OW 5140   2.421   1.738   1.695
 1414SOL    HW1 5141   2.481   1.804   1.739
 1414SOL    HW2 5142   2.381   1.677   1.764
 1415SOL     OW 5143   3.393   6.131   4.588
 1415SOL    HW1 5144   3.348   6.065   4.649
 1415SOL    HW2 5145   3.336   6.147   4.508
 1416SOL     OW 5146   4.578   4.367   2.809
 1416SOL    HW1 5147   4.520   4.428   2.862
 1416SOL    HW2 5148   4.578   4.396   2.713
 1417SOL     OW 5149   2.942   2.677   6.525
 1417SOL    HW1 5150   2.948   2.579   6.508
 1417SOL    HW2 5151   3.025   2.722   6.491
 1418SOL     OW 5152   3.148   3.956   3.195
 1418SOL    HW1 5153   3.145   3.986   3.099
 1418SOL    HW2 5154   3.076   3.887   3.210
 1419SOL     OW 5155   3.035   6.342   4.416
 1419SOL    HW1 5156   3.023   6.386   4.505
 1419SOL    HW2 5157   3.081   6.254   4.429
 1420SOL     OW 5158   1.424   6.291   2.459
 1420SOL    HW1 5159   1.358   6.242   2.516
 1420SOL    HW2 5160   1.407   6.268   2.363
 1421SOL     OW 5161   2.059   2.424   3.075
 1421SOL    HW1 5162   2.150   2.418   3.033
 1421SOL    HW2 5163   2.057   2.499   3.141
 1422SOL     OW 5164   2.392   4.589   2.167
 1422SOL    HW1 5165   2.385   4.569   2.069
 1422SOL    HW2 5166   2.342   4.673   2.187
 1423SOL     OW 5167   5.588   6.198   2.290
 1423SOL    HW1 5168   5.512   6.154   2.339
 1423SOL    HW2 5169   5.552   6.250   2.213
 1424SOL     OW 5170   5.505   5.087   4.989
 1424SOL    HW1 5171   5.482   5.179   5.020
 1424SOL    HW2 5172   5.593   5.088   4.941
 1425SOL     OW 5173   1.821   6.404   3.912
 1425SOL    HW1 5174   1.858   6.371   3.999
 1425SOL    HW2 5175   1.733   6.448   3.927
 1426SOL     OW 5176   0.965   2.114   5.654
 1426SOL    HW1 5177   0.980   2.027   5.701
 1426SOL    HW2 5178   0.941   2.185   5.720
 1427SOL     OW 5179   6.589   0.147   3.048
 1427SOL    HW1 5180   6.506   0.111   3.090
 1427SOL    HW2 5181   6.618   0.230   3.096
 1428SOL     OW 5182   6.451   2.319   0.597
 1428SOL    HW1 5183   6.418   2.239   0.648
 1428SOL    HW2 5184   6.551   2.320   0.598
 1429SOL     OW 5185   6.582   1.124   0.429
 1429SOL    HW1 5186   6.588   1.030   0.462
 1429SOL    HW2 5187   6.595   1.188   0.505
 1430SOL     OW 5188   1.274   3.961   3.883
 1430SOL    HW1 5189   1.264   3.931   3.978
 1430SOL    HW2 5190   1.270   3.883   3.822
 1431SOL     OW 5191   2.212   1.628   1.884
 1431SOL    HW1 5192   2.150   1.584   1.819
 1431SOL    HW2 5193   2.200   1.727   1.880
 1432SOL     OW 5194   2.495   1.192   3.401
 1432SOL    HW1 5195   2.403   1.162   3.378
 1432SOL    HW2 5196   2.514   1.280   3.357
 1433SOL     OW 5197   4.084   0.903   3.906
 1433SOL    HW1 5198   4.092   0.813   3.947
 1433SOL    HW2 5199   4.094   0.896   3.806
 1434SOL     OW 5200   0.568   0.872   5.315
 1434SOL    HW1 5201   0.490   0.809   5.311
 1434SOL    HW2 5202   0.589   0.907   5.224
 1435SOL     OW 5203   5.946   1.113   2.766
 1435SOL    HW1 5204   5.852   1.084   2.784
 1435SOL    HW2 5205   6.007   1.070   2.832
 1436SOL     OW 5206   3.992   4.269   6.716
 1436SOL    HW1 5207   3.907   4.241   6.673
 1436SOL    HW2 5208   4.023   4.198   6.779
 1437SOL     OW 5209   3.197   1.579   3.853
 1437SOL    HW1 5210   3.235   1.670   3.870
 1437SOL    HW2 5211   3.255   1.531   3.787
 1438SOL     OW 5212   3.799   6.431   1.825
 1438SOL    HW1 5213   3.788   6.345   1.776
 1438SOL    HW2 5214   3.810   6.506   1.760
 1439SOL     OW 5215   0.150   6.097   2.126
 1439SOL    HW1 5216   0.131   6.002   2.105
 1439SOL    HW2 5217   0.202   6.138   2.050
 1440SOL     OW 5218   2.575   4.340   1.022
 1440SOL    HW1 5219   2.559   4.243   1.040
 1440SOL    HW2 5220   2.537   4.365   0.933
 1441SOL     OW 5221   6.472   0.113   1.529
 1441SOL    HW1 5222   6.440   0.198   1.571
 1441SOL    HW2 5223   6.473   0.040   1.598
 1442SOL     OW 5224   6.150   6.190   6.759
 1442SOL    HW1 5225   6.125   6.122   6.691
 1442SOL    HW2 5226   6.249   6.194   6.768
 1443SOL     OW 5227   0.740   2.380   2.849
 1443SOL    HW1 5228   0.671   2.412   2.784
 1443SOL    HW2 5229   0.804   2.319   2.803
 1444SOL     OW 5230   5.516   0.006   0.859
 1444SOL    HW1 5231   5.488   0.032   0.952
 1444SOL    HW2 5232   5.615   0.014   0.852
 1445SOL     OW 5233   0.687   3.437   3.000
 1445SOL    HW1 5234   0.753   3.463   2.930
 1445SOL    HW2 5235   0.671   3.515   3.061
 1446SOL     OW 5236   6.094   6.984   6.578
 1446SOL    HW1 5237   6.080   0.031   6.646
 1446SOL    HW2 5238   6.006   6.954   6.542
 1447SOL     OW 5239   5.495   5.296   3.464
 1447SOL    HW1 5240   5.429   5.363   3.499
 1447SOL    HW2 5241   5.567   5.283   3.532
 1448SOL     OW 5242   0.422   3.237   4.833
 1448SOL    HW1 5243   0.331   3.209   4.863
 1448SOL    HW2 5244   0.490   3.173   4.870
 1449SOL     OW 5245   1.398   4.109   4.781
 1449SOL    HW1 5246   1.497   4.105   4.771
 1449SOL    HW2 5247   1.374   4.173   4.854
 1450SOL     OW 5248   1.096   1.610   5.524
 1450SOL    HW1 5249   1.018   1.551   5.545
 1450SOL    HW2 5250   1.177   1.553   5.506
 1451SOL     OW 5251   2.160   6.580   1.783
 1451SOL    HW1 5252   2.146   6.490   1.826
 1451SOL    HW2 5253   2.221   6.569   1.704
 1452SOL     OW 5254   4.356   3.069   6.291
 1452SOL    HW1 5255   4.375   3.017   6.208
 1452SOL    HW2 5256   4.350   3.006   6.369
 1453SOL     OW 5257   0.847   4.488   5.451
 1453SOL    HW1 5258   0.916   4.555   5.424
 1453SOL    HW2 5259   0.891   4.412   5.498
 1454SOL     OW 5260   2.962   2.050   3.495
 1454SOL    HW1 5261   2.915   1.982   3.439
 1454SOL    HW2 5262   2.896   2.097   3.554
 1455SOL     OW 5263   1.658   6.282   3.008
 1455SOL    HW1 5264   1.707   6.269   3.094
 1455SOL    HW2 5265   1.724   6.291   2.933
 1456SOL     OW 5266   6.454   6.050   5.980
 1456SOL    HW1 5267   6.427   6.089   5.891
 1456SOL    HW2 5268   6.465   6.124   6.046
 1457SOL     OW 5269   0.245   4.235   0.249
 1457SOL    HW1 5270   0.295   4.179   0.316
 1457SOL    HW2 5271   0.307   4.304   0.211
 1458SOL     OW 5272   5.708   5.378   5.398
 1458SOL    HW1 5273   5.702   5.280   5.378
 1458SOL    HW2 5274   5.735   5.427   5.314
 1459SOL     OW 5275   5.246   6.710   5.561
 1459SOL    HW1 5276   5.264   6.623   5.516
 1459SOL    HW2 5277   5.155   6.742   5.535
 1460SOL     OW 5278   1.551   6.572   5.542
 1460SOL    HW1 5279   1.521   6.481   5.512
 1460SOL    HW2 5280   1.556   6.633   5.463
 1461SOL     OW 5281   0.337   3.566   2.525
 1461SOL    HW1 5282   0.432   3.536   2.530
 1461SOL    HW2 5283   0.333   3.656   2.481
 1462SOL     OW 5284   0.647   0.747   0.088
 1462SOL    HW1 5285   0.739   0.784   0.091
 1462SOL    HW2 5286   0.646   0.665   0.031
 1463SOL     OW 5287   2.285   6.004   6.301
 1463SOL    HW1 5288   2.275   5.904   6.298
 1463SOL    HW2 5289   2.313   6.032   6.393
 1464SOL     OW 5290   5.866   3.927   3.870
 1464SOL    HW1 5291   5.952   3.975   3.886
 1464SOL    HW2 5292   5.885   3.839   3.825
 1465SOL     OW 5293   1.802   1.356   3.364
 1465SOL    HW1 5294   1.736   1.380   3.435
 1465SOL    HW2 5295   1.798   1.422   3.290
 1466SOL     OW 5296   3.718   2.517   1.756
 1466SOL    HW1 5297   3.652   2.588   1.778
 1466SOL    HW2 5298   3.680   2.427   1.777
 1467SOL     OW 5299   0.704   1.126   3.773
 1467SOL    HW1 5300   0.736   1.048   3.827
 1467SOL    HW2 5301   0.706   1.102   3.676
 1468SOL     OW 5302   3.361   5.572   1.992
 1468SOL    HW1 5303   3.439   5.631   1.971
 1468SOL    HW2 5304   3.339   5.515   1.913
 1469SOL     OW 5305   6.208   6.025   3.718
 1469SOL    HW1 5306   6.165   6.113   3.697
 1469SOL    HW2 5307   6.243   5.985   3.633
 1470SOL     OW 5308   0.066   2.408   0.846
 1470SOL    HW1 5309   0.120   2.339   0.893
 1470SOL    HW2 5310   6.993   2.390   0.859
 1471SOL     OW 5311   6.622   6.933   1.394
 1471SOL    HW1 5312   6.709   6.948   1.442
 1471SOL    HW2 5313   6.564   7.013   1.404
 1472SOL     OW 5314   3.023   0.230   6.067
 1472SOL    HW1 5315   3.056   0.309   6.015
 1472SOL    HW2 5316   2.985   0.261   6.154
 1473SOL     OW 5317   3.550   4.936   4.440
 1473SOL    HW1 5318   3.561   4.997   4.361
 1473SOL    HW2 5319   3.558   4.841   4.411
 1474SOL     OW 5320   4.540   4.801   1.514
 1474SOL    HW1 5321   4.636   4.828   1.505
 1474SOL    HW2 5322   4.484   4.855   1.452
 1475SOL     OW 5323   5.329   0.723   0.366
 1475SOL    HW1 5324   5.317   0.626   0.387
 1475SOL    HW2 5325   5.262   0.777   0.417
 1476SOL     OW 5326   2.908   0.834   1.227
 1476SOL    HW1 5327   2.864   0.871   1.309
 1476SOL    HW2 5328   2.840   0.829   1.153
 1477SOL     OW 5329   4.415   6.318   0.975
 1477SOL    HW1 5330   4.441   6.366   1.059
 1477SOL    HW2 5331   4.466   6.232   0.969
 1478SOL     OW 5332   5.255   6.225   5.001
 1478SOL    HW1 5333   5.189   6.158   4.968
 1478SOL    HW2 5334   5.345   6.183   5.010
 1479SOL     OW 5335   3.780   3.727   1.463
 1479SOL    HW1 5336   3.784   3.645   1.519
 1479SOL    HW2 5337   3.845   3.794   1.498
 1480SOL     OW 5338   2.617   0.640   5.569
 1480SOL    HW1 5339   2.549   0.692   5.620
 1480SOL    HW2 5340   2.599   0.542   5.581
 1481SOL     OW 5341   5.780   2.719   5.320
 1481SOL    HW1 5342   5.819   2.708   5.229
 1481SOL    HW2 5343   5.726   2.803   5.323
 1482SOL     OW 5344   4.725   0.292   0.736
 1482SOL    HW1 5345   4.817   0.308   0.771
 1482SOL    HW2 5346   4.701   0.196   0.747
 1483SOL     OW 5347   4.402   1.200   6.237
 1483SOL    HW1 5348   4.355   1.288   6.237
 1483SOL    HW2 5349   4.444   1.184   6.327
 1484SOL     OW 5350   2.937   4.830   4.079
 1484SOL    HW1 5351   3.000   4.880   4.138
 1484SOL    HW2 5352   2.849   4.819   4.125
 1485SOL     OW 5353   5.100   1.387   2.915
 1485SOL    HW1 5354   5.032   1.313   2.913
 1485SOL    HW2 5355   5.179   1.361   2.860
 1486SOL     OW 5356   5.200   6.873   3.399
 1486SOL    HW1 5357   5.200   6.937   3.322
 1486SOL    HW2 5358   5.226   6.921   3.482
 1487SOL     OW 5359   6.997   0.849   0.184
 1487SOL    HW1 5360   7.018   0.840   0.281
 1487SOL    HW2 5361   0.059   0.850   0.132
 1488SOL     OW 5362   6.490   0.788   2.661
 1488SOL    HW1 5363   6.537   0.727   2.597
 1488SOL    HW2 5364   6.411   0.829   2.616
 1489SOL     OW 5365   4.071   5.035   6.906
 1489SOL    HW1 5366   4.048   5.004   6.998
 1489SOL    HW2 5367   4.051   4.963   6.840
 1490SOL     OW 5368   0.269   2.300   1.913
 1490SOL    HW1 5369   0.360   2.310   1.951
 1490SOL    HW2 5370   0.201   2.326   1.982
 1491SOL     OW 5371   6.788   3.296   1.405
 1491SOL    HW1 5372   6.745   3.260   1.322
 1491SOL    HW2 5373   6.887   3.286   1.398
 1492SOL     OW 5374   6.302   0.875   2.473
 1492SOL    HW1 5375   6.202   0.880   2.469
 1492SOL    HW2 5376   6.334   0.795   2.423
 1493SOL     OW 5377   4.147   1.385   5.818
 1493SOL    HW1 5378   4.188   1.309   5.768
 1493SOL    HW2 5379   4.125   1.356   5.911
 1494SOL     OW 5380   5.524   2.365   5.900
 1494SOL    HW1 5381   5.508   2.402   5.808
 1494SOL    HW2 5382   5.602   2.413   5.941
 1495SOL     OW 5383   5.649   3.389   4.185
 1495SOL    HW1 5384   5.714   3.444   4.132
 1495SOL    HW2 5385   5.683   3.379   4.278
 1496SOL     OW 5386   0.075   6.251   6.875
 1496SOL    HW1 5387   0.014   6.283   6.802
 1496SOL    HW2 5388   0.120   6.166   6.846
 1497SOL     OW 5389   5.132   2.470   2.951
 1497SOL    HW1 5390   5.057   2.532   2.927
 1497SOL    HW2 5391   5.211   2.489   2.892
 1498SOL     OW 5392   3.117   4.635   1.235
 1498SOL    HW1 5393   3.172   4.595   1.308
 1498SOL    HW2 5394   3.128   4.581   1.151
 1499SOL     OW 5395   0.097   4.070   5.876
 1499SOL    HW1 5396   0.151   4.039   5.798
 1499SOL    HW2 5397   0.049   4.154   5.853
 1500SOL     OW 5398   1.127   5.701   0.535
 1500SOL    HW1 5399   1.069   5.782   0.530
 1500SOL    HW2 5400   1.138   5.662   0.444
 1501SOL     OW 5401   5.735   1.222   6.307
 1501SOL    HW1 5402   5.785   1.308   6.306
 1501SOL    HW2 5403   5.691   1.210   6.396
 1502SOL     OW 5404   0.218   1.220   6.064
 1502SOL    HW1 5405   0.142   1.220   6.129
 1502SOL    HW2 5406   0.275   1.138   6.079
 1503SOL     OW 5407   0.918   4.131   1.736
 1503SOL    HW1 5408   0.992   4.129   1.669
 1503SOL    HW2 5409   0.910   4.224   1.773
 1504SOL     OW 5410   0.422   6.960   3.168
 1504SOL    HW1 5411   0.461   6.873   3.199
 1504SOL    HW2 5412   0.354   6.992   3.233
 1505SOL     OW 5413   5.838   7.010   4.932
 1505SOL    HW1 5414   5.891   0.070   4.938
 1505SOL    HW2 5415   5.803   6.999   4.839
 1506SOL     OW 5416   1.710   0.842   1.020
 1506SOL    HW1 5417   1.757   0.817   1.105
 1506SOL    HW2 5418   1.692   0.940   1.019
 1507SOL     OW 5419   1.108   1.901   4.471
 1507SOL    HW1 5420   1.084   1.954   4.390
 1507SOL    HW2 5421   1.078   1.949   4.553
 1508SOL     OW 5422   0.650   1.070   0.588
 1508SOL    HW1 5423   0.674   1.007   0.662
 1508SOL    HW2 5424   0.732   1.089   0.533
 1509SOL     OW 5425   5.393   1.231   5.244
 1509SOL    HW1 5426   5.357   1.139   5.227
 1509SOL    HW2 5427   5.446   1.231   5.329
 1510SOL     OW 5428   3.294   0.086   3.905
 1510SOL    HW1 5429   3.260   0.005   3.856
 1510SOL    HW2 5430   3.331   0.058   3.994
 1511SOL     OW 5431   3.673   3.804   4.121
 1511SOL    HW1 5432   3.750   3.854   4.081
 1511SOL    HW2 5433   3.706   3.720   4.163
 1512SOL     OW 5434   6.674   6.008   1.405
 1512SOL    HW1 5435   6.588   6.060   1.396
 1512SOL    HW2 5436   6.740   6.062   1.458
 1513SOL     OW 5437   3.023   6.828   5.883
 1513SOL    HW1 5438   2.963   6.907   5.892
 1513SOL    HW2 5439   3.081   6.821   5.965
 1514SOL     OW 5440   3.402   2.327   5.617
 1514SOL    HW1 5441   3.347   2.311   5.535
 1514SOL    HW2 5442   3.377   2.415   5.657
 1515SOL     OW 5443   6.313   2.078   2.296
 1515SOL    HW1 5444   6.313   2.094   2.395
 1515SOL    HW2 5445   6.248   2.006   2.273
 1516SOL     OW 5446   6.167   6.207   4.797
 1516SOL    HW1 5447   6.126   6.192   4.707
 1516SOL    HW2 5448   6.126   6.145   4.864
 1517SOL     OW 5449   3.519   6.254   3.646
 1517SOL    HW1 5450   3.526   6.349   3.676
 1517SOL    HW2 5451   3.607   6.209   3.657
 1518SOL     OW 5452   6.798   2.658   0.122
 1518SOL    HW1 5453   6.888   2.699   0.109
 1518SOL    HW2 5454   6.730   2.730   0.135
 1519SOL     OW 5455   0.067   4.255   0.668
 1519SOL    HW1 5456   0.071   4.330   0.602
 1519SOL    HW2 5457   0.069   4.292   0.761
 1520SOL     OW 5458   1.085   5.012   1.426
 1520SOL    HW1 5459   1.071   5.023   1.525
 1520SOL    HW2 5460   1.013   4.953   1.389
 1521SOL     OW 5461   2.153   4.638   6.784
 1521SOL    HW1 5462   2.112   4.557   6.828
 1521SOL    HW2 5463   2.206   4.689   6.852
 1522SOL     OW 5464   5.042   5.805   4.903
 1522SOL    HW1 5465   5.047   5.727   4.840
 1522SOL    HW2 5466   4.976   5.872   4.868
 1523SOL     OW 5467   4.138   6.899   6.794
 1523SOL    HW1 5468   4.199   6.875   6.869
 1523SOL    HW2 5469   4.077   6.823   6.775
 1524SOL     OW 5470   2.528   2.053   2.590
 1524SOL    HW1 5471   2.468   2.041   2.669
 1524SOL    HW2 5472   2.511   1.980   2.524
 1525SOL     OW 5473   6.416   2.363   0.978
 1525SOL    HW1 5474   6.486   2.432   0.996
 1525SOL    HW2 5475   6.458   2.283   0.934
 1526SOL     OW 5476   0.515   1.672   6.891
 1526SOL    HW1 5477   0.429   1.700   6.848
 1526SOL    HW2 5478   0.583   1.744   6.878
 1527SOL     OW 5479   3.508   1.549   4.645
 1527SOL    HW1 5480   3.545   1.641   4.627
 1527SOL    HW2 5481   3.408   1.554   4.651
 1528SOL     OW 5482   4.783   3.754   0.697
 1528SOL    HW1 5483   4.836   3.811   0.760
 1528SOL    HW2 5484   4.714   3.703   0.749
 1529SOL     OW 5485   5.424   0.655   6.505
 1529SOL    HW1 5486   5.371   0.572   6.486
 1529SOL    HW2 5487   5.441   0.661   6.604
 1530SOL     OW 5488   3.124   0.004   1.508
 1530SOL    HW1 5489   3.065   0.068   1.557
 1530SOL    HW2 5490   3.070   6.979   1.439
 1531SOL     OW 5491   4.132   0.662   4.017
 1531SOL    HW1 5492   4.225   0.651   3.981
 1531SOL    HW2 5493   4.101   0.576   4.057
 1532SOL     OW 5494   3.194   5.010   6.014
 1532SOL    HW1 5495   3.250   4.955   5.952
 1532SOL    HW2 5496   3.251   5.080   6.057
 1533SOL     OW 5497   5.267   5.660   1.148
 1533SOL    HW1 5498   5.330   5.708   1.087
 1533SOL    HW2 5499   5.173   5.679   1.120
 1534SOL     OW 5500   4.068   6.292   6.855
 1534SOL    HW1 5501   3.996   6.243   6.806
 1534SOL    HW2 5502   4.043   6.388   6.863
 1535SOL     OW 5503   6.165   6.628   4.766
 1535SOL    HW1 5504   6.065   6.629   4.769
 1535SOL    HW2 5505   6.200   6.571   4.840
 1536SOL     OW 5506   4.027   4.384   0.086
 1536SOL    HW1 5507   3.959   4.384   0.159
 1536SOL    HW2 5508   4.117   4.361   0.125
 1537SOL     OW 5509   3.318   4.956   3.871
 1537SOL    HW1 5510   3.376   4.927   3.795
 1537SOL    HW2 5511   3.290   5.051   3.857
 1538SOL     OW 5512   3.565   1.692   0.243
 1538SOL    HW1 5513   3.487   1.632   0.227
 1538SOL    HW2 5514   3.556   1.774   0.187
 1539SOL     OW 5515   4.866   3.349   1.511
 1539SOL    HW1 5516   4.927   3.315   1.439
 1539SOL    HW2 5517   4.783   3.294   1.514
 1540SOL     OW 5518   2.102   0.298   4.602
 1540SOL    HW1 5519   2.019   0.329   4.649
 1540SOL    HW2 5520   2.180   0.350   4.635
 1541SOL     OW 5521   3.704   2.942   4.596
 1541SOL    HW1 5522   3.630   3.007   4.578
 1541SOL    HW2 5523   3.743   2.960   4.686
 1542SOL     OW 5524   6.385   6.805   2.432
 1542SOL    HW1 5525   6.437   6.835   2.352
 1542SOL    HW2 5526   6.446   6.794   2.510
 1543SOL     OW 5527   2.803   5.963   6.124
 1543SOL    HW1 5528   2.880   5.909   6.090
 1543SOL    HW2 5529   2.725   5.954   6.063
 1544SOL     OW 5530   4.033   3.652   3.900
 1544SOL    HW1 5531   4.071   3.640   3.809
 1544SOL    HW2 5532   3.939   3.684   3.893
 1545SOL     OW 5533   6.266   0.131   1.832
 1545SOL    HW1 5534   6.301   0.152   1.740
 1545SOL    HW2 5535   6.343   0.125   1.895
 1546SOL     OW 5536   5.266   0.146   5.685
 1546SOL    HW1 5537   5.313   0.092   5.754
 1546SOL    HW2 5538   5.332   0.208   5.641
 1547SOL     OW 5539   1.208   4.051   0.577
 1547SOL    HW1 5540   1.219   4.050   0.478
 1547SOL    HW2 5541   1.112   4.032   0.601
 1548SOL     OW 5542   6.494   3.165   0.417
 1548SOL    HW1 5543   6.444   3.183   0.333
 1548SOL    HW2 5544   6.478   3.240   0.482
 1549SOL     OW 5545   3.898   1.544   4.589
 1549SOL    HW1 5546   3.841   1.476   4.543
 1549SOL    HW2 5547   3.855   1.634   4.584
 1550SOL     OW 5548   4.117   3.207   2.605
 1550SOL    HW1 5549   4.109   3.218   2.704
 1550SOL    HW2 5550   4.160   3.119   2.585
 1551SOL     OW 5551   1.025   4.980   0.030
 1551SOL    HW1 5552   1.087   4.919   0.080
 1551SOL    HW2 5553   0.932   4.967   0.063
 1552SOL     OW 5554   2.877   4.790   1.182
 1552SOL    HW1 5555   2.947   4.730   1.222
 1552SOL    HW2 5556   2.790   4.742   1.179
 1553SOL     OW 5557   0.586   2.023   5.972
 1553SOL    HW1 5558   0.490   2.028   5.999
 1553SOL    HW2 5559   0.619   2.115   5.951
 1554SOL     OW 5560   3.284   1.958   3.568
 1554SOL    HW1 5561   3.287   2.015   3.486
 1554SOL    HW2 5562   3.202   1.981   3.621
 1555SOL     OW 5563   6.000   2.560   6.117
 1555SOL    HW1 5564   6.089   2.554   6.072
 1555SOL    HW2 5565   5.956   2.470   6.117
 1556SOL     OW 5566   2.107   1.107   6.595
 1556SOL    HW1 5567   2.109   1.139   6.690
 1556SOL    HW2 5568   2.163   1.167   6.539
 1557SOL     OW 5569   1.620   3.572   6.190
 1557SOL    HW1 5570   1.560   3.547   6.266
 1557SOL    HW2 5571   1.658   3.663   6.206
 1558SOL     OW 5572   6.608   0.452   4.672
 1558SOL    HW1 5573   6.563   0.376   4.626
 1558SOL    HW2 5574   6.666   0.501   4.607
 1559SOL     OW 5575   0.512   2.680   6.448
 1559SOL    HW1 5576   0.462   2.765   6.430
 1559SOL    HW2 5577   0.528   2.671   6.546
 1560SOL     OW 5578   7.006   0.998   6.199
 1560SOL    HW1 5579   0.066   0.964   6.240
 1560SOL    HW2 5580   6.986   1.089   6.235
 1561SOL     OW 5581   4.539   6.121   2.552
 1561SOL    HW1 5582   4.450   6.166   2.551
 1561SOL    HW2 5583   4.528   6.026   2.580
 1562SOL     OW 5584   4.669   6.936   2.192
 1562SOL    HW1 5585   4.660   7.012   2.257
 1562SOL    HW2 5586   4.697   6.971   2.103
 1563SOL     OW 5587   3.348   1.223   6.517
 1563SOL    HW1 5588   3.256   1.246   6.485
 1563SOL    HW2 5589   3.341   1.173   6.603
 1564SOL     OW 5590   1.562   1.350   2.040
 1564SOL    HW1 5591   1.633   1.338   2.110
 1564SOL    HW2 5592   1.595   1.414   1.970
 1565SOL     OW 5593   4.853   3.790   2.364
 1565SOL    HW1 5594   4.843   3.791   2.265
 1565SOL    HW2 5595   4.857   3.696   2.397
 1566SOL     OW 5596   5.258   3.963   3.358
 1566SOL    HW1 5597   5.287   3.946   3.452
 1566SOL    HW2 5598   5.327   4.018   3.311
 1567SOL     OW 5599   5.824   5.914   6.200
 1567SOL    HW1 5600   5.887   5.861   6.143
 1567SOL    HW2 5601   5.761   5.852   6.246
 1568SOL     OW 5602   1.245   0.640   0.549
 1568SOL    HW1 5603   1.207   0.553   0.516
 1568SOL    HW2 5604   1.169   0.702   0.573
 1569SOL     OW 5605   3.782   6.731   4.737
 1569SOL    HW1 5606   3.742   6.807   4.687
 1569SOL    HW2 5607   3.878   6.749   4.754
 1570SOL     OW 5608   2.986   2.108   1.516
 1570SOL    HW1 5609   2.940   2.123   1.604
 1570SOL    HW2 5610   2.918   2.105   1.443
 1571SOL     OW 5611   6.085   3.231   1.999
 1571SOL    HW1 5612   6.148   3.309   2.002
 1571SOL    HW2 5613   6.080   3.196   1.906
 1572SOL     OW 5614   0.630   0.059   2.068
 1572SOL    HW1 5615   0.684   0.141   2.052
 1572SOL    HW2 5616   0.688   7.002   2.058
 1573SOL     OW 5617   5.467   6.821   1.446
 1573SOL    HW1 5618   5.563   6.796   1.452
 1573SOL    HW2 5619   5.458   6.909   1.398
 1574SOL     OW 5620   0.507   2.128   1.696
 1574SOL    HW1 5621   0.601   2.149   1.670
 1574SOL    HW2 5622   0.450   2.210   1.685
 1575SOL     OW 5623   2.048   2.513   0.501
 1575SOL    HW1 5624   1.976   2.560   0.450
 1575SOL    HW2 5625   2.125   2.576   0.513
 1576SOL     OW 5626   5.774   6.092   3.737
 1576SOL    HW1 5627   5.709   6.058   3.669
 1576SOL    HW2 5628   5.849   6.140   3.690
 1577SOL     OW 5629   2.483   0.812   5.726
 1577SOL    HW1 5630   2.434   0.731   5.759
 1577SOL    HW2 5631   2.418   0.887   5.711
 1578SOL     OW 5632   6.030   3.690   5.757
 1578SOL    HW1 5633   6.011   3.633   5.677
 1578SOL    HW2 5634   6.051   3.632   5.835
 1579SOL     OW 5635   0.441   1.343   3.100
 1579SOL    HW1 5636   0.496   1.283   3.158
 1579SOL    HW2 5637   0.351   1.357   3.142
 1580SOL     OW 5638   2.777   4.337   5.353
 1580SOL    HW1 5639   2.681   4.308   5.345
 1580SOL    HW2 5640   2.794   4.412   5.290
 1581SOL     OW 5641   6.366   3.923   4.673
 1581SOL    HW1 5642   6.293   3.992   4.674
 1581SOL    HW2 5643   6.382   3.892   4.579
 1582SOL     OW 5644   0.463   5.180   4.553
 1582SOL    HW1 5645   0.554   5.220   4.566
 1582SOL    HW2 5646   0.462   5.129   4.467
 1583SOL     OW 5647   1.885   3.064   3.847
 1583SOL    HW1 5648   1.981   3.046   3.868
 1583SOL    HW2 5649   1.836   3.083   3.932
 1584SOL     OW 5650   2.244   6.597   5.656
 1584SOL    HW1 5651   2.342   6.595   5.676
 1584SOL    HW2 5652   2.212   6.504   5.639
 1585SOL     OW 5653   5.603   2.041   3.240
 1585SOL    HW1 5654   5.535   2.112   3.256
 1585SOL    HW2 5655   5.580   1.990   3.157
 1586SOL     OW 5656   3.749   3.950   2.412
 1586SOL    HW1 5657   3.655   3.978   2.391
 1586SOL    HW2 5658   3.750   3.901   2.500
 1587SOL     OW 5659   3.681   6.850   0.161
 1587SOL    HW1 5660   3.617   6.802   0.221
 1587SOL    HW2 5661   3.757   6.886   0.215
 1588SOL     OW 5662   5.460   1.665   2.194
 1588SOL    HW1 5663   5.473   1.758   2.228
 1588SOL    HW2 5664   5.402   1.667   2.113
 1589SOL     OW 5665   5.903   4.555   3.751
 1589SOL    HW1 5666   5.986   4.557   3.696
 1589SOL    HW2 5667   5.823   4.550   3.690
 1590SOL     OW 5668   1.905   6.881   0.566
 1590SOL    HW1 5669   1.829   6.934   0.604
 1590SOL    HW2 5670   1.964   6.940   0.511
 1591SOL     OW 5671   0.951   4.506   2.679
 1591SOL    HW1 5672   1.035   4.493   2.731
 1591SOL    HW2 5673   0.901   4.420   2.672
 1592SOL     OW 5674   3.040   3.331   2.358
 1592SOL    HW1 5675   3.009   3.426   2.347
 1592SOL    HW2 5676   3.079   3.298   2.272
 1593SOL     OW 5677   0.677   6.225   4.430
 1593SOL    HW1 5678   0.687   6.220   4.530
 1593SOL    HW2 5679   0.591   6.181   4.403
 1594SOL     OW 5680   6.814   5.246   2.354
 1594SOL    HW1 5681   6.899   5.264   2.305
 1594SOL    HW2 5682   6.827   5.169   2.417
 1595SOL     OW 5683   6.899   4.770   6.353
 1595SOL    HW1 5684   6.874   4.774   6.450
 1595SOL    HW2 5685   6.992   4.734   6.343
 1596SOL     OW 5686   1.952   5.641   5.892
 1596SOL    HW1 5687   1.939   5.648   5.991
 1596SOL    HW2 5688   1.961   5.732   5.853
 1597SOL     OW 5689   2.264   6.273   1.947
 1597SOL    HW1 5690   2.172   6.248   1.918
 1597SOL    HW2 5691   2.326   6.197   1.931
 1598SOL     OW 5692   0.251   4.326   1.280
 1598SOL    HW1 5693   0.258   4.248   1.218
 1598SOL    HW2 5694   0.261   4.295   1.374
 1599SOL     OW 5695   3.643   4.830   6.869
 1599SOL    HW1 5696   3.613   4.825   6.964
 1599SOL    HW2 5697   3.586   4.896   6.820
 1600SOL     OW 5698   5.399   1.692   5.155
 1600SOL    HW1 5699   5.459   1.769   5.174
 1600SOL    HW2 5700   5.387   1.683   5.056
 1601SOL     OW 5701   1.220   4.449   5.237
 1601SOL    HW1 5702   1.190   4.357   5.211
 1601SOL    HW2 5703   1.313   4.445   5.274
 1602SOL     OW 5704   1.581   5.633   3.682
 1602SOL    HW1 5705   1.491   5.617   3.642
 1602SOL    HW2 5706   1.572   5.635   3.782
 1603SOL     OW 5707   0.599   6.655   2.086
 1603SOL    HW1 5708   0.697   6.662   2.065
 1603SOL    HW2 5709   0.583   6.574   2.143
 1604SOL     OW 5710   6.980   5.278   6.717
 1604SOL    HW1 5711   6.939   5.191   6.691
 1604SOL    HW2 5712   0.029   5.262   6.784
 1605SOL     OW 5713   6.504   6.691   3.083
 1605SOL    HW1 5714   6.442   6.694   3.004
 1605SOL    HW2 5715   6.583   6.750   3.067
 1606SOL     OW 5716   4.633   6.920   5.742
 1606SOL    HW1 5717   4.588   6.853   5.800
 1606SOL    HW2 5718   4.706   6.965   5.794
 1607SOL     OW 5719   4.533   2.629   0.973
 1607SOL    HW1 5720   4.582   2.702   0.926
 1607SOL    HW2 5721   4.451   2.666   1.017
 1608SOL     OW 5722   2.250   6.484   0.412
 1608SOL    HW1 5723   2.192   6.517   0.337
 1608SOL    HW2 5724   2.337   6.533   0.411
 1609SOL     OW 5725   5.147   1.943   5.907
 1609SOL    HW1 5726   5.067   1.899   5.946
 1609SOL    HW2 5727   5.123   2.036   5.877
 1610SOL     OW 5728   6.571   6.273   4.420
 1610SOL    HW1 5729   6.498   6.235   4.475
 1610SOL    HW2 5730   6.532   6.321   4.341
 1611SOL     OW 5731   3.887   3.618   1.776
 1611SOL    HW1 5732   3.810   3.614   1.839
 1611SOL    HW2 5733   3.938   3.703   1.791
 1612SOL     OW 5734   2.257   1.482   4.867
 1612SOL    HW1 5735   2.251   1.383   4.876
 1612SOL    HW2 5736   2.344   1.514   4.906
 1613SOL     OW 5737   2.321   5.828   0.796
 1613SOL    HW1 5738   2.301   5.850   0.892
 1613SOL    HW2 5739   2.388   5.893   0.760
 1614SOL     OW 5740   6.358   2.038   0.111
 1614SOL    HW1 5741   6.411   1.983   0.046
 1614SOL    HW2 5742   6.355   2.133   0.080
 1615SOL     OW 5743   6.755   4.420   6.496
 1615SOL    HW1 5744   6.719   4.447   6.407
 1615SOL    HW2 5745   6.736   4.323   6.512
 1616SOL     OW 5746   3.517   1.762   6.197
 1616SOL    HW1 5747   3.481   1.846   6.157
 1616SOL    HW2 5748   3.487   1.754   6.292
 1617SOL     OW 5749   5.513   0.763   2.740
 1617SOL    HW1 5750   5.437   0.798   2.796
 1617SOL    HW2 5751   5.598   0.806   2.769
 1618SOL     OW 5752   6.465   3.300   1.317
 1618SOL    HW1 5753   6.426   3.352   1.240
 1618SOL    HW2 5754   6.442   3.345   1.403
 1619SOL     OW 5755   1.471   3.273   4.240
 1619SOL    HW1 5756   1.551   3.235   4.193
 1619SOL    HW2 5757   1.418   3.328   4.176
 1620SOL     OW 5758   3.052   5.630   1.910
 1620SOL    HW1 5759   3.139   5.672   1.883
 1620SOL    HW2 5760   2.992   5.623   1.830
 1621SOL     OW 5761   1.158   0.304   0.790
 1621SOL    HW1 5762   1.228   0.274   0.726
 1621SOL    HW2 5763   1.178   0.268   0.881
 1622SOL     OW 5764   1.796   1.894   4.769
 1622SOL    HW1 5765   1.862   1.969   4.769
 1622SOL    HW2 5766   1.808   1.839   4.686
 1623SOL     OW 5767   2.533   1.918   6.204
 1623SOL    HW1 5768   2.494   1.970   6.128
 1623SOL    HW2 5769   2.463   1.901   6.273
 1624SOL     OW 5770   3.282   1.571   0.203
 1624SOL    HW1 5771   3.290   1.522   0.116
 1624SOL    HW2 5772   3.187   1.595   0.219
 1625SOL     OW 5773   0.848   5.079   1.839
 1625SOL    HW1 5774   0.916   5.071   1.911
 1625SOL    HW2 5775   0.852   5.170   1.798
 1626SOL     OW 5776   1.894   3.092   6.591
 1626SOL    HW1 5777   1.992   3.089   6.613
 1626SOL    HW2 5778   1.878   3.163   6.522
 1627SOL     OW 5779   6.398   2.556   3.558
 1627SOL    HW1 5780   6.483   2.509   3.581
 1627SOL    HW2 5781   6.413   2.616   3.479
 1628SOL     OW 5782   3.130   4.644   0.712
 1628SOL    HW1 5783   3.079   4.669   0.795
 1628SOL    HW2 5784   3.227   4.664   0.725
 1629SOL     OW 5785   3.521   2.155   4.471
 1629SOL    HW1 5786   3.445   2.115   4.522
 1629SOL    HW2 5787   3.600   2.165   4.532
 1630SOL     OW 5788   0.733   4.854   5.778
 1630SOL    HW1 5789   0.718   4.771   5.725
 1630SOL    HW2 5790   0.821   4.895   5.751
 1631SOL     OW 5791   6.954   6.782   5.321
 1631SOL    HW1 5792   0.014   6.735   5.294
 1631SOL    HW2 5793   6.900   6.721   5.380
 1632SOL     OW 5794   0.287   0.660   0.406
 1632SOL    HW1 5795   0.282   0.666   0.307
 1632SOL    HW2 5796   0.318   0.747   0.444
 1633SOL     OW 5797   6.024   1.876   3.252
 1633SOL    HW1 5798   5.982   1.802   3.304
 1633SOL    HW2 5799   6.115   1.848   3.221
 1634SOL     OW 5800   2.837   0.012   6.431
 1634SOL    HW1 5801   2.898   6.972   6.383
 1634SOL    HW2 5802   2.850   0.104   6.395
 1635SOL     OW 5803   7.010   5.843   4.935
 1635SOL    HW1 5804   7.008   5.915   4.866
 1635SOL    HW2 5805   0.024   5.879   5.020
 1636SOL     OW 5806   2.550   5.824   1.940
 1636SOL    HW1 5807   2.646   5.806   1.960
 1636SOL    HW2 5808   2.505   5.739   1.912
 1637SOL     OW 5809   0.195   3.314   2.100
 1637SOL    HW1 5810   0.175   3.402   2.142
 1637SOL    HW2 5811   0.123   3.291   2.035
 1638SOL     OW 5812   6.950   3.335   4.333
 1638SOL    HW1 5813   6.874   3.391   4.303
 1638SOL    HW2 5814   0.010   3.367   4.290
 1639SOL     OW 5815   4.633   5.579   2.699
 1639SOL    HW1 5816   4.605   5.578   2.795
 1639SOL    HW2 5817   4.586   5.505   2.650
 1640SOL     OW 5818   6.480   0.808   0.755
 1640SOL    HW1 5819   6.550   0.845   0.817
 1640SOL    HW2 5820   6.517   0.805   0.662
 1641SOL     OW 5821   5.785   3.493   5.289
 1641SOL    HW1 5822   5.880   3.476   5.316
 1641SOL    HW2 5823   5.761   3.433   5.213
 1642SOL     OW 5824   6.672   2.480   0.339
 1642SOL    HW1 5825   6.728   2.561   0.323
 1642SOL    HW2 5826   6.627   2.453   0.253
 1643SOL     OW 5827   3.647   6.365   5.180
 1643SOL    HW1 5828   3.595   6.289   5.142
 1643SOL    HW2 5829   3.675   6.427   5.107
 1644SOL     OW 5830   2.651   1.411   1.514
 1644SOL    HW1 5831   2.700   1.413   1.427
 1644SOL    HW2 5832   2.603   1.324   1.524
 1645SOL     OW 5833   3.148   6.818   6.609
 1645SOL    HW1 5834   3.244   6.812   6.583
 1645SOL    HW2 5835   3.138   6.882   6.685
 1646SOL     OW 5836   1.376   4.196   0.748
 1646SOL    HW1 5837   1.466   4.195   0.704
 1646SOL    HW2 5838   1.313   4.139   0.694
 1647SOL     OW 5839   5.737   3.074   3.670
 1647SOL    HW1 5840   5.680   3.155   3.659
 1647SOL    HW2 5841   5.779   3.050   3.583
 1648SOL     OW 5842   4.766   6.980   1.953
 1648SOL    HW1 5843   4.717   0.018   1.891
 1648SOL    HW2 5844   4.797   6.900   1.902
 1649SOL     OW 5845   3.077   0.975   3.371
 1649SOL    HW1 5846   2.984   1.002   3.350
 1649SOL    HW2 5847   3.100   0.891   3.322
 1650SOL     OW 5848   2.728   0.368   3.656
 1650SOL    HW1 5849   2.803   0.303   3.655
 1650SOL    HW2 5850   2.651   0.332   3.603
 1651SOL     OW 5851   0.911   0.507   0.176
 1651SOL    HW1 5852   0.905   0.575   0.249
 1651SOL    HW2 5853   1.007   0.485   0.159
 1652SOL     OW 5854   2.941   2.586   1.712
 1652SOL    HW1 5855   2.939   2.529   1.794
 1652SOL    HW2 5856   2.990   2.539   1.639
 1653SOL     OW 5857   0.010   5.170   0.918
 1653SOL    HW1 5858   6.945   5.210   0.896
 1653SOL    HW2 5859   0.058   5.230   0.983
 1654SOL     OW 5860   6.734   3.333   3.043
 1654SOL    HW1 5861   6.773   3.425   3.035
 1654SOL    HW2 5862   6.744   3.284   2.956
 1655SOL     OW 5863   5.243   4.011   6.665
 1655SOL    HW1 5864   5.330   3.980   6.626
 1655SOL    HW2 5865   5.228   4.107   6.641
 1656SOL     OW 5866   1.336   5.064   3.750
 1656SOL    HW1 5867   1.373   4.978   3.713
 1656SOL    HW2 5868   1.320   5.054   3.848
 1657SOL     OW 5869   1.130   0.566   4.856
 1657SOL    HW1 5870   1.057   0.609   4.804
 1657SOL    HW2 5871   1.122   0.467   4.848
 1658SOL     OW 5872   6.070   5.809   3.023
 1658SOL    HW1 5873   6.071   5.805   2.923
 1658SOL    HW2 5874   6.109   5.726   3.061
 1659SOL     OW 5875   3.500   2.234   6.408
 1659SOL    HW1 5876   3.550   2.221   6.494
 1659SOL    HW2 5877   3.435   2.159   6.395
 1660SOL     OW 5878   1.585   6.080   3.711
 1660SOL    HW1 5879   1.625   6.033   3.789
 1660SOL    HW2 5880   1.597   6.025   3.628
 1661SOL     OW 5881   3.327   1.134   2.192
 1661SOL    HW1 5882   3.284   1.197   2.258
 1661SOL    HW2 5883   3.258   1.069   2.160
 1662SOL     OW 5884   0.025   1.168   2.987
 1662SOL    HW1 5885   0.040   1.252   3.039
 1662SOL    HW2 5886   0.051   1.089   3.044
 1663SOL     OW 5887   3.238   0.271   2.904
 1663SOL    HW1 5888   3.242   0.217   2.821
 1663SOL    HW2 5889   3.313   0.244   2.965
 1664SOL     OW 5890   1.812   6.173   4.438
 1664SOL    HW1 5891   1.737   6.238   4.440
 1664SOL    HW2 5892   1.791   6.101   4.371
 1665SOL     OW 5893   0.334   0.961   2.880
 1665SOL    HW1 5894   0.425   0.940   2.914
 1665SOL    HW2 5895   0.271   0.970   2.957
 1666SOL     OW 5896   5.533   2.699   5.769
 1666SOL    HW1 5897   5.578   2.775   5.722
 1666SOL    HW2 5898   5.526   2.621   5.706
 1667SOL     OW 5899   6.575   6.967   6.325
 1667SOL    HW1 5900   6.651   6.904   6.310
 1667SOL    HW2 5901   6.490   6.926   6.292
 1668SOL     OW 5902   4.055   0.453   4.707
 1668SOL    HW1 5903   4.081   0.538   4.755
 1668SOL    HW2 5904   4.137   0.399   4.690
 1669SOL     OW 5905   5.452   0.171   6.249
 1669SOL    HW1 5906   5.359   0.202   6.268
 1669SOL    HW2 5907   5.467   0.167   6.151
 1670SOL     OW 5908   5.857   4.448   5.443
 1670SOL    HW1 5909   5.919   4.369   5.448
 1670SOL    HW2 5910   5.778   4.424   5.387
 1671SOL     OW 5911   5.061   3.117   0.414
 1671SOL    HW1 5912   5.011   3.082   0.494
 1671SOL    HW2 5913   4.995   3.149   0.346
 1672SOL     OW 5914   2.118   4.789   2.368
 1672SOL    HW1 5915   2.154   4.724   2.435
 1672SOL    HW2 5916   2.019   4.776   2.359
 1673SOL     OW 5917   6.608   3.757   3.974
 1673SOL    HW1 5918   6.699   3.726   3.946
 1673SOL    HW2 5919   6.615   3.847   4.016
 1674SOL     OW 5920   0.569   3.831   0.541
 1674SOL    HW1 5921   0.517   3.762   0.591
 1674SOL    HW2 5922   0.509   3.907   0.517
 1675SOL     OW 5923   4.835   1.471   6.682
 1675SOL    HW1 5924   4.784   1.403   6.628
 1675SOL    HW2 5925   4.772   1.542   6.713
 1676SOL     OW 5926   1.955   0.756   2.974
 1676SOL    HW1 5927   1.863   0.758   3.013
 1676SOL    HW2 5928   2.023   0.763   3.047
 1677SOL     OW 5929   5.916   1.667   5.521
 1677SOL    HW1 5930   5.834   1.692   5.469
 1677SOL    HW2 5931   5.932   1.736   5.592
 1678SOL     OW 5932   5.329   6.437   1.668
 1678SOL    HW1 5933   5.349   6.349   1.711
 1678SOL    HW2 5934   5.353   6.434   1.571
 1679SOL     OW 5935   0.705   3.170   6.165
 1679SOL    HW1 5936   0.620   3.213   6.133
 1679SOL    HW2 5937   0.751   3.232   6.228
 1680SOL     OW 5938   0.412   1.113   4.044
 1680SOL    HW1 5939   0.443   1.023   4.014
 1680SOL    HW2 5940   0.351   1.152   3.974
 1681SOL     OW 5941   6.577   5.621   0.666
 1681SOL    HW1 5942   6.611   5.677   0.742
 1681SOL    HW2 5943   6.478   5.612   0.673
 1682SOL     OW 5944   6.632   3.340   5.304
 1682SOL    HW1 5945   6.536   3.321   5.285
 1682SOL    HW2 5946   6.649   3.438   5.298
 1683SOL     OW 5947   5.031   6.614   1.429
 1683SOL    HW1 5948   5.086   6.674   1.487
 1683SOL    HW2 5949   4.979   6.669   1.363
 1684SOL     OW 5950   0.367   6.651   5.439
 1684SOL    HW1 5951   0.300   6.666   5.512
 1684SOL    HW2 5952   0.418   6.736   5.424
 1685SOL     OW 5953   1.558   1.262   0.334
 1685SOL    HW1 5954   1.646   1.309   0.331
 1685SOL    HW2 5955   1.514   1.268   0.245
 1686SOL     OW 5956   1.186   6.133   5.737
 1686SOL    HW1 5957   1.198   6.048   5.686
 1686SOL    HW2 5958   1.099   6.176   5.712
 1687SOL     OW 5959   1.685   5.049   2.248
 1687SOL    HW1 5960   1.611   5.115   2.260
 1687SOL    HW2 5961   1.664   4.988   2.172
 1688SOL     OW 5962   1.800   2.010   2.970
 1688SOL    HW1 5963   1.736   1.978   2.901
 1688SOL    HW2 5964   1.849   1.932   3.009
 1689SOL     OW 5965   2.505   1.181   2.394
 1689SOL    HW1 5966   2.595   1.168   2.354
 1689SOL    HW2 5967   2.435   1.141   2.334
 1690SOL     OW 5968   1.768   1.646   1.794
 1690SOL    HW1 5969   1.829   1.597   1.857
 1690SOL    HW2 5970   1.750   1.737   1.830
 1691SOL     OW 5971   5.031   3.580   3.102
 1691SOL    HW1 5972   4.984   3.654   3.053
 1691SOL    HW2 5973   4.964   3.513   3.134
 1692SOL     OW 5974   0.985   0.015   2.097
 1692SOL    HW1 5975   0.991   0.099   2.151
 1692SOL    HW2 5976   0.997   0.036   2.000
 1693SOL     OW 5977   2.668   2.278   3.451
 1693SOL    HW1 5978   2.715   2.202   3.495
 1693SOL    HW2 5979   2.672   2.359   3.510
 1694SOL     OW 5980   4.555   5.965   5.510
 1694SOL    HW1 5981   4.512   5.991   5.597
 1694SOL    HW2 5982   4.650   5.997   5.510
 1695SOL     OW 5983   2.894   2.627   5.418
 1695SOL    HW1 5984   2.912   2.721   5.390
 1695SOL    HW2 5985   2.973   2.591   5.467
 1696SOL     OW 5986   5.143   5.502   0.480
 1696SOL    HW1 5987   5.074   5.460   0.538
 1696SOL    HW2 5988   5.228   5.450   0.486
 1697SOL     OW 5989   1.459   0.869   1.276
 1697SOL    HW1 5990   1.482   0.966   1.264
 1697SOL    HW2 5991   1.390   0.843   1.209
 1698SOL     OW 5992   4.595   2.258   1.424
 1698SOL    HW1 5993   4.639   2.267   1.335
 1698SOL    HW2 5994   4.565   2.164   1.437
 1699SOL     OW 5995   2.432   3.320   1.065
 1699SOL    HW1 5996   2.414   3.242   1.125
 1699SOL    HW2 5997   2.458   3.287   0.975
 1700SOL     OW 5998   0.056   2.743   2.829
 1700SOL    HW1 5999   0.025   2.735   2.924
 1700SOL    HW2 6000   0.033   2.834   2.794
 1701SOL     OW 6001   6.453   3.175   3.851
 1701SOL    HW1 6002   6.388   3.251   3.857
 1701SOL    HW2 6003   6.532   3.195   3.909
 1702SOL     OW 6004   5.633   3.901   1.366
 1702SOL    HW1 6005   5.546   3.882   1.322
 1702SOL    HW2 6006   5.648   3.836   1.441
 1703SOL     OW 6007   1.799   3.797   0.591
 1703SOL    HW1 6008   1.885   3.841   0.617
 1703SOL    HW2 6009   1.795   3.705   0.632
 1704SOL     OW 6010   0.314   0.108   1.562
 1704SOL    HW1 6011   0.245   0.089   1.631
 1704SOL    HW2 6012   0.367   0.189   1.589
 1705SOL     OW 6013   4.133   3.074   1.822
 1705SOL    HW1 6014   4.066   3.060   1.894
 1705SOL    HW2 6015   4.224   3.053   1.856
 1706SOL     OW 6016   3.497   0.617   0.826
 1706SOL    HW1 6017   3.429   0.559   0.871
 1706SOL    HW2 6018   3.560   0.653   0.895
 1707SOL     OW 6019   5.795   2.239   2.879
 1707SOL    HW1 6020   5.748   2.289   2.952
 1707SOL    HW2 6021   5.883   2.205   2.913
 1708SOL     OW 6022   6.540   6.128   2.845
 1708SOL    HW1 6023   6.533   6.078   2.931
 1708SOL    HW2 6024   6.604   6.205   2.856
 1709SOL     OW 6025   3.616   6.201   2.538
 1709SOL    HW1 6026   3.636   6.266   2.612
 1709SOL    HW2 6027   3.611   6.109   2.576
 1710SOL     OW 6028   0.342   5.013   4.082
 1710SOL    HW1 6029   0.378   5.034   4.173
 1710SOL    HW2 6030   0.322   5.098   4.034
 1711SOL     OW 6031   0.963   4.249   5.556
 1711SOL    HW1 6032   0.897   4.196   5.503
 1711SOL    HW2 6033   0.983   4.202   5.642
 1712SOL     OW 6034   6.911   4.167   0.359
 1712SOL    HW1 6035   6.848   4.116   0.301
 1712SOL    HW2 6036   6.931   4.256   0.317
 1713SOL     OW 6037   1.293   2.684   1.531
 1713SOL    HW1 6038   1.342   2.699   1.446
 1713SOL    HW2 6039   1.298   2.766   1.588
 1714SOL     OW 6040   3.703   2.020   0.356
 1714SOL    HW1 6041   3.710   2.042   0.453
 1714SOL    HW2 6042   3.607   2.014   0.329
 1715SOL     OW 6043   0.450   3.339   2.891
 1715SOL    HW1 6044   0.538   3.378   2.916
 1715SOL    HW2 6045   0.460   3.241   2.875
 1716SOL     OW 6046   0.361   6.470   0.041
 1716SOL    HW1 6047   0.290   6.403   0.059
 1716SOL    HW2 6048   0.385   6.468   6.968
 1717SOL     OW 6049   2.728   6.949   0.070
 1717SOL    HW1 6050   2.642   6.981   0.028
 1717SOL    HW2 6051   2.756   6.863   0.025
 1718SOL     OW 6052   2.055   4.330   0.413
 1718SOL    HW1 6053   2.110   4.267   0.358
 1718SOL    HW2 6054   1.969   4.348   0.366
 1719SOL     OW 6055   1.965   3.395   1.512
 1719SOL    HW1 6056   2.031   3.327   1.544
 1719SOL    HW2 6057   1.922   3.362   1.428
 1720SOL     OW 6058   6.554   1.348   0.251
 1720SOL    HW1 6059   6.631   1.406   0.279
 1720SOL    HW2 6060   6.561   1.259   0.296
 1721SOL     OW 6061   1.783   6.645   3.279
 1721SOL    HW1 6062   1.783   6.599   3.368
 1721SOL    HW2 6063   1.864   6.616   3.227
 1722SOL     OW 6064   5.748   0.229   2.031
 1722SOL    HW1 6065   5.832   0.195   1.990
 1722SOL    HW2 6066   5.766   0.316   2.077
 1723SOL     OW 6067   6.774   1.845   2.790
 1723SOL    HW1 6068   6.847   1.836   2.857
 1723SOL    HW2 6069   6.794   1.922   2.729
 1724SOL     OW 6070   4.660   0.964   0.296
 1724SOL    HW1 6071   4.752   0.983   0.332
 1724SOL    HW2 6072   4.642   1.024   0.218
 1725SOL     OW 6073   3.521   4.577   1.370
 1725SOL    HW1 6074   3.588   4.558   1.441
 1725SOL    HW2 6075   3.447   4.633   1.407
 1726SOL     OW 6076   0.262   4.121   4.611
 1726SOL    HW1 6077   0.237   4.217   4.621
 1726SOL    HW2 6078   0.353   4.106   4.651
 1727SOL     OW 6079   3.981   3.354   5.087
 1727SOL    HW1 6080   3.891   3.392   5.062
 1727SOL    HW2 6081   4.045   3.430   5.104
 1728SOL     OW 6082   4.477   4.700   4.012
 1728SOL    HW1 6083   4.558   4.755   4.031
 1728SOL    HW2 6084   4.503   4.604   4.005
 1729SOL     OW 6085   1.025   3.499   2.992
 1729SOL    HW1 6086   1.052   3.595   2.981
 1729SOL    HW2 6087   0.960   3.474   2.920
 1730SOL     OW 6088   6.632   2.332   4.880
 1730SOL    HW1 6089   6.660   2.334   4.784
 1730SOL    HW2 6090   6.601   2.240   4.904
 1731SOL     OW 6091   2.113   4.988   1.025
 1731SOL    HW1 6092   2.100   5.081   0.991
 1731SOL    HW2 6093   2.140   4.991   1.121
 1732SOL     OW 6094   1.533   4.498   0.248
 1732SOL    HW1 6095   1.523   4.399   0.238
 1732SOL    HW2 6096   1.481   4.529   0.328
 1733SOL     OW 6097   1.264   3.733   1.518
 1733SOL    HW1 6098   1.245   3.649   1.569
 1733SOL    HW2 6099   1.182   3.789   1.513
 1734SOL     OW 6100   3.991   2.780   1.008
 1734SOL    HW1 6101   4.058   2.854   1.003
 1734SOL    HW2 6102   4.017   2.706   0.946
 1735SOL     OW 6103   5.867   5.273   1.274
 1735SOL    HW1 6104   5.890   5.181   1.307
 1735SOL    HW2 6105   5.938   5.337   1.302
 1736SOL     OW 6106   3.267   3.455   0.297
 1736SOL    HW1 6107   3.275   3.447   0.198
 1736SOL    HW2 6108   3.252   3.365   0.337
 1737SOL     OW 6109   2.440   0.087   3.922
 1737SOL    HW1 6110   2.374   0.012   3.930
 1737SOL    HW2 6111   2.480   0.106   4.011
 1738SOL     OW 6112   2.111   3.073   2.490
 1738SOL    HW1 6113   2.164   2.989   2.483
 1738SOL    HW2 6114   2.137   3.136   2.417
 1739SOL     OW 6115   4.438   2.273   5.104
 1739SOL    HW1 6116   4.526   2.232   5.125
 1739SOL    HW2 6117   4.434   2.366   5.143
 1740SOL     OW 6118   0.127   0.826   6.005
 1740SOL    HW1 6119   0.070   0.878   6.069
 1740SOL    HW2 6120   0.223   0.834   6.031
 1741SOL     OW 6121   1.676   0.608   2.787
 1741SOL    HW1 6122   1.651   0.594   2.691
 1741SOL    HW2 6123   1.770   0.641   2.792
 1742SOL     OW 6124   6.061   0.432   4.608
 1742SOL    HW1 6125   6.093   0.522   4.635
 1742SOL    HW2 6126   6.112   0.401   4.528
 1743SOL     OW 6127   3.266   0.971   1.373
 1743SOL    HW1 6128   3.334   1.044   1.376
 1743SOL    HW2 6129   3.197   0.992   1.303
 1744SOL     OW 6130   2.469   0.968   1.751
 1744SOL    HW1 6131   2.373   0.971   1.779
 1744SOL    HW2 6132   2.510   0.883   1.783
 1745SOL     OW 6133   6.528   2.026   2.825
 1745SOL    HW1 6134   6.521   1.994   2.920
 1745SOL    HW2 6135   6.625   2.038   2.801
 1746SOL     OW 6136   2.699   0.474   6.210
 1746SOL    HW1 6137   2.648   0.390   6.192
 1746SOL    HW2 6138   2.639   0.540   6.257
 1747SOL     OW 6139   3.717   0.373   1.576
 1747SOL    HW1 6140   3.740   0.296   1.636
 1747SOL    HW2 6141   3.723   0.458   1.628
 1748SOL     OW 6142   5.932   1.660   3.880
 1748SOL    HW1 6143   5.926   1.696   3.973
 1748SOL    HW2 6144   6.024   1.674   3.844
 1749SOL     OW 6145   4.573   0.036   6.712
 1749SOL    HW1 6146   4.526   6.973   6.729
 1749SOL    HW2 6147   4.644   0.050   6.781
 1750SOL     OW 6148   4.948   1.623   2.304
 1750SOL    HW1 6149   5.023   1.600   2.366
 1750SOL    HW2 6150   4.888   1.691   2.347
 1751SOL     OW 6151   1.768   5.122   4.647
 1751SOL    HW1 6152   1.702   5.120   4.572
 1751SOL    HW2 6153   1.742   5.194   4.711
 1752SOL     OW 6154   6.639   1.703   0.744
 1752SOL    HW1 6155   6.561   1.657   0.787
 1752SOL    HW2 6156   6.619   1.721   0.648
 1753SOL     OW 6157   0.613   6.535   0.989
 1753SOL    HW1 6158   0.546   6.544   0.915
 1753SOL    HW2 6159   0.687   6.475   0.960
 1754SOL     OW 6160   3.429   3.180   1.194
 1754SOL    HW1 6161   3.402   3.276   1.206
 1754SOL    HW2 6162   3.405   3.150   1.102
 1755SOL     OW 6163   5.374   4.928   1.413
 1755SOL    HW1 6164   5.446   4.979   1.367
 1755SOL    HW2 6165   5.289   4.981   1.413
 1756SOL     OW 6166   6.462   5.394   3.859
 1756SOL    HW1 6167   6.393   5.461   3.833
 1756SOL    HW2 6168   6.418   5.306   3.875
 1757SOL     OW 6169   2.795   6.610   4.191
 1757SOL    HW1 6170   2.779   6.590   4.287
 1757SOL    HW2 6171   2.887   6.650   4.180
 1758SOL     OW 6172   2.434   0.550   3.701
 1758SOL    HW1 6173   2.380   0.567   3.619
 1758SOL    HW2 6174   2.531   0.546   3.678
 1759SOL     OW 6175   6.967   5.250   5.938
 1759SOL    HW1 6176   7.007   5.327   5.889
 1759SOL    HW2 6177   6.875   5.275   5.970
 1760SOL     OW 6178   6.129   1.129   1.295
 1760SOL    HW1 6179   6.102   1.121   1.391
 1760SOL    HW2 6180   6.078   1.062   1.241
 1761SOL     OW 6181   5.981   0.982   1.106
 1761SOL    HW1 6182   6.038   0.901   1.117
 1761SOL    HW2 6183   6.023   1.042   1.038
 1762SOL     OW 6184   6.287   2.134   6.117
 1762SOL    HW1 6185   6.246   2.223   6.135
 1762SOL    HW2 6186   6.383   2.135   6.143
 1763SOL     OW 6187   1.665   3.812   4.442
 1763SOL    HW1 6188   1.591   3.781   4.502
 1763SOL    HW2 6189   1.752   3.776   4.477
 1764SOL     OW 6190   0.947   2.880   3.365
 1764SOL    HW1 6191   0.897   2.924   3.290
 1764SOL    HW2 6192   0.989   2.795   3.332
 1765SOL     OW 6193   2.404   1.420   6.974
 1765SOL    HW1 6194   2.424   1.346   6.910
 1765SOL    HW2 6195   2.489   1.453   7.015
 1766SOL     OW 6196   5.732   3.296   5.102
 1766SOL    HW1 6197   5.798   3.225   5.076
 1766SOL    HW2 6198   5.663   3.305   5.030
 1767SOL     OW 6199   5.496   3.909   2.136
 1767SOL    HW1 6200   5.560   3.908   2.214
 1767SOL    HW2 6201   5.434   3.831   2.144
 1768SOL     OW 6202   4.280   6.660   3.408
 1768SOL    HW1 6203   4.256   6.657   3.505
 1768SOL    HW2 6204   4.324   6.748   3.388
 1769SOL     OW 6205   3.586   1.829   3.399
 1769SOL    HW1 6206   3.642   1.887   3.459
 1769SOL    HW2 6207   3.586   1.736   3.435
 1770SOL     OW 6208   2.009   5.876   5.431
 1770SOL    HW1 6209   2.037   5.783   5.407
 1770SOL    HW2 6210   2.079   5.941   5.400
 1771SOL     OW 6211   3.172   6.314   6.958
 1771SOL    HW1 6212   3.224   6.260   7.024
 1771SOL    HW2 6213   3.126   6.389   7.005
 1772SOL     OW 6214   3.198   6.853   3.105
 1772SOL    HW1 6215   3.226   6.821   3.196
 1772SOL    HW2 6216   3.187   6.953   3.107
 1773SOL     OW 6217   2.147   5.102   6.319
 1773SOL    HW1 6218   2.053   5.094   6.285
 1773SOL    HW2 6219   2.187   5.188   6.288
 1774SOL     OW 6220   4.294   5.238   1.502
 1774SOL    HW1 6221   4.338   5.305   1.562
 1774SOL    HW2 6222   4.346   5.231   1.416
 1775SOL     OW 6223   1.302   3.747   2.154
 1775SOL    HW1 6224   1.350   3.751   2.242
 1775SOL    HW2 6225   1.354   3.798   2.085
 1776SOL     OW 6226   4.062   6.204   4.014
 1776SOL    HW1 6227   3.995   6.145   4.060
 1776SOL    HW2 6228   4.035   6.215   3.918
 1777SOL     OW 6229   4.081   6.188   0.104
 1777SOL    HW1 6230   4.153   6.119   0.110
 1777SOL    HW2 6231   4.087   6.235   0.016
 1778SOL     OW 6232   4.361   3.367   5.910
 1778SOL    HW1 6233   4.327   3.282   5.871
 1778SOL    HW2 6234   4.445   3.394   5.863
 1779SOL     OW 6235   3.634   0.702   5.360
 1779SOL    HW1 6236   3.681   0.776   5.407
 1779SOL    HW2 6237   3.696   0.661   5.293
 1780SOL     OW 6238   3.447   3.130   6.056
 1780SOL    HW1 6239   3.464   3.162   6.150
 1780SOL    HW2 6240   3.528   3.083   6.022
 1781SOL     OW 6241   3.921   6.372   3.272
 1781SOL    HW1 6242   4.007   6.400   3.230
 1781SOL    HW2 6243   3.850   6.368   3.202
 1782SOL     OW 6244   3.255   1.290   3.132
 1782SOL    HW1 6245   3.278   1.194   3.116
 1782SOL    HW2 6246   3.159   1.297   3.158
 1783SOL     OW 6247   2.560   5.036   6.512
 1783SOL    HW1 6248   2.488   5.070   6.572
 1783SOL    HW2 6249   2.611   4.963   6.559
 1784SOL     OW 6250   3.771   0.331   5.850
 1784SOL    HW1 6251   3.779   0.368   5.942
 1784SOL    HW2 6252   3.678   0.296   5.835
 1785SOL     OW 6253   6.599   3.838   2.375
 1785SOL    HW1 6254   6.564   3.887   2.295
 1785SOL    HW2 6255   6.674   3.778   2.347
 1786SOL     OW 6256   2.346   2.486   6.975
 1786SOL    HW1 6257   2.391   2.403   7.009
 1786SOL    HW2 6258   2.403   2.566   6.994
 1787SOL     OW 6259   3.024   1.428   5.808
 1787SOL    HW1 6260   2.989   1.341   5.845
 1787SOL    HW2 6261   3.122   1.433   5.823
 1788SOL     OW 6262   1.784   4.781   6.233
 1788SOL    HW1 6263   1.772   4.729   6.148
 1788SOL    HW2 6264   1.793   4.878   6.213
 1789SOL     OW 6265   5.361   2.366   0.945
 1789SOL    HW1 6266   5.447   2.316   0.948
 1789SOL    HW2 6267   5.299   2.324   0.878
 1790SOL     OW 6268   3.599   6.694   3.310
 1790SOL    HW1 6269   3.599   6.695   3.210
 1790SOL    HW2 6270   3.515   6.650   3.342
 1791SOL     OW 6271   6.785   0.342   2.291
 1791SOL    HW1 6272   6.847   0.319   2.365
 1791SOL    HW2 6273   6.690   0.334   2.323
 1792SOL     OW 6274   0.068   3.834   5.143
 1792SOL    HW1 6275   0.152   3.869   5.102
 1792SOL    HW2 6276   0.059   3.870   5.236
 1793SOL     OW 6277   6.639   0.676   4.047
 1793SOL    HW1 6278   6.707   0.607   4.072
 1793SOL    HW2 6279   6.679   0.767   4.058
 1794SOL     OW 6280   5.144   5.890   5.640
 1794SOL    HW1 6281   5.060   5.886   5.586
 1794SOL    HW2 6282   5.180   5.983   5.640
 1795SOL     OW 6283   0.314   2.809   0.850
 1795SOL    HW1 6284   0.263   2.730   0.815
 1795SOL    HW2 6285   0.350   2.862   0.774
 1796SOL     OW 6286   3.170   0.876   6.179
 1796SOL    HW1 6287   3.208   0.833   6.097
 1796SOL    HW2 6288   3.144   0.971   6.158
 1797SOL     OW 6289   0.920   0.298   0.395
 1797SOL    HW1 6290   0.865   0.369   0.352
 1797SOL    HW2 6291   0.871   0.262   0.474
 1798SOL     OW 6292   4.542   2.531   4.232
 1798SOL    HW1 6293   4.479   2.472   4.282
 1798SOL    HW2 6294   4.636   2.511   4.261
 1799SOL     OW 6295   0.087   2.707   4.597
 1799SOL    HW1 6296   0.030   2.695   4.678
 1799SOL    HW2 6297   0.153   2.780   4.614
 1800SOL     OW 6298   4.373   4.263   1.540
 1800SOL    HW1 6299   4.368   4.265   1.640
 1800SOL    HW2 6300   4.418   4.179   1.510
 1801SOL     OW 6301   0.094   0.714   1.972
 1801SOL    HW1 6302   0.181   0.760   1.984
 1801SOL    HW2 6303   0.084   0.641   2.040
 1802SOL     OW 6304   5.991   5.960   3.903
 1802SOL    HW1 6305   5.900   5.989   3.872
 1802SOL    HW2 6306   6.059   5.990   3.837
 1803SOL     OW 6307   0.610   5.112   6.760
 1803SOL    HW1 6308   0.672   5.038   6.732
 1803SOL    HW2 6309   0.569   5.089   6.848
 1804SOL     OW 6310   2.357   4.051   5.369
 1804SOL    HW1 6311   2.430   4.011   5.423
 1804SOL    HW2 6312   2.363   4.020   5.275
 1805SOL     OW 6313   4.696   3.535   6.375
 1805SOL    HW1 6314   4.745   3.531   6.462
 1805SOL    HW2 6315   4.727   3.460   6.316
 1806SOL     OW 6316   0.551   0.574   0.550
 1806SOL    HW1 6317   0.456   0.604   0.564
 1806SOL    HW2 6318   0.558   0.523   0.464
 1807SOL     OW 6319   5.800   2.731   4.852
 1807SOL    HW1 6320   5.853   2.681   4.920
 1807SOL    HW2 6321   5.749   2.667   4.795
 1808SOL     OW 6322   0.036   5.207   5.182
 1808SOL    HW1 6323   0.103   5.240   5.116
 1808SOL    HW2 6324   0.049   5.108   5.196
 1809SOL     OW 6325   2.639   1.848   5.761
 1809SOL    HW1 6326   2.666   1.942   5.777
 1809SOL    HW2 6327   2.716   1.796   5.723
 1810SOL     OW 6328   3.204   6.864   3.749
 1810SOL    HW1 6329   3.171   6.889   3.658
 1810SOL    HW2 6330   3.301   6.839   3.743
 1811SOL     OW 6331   5.671   6.027   3.484
 1811SOL    HW1 6332   5.612   6.039   3.404
 1811SOL    HW2 6333   5.696   5.930   3.492
 1812SOL     OW 6334   4.191   6.179   5.322
 1812SOL    HW1 6335   4.276   6.193   5.271
 1812SOL    HW2 6336   4.119   6.151   5.258
 1813SOL     OW 6337   5.291   3.808   0.552
 1813SOL    HW1 6338   5.211   3.749   0.549
 1813SOL    HW2 6339   5.363   3.764   0.607
 1814SOL     OW 6340   4.733   6.599   1.906
 1814SOL    HW1 6341   4.774   6.567   1.991
 1814SOL    HW2 6342   4.796   6.662   1.860
 1815SOL     OW 6343   0.498   1.531   2.682
 1815SOL    HW1 6344   0.524   1.614   2.732
 1815SOL    HW2 6345   0.502   1.452   2.744
 1816SOL     OW 6346   2.276   2.853   1.059
 1816SOL    HW1 6347   2.319   2.854   0.969
 1816SOL    HW2 6348   2.177   2.842   1.048
 1817SOL     OW 6349   1.984   6.654   2.175
 1817SOL    HW1 6350   2.004   6.746   2.139
 1817SOL    HW2 6351   1.984   6.657   2.275
 1818SOL     OW 6352   1.556   0.305   3.293
 1818SOL    HW1 6353   1.534   0.210   3.271
 1818SOL    HW2 6354   1.597   0.309   3.384
 1819SOL     OW 6355   1.338   4.245   1.461
 1819SOL    HW1 6356   1.410   4.304   1.497
 1819SOL    HW2 6357   1.356   4.227   1.364
 1820SOL     OW 6358   4.687   1.459   2.643
 1820SOL    HW1 6359   4.703   1.552   2.676
 1820SOL    HW2 6360   4.618   1.461   2.570
 1821SOL     OW 6361   1.978   1.119   3.014
 1821SOL    HW1 6362   1.961   1.079   3.104
 1821SOL    HW2 6363   2.026   1.052   2.957
 1822SOL     OW 6364   3.536   2.743   1.884
 1822SOL    HW1 6365   3.486   2.713   1.803
 1822SOL    HW2 6366   3.474   2.751   1.962
 1823SOL     OW 6367   4.007   6.331   2.637
 1823SOL    HW1 6368   4.063   6.375   2.567
 1823SOL    HW2 6369   4.001   6.233   2.617
 1824SOL     OW 6370   3.896   2.318   1.494
 1824SOL    HW1 6371   3.909   2.349   1.400
 1824SOL    HW2 6372   3.942   2.382   1.556
 1825SOL     OW 6373   1.245   0.516   1.543
 1825SOL    HW1 6374   1.310   0.590   1.528
 1825SOL    HW2 6375   1.204   0.488   1.456
 1826SOL     OW 6376   2.801   1.303   1.275
 1826SOL    HW1 6377   2.869   1.244   1.231
 1826SOL    HW2 6378   2.777   1.377   1.213
 1827SOL     OW 6379   0.113   5.448   1.935
 1827SOL    HW1 6380   0.207   5.421   1.916
 1827SOL    HW2 6381   0.100   5.458   2.033
 1828SOL     OW 6382   1.151   3.175   0.312
 1828SOL    HW1 6383   1.074   3.148   0.369
 1828SOL    HW2 6384   1.214   3.098   0.301
 1829SOL     OW 6385   5.053   6.423   3.020
 1829SOL    HW1 6386   5.033   6.385   2.930
 1829SOL    HW2 6387   4.969   6.452   3.064
 1830SOL     OW 6388   4.094   6.885   3.727
 1830SOL    HW1 6389   4.130   6.792   3.727
 1830SOL    HW2 6390   4.036   6.899   3.646
 1831SOL     OW 6391   5.754   6.611   2.164
 1831SOL    HW1 6392   5.819   6.688   2.166
 1831SOL    HW2 6393   5.722   6.593   2.257
 1832SOL     OW 6394   4.379   2.747   1.684
 1832SOL    HW1 6395   4.420   2.658   1.666
 1832SOL    HW2 6396   4.336   2.782   1.601
 1833SOL     OW 6397   4.917   0.712   4.646
 1833SOL    HW1 6398   4.819   0.730   4.646
 1833SOL    HW2 6399   4.944   0.669   4.732
 1834SOL     OW 6400   2.996   3.892   0.695
 1834SOL    HW1 6401   3.023   3.988   0.684
 1834SOL    HW2 6402   2.906   3.887   0.738
 1835SOL     OW 6403   2.134   5.033   1.310
 1835SOL    HW1 6404   2.203   5.067   1.374
 1835SOL    HW2 6405   2.108   4.940   1.336
 1836SOL     OW 6406   0.096   1.051   0.390
 1836SOL    HW1 6407   0.097   0.953   0.412
 1836SOL    HW2 6408   0.142   1.066   0.302
 1837SOL     OW 6409   0.912   1.970   4.014
 1837SOL    HW1 6410   0.970   1.905   3.965
 1837SOL    HW2 6411   0.952   2.062   4.006
 1838SOL     OW 6412   0.298   2.442   4.266
 1838SOL    HW1 6413   0.247   2.524   4.240
 1838SOL    HW2 6414   0.235   2.373   4.301
 1839SOL     OW 6415   6.142   3.450   4.643
 1839SOL    HW1 6416   6.156   3.549   4.636
 1839SOL    HW2 6417   6.062   3.432   4.701
 1840SOL     OW 6418   2.933   5.692   0.956
 1840SOL    HW1 6419   2.944   5.647   1.045
 1840SOL    HW2 6420   2.840   5.677   0.922
 1841SOL     OW 6421   2.154   3.408   4.244
 1841SOL    HW1 6422   2.173   3.419   4.146
 1841SOL    HW2 6423   2.130   3.496   4.283
 1842SOL     OW 6424   0.571   4.891   0.743
 1842SOL    HW1 6425   0.484   4.845   0.762
 1842SOL    HW2 6426   0.568   4.985   0.777
 1843SOL     OW 6427   2.285   1.530   5.563
 1843SOL    HW1 6428   2.304   1.605   5.627
 1843SOL    HW2 6429   2.255   1.450   5.614
 1844SOL     OW 6430   3.952   2.125   5.030
 1844SOL    HW1 6431   3.986   2.069   4.955
 1844SOL    HW2 6432   3.865   2.089   5.062
 1845SOL     OW 6433   3.249   0.248   6.857
 1845SOL    HW1 6434   3.281   0.263   6.950
 1845SOL    HW2 6435   3.223   0.336   6.817
 1846SOL     OW 6436   4.179   2.262   6.922
 1846SOL    HW1 6437   4.171   2.177   6.870
 1846SOL    HW2 6438   4.103   2.269   6.987
 1847SOL     OW 6439   0.859   6.853   0.823
 1847SOL    HW1 6440   0.919   6.915   0.772
 1847SOL    HW2 6441   0.797   6.907   0.880
 1848SOL     OW 6442   3.248   5.888   2.816
 1848SOL    HW1 6443   3.152   5.861   2.808
 1848SOL    HW2 6444   3.306   5.818   2.774
 1849SOL     OW 6445   3.790   0.683   0.414
 1849SOL    HW1 6446   3.885   0.662   0.436
 1849SOL    HW2 6447   3.730   0.646   0.486
 1850SOL     OW 6448   6.162   1.925   2.915
 1850SOL    HW1 6449   6.093   1.878   2.861
 1850SOL    HW2 6450   6.188   1.868   2.993
 1851SOL     OW 6451   0.461   1.248   2.044
 1851SOL    HW1 6452   0.441   1.341   2.075
 1851SOL    HW2 6453   0.379   1.192   2.054
 1852SOL     OW 6454   3.915   3.499   0.018
 1852SOL    HW1 6455   3.815   3.493   0.020
 1852SOL    HW2 6456   3.953   3.408   7.022
 1853SOL     OW 6457   1.346   3.891   1.311
 1853SOL    HW1 6458   1.283   3.968   1.320
 1853SOL    HW2 6459   1.328   3.824   1.383
 1854SOL     OW 6460   2.999   5.940   4.156
 1854SOL    HW1 6461   2.966   5.933   4.061
 1854SOL    HW2 6462   3.099   5.943   4.156
 1855SOL     OW 6463   5.014   5.181   0.576
 1855SOL    HW1 6464   5.012   5.267   0.628
 1855SOL    HW2 6465   5.002   5.104   0.639
 1856SOL     OW 6466   5.373   2.748   5.284
 1856SOL    HW1 6467   5.461   2.706   5.307
 1856SOL    HW2 6468   5.383   2.800   5.199
 1857SOL     OW 6469   3.897   0.809   4.675
 1857SOL    HW1 6470   3.915   0.801   4.577
 1857SOL    HW2 6471   3.819   0.870   4.690
 1858SOL     OW 6472   5.410   3.220   4.118
 1858SOL    HW1 6473   5.445   3.152   4.054
 1858SOL    HW2 6474   5.486   3.275   4.154
 1859SOL     OW 6475   4.466   2.207   3.827
 1859SOL    HW1 6476   4.441   2.286   3.884
 1859SOL    HW2 6477   4.394   2.139   3.830
 1860SOL     OW 6478   6.280   0.919   4.205
 1860SOL    HW1 6479   6.214   0.948   4.135
 1860SOL    HW2 6480   6.363   0.974   4.196
 1861SOL     OW 6481   4.823   6.231   2.511
 1861SOL    HW1 6482   4.723   6.239   2.520
 1861SOL    HW2 6483   4.854   6.146   2.553
 1862SOL     OW 6484   2.080   0.504   6.936
 1862SOL    HW1 6485   2.069   0.598   6.903
 1862SOL    HW2 6486   1.992   0.470   6.967
 1863SOL     OW 6487   2.525   2.518   1.240
 1863SOL    HW1 6488   2.437   2.471   1.239
 1863SOL    HW2 6489   2.571   2.500   1.326
 1864SOL     OW 6490   0.596   6.568   4.409
 1864SOL    HW1 6491   0.651   6.556   4.492
 1864SOL    HW2 6492   0.545   6.484   4.390
 1865SOL     OW 6493   3.844   1.723   5.647
 1865SOL    HW1 6494   3.794   1.770   5.575
 1865SOL    HW2 6495   3.819   1.626   5.647
 1866SOL     OW 6496   4.692   4.498   1.971
 1866SOL    HW1 6497   4.617   4.432   1.980
 1866SOL    HW2 6498   4.656   4.591   1.980
 1867SOL     OW 6499   0.074   4.127   0.059
 1867SOL    HW1 6500   0.130   4.155   0.136
 1867SOL    HW2 6501   7.008   4.170   0.065
 1868SOL     OW 6502   5.401   4.695   6.342
 1868SOL    HW1 6503   5.348   4.769   6.385
 1868SOL    HW2 6504   5.411   4.713   6.245
 1869SOL     OW 6505   6.420   1.811   5.210
 1869SOL    HW1 6506   6.520   1.801   5.209
 1869SOL    HW2 6507   6.396   1.901   5.173
 1870SOL     OW 6508   1.377   4.321   5.811
 1870SOL    HW1 6509   1.470   4.300   5.780
 1870SOL    HW2 6510   1.314   4.316   5.734
 1871SOL     OW 6511   2.363   6.989   0.460
 1871SOL    HW1 6512   2.451   6.964   0.419
 1871SOL    HW2 6513   2.307   0.011   0.391
 1872SOL     OW 6514   2.687   4.599   0.267
 1872SOL    HW1 6515   2.725   4.688   0.290
 1872SOL    HW2 6516   2.601   4.585   0.315
 1873SOL     OW 6517   3.823   1.280   5.774
 1873SOL    HW1 6518   3.800   1.375   5.750
 1873SOL    HW2 6519   3.870   1.237   5.698
 1874SOL     OW 6520   2.016   1.885   1.858
 1874SOL    HW1 6521   1.920   1.897   1.884
 1874SOL    HW2 6522   2.025   1.891   1.758
 1875SOL     OW 6523   0.507   0.088   6.240
 1875SOL    HW1 6524   0.535   0.011   6.298
 1875SOL    HW2 6525   0.498   0.056   6.145
 1876SOL     OW 6526   2.936   0.058   4.468
 1876SOL    HW1 6527   2.898   6.996   4.434
 1876SOL    HW2 6528   2.869   0.131   4.456
 1877SOL     OW 6529   0.891   0.106   4.039
 1877SOL    HW1 6530   0.804   0.152   4.020
 1877SOL    HW2 6531   0.923   0.061   3.956
 1878SOL     OW 6532   0.049   1.550   3.793
 1878SOL    HW1 6533   0.070   1.645   3.818
 1878SOL    HW2 6534   6.980   1.528   3.825
 1879SOL     OW 6535   1.012   3.340   4.968
 1879SOL    HW1 6536   0.935   3.296   4.921
 1879SOL    HW2 6537   1.079   3.270   4.992
 1880SOL     OW 6538   6.624   1.906   4.926
 1880SOL    HW1 6539   6.544   1.965   4.929
 1880SOL    HW2 6540   6.682   1.924   5.006
 1881SOL     OW 6541   6.391   1.630   0.844
 1881SOL    HW1 6542   6.360   1.624   0.749
 1881SOL    HW2 6543   6.327   1.580   0.903
 1882SOL     OW 6544   1.102   3.877   6.342
 1882SOL    HW1 6545   1.161   3.852   6.419
 1882SOL    HW2 6546   1.157   3.918   6.269
 1883SOL     OW 6547   6.455   2.493   2.238
 1883SOL    HW1 6548   6.535   2.449   2.277
 1883SOL    HW2 6549   6.375   2.474   2.296
 1884SOL     OW 6550   0.768   1.722   1.504
 1884SOL    HW1 6551   0.720   1.698   1.588
 1884SOL    HW2 6552   0.706   1.773   1.443
 1885SOL     OW 6553   1.948   1.634   5.692
 1885SOL    HW1 6554   1.970   1.698   5.618
 1885SOL    HW2 6555   2.031   1.586   5.719
 1886SOL     OW 6556   2.255   0.241   2.429
 1886SOL    HW1 6557   2.317   0.170   2.395
 1886SOL    HW2 6558   2.214   0.211   2.515
 1887SOL     OW 6559   1.242   5.553   5.860
 1887SOL    HW1 6560   1.327   5.576   5.908
 1887SOL    HW2 6561   1.172   5.620   5.882
 1888SOL     OW 6562   3.145   2.319   0.602
 1888SOL    HW1 6563   3.161   2.399   0.544
 1888SOL    HW2 6564   3.213   2.249   0.579
 1889SOL     OW 6565   1.090   3.434   4.228
 1889SOL    HW1 6566   1.075   3.431   4.327
 1889SOL    HW2 6567   1.044   3.357   4.185
 1890SOL     OW 6568   0.701   5.958   4.114
 1890SOL    HW1 6569   0.673   5.887   4.050
 1890SOL    HW2 6570   0.720   6.042   4.063
 1891SOL     OW 6571   3.809   3.465   2.104
 1891SOL    HW1 6572   3.767   3.553   2.127
 1891SOL    HW2 6573   3.816   3.410   2.187
 1892SOL     OW 6574   7.016   0.116   2.170
 1892SOL    HW1 6575   0.086   0.140   2.145
 1892SOL    HW2 6576   6.952   0.161   2.108
 1893SOL     OW 6577   3.430   3.186   2.917
 1893SOL    HW1 6578   3.469   3.228   2.998
 1893SOL    HW2 6579   3.501   3.177   2.847
 1894SOL     OW 6580   3.366   3.492   4.206
 1894SOL    HW1 6581   3.322   3.560   4.148
 1894SOL    HW2 6582   3.296   3.444   4.259
 1895SOL     OW 6583   4.427   0.423   0.941
 1895SOL    HW1 6584   4.501   0.421   1.008
 1895SOL    HW2 6585   4.454   0.481   0.864
 1896SOL     OW 6586   5.578   1.756   0.583
 1896SOL    HW1 6587   5.501   1.700   0.613
 1896SOL    HW2 6588   5.662   1.701   0.588
 1897SOL     OW 6589   1.930   5.097   2.831
 1897SOL    HW1 6590   1.839   5.119   2.798
 1897SOL    HW2 6591   1.926   5.076   2.929
 1898SOL     OW 6592   1.566   5.308   3.051
 1898SOL    HW1 6593   1.655   5.354   3.054
 1898SOL    HW2 6594   1.495   5.375   3.024
 1899SOL     OW 6595   0.536   0.292   1.690
 1899SOL    HW1 6596   0.499   0.245   1.770
 1899SOL    HW2 6597   0.622   0.250   1.663
 1900SOL     OW 6598   2.994   0.032   0.074
 1900SOL    HW1 6599   2.970   0.119   0.117
 1900SOL    HW2 6600   2.910   7.006   0.052
 1901SOL     OW 6601   2.515   3.104   1.248
 1901SOL    HW1 6602   2.610   3.112   1.280
 1901SOL    HW2 6603   2.489   3.007   1.246
 1902SOL     OW 6604   2.481   0.071   4.665
 1902SOL    HW1 6605   2.538   7.017   4.641
 1902SOL    HW2 6606   2.535   0.136   4.718
 1903SOL     OW 6607   0.649   2.606   3.721
 1903SOL    HW1 6608   0.686   2.666   3.649
 1903SOL    HW2 6609   0.724   2.559   3.767
 1904SOL     OW 6610   5.546   5.394   2.829
 1904SOL    HW1 6611   5.623   5.457   2.827
 1904SOL    HW2 6612   5.562   5.320   2.764
 1905SOL     OW 6613   0.846   0.719   3.637
 1905SOL    HW1 6614   0.900   0.639   3.611
 1905SOL    HW2 6615   0.826   0.774   3.556
 1906SOL     OW 6616   2.822   0.582   5.875
 1906SOL    HW1 6617   2.772   0.506   5.834
 1906SOL    HW2 6618   2.774   0.613   5.958
 1907SOL     OW 6619   5.232   2.411   0.321
 1907SOL    HW1 6620   5.253   2.508   0.305
 1907SOL    HW2 6621   5.153   2.404   0.382
 1908SOL     OW 6622   4.031   0.206   0.174
 1908SOL    HW1 6623   3.932   0.203   0.159
 1908SOL    HW2 6624   4.078   0.178   0.091
 1909SOL     OW 6625   6.846   4.113   4.725
 1909SOL    HW1 6626   6.803   4.197   4.759
 1909SOL    HW2 6627   6.924   4.090   4.784
 1910SOL     OW 6628   6.331   5.820   6.014
 1910SOL    HW1 6629   6.366   5.914   6.009
 1910SOL    HW2 6630   6.407   5.756   6.000
 1911SOL     OW 6631   0.116   4.871   4.139
 1911SOL    HW1 6632   0.079   4.790   4.093
 1911SOL    HW2 6633   0.191   4.908   4.084
 1912SOL     OW 6634   2.656   4.635   2.884
 1912SOL    HW1 6635   2.702   4.605   2.800
 1912SOL    HW2 6636   2.585   4.702   2.861
 1913SOL     OW 6637   2.440   5.388   4.651
 1913SOL    HW1 6638   2.399   5.395   4.742
 1913SOL    HW2 6639   2.410   5.303   4.608
 1914SOL     OW 6640   3.080   4.114   6.136
 1914SOL    HW1 6641   3.102   4.127   6.039
 1914SOL    HW2 6642   3.025   4.031   6.147
 1915SOL     OW 6643   4.900   2.789   5.811
 1915SOL    HW1 6644   4.870   2.703   5.771
 1915SOL    HW2 6645   4.990   2.814   5.775
 1916SOL     OW 6646   3.612   6.846   2.017
 1916SOL    HW1 6647   3.533   6.884   1.969
 1916SOL    HW2 6648   3.648   6.913   2.081
 1917SOL     OW 6649   2.490   4.478   0.761
 1917SOL    HW1 6650   2.424   4.542   0.801
 1917SOL    HW2 6651   2.577   4.525   0.747
 1918SOL     OW 6652   0.726   1.132   4.710
 1918SOL    HW1 6653   0.636   1.126   4.754
 1918SOL    HW2 6654   0.774   1.046   4.723
 1919SOL     OW 6655   1.288   2.548   1.754
 1919SOL    HW1 6656   1.293   2.453   1.723
 1919SOL    HW2 6657   1.311   2.609   1.678
 1920SOL     OW 6658   5.338   2.318   1.674
 1920SOL    HW1 6659   5.268   2.250   1.696
 1920SOL    HW2 6660   5.294   2.400   1.637
 1921SOL     OW 6661   1.416   3.060   0.053
 1921SOL    HW1 6662   1.471   3.001   7.018
 1921SOL    HW2 6663   1.348   3.005   0.101
 1922SOL     OW 6664   3.397   3.568   2.243
 1922SOL    HW1 6665   3.371   3.485   2.194
 1922SOL    HW2 6666   3.400   3.645   2.179
 1923SOL     OW 6667   4.567   0.337   6.118
 1923SOL    HW1 6668   4.581   0.306   6.024
 1923SOL    HW2 6669   4.517   0.424   6.116
 1924SOL     OW 6670   4.446   6.993   0.935
 1924SOL    HW1 6671   4.370   0.034   0.928
 1924SOL    HW2 6672   4.411   6.900   0.932
 1925SOL     OW 6673   1.274   4.441   0.707
 1925SOL    HW1 6674   1.325   4.355   0.711
 1925SOL    HW2 6675   1.249   4.470   0.799
 1926SOL     OW 6676   4.089   0.159   1.752
 1926SOL    HW1 6677   4.022   0.201   1.814
 1926SOL    HW2 6678   4.181   0.181   1.783
 1927SOL     OW 6679   2.405   4.932   1.127
 1927SOL    HW1 6680   2.377   4.837   1.141
 1927SOL    HW2 6681   2.428   4.973   1.216
 1928SOL     OW 6682   4.627   4.373   3.447
 1928SOL    HW1 6683   4.680   4.446   3.490
 1928SOL    HW2 6684   4.595   4.404   3.358
 1929SOL     OW 6685   2.993   1.123   2.972
 1929SOL    HW1 6686   3.047   1.050   3.014
 1929SOL    HW2 6687   2.899   1.118   3.005
 1930SOL     OW 6688   4.670   3.012   6.742
 1930SOL    HW1 6689   4.764   3.047   6.742
 1930SOL    HW2 6690   4.637   3.004   6.648
 1931SOL     OW 6691   0.821   1.237   5.791
 1931SOL    HW1 6692   0.881   1.159   5.808
 1931SOL    HW2 6693   0.814   1.292   5.875
 1932SOL     OW 6694   4.323   1.986   3.197
 1932SOL    HW1 6695   4.337   2.084   3.188
 1932SOL    HW2 6696   4.235   1.961   3.159
 1933SOL     OW 6697   0.470   1.566   0.391
 1933SOL    HW1 6698   0.370   1.574   0.399
 1933SOL    HW2 6699   0.513   1.600   0.475
 1934SOL     OW 6700   0.113   0.256   5.445
 1934SOL    HW1 6701   0.175   0.334   5.451
 1934SOL    HW2 6702   0.053   0.255   5.525
 1935SOL     OW 6703   5.545   4.581   3.753
 1935SOL    HW1 6704   5.495   4.524   3.818
 1935SOL    HW2 6705   5.567   4.527   3.672
 1936SOL     OW 6706   5.506   3.581   4.837
 1936SOL    HW1 6707   5.451   3.635   4.900
 1936SOL    HW2 6708   5.447   3.540   4.768
 1937SOL     OW 6709   4.771   4.990   6.867
 1937SOL    HW1 6710   4.766   5.016   6.771
 1937SOL    HW2 6711   4.865   4.997   6.899
 1938SOL     OW 6712   1.249   2.591   6.993
 1938SOL    HW1 6713   1.239   2.689   7.007
 1938SOL    HW2 6714   1.201   2.542   0.042
 1939SOL     OW 6715   1.153   6.056   5.316
 1939SOL    HW1 6716   1.205   6.098   5.242
 1939SOL    HW2 6717   1.057   6.083   5.309
 1940SOL     OW 6718   5.940   4.858   1.620
 1940SOL    HW1 6719   5.910   4.802   1.697
 1940SOL    HW2 6720   6.036   4.883   1.632
 1941SOL     OW 6721   0.638   2.966   4.186
 1941SOL    HW1 6722   0.631   2.870   4.214
 1941SOL    HW2 6723   0.590   2.978   4.099
 1942SOL     OW 6724   5.362   3.367   2.243
 1942SOL    HW1 6725   5.325   3.364   2.336
 1942SOL    HW2 6726   5.397   3.276   2.219
 1943SOL     OW 6727   1.381   1.232   1.884
 1943SOL    HW1 6728   1.443   1.274   1.951
 1943SOL    HW2 6729   1.289   1.268   1.897
 1944SOL     OW 6730   0.238   2.976   1.035
 1944SOL    HW1 6731   0.251   2.906   0.965
 1944SOL    HW2 6732   0.144   3.009   1.033
 1945SOL     OW 6733   4.410   6.827   1.138
 1945SOL    HW1 6734   4.436   6.829   1.235
 1945SOL    HW2 6735   4.316   6.859   1.128
 1946SOL     OW 6736   6.568   6.365   1.822
 1946SOL    HW1 6737   6.475   6.333   1.844
 1946SOL    HW2 6738   6.562   6.443   1.760
 1947SOL     OW 6739   5.654   4.140   2.534
 1947SOL    HW1 6740   5.579   4.116   2.597
 1947SOL    HW2 6741   5.728   4.074   2.546
 1948SOL     OW 6742   5.320   3.261   3.162
 1948SOL    HW1 6743   5.289   3.178   3.117
 1948SOL    HW2 6744   5.295   3.341   3.107
 1949SOL     OW 6745   3.498   5.028   6.734
 1949SOL    HW1 6746   3.437   4.995   6.662
 1949SOL    HW2 6747   3.472   5.121   6.760
 1950SOL     OW 6748   3.692   4.094   4.235
 1950SOL    HW1 6749   3.671   3.997   4.242
 1950SOL    HW2 6750   3.707   4.132   4.327
 1951SOL     OW 6751   6.569   5.119   5.699
 1951SOL    HW1 6752   6.474   5.091   5.696
 1951SOL    HW2 6753   6.619   5.061   5.764
 1952SOL     OW 6754   5.490   4.262   0.042
 1952SOL    HW1 6755   5.528   4.213   6.987
 1952SOL    HW2 6756   5.563   4.283   0.107
 1953SOL     OW 6757   1.055   1.441   6.368
 1953SOL    HW1 6758   1.115   1.380   6.318
 1953SOL    HW2 6759   0.960   1.419   6.348
 1954SOL     OW 6760   3.600   0.155   1.930
 1954SOL    HW1 6761   3.584   0.074   1.874
 1954SOL    HW2 6762   3.541   0.229   1.899
 1955SOL     OW 6763   0.914   1.657   1.974
 1955SOL    HW1 6764   0.951   1.616   1.891
 1955SOL    HW2 6765   0.852   1.732   1.950
 1956SOL     OW 6766   6.089   0.812   2.164
 1956SOL    HW1 6767   5.999   0.794   2.123
 1956SOL    HW2 6768   6.079   0.817   2.263
 1957SOL     OW 6769   5.549   2.281   3.794
 1957SOL    HW1 6770   5.565   2.219   3.717
 1957SOL    HW2 6771   5.632   2.335   3.812
 1958SOL     OW 6772   4.565   1.931   0.847
 1958SOL    HW1 6773   4.611   1.934   0.935
 1958SOL    HW2 6774   4.553   1.835   0.819
 1959SOL     OW 6775   0.051   0.055   3.985
 1959SOL    HW1 6776   7.002   0.023   4.046
 1959SOL    HW2 6777   0.127   7.015   3.988
 1960SOL     OW 6778   5.688   3.723   3.214
 1960SOL    HW1 6779   5.762   3.672   3.257
 1960SOL    HW2 6780   5.614   3.660   3.189
 1961SOL     OW 6781   6.721   4.098   4.982
 1961SOL    HW1 6782   6.813   4.115   5.017
 1961SOL    HW2 6783   6.718   4.010   4.935
 1962SOL     OW 6784   1.145   6.966   3.039
 1962SOL    HW1 6785   1.144   6.941   2.942
 1962SOL    HW2 6786   1.061   7.016   3.061
 1963SOL     OW 6787   0.631   2.034   2.225
 1963SOL    HW1 6788   0.576   1.995   2.299
 1963SOL    HW2 6789   0.728   2.021   2.245
 1964SOL     OW 6790   5.272   4.357   1.792
 1964SOL    HW1 6791   5.305   4.277   1.742
 1964SOL    HW2 6792   5.197   4.399   1.741
 1965SOL     OW 6793   0.555   4.172   3.863
 1965SOL    HW1 6794   0.599   4.204   3.947
 1965SOL    HW2 6795   0.573   4.238   3.789
 1966SOL     OW 6796   1.689   4.447   0.497
 1966SOL    HW1 6797   1.598   4.471   0.463
 1966SOL    HW2 6798   1.755   4.454   0.422
 1967SOL     OW 6799   5.843   2.772   3.458
 1967SOL    HW1 6800   5.750   2.776   3.422
 1967SOL    HW2 6801   5.896   2.706   3.404
 1968SOL     OW 6802   2.205   1.517   5.298
 1968SOL    HW1 6803   2.125   1.577   5.291
 1968SOL    HW2 6804   2.252   1.535   5.385
 1969SOL     OW 6805   2.840   6.081   0.626
 1969SOL    HW1 6806   2.868   6.052   0.718
 1969SOL    HW2 6807   2.785   6.164   0.634
 1970SOL     OW 6808   6.541   5.781   5.103
 1970SOL    HW1 6809   6.516   5.840   5.025
 1970SOL    HW2 6810   6.521   5.686   5.080
 1971SOL     OW 6811   1.077   6.356   5.435
 1971SOL    HW1 6812   1.031   6.311   5.511
 1971SOL    HW2 6813   1.120   6.287   5.376
 1972SOL     OW 6814   6.105   2.789   1.865
 1972SOL    HW1 6815   6.023   2.778   1.808
 1972SOL    HW2 6816   6.177   2.728   1.833
 1973SOL     OW 6817   1.947   4.236   0.656
 1973SOL    HW1 6818   1.984   4.259   0.567
 1973SOL    HW2 6819   1.964   4.310   0.721
 1974SOL     OW 6820   3.886   6.074   4.837
 1974SOL    HW1 6821   3.823   6.082   4.760
 1974SOL    HW2 6822   3.970   6.126   4.817
 1975SOL     OW 6823   1.328   2.923   2.919
 1975SOL    HW1 6824   1.372   2.846   2.964
 1975SOL    HW2 6825   1.385   3.004   2.927
 1976SOL     OW 6826   0.290   0.044   5.863
 1976SOL    HW1 6827   0.376   0.015   5.905
 1976SOL    HW2 6828   0.215   7.012   5.899
 1977SOL     OW 6829   2.069   4.178   6.205
 1977SOL    HW1 6830   2.147   4.161   6.265
 1977SOL    HW2 6831   2.038   4.092   6.165
 1978SOL     OW 6832   2.570   0.310   2.223
 1978SOL    HW1 6833   2.524   0.222   2.238
 1978SOL    HW2 6834   2.579   0.358   2.310
 1979SOL     OW 6835   6.384   5.695   6.668
 1979SOL    HW1 6836   6.460   5.760   6.673
 1979SOL    HW2 6837   6.411   5.608   6.710
 1980SOL     OW 6838   2.953   1.658   1.396
 1980SOL    HW1 6839   2.961   1.730   1.327
 1980SOL    HW2 6840   2.867   1.670   1.447
 1981SOL     OW 6841   4.505   2.415   3.312
 1981SOL    HW1 6842   4.512   2.449   3.406
 1981SOL    HW2 6843   4.567   2.338   3.300
 1982SOL     OW 6844   6.650   2.579   4.096
 1982SOL    HW1 6845   6.668   2.491   4.141
 1982SOL    HW2 6846   6.552   2.599   4.100
 1983SOL     OW 6847   0.609   0.254   1.100
 1983SOL    HW1 6848   0.592   0.224   1.194
 1983SOL    HW2 6849   0.546   0.328   1.077
 1984SOL     OW 6850   5.653   3.230   5.677
 1984SOL    HW1 6851   5.632   3.293   5.603
 1984SOL    HW2 6852   5.728   3.169   5.649
 1985SOL     OW 6853   6.495   4.397   1.834
 1985SOL    HW1 6854   6.447   4.322   1.791
 1985SOL    HW2 6855   6.593   4.391   1.814
 1986SOL     OW 6856   3.267   1.884   0.557
 1986SOL    HW1 6857   3.309   1.975   0.546
 1986SOL    HW2 6858   3.326   1.828   0.615
 1987SOL     OW 6859   2.133   0.353   3.022
 1987SOL    HW1 6860   2.209   0.387   3.076
 1987SOL    HW2 6861   2.081   0.286   3.075
 1988SOL     OW 6862   0.112   1.545   1.563
 1988SOL    HW1 6863   0.107   1.484   1.643
 1988SOL    HW2 6864   0.097   1.492   1.480
 1989SOL     OW 6865   3.053   4.931   4.804
 1989SOL    HW1 6866   2.975   4.968   4.855
 1989SOL    HW2 6867   3.021   4.863   4.738
 1990SOL     OW 6868   3.914   0.389   0.515
 1990SOL    HW1 6869   3.974   0.468   0.527
 1990SOL    HW2 6870   3.941   0.316   0.578
 1991SOL     OW 6871   3.410   5.631   0.307
 1991SOL    HW1 6872   3.445   5.613   0.215
 1991SOL    HW2 6873   3.440   5.721   0.338
 1992SOL     OW 6874   0.733   5.583   1.160
 1992SOL    HW1 6875   0.768   5.492   1.182
 1992SOL    HW2 6876   0.674   5.614   1.234
 1993SOL     OW 6877   2.176   3.289   4.488
 1993SOL    HW1 6878   2.269   3.275   4.523
 1993SOL    HW2 6879   2.180   3.341   4.403
 1994SOL     OW 6880   3.284   3.886   0.754
 1994SOL    HW1 6881   3.190   3.863   0.776
 1994SOL    HW2 6882   3.294   3.898   0.655
 1995SOL     OW 6883   5.259   2.669   4.504
 1995SOL    HW1 6884   5.162   2.649   4.487
 1995SOL    HW2 6885   5.311   2.584   4.508
 1996SOL     OW 6886   4.056   1.632   0.720
 1996SOL    HW1 6887   4.012   1.583   0.644
 1996SOL    HW2 6888   4.005   1.715   0.740
 1997SOL     OW 6889   3.856   1.596   3.534
 1997SOL    HW1 6890   3.834   1.688   3.566
 1997SOL    HW2 6891   3.866   1.535   3.612
 1998SOL     OW 6892   1.765   3.539   1.208
 1998SOL    HW1 6893   1.697   3.565   1.139
 1998SOL    HW2 6894   1.855   3.530   1.166
 1999SOL     OW 6895   1.335   6.758   5.146
 1999SOL    HW1 6896   1.292   6.672   5.174
 1999SOL    HW2 6897   1.342   6.760   5.047
 2000SOL     OW 6898   3.425   3.676   6.291
 2000SOL    HW1 6899   3.376   3.593   6.263
 2000SOL    HW2 6900   3.514   3.651   6.328
 2001SOL     OW 6901   2.884   1.413   6.333
 2001SOL    HW1 6902   2.964   1.394   6.276
 2001SOL    HW2 6903   2.890   1.506   6.369
 2002SOL     OW 6904   6.896   4.934   0.842
 2002SOL    HW1 6905   6.969   5.000   0.825
 2002SOL    HW2 6906   6.853   4.953   0.930
 2003SOL     OW 6907   6.687   5.509   2.217
 2003SOL    HW1 6908   6.735   5.576   2.161
 2003SOL    HW2 6909   6.638   5.556   2.291
 2004SOL     OW 6910   3.787   0.569   3.415
 2004SOL    HW1 6911   3.863   0.628   3.443
 2004SOL    HW2 6912   3.702   0.604   3.455
 2005SOL     OW 6913   1.234   6.183   0.852
 2005SOL    HW1 6914   1.188   6.170   0.940
 2005SOL    HW2 6915   1.184   6.134   0.781
 2006SOL     OW 6916   5.315   6.843   3.061
 2006SOL    HW1 6917   5.263   6.922   3.093
 2006SOL    HW2 6918   5.355   6.863   2.972
 2007SOL     OW 6919   5.567   4.817   0.353
 2007SOL    HW1 6920   5.530   4.899   0.309
 2007SOL    HW2 6921   5.625   4.845   0.430
 2008SOL     OW 6922   2.093   3.591   3.607
 2008SOL    HW1 6923   2.099   3.650   3.527
 2008SOL    HW2 6924   2.072   3.497   3.578
 2009SOL     OW 6925   6.509   6.510   2.127
 2009SOL    HW1 6926   6.485   6.501   2.030
 2009SOL    HW2 6927   6.450   6.450   2.181
 2010SOL     OW 6928   1.551   2.323   1.933
 2010SOL    HW1 6929   1.484   2.318   1.859
 2010SOL    HW2 6930   1.633   2.369   1.901
 2011SOL     OW 6931   0.441   6.083   5.911
 2011SOL    HW1 6932   0.526   6.069   5.962
 2011SOL    HW2 6933   0.444   6.172   5.865
 2012SOL     OW 6934   1.418   3.205   2.577
 2012SOL    HW1 6935   1.372   3.123   2.611
 2012SOL    HW2 6936   1.365   3.286   2.602
 2013SOL     OW 6937   0.371   3.044   2.893
 2013SOL    HW1 6938   0.327   3.083   2.812
 2013SOL    HW2 6939   0.442   2.980   2.864
 2014SOL     OW 6940   3.039   0.543   3.993
 2014SOL    HW1 6941   2.968   0.547   3.923
 2014SOL    HW2 6942   3.082   0.452   3.992
 2015SOL     OW 6943   4.093   0.952   1.945
 2015SOL    HW1 6944   4.169   0.960   1.880
 2015SOL    HW2 6945   4.111   1.012   2.023
 2016SOL     OW 6946   1.994   0.026   5.414
 2016SOL    HW1 6947   1.898   0.031   5.385
 2016SOL    HW2 6948   1.998   0.017   5.513
 2017SOL     OW 6949   3.317   0.063   2.743
 2017SOL    HW1 6950   3.232   0.022   2.709
 2017SOL    HW2 6951   3.382   7.014   2.764
 2018SOL     OW 6952   0.521   0.858   3.128
 2018SOL    HW1 6953   0.580   0.903   3.060
 2018SOL    HW2 6954   0.545   0.761   3.133
 2019SOL     OW 6955   6.089   4.995   6.540
 2019SOL    HW1 6956   6.164   4.946   6.498
 2019SOL    HW2 6957   6.007   4.938   6.540
 2020SOL     OW 6958   2.018   6.424   6.274
 2020SOL    HW1 6959   2.046   6.512   6.234
 2020SOL    HW2 6960   1.951   6.380   6.214
 2021SOL     OW 6961   6.336   5.647   3.803
 2021SOL    HW1 6962   6.367   5.742   3.809
 2021SOL    HW2 6963   6.288   5.622   3.888
 2022SOL     OW 6964   2.074   4.066   5.128
 2022SOL    HW1 6965   2.171   4.059   5.105
 2022SOL    HW2 6966   2.064   4.107   5.218
 2023SOL     OW 6967   0.450   0.013   6.995
 2023SOL    HW1 6968   0.494   6.993   0.049
 2023SOL    HW2 6969   0.518   0.069   6.947
 2024SOL     OW 6970   0.697   5.762   4.884
 2024SOL    HW1 6971   0.787   5.804   4.897
 2024SOL    HW2 6972   0.627   5.824   4.919
 2025SOL     OW 6973   2.283   0.601   4.907
 2025SOL    HW1 6974   2.330   0.522   4.867
 2025SOL    HW2 6975   2.342   0.682   4.902
 2026SOL     OW 6976   6.218   1.020   5.937
 2026SOL    HW1 6977   6.292   1.039   5.873
 2026SOL    HW2 6978   6.171   0.936   5.910
 2027SOL     OW 6979   0.541   6.185   3.007
 2027SOL    HW1 6980   0.476   6.117   2.973
 2027SOL    HW2 6981   0.495   6.272   3.022
 2028SOL     OW 6982   4.248   5.548   3.807
 2028SOL    HW1 6983   4.205   5.458   3.806
 2028SOL    HW2 6984   4.178   5.619   3.801
 2029SOL     OW 6985   5.899   2.586   6.439
 2029SOL    HW1 6986   5.920   2.503   6.490
 2029SOL    HW2 6987   5.974   2.652   6.451
 2030SOL     OW 6988   2.398   6.150   3.260
 2030SOL    HW1 6989   2.436   6.213   3.192
 2030SOL    HW2 6990   2.396   6.193   3.349
 2031SOL     OW 6991   6.624   5.555   3.672
 2031SOL    HW1 6992   6.529   5.564   3.641
 2031SOL    HW2 6993   6.629   5.489   3.747
 2032SOL     OW 6994   3.260   1.798   5.694
 2032SOL    HW1 6995   3.206   1.796   5.610
 2032SOL    HW2 6996   3.222   1.867   5.756
 2033SOL     OW 6997   2.059   1.606   1.073
 2033SOL    HW1 6998   2.143   1.658   1.089
 2033SOL    HW2 6999   2.018   1.581   1.161
 2034SOL     OW 7000   0.074   4.819   5.694
 2034SOL    HW1 7001   0.020   4.736   5.682
 2034SOL    HW2 7002   0.024   4.898   5.657
 2035SOL     OW 7003   5.530   0.089   2.369
 2035SOL    HW1 7004   5.456   0.021   2.370
 2035SOL    HW2 7005   5.492   0.179   2.387
 2036SOL     OW 7006   1.433   4.413   1.976
 2036SOL    HW1 7007   1.483   4.342   2.026
 2036SOL    HW2 7008   1.486   4.497   1.976
 2037SOL     OW 7009   7.004   3.263   6.699
 2037SOL    HW1 7010   0.007   3.241   6.605
 2037SOL    HW2 7011   7.021   3.360   6.716
 2038SOL     OW 7012   2.064   1.359   6.846
 2038SOL    HW1 7013   2.110   1.440   6.811
 2038SOL    HW2 7014   2.120   1.316   6.916
 2039SOL     OW 7015   6.694   6.150   2.517
 2039SOL    HW1 7016   6.627   6.224   2.525
 2039SOL    HW2 7017   6.786   6.188   2.522
 2040SOL     OW 7018   1.924   2.811   0.123
 2040SOL    HW1 7019   2.010   2.771   0.090
 2040SOL    HW2 7020   1.848   2.772   0.072
 2041SOL     OW 7021   1.579   0.626   6.161
 2041SOL    HW1 7022   1.502   0.622   6.225
 2041SOL    HW2 7023   1.611   0.533   6.141
 2042SOL     OW 7024   5.127   1.293   5.540
 2042SOL    HW1 7025   5.222   1.287   5.511
 2042SOL    HW2 7026   5.110   1.382   5.583
 2043SOL     OW 7027   6.465   4.093   0.959
 2043SOL    HW1 7028   6.508   4.170   0.914
 2043SOL    HW2 7029   6.365   4.102   0.953
 2044SOL     OW 7030   4.681   0.574   0.756
 2044SOL    HW1 7031   4.744   0.628   0.700
 2044SOL    HW2 7032   4.705   0.477   0.748
 2045SOL     OW 7033   2.121   6.481   6.700
 2045SOL    HW1 7034   2.163   6.560   6.655
 2045SOL    HW2 7035   2.184   6.443   6.767
 2046SOL     OW 7036   1.027   2.330   4.708
 2046SOL    HW1 7037   1.008   2.283   4.622
 2046SOL    HW2 7038   1.085   2.273   4.765
 2047SOL     OW 7039   6.891   1.014   7.006
 2047SOL    HW1 7040   6.911   0.965   0.066
 2047SOL    HW2 7041   6.970   1.071   6.981
 2048SOL     OW 7042   0.827   1.842   4.714
 2048SOL    HW1 7043   0.891   1.803   4.648
 2048SOL    HW2 7044   0.733   1.820   4.688
 2049SOL     OW 7045   4.516   1.926   5.074
 2049SOL    HW1 7046   4.579   1.848   5.071
 2049SOL    HW2 7047   4.568   2.011   5.058
 2050SOL     OW 7048   0.477   0.850   3.967
 2050SOL    HW1 7049   0.392   0.799   3.979
 2050SOL    HW2 7050   0.538   0.799   3.907
 2051SOL     OW 7051   3.226   6.214   0.616
 2051SOL    HW1 7052   3.296   6.241   0.682
 2051SOL    HW2 7053   3.136   6.216   0.660
 2052SOL     OW 7054   1.798   4.028   6.418
 2052SOL    HW1 7055   1.806   4.016   6.517
 2052SOL    HW2 7056   1.843   4.114   6.392
 2053SOL     OW 7057   1.223   5.318   4.045
 2053SOL    HW1 7058   1.186   5.352   4.131
 2053SOL    HW2 7059   1.167   5.351   3.969
 2054SOL     OW 7060   3.316   3.295   3.549
 2054SOL    HW1 7061   3.337   3.377   3.497
 2054SOL    HW2 7062   3.397   3.236   3.551
 2055SOL     OW 7063   2.545   2.187   5.955
 2055SOL    HW1 7064   2.609   2.155   5.884
 2055SOL    HW2 7065   2.595   2.243   6.021
 2056SOL     OW 7066   4.031   4.784   1.084
 2056SOL    HW1 7067   4.089   4.746   1.157
 2056SOL    HW2 7068   3.936   4.784   1.114
 2057SOL     OW 7069   5.880   2.541   4.398
 2057SOL    HW1 7070   5.877   2.449   4.358
 2057SOL    HW2 7071   5.913   2.536   4.492
 2058SOL     OW 7072   0.544   5.687   2.866
 2058SOL    HW1 7073   0.459   5.729   2.897
 2058SOL    HW2 7074   0.590   5.747   2.800
 2059SOL     OW 7075   1.397   0.167   6.377
 2059SOL    HW1 7076   1.423   0.162   6.281
 2059SOL    HW2 7077   1.464   0.223   6.427
 2060SOL     OW 7078   1.225   3.724   6.792
 2060SOL    HW1 7079   1.145   3.685   6.837
 2060SOL    HW2 7080   1.306   3.670   6.816
 2061SOL     OW 7081   2.195   2.239   2.777
 2061SOL    HW1 7082   2.215   2.312   2.712
 2061SOL    HW2 7083   2.098   2.241   2.801
 2062SOL     OW 7084   6.778   5.218   4.863
 2062SOL    HW1 7085   6.878   5.210   4.858
 2062SOL    HW2 7086   6.736   5.130   4.842
 2063SOL     OW 7087   0.793   0.569   4.958
 2063SOL    HW1 7088   0.855   0.618   4.897
 2063SOL    HW2 7089   0.846   0.516   5.025
 2064SOL     OW 7090   0.739   3.154   3.609
 2064SOL    HW1 7091   0.671   3.081   3.609
 2064SOL    HW2 7092   0.756   3.184   3.515
 2065SOL     OW 7093   4.410   3.122   5.720
 2065SOL    HW1 7094   4.455   3.035   5.743
 2065SOL    HW2 7095   4.322   3.103   5.677
 2066SOL     OW 7096   6.470   3.305   4.973
 2066SOL    HW1 7097   6.431   3.287   4.882
 2066SOL    HW2 7098   6.537   3.235   4.995
 2067SOL     OW 7099   6.127   5.188   1.169
 2067SOL    HW1 7100   6.059   5.126   1.130
 2067SOL    HW2 7101   6.163   5.247   1.097
 2068SOL     OW 7102   3.772   0.542   4.775
 2068SOL    HW1 7103   3.853   0.485   4.758
 2068SOL    HW2 7104   3.796   0.638   4.763
 2069SOL     OW 7105   0.045   2.133   3.784
 2069SOL    HW1 7106   0.087   2.128   3.875
 2069SOL    HW2 7107   0.117   2.136   3.715
 2070SOL     OW 7108   0.682   4.671   1.130
 2070SOL    HW1 7109   0.686   4.613   1.048
 2070SOL    HW2 7110   0.628   4.625   1.200
 2071SOL     OW 7111   6.820   1.352   5.857
 2071SOL    HW1 7112   6.723   1.345   5.833
 2071SOL    HW2 7113   6.846   1.272   5.912
 2072SOL     OW 7114   4.231   4.249   5.804
 2072SOL    HW1 7115   4.192   4.229   5.714
 2072SOL    HW2 7116   4.312   4.308   5.792
 2073SOL     OW 7117   2.899   6.253   6.974
 2073SOL    HW1 7118   2.999   6.264   6.969
 2073SOL    HW2 7119   2.877   6.175   0.008
 2074SOL     OW 7120   0.734   3.812   5.509
 2074SOL    HW1 7121   0.824   3.792   5.470
 2074SOL    HW2 7122   0.663   3.778   5.448
 2075SOL     OW 7123   6.539   1.605   1.336
 2075SOL    HW1 7124   6.584   1.686   1.372
 2075SOL    HW2 7125   6.455   1.587   1.389
 2076SOL     OW 7126   5.285   6.792   4.864
 2076SOL    HW1 7127   5.360   6.751   4.812
 2076SOL    HW2 7128   5.234   6.854   4.805
 2077SOL     OW 7129   6.607   4.293   0.868
 2077SOL    HW1 7130   6.674   4.297   0.794
 2077SOL    HW2 7131   6.645   4.336   0.950
 2078SOL     OW 7132   0.600   2.948   5.801
 2078SOL    HW1 7133   0.654   2.979   5.878
 2078SOL    HW2 7134   0.509   2.990   5.805
 2079SOL     OW 7135   4.938   2.362   2.565
 2079SOL    HW1 7136   4.912   2.275   2.606
 2079SOL    HW2 7137   4.965   2.347   2.470
 2080SOL     OW 7138   2.536   3.246   5.971
 2080SOL    HW1 7139   2.625   3.290   5.978
 2080SOL    HW2 7140   2.547   3.153   5.935
 2081SOL     OW 7141   6.029   0.065   2.816
 2081SOL    HW1 7142   6.006   0.081   2.912
 2081SOL    HW2 7143   6.122   0.097   2.798
 2082SOL     OW 7144   6.863   6.244   3.184
 2082SOL    HW1 7145   6.948   6.216   3.229
 2082SOL    HW2 7146   6.850   6.192   3.100
 2083SOL     OW 7147   0.245   6.286   3.725
 2083SOL    HW1 7148   0.271   6.382   3.735
 2083SOL    HW2 7149   0.274   6.236   3.807
 2084SOL     OW 7150   7.021   1.985   1.649
 2084SOL    HW1 7151   6.940   2.038   1.674
 2084SOL    HW2 7152   0.070   2.000   1.716
 2085SOL     OW 7153   5.084   5.861   0.821
 2085SOL    HW1 7154   5.136   5.841   0.739
 2085SOL    HW2 7155   5.056   5.957   0.821
 2086SOL     OW 7156   4.676   0.188   7.005
 2086SOL    HW1 7157   4.681   0.288   7.006
 2086SOL    HW2 7158   4.763   0.150   6.973
 2087SOL     OW 7159   4.263   1.990   6.523
 2087SOL    HW1 7160   4.346   1.946   6.486
 2087SOL    HW2 7161   4.214   2.035   6.448
 2088SOL     OW 7162   0.430   5.687   5.570
 2088SOL    HW1 7163   0.473   5.618   5.628
 2088SOL    HW2 7164   0.334   5.664   5.556
 2089SOL     OW 7165   2.685   3.664   0.082
 2089SOL    HW1 7166   2.660   3.739   0.021
 2089SOL    HW2 7167   2.752   3.696   0.149
 2090SOL     OW 7168   4.747   3.226   5.250
 2090SOL    HW1 7169   4.743   3.323   5.224
 2090SOL    HW2 7170   4.806   3.215   5.330
 2091SOL     OW 7171   5.767   5.952   1.430
 2091SOL    HW1 7172   5.670   5.933   1.449
 2091SOL    HW2 7173   5.779   5.971   1.333
 2092SOL     OW 7174   4.577   3.747   1.606
 2092SOL    HW1 7175   4.503   3.770   1.669
 2092SOL    HW2 7176   4.562   3.656   1.569
 2093SOL     OW 7177   4.032   1.599   2.517
 2093SOL    HW1 7178   3.938   1.568   2.533
 2093SOL    HW2 7179   4.038   1.697   2.538
 2094SOL     OW 7180   5.454   2.177   6.868
 2094SOL    HW1 7181   5.447   2.247   6.796
 2094SOL    HW2 7182   5.509   2.213   6.944
 2095SOL     OW 7183   5.076   6.695   2.902
 2095SOL    HW1 7184   5.112   6.622   2.959
 2095SOL    HW2 7185   5.051   6.773   2.959
 2096SOL     OW 7186   5.144   6.732   2.001
 2096SOL    HW1 7187   5.070   6.795   2.023
 2096SOL    HW2 7188   5.107   6.654   1.949
 2097SOL     OW 7189   1.276   5.186   6.347
 2097SOL    HW1 7190   1.209   5.192   6.273
 2097SOL    HW2 7191   1.269   5.097   6.392
 2098SOL     OW 7192   2.972   5.750   3.426
 2098SOL    HW1 7193   3.034   5.708   3.361
 2098SOL    HW2 7194   2.951   5.685   3.499
 2099SOL     OW 7195   4.965   1.079   6.845
 2099SOL    HW1 7196   5.018   1.019   6.785
 2099SOL    HW2 7197   4.974   1.047   6.940
 2100SOL     OW 7198   5.658   0.335   1.156
 2100SOL    HW1 7199   5.634   0.419   1.203
 2100SOL    HW2 7200   5.758   0.322   1.160
 2101SOL     OW 7201   0.087   6.643   1.926
 2101SOL    HW1 7202   0.073   6.726   1.981
 2101SOL    HW2 7203   0.009   6.632   1.864
 2102SOL     OW 7204   3.469   3.137   0.633
 2102SOL    HW1 7205   3.540   3.157   0.700
 2102SOL    HW2 7206   3.484   3.189   0.550
 2103SOL     OW 7207   3.110   5.770   0.471
 2103SOL    HW1 7208   3.086   5.682   0.513
 2103SOL    HW2 7209   3.164   5.824   0.535
 2104SOL     OW 7210   1.440   5.028   2.955
 2104SOL    HW1 7211   1.481   5.117   2.971
 2104SOL    HW2 7212   1.485   4.959   3.011
 2105SOL     OW 7213   6.435   4.363   5.905
 2105SOL    HW1 7214   6.399   4.325   5.820
 2105SOL    HW2 7215   6.509   4.305   5.939
 2106SOL     OW 7216   4.635   4.111   1.324
 2106SOL    HW1 7217   4.660   4.106   1.421
 2106SOL    HW2 7218   4.633   4.019   1.285
 2107SOL     OW 7219   5.015   4.302   5.895
 2107SOL    HW1 7220   4.975   4.254   5.817
 2107SOL    HW2 7221   5.018   4.400   5.876
 2108SOL     OW 7222   5.932   0.356   5.824
 2108SOL    HW1 7223   5.967   0.363   5.917
 2108SOL    HW2 7224   6.007   0.367   5.759
 2109SOL     OW 7225   2.587   6.288   3.514
 2109SOL    HW1 7226   2.608   6.240   3.599
 2109SOL    HW2 7227   2.491   6.271   3.490
 2110SOL     OW 7228   4.047   0.649   0.502
 2110SOL    HW1 7229   4.065   0.595   0.419
 2110SOL    HW2 7230   4.101   0.733   0.499
 2111SOL     OW 7231   1.035   2.404   5.541
 2111SOL    HW1 7232   0.964   2.336   5.559
 2111SOL    HW2 7233   1.089   2.376   5.462
 2112SOL     OW 7234   0.367   0.596   6.726
 2112SOL    HW1 7235   0.352   0.513   6.779
 2112SOL    HW2 7236   0.429   0.657   6.775
 2113SOL     OW 7237   1.196   0.516   4.554
 2113SOL    HW1 7238   1.282   0.554   4.520
 2113SOL    HW2 7239   1.154   0.579   4.618
 2114SOL     OW 7240   1.918   1.674   6.233
 2114SOL    HW1 7241   2.007   1.692   6.192
 2114SOL    HW2 7242   1.922   1.589   6.285
 2115SOL     OW 7243   6.711   5.537   2.945
 2115SOL    HW1 7244   6.734   5.564   2.852
 2115SOL    HW2 7245   6.612   5.529   2.954
 2116SOL     OW 7246   0.636   1.985   0.224
 2116SOL    HW1 7247   0.561   1.920   0.214
 2116SOL    HW2 7248   0.723   1.937   0.215
 2117SOL     OW 7249   6.107   1.494   2.388
 2117SOL    HW1 7250   6.014   1.487   2.424
 2117SOL    HW2 7251   6.163   1.419   2.424
 2118SOL     OW 7252   6.261   2.812   2.104
 2118SOL    HW1 7253   6.222   2.858   2.185
 2118SOL    HW2 7254   6.201   2.828   2.026
 2119SOL     OW 7255   2.768   1.156   6.925
 2119SOL    HW1 7256   2.749   1.083   6.860
 2119SOL    HW2 7257   2.866   1.179   6.922
 2120SOL     OW 7258   5.416   1.237   0.549
 2120SOL    HW1 7259   5.491   1.199   0.493
 2120SOL    HW2 7260   5.443   1.235   0.645
 2121SOL     OW 7261   1.053   0.368   6.854
 2121SOL    HW1 7262   1.013   0.346   6.765
 2121SOL    HW2 7263   1.055   0.285   6.910
 2122SOL     OW 7264   5.904   1.129   4.036
 2122SOL    HW1 7265   5.900   1.227   4.020
 2122SOL    HW2 7266   5.838   1.103   4.107
 2123SOL     OW 7267   1.702   5.854   3.527
 2123SOL    HW1 7268   1.665   5.778   3.580
 2123SOL    HW2 7269   1.767   5.905   3.584
 2124SOL     OW 7270   3.945   3.547   6.013
 2124SOL    HW1 7271   3.873   3.487   5.978
 2124SOL    HW2 7272   3.992   3.591   5.936
 2125SOL     OW 7273   1.549   5.705   3.965
 2125SOL    HW1 7274   1.469   5.742   3.919
 2125SOL    HW2 7275   1.532   5.610   3.991
 2126SOL     OW 7276   3.273   4.864   0.194
 2126SOL    HW1 7277   3.279   4.824   0.102
 2126SOL    HW2 7278   3.213   4.807   0.251
 2127SOL     OW 7279   0.413   1.988   4.115
 2127SOL    HW1 7280   0.386   1.958   4.206
 2127SOL    HW2 7281   0.503   1.951   4.092
 2128SOL     OW 7282   5.342   2.710   1.888
 2128SOL    HW1 7283   5.305   2.802   1.900
 2128SOL    HW2 7284   5.272   2.643   1.912
 2129SOL     OW 7285   4.833   4.459   3.904
 2129SOL    HW1 7286   4.881   4.380   3.941
 2129SOL    HW2 7287   4.737   4.455   3.931
 2130SOL     OW 7288   2.461   0.428   2.835
 2130SOL    HW1 7289   2.492   0.389   2.748
 2130SOL    HW2 7290   2.425   0.520   2.820
 2131SOL     OW 7291   5.619   1.454   5.306
 2131SOL    HW1 7292   5.686   1.491   5.243
 2131SOL    HW2 7293   5.538   1.423   5.255
 2132SOL     OW 7294   3.010   2.653   0.300
 2132SOL    HW1 7295   2.994   2.728   0.365
 2132SOL    HW2 7296   2.934   2.647   0.236
 2133SOL     OW 7297   2.815   2.051   2.002
 2133SOL    HW1 7298   2.857   2.141   2.018
 2133SOL    HW2 7299   2.739   2.038   2.066
 2134SOL     OW 7300   1.198   6.660   4.868
 2134SOL    HW1 7301   1.104   6.684   4.843
 2134SOL    HW2 7302   1.257   6.740   4.858
 2135SOL     OW 7303   0.768   1.165   3.448
 2135SOL    HW1 7304   0.860   1.131   3.430
 2135SOL    HW2 7305   0.770   1.231   3.523
 2136SOL     OW 7306   0.346   4.279   3.223
 2136SOL    HW1 7307   0.280   4.222   3.175
 2136SOL    HW2 7308   0.300   4.360   3.260
 2137SOL     OW 7309   1.108   0.388   5.126
 2137SOL    HW1 7310   1.038   0.449   5.162
 2137SOL    HW2 7311   1.089   0.366   5.030
 2138SOL     OW 7312   0.881   2.777   0.254
 2138SOL    HW1 7313   0.951   2.798   0.322
 2138SOL    HW2 7314   0.815   2.713   0.293
 2139SOL     OW 7315   2.397   0.938   6.007
 2139SOL    HW1 7316   2.338   0.868   6.046
 2139SOL    HW2 7317   2.345   0.992   5.940
 2140SOL     OW 7318   2.429   5.832   2.747
 2140SOL    HW1 7319   2.339   5.830   2.702
 2140SOL    HW2 7320   2.477   5.915   2.722
 2141SOL     OW 7321   4.962   1.922   0.516
 2141SOL    HW1 7322   4.926   1.829   0.504
 2141SOL    HW2 7323   4.889   1.982   0.548
 2142SOL     OW 7324   2.435   1.806   3.348
 2142SOL    HW1 7325   2.400   1.719   3.313
 2142SOL    HW2 7326   2.438   1.873   3.274
 2143SOL     OW 7327   3.318   6.684   0.926
 2143SOL    HW1 7328   3.385   6.749   0.890
 2143SOL    HW2 7329   3.299   6.614   0.857
 2144SOL     OW 7330   6.757   1.033   3.050
 2144SOL    HW1 7331   6.714   1.094   2.983
 2144SOL    HW2 7332   6.757   1.076   3.140
 2145SOL     OW 7333   4.176   5.533   2.714
 2145SOL    HW1 7334   4.084   5.497   2.697
 2145SOL    HW2 7335   4.207   5.586   2.635
 2146SOL     OW 7336   3.782   2.956   2.652
 2146SOL    HW1 7337   3.813   2.973   2.558
 2146SOL    HW2 7338   3.694   2.909   2.651
 2147SOL     OW 7339   1.428   0.728   5.388
 2147SOL    HW1 7340   1.332   0.708   5.370
 2147SOL    HW2 7341   1.472   0.757   5.304
 2148SOL     OW 7342   5.391   2.853   2.792
 2148SOL    HW1 7343   5.401   2.943   2.749
 2148SOL    HW2 7344   5.295   2.836   2.812
 2149SOL     OW 7345   3.466   1.213   2.805
 2149SOL    HW1 7346   3.418   1.176   2.726
 2149SOL    HW2 7347   3.533   1.281   2.775
 2150SOL     OW 7348   3.560   2.127   3.249
 2150SOL    HW1 7349   3.620   2.139   3.328
 2150SOL    HW2 7350   3.606   2.162   3.167
 2151SOL     OW 7351   3.646   2.962   5.585
 2151SOL    HW1 7352   3.712   2.896   5.622
 2151SOL    HW2 7353   3.604   3.013   5.659
 2152SOL     OW 7354   6.262   5.866   1.658
 2152SOL    HW1 7355   6.305   5.956   1.657
 2152SOL    HW2 7356   6.222   5.847   1.568
 2153SOL     OW 7357   4.765   2.551   3.369
 2153SOL    HW1 7358   4.675   2.528   3.331
 2153SOL    HW2 7359   4.802   2.471   3.417
 2154SOL     OW 7360   4.107   6.440   5.396
 2154SOL    HW1 7361   4.025   6.463   5.449
 2154SOL    HW2 7362   4.122   6.341   5.401
 2155SOL     OW 7363   7.017   4.020   0.555
 2155SOL    HW1 7364   0.028   4.101   0.603
 2155SOL    HW2 7365   6.950   4.048   0.487
 2156SOL     OW 7366   1.367   0.998   1.678
 2156SOL    HW1 7367   1.361   1.084   1.728
 2156SOL    HW2 7368   1.463   0.969   1.673
 2157SOL     OW 7369   0.771   1.443   5.012
 2157SOL    HW1 7370   0.768   1.438   4.912
 2157SOL    HW2 7371   0.826   1.522   5.040
 2158SOL     OW 7372   3.688   6.477   2.058
 2158SOL    HW1 7373   3.700   6.469   1.959
 2158SOL    HW2 7374   3.600   6.520   2.077
 2159SOL     OW 7375   2.014   6.544   4.556
 2159SOL    HW1 7376   2.097   6.490   4.567
 2159SOL    HW2 7377   1.946   6.515   4.623
 2160SOL     OW 7378   3.190   4.018   1.024
 2160SOL    HW1 7379   3.242   4.039   0.941
 2160SOL    HW2 7380   3.095   4.050   1.013
 2161SOL     OW 7381   5.276   2.271   3.557
 2161SOL    HW1 7382   5.299   2.223   3.642
 2161SOL    HW2 7383   5.293   2.369   3.567
 2162SOL     OW 7384   1.125   0.773   6.949
 2162SOL    HW1 7385   1.189   0.725   7.009
 2162SOL    HW2 7386   1.174   0.809   6.870
 2163SOL     OW 7387   1.763   2.149   0.728
 2163SOL    HW1 7388   1.664   2.163   0.728
 2163SOL    HW2 7389   1.794   2.127   0.821
 2164SOL     OW 7390   1.306   0.538   1.160
 2164SOL    HW1 7391   1.401   0.543   1.192
 2164SOL    HW2 7392   1.287   0.617   1.102
 2165SOL     OW 7393   2.301   6.482   2.341
 2165SOL    HW1 7394   2.271   6.493   2.246
 2165SOL    HW2 7395   2.391   6.525   2.353
 2166SOL     OW 7396   0.163   2.316   6.346
 2166SOL    HW1 7397   0.192   2.411   6.337
 2166SOL    HW2 7398   0.084   2.299   6.287
 2167SOL     OW 7399   2.851   0.296   2.812
 2167SOL    HW1 7400   2.863   0.197   2.798
 2167SOL    HW2 7401   2.899   0.323   2.896
 2168SOL     OW 7402   5.864   5.477   4.542
 2168SOL    HW1 7403   5.937   5.491   4.475
 2168SOL    HW2 7404   5.776   5.479   4.496
 2169SOL     OW 7405   5.035   1.493   6.048
 2169SOL    HW1 7406   4.953   1.471   5.994
 2169SOL    HW2 7407   5.021   1.464   6.143
 2170SOL     OW 7408   4.324   4.729   4.262
 2170SOL    HW1 7409   4.381   4.690   4.190
 2170SOL    HW2 7410   4.228   4.724   4.235
 2171SOL     OW 7411   0.453   2.508   6.893
 2171SOL    HW1 7412   0.515   2.432   6.911
 2171SOL    HW2 7413   0.452   2.570   6.972
 2172SOL     OW 7414   2.710   1.092   0.736
 2172SOL    HW1 7415   2.781   1.064   0.801
 2172SOL    HW2 7416   2.695   1.020   0.669
 2173SOL     OW 7417   5.709   1.765   5.363
 2173SOL    HW1 7418   5.636   1.819   5.322
 2173SOL    HW2 7419   5.756   1.713   5.291
 2174SOL     OW 7420   0.467   5.931   4.985
 2174SOL    HW1 7421   0.396   5.919   4.916
 2174SOL    HW2 7422   0.425   5.936   5.076
 2175SOL     OW 7423   2.261   6.421   4.849
 2175SOL    HW1 7424   2.167   6.389   4.860
 2175SOL    HW2 7425   2.324   6.351   4.882
 2176SOL     OW 7426   1.548   2.238   2.441
 2176SOL    HW1 7427   1.473   2.269   2.383
 2176SOL    HW2 7428   1.595   2.317   2.481
 2177SOL     OW 7429   6.706   1.776   1.494
 2177SOL    HW1 7430   6.758   1.861   1.498
 2177SOL    HW2 7431   6.649   1.768   1.576
 2178SOL     OW 7432   0.481   4.754   7.024
 2178SOL    HW1 7433   0.459   4.849   6.999
 2178SOL    HW2 7434   0.544   4.716   6.956
 2179SOL     OW 7435   1.262   5.052   4.026
 2179SOL    HW1 7436   1.271   5.151   4.042
 2179SOL    HW2 7437   1.178   5.019   4.067
 2180SOL     OW 7438   3.460   2.897   2.574
 2180SOL    HW1 7439   3.362   2.915   2.569
 2180SOL    HW2 7440   3.505   2.932   2.492
 2181SOL     OW 7441   5.246   4.901   5.941
 2181SOL    HW1 7442   5.177   4.919   5.871
 2181SOL    HW2 7443   5.266   4.985   5.992
 2182SOL     OW 7444   6.271   2.657   7.019
 2182SOL    HW1 7445   6.361   2.700   7.014
 2182SOL    HW2 7446   6.272   2.573   6.964
 2183SOL     OW 7447   2.989   3.215   1.170
 2183SOL    HW1 7448   3.046   3.169   1.238
 2183SOL    HW2 7449   2.895   3.179   1.175
 2184SOL     OW 7450   3.916   2.584   6.081
 2184SOL    HW1 7451   3.944   2.585   5.985
 2184SOL    HW2 7452   3.895   2.491   6.109
 2185SOL     OW 7453   1.872   1.338   1.484
 2185SOL    HW1 7454   1.807   1.409   1.510
 2185SOL    HW2 7455   1.924   1.310   1.565
 2186SOL     OW 7456   0.863   5.932   3.406
 2186SOL    HW1 7457   0.930   6.003   3.388
 2186SOL    HW2 7458   0.788   5.939   3.339
 2187SOL     OW 7459   6.932   1.096   6.587
 2187SOL    HW1 7460   6.947   1.195   6.593
 2187SOL    HW2 7461   6.888   1.074   6.499
 2188SOL     OW 7462   5.267   0.289   2.720
 2188SOL    HW1 7463   5.310   0.223   2.781
 2188SOL    HW2 7464   5.236   0.243   2.637
 2189SOL     OW 7465   2.184   0.211   6.715
 2189SOL    HW1 7466   2.247   0.156   6.661
 2189SOL    HW2 7467   2.230   0.295   6.745
 2190SOL     OW 7468   5.131   2.139   1.664
 2190SOL    HW1 7469   5.138   2.129   1.564
 2190SOL    HW2 7470   5.036   2.121   1.691
 2191SOL     OW 7471   3.508   2.324   0.198
 2191SOL    HW1 7472   3.559   2.353   0.279
 2191SOL    HW2 7473   3.428   2.383   0.187
 2192SOL     OW 7474   4.826   5.799   5.132
 2192SOL    HW1 7475   4.866   5.890   5.139
 2192SOL    HW2 7476   4.793   5.783   5.039
 2193SOL     OW 7477   0.354   4.742   6.160
 2193SOL    HW1 7478   0.444   4.700   6.157
 2193SOL    HW2 7479   0.362   4.838   6.185
 2194SOL     OW 7480   2.918   6.974   1.320
 2194SOL    HW1 7481   2.863   0.017   1.370
 2194SOL    HW2 7482   2.858   6.910   1.273
 2195SOL     OW 7483   1.202   4.161   2.940
 2195SOL    HW1 7484   1.133   4.098   2.906
 2195SOL    HW2 7485   1.176   4.255   2.918
 2196SOL     OW 7486   3.446   2.708   6.336
 2196SOL    HW1 7487   3.510   2.769   6.383
 2196SOL    HW2 7488   3.473   2.698   6.240
 2197SOL     OW 7489   4.399   4.932   0.355
 2197SOL    HW1 7490   4.445   4.935   0.266
 2197SOL    HW2 7491   4.325   4.865   0.351
 2198SOL     OW 7492   6.016   4.121   0.350
 2198SOL    HW1 7493   5.985   4.036   0.391
 2198SOL    HW2 7494   5.972   4.134   0.261
 2199SOL     OW 7495   4.527   0.815   1.791
 2199SOL    HW1 7496   4.616   0.860   1.791
 2199SOL    HW2 7497   4.508   0.778   1.700
 2200SOL     OW 7498   2.970   0.618   5.060
 2200SOL    HW1 7499   3.055   0.665   5.037
 2200SOL    HW2 7500   2.909   0.681   5.107
 2201SOL     OW 7501   4.913   4.024   1.971
 2201SOL    HW1 7502   5.011   4.016   1.989
 2201SOL    HW2 7503   4.898   4.051   1.876
 2202SOL     OW 7504   4.462   6.328   3.986
 2202SOL    HW1 7505   4.462   6.347   4.084
 2202SOL    HW2 7506   4.555   6.334   3.950
 2203SOL     OW 7507   3.862   1.922   3.331
 2203SOL    HW1 7508   3.786   1.858   3.316
 2203SOL    HW2 7509   3.946   1.881   3.296
 2204SOL     OW 7510   2.586   2.515   0.988
 2204SOL    HW1 7511   2.544   2.582   0.925
 2204SOL    HW2 7512   2.558   2.535   1.081
 2205SOL     OW 7513   2.011   0.092   0.409
 2205SOL    HW1 7514   2.036   0.182   0.443
 2205SOL    HW2 7515   2.093   0.045   0.377
 2206SOL     OW 7516   1.910   2.688   6.803
 2206SOL    HW1 7517   1.980   2.647   6.861
 2206SOL    HW2 7518   1.832   2.626   6.795
 2207SOL     OW 7519   0.813   4.424   4.983
 2207SOL    HW1 7520   0.774   4.400   5.072
 2207SOL    HW2 7521   0.906   4.389   4.977
 2208SOL     OW 7522   0.598   4.236   1.250
 2208SOL    HW1 7523   0.642   4.146   1.251
 2208SOL    HW2 7524   0.537   4.242   1.172
 2209SOL     OW 7525   1.219   5.747   0.779
 2209SOL    HW1 7526   1.212   5.662   0.831
 2209SOL    HW2 7527   1.189   5.731   0.685
 2210SOL     OW 7528   0.809   6.402   3.863
 2210SOL    HW1 7529   0.871   6.329   3.833
 2210SOL    HW2 7530   0.717   6.383   3.828
 2211SOL     OW 7531   6.199   1.373   5.648
 2211SOL    HW1 7532   6.243   1.462   5.629
 2211SOL    HW2 7533   6.241   1.303   5.590
 2212SOL     OW 7534   1.425   0.259   6.076
 2212SOL    HW1 7535   1.348   0.321   6.096
 2212SOL    HW2 7536   1.470   0.289   5.992
 2213SOL     OW 7537   3.706   1.139   3.356
 2213SOL    HW1 7538   3.699   1.081   3.437
 2213SOL    HW2 7539   3.681   1.087   3.275
 2214SOL     OW 7540   3.845   0.001   4.940
 2214SOL    HW1 7541   3.894   6.960   4.997
 2214SOL    HW2 7542   3.761   0.029   4.988
 2215SOL     OW 7543   5.630   2.973   5.314
 2215SOL    HW1 7544   5.616   3.071   5.304
 2215SOL    HW2 7545   5.590   2.925   5.235
 2216SOL     OW 7546   2.258   0.592   1.932
 2216SOL    HW1 7547   2.169   0.614   1.974
 2216SOL    HW2 7548   2.281   0.497   1.951
 2217SOL     OW 7549   4.225   0.607   1.581
 2217SOL    HW1 7550   4.177   0.542   1.522
 2217SOL    HW2 7551   4.182   0.697   1.573
 2218SOL     OW 7552   1.440   5.808   1.289
 2218SOL    HW1 7553   1.459   5.867   1.367
 2218SOL    HW2 7554   1.527   5.780   1.248
 2219SOL     OW 7555   1.062   3.078   2.914
 2219SOL    HW1 7556   1.152   3.033   2.916
 2219SOL    HW2 7557   0.990   3.009   2.926
 2220SOL     OW 7558   0.596   0.528   6.954
 2220SOL    HW1 7559   0.553   0.513   6.865
 2220SOL    HW2 7560   0.657   0.452   6.974
 2221SOL     OW 7561   0.332   2.194   0.468
 2221SOL    HW1 7562   0.283   2.182   0.382
 2221SOL    HW2 7563   0.282   2.147   0.541
 2222SOL     OW 7564   5.850   6.099   2.601
 2222SOL    HW1 7565   5.816   6.165   2.535
 2222SOL    HW2 7566   5.843   6.137   2.693
 2223SOL     OW 7567   5.341   5.436   1.838
 2223SOL    HW1 7568   5.341   5.414   1.936
 2223SOL    HW2 7569   5.433   5.463   1.810
 2224SOL     OW 7570   1.335   5.161   1.199
 2224SOL    HW1 7571   1.237   5.143   1.188
 2224SOL    HW2 7572   1.363   5.229   1.132
 2225SOL     OW 7573   6.663   5.004   1.364
 2225SOL    HW1 7574   6.693   5.077   1.301
 2225SOL    HW2 7575   6.607   4.939   1.314
 2226SOL     OW 7576   4.307   3.908   1.323
 2226SOL    HW1 7577   4.337   3.998   1.292
 2226SOL    HW2 7578   4.297   3.847   1.245
 2227SOL     OW 7579   0.793   3.620   4.327
 2227SOL    HW1 7580   0.792   3.524   4.353
 2227SOL    HW2 7581   0.722   3.637   4.258
 2228SOL     OW 7582   2.358   4.856   5.693
 2228SOL    HW1 7583   2.424   4.903   5.752
 2228SOL    HW2 7584   2.265   4.882   5.720
 2229SOL     OW 7585   4.956   0.894   3.330
 2229SOL    HW1 7586   5.043   0.856   3.363
 2229SOL    HW2 7587   4.885   0.824   3.338
 2230SOL     OW 7588   1.533   5.684   0.207
 2230SOL    HW1 7589   1.540   5.780   0.234
 2230SOL    HW2 7590   1.592   5.667   0.128
 2231SOL     OW 7591   2.871   6.750   1.656
 2231SOL    HW1 7592   2.965   6.785   1.648
 2231SOL    HW2 7593   2.837   6.725   1.566
 2232SOL     OW 7594   6.782   3.296   2.787
 2232SOL    HW1 7595   6.877   3.282   2.813
 2232SOL    HW2 7596   6.771   3.282   2.689
 2233SOL     OW 7597   3.770   1.510   0.135
 2233SOL    HW1 7598   3.757   1.592   0.191
 2233SOL    HW2 7599   3.707   1.439   0.165
 2234SOL     OW 7600   3.032   2.023   0.585
 2234SOL    HW1 7601   3.054   2.090   0.514
 2234SOL    HW2 7602   3.108   1.959   0.596
 2235SOL     OW 7603   2.053   0.256   1.402
 2235SOL    HW1 7604   2.020   0.163   1.393
 2235SOL    HW2 7605   2.100   0.284   1.318
 2236SOL     OW 7606   6.211   3.968   0.038
 2236SOL    HW1 7607   6.229   3.871   0.052
 2236SOL    HW2 7608   6.284   4.022   0.080
 2237SOL     OW 7609   6.760   2.082   4.246
 2237SOL    HW1 7610   6.798   2.029   4.171
 2237SOL    HW2 7611   6.736   2.174   4.214
 2238SOL     OW 7612   0.558   5.721   2.376
 2238SOL    HW1 7613   0.640   5.708   2.433
 2238SOL    HW2 7614   0.487   5.658   2.407
 2239SOL     OW 7615   5.273   5.074   3.129
 2239SOL    HW1 7616   5.359   5.086   3.178
 2239SOL    HW2 7617   5.270   4.983   3.088
 2240SOL     OW 7618   5.550   3.675   2.463
 2240SOL    HW1 7619   5.645   3.683   2.436
 2240SOL    HW2 7620   5.526   3.579   2.476
 2241SOL     OW 7621   0.796   0.263   2.510
 2241SOL    HW1 7622   0.734   0.185   2.517
 2241SOL    HW2 7623   0.743   0.347   2.497
 2242SOL     OW 7624   4.924   2.644   2.867
 2242SOL    HW1 7625   4.897   2.619   2.774
 2242SOL    HW2 7626   4.842   2.666   2.920
 2243SOL     OW 7627   2.678   6.061   5.152
 2243SOL    HW1 7628   2.643   5.972   5.122
 2243SOL    HW2 7629   2.736   6.100   5.080
 2244SOL     OW 7630   2.369   0.868   4.922
 2244SOL    HW1 7631   2.396   0.870   5.018
 2244SOL    HW2 7632   2.444   0.900   4.865
 2245SOL     OW 7633   0.707   1.869   1.996
 2245SOL    HW1 7634   0.695   1.927   2.077
 2245SOL    HW2 7635   0.663   1.781   2.011
 2246SOL     OW 7636   0.815   3.878   4.738
 2246SOL    HW1 7637   0.865   3.965   4.735
 2246SOL    HW2 7638   0.855   3.816   4.670
 2247SOL     OW 7639   1.922   1.862   5.857
 2247SOL    HW1 7640   2.008   1.848   5.905
 2247SOL    HW2 7641   1.906   1.786   5.793
 2248SOL     OW 7642   5.061   4.146   5.540
 2248SOL    HW1 7643   5.156   4.167   5.565
 2248SOL    HW2 7644   5.000   4.182   5.611
 2249SOL     OW 7645   4.796   5.776   4.694
 2249SOL    HW1 7646   4.807   5.681   4.724
 2249SOL    HW2 7647   4.703   5.807   4.716
 2250SOL     OW 7648   6.060   5.118   0.355
 2250SOL    HW1 7649   6.107   5.052   0.413
 2250SOL    HW2 7650   5.967   5.085   0.335
 2251SOL     OW 7651   0.073   0.908   6.679
 2251SOL    HW1 7652   0.010   0.983   6.654
 2251SOL    HW2 7653   0.022   0.822   6.684
 2252SOL     OW 7654   3.465   1.630   5.589
 2252SOL    HW1 7655   3.462   1.647   5.491
 2252SOL    HW2 7656   3.400   1.690   5.636
 2253SOL     OW 7657   1.638   2.607   6.269
 2253SOL    HW1 7658   1.677   2.562   6.188
 2253SOL    HW2 7659   1.697   2.682   6.297
 2254SOL     OW 7660   1.734   3.810   6.261
 2254SOL    HW1 7661   1.765   3.768   6.346
 2254SOL    HW2 7662   1.759   3.907   6.261
 2255SOL     OW 7663   5.771   2.256   1.694
 2255SOL    HW1 7664   5.856   2.256   1.642
 2255SOL    HW2 7665   5.790   2.227   1.788
 2256SOL     OW 7666   4.033   5.118   1.861
 2256SOL    HW1 7667   4.049   5.195   1.798
 2256SOL    HW2 7668   4.106   5.115   1.929
 2257SOL     OW 7669   1.664   3.971   3.633
 2257SOL    HW1 7670   1.734   3.906   3.603
 2257SOL    HW2 7671   1.622   3.937   3.717
 2258SOL     OW 7672   1.835   5.766   4.662
 2258SOL    HW1 7673   1.772   5.701   4.618
 2258SOL    HW2 7674   1.860   5.733   4.753
 2259SOL     OW 7675   5.560   2.983   6.646
 2259SOL    HW1 7676   5.496   2.906   6.638
 2259SOL    HW2 7677   5.550   3.025   6.736
 2260SOL     OW 7678   5.310   4.875   0.808
 2260SOL    HW1 7679   5.351   4.900   0.720
 2260SOL    HW2 7680   5.366   4.912   0.882
 2261SOL     OW 7681   4.306   6.656   6.240
 2261SOL    HW1 7682   4.267   6.671   6.149
 2261SOL    HW2 7683   4.252   6.706   6.308
 2262SOL     OW 7684   3.975   1.425   3.059
 2262SOL    HW1 7685   4.062   1.424   3.010
 2262SOL    HW2 7686   3.952   1.519   3.084
 2263SOL     OW 7687   7.021   4.381   6.601
 2263SOL    HW1 7688   6.928   4.399   6.569
 2263SOL    HW2 7689   7.020   4.301   6.661
 2264SOL     OW 7690   3.808   4.106   3.685
 2264SOL    HW1 7691   3.712   4.121   3.660
 2264SOL    HW2 7692   3.867   4.158   3.624
 2265SOL     OW 7693   6.752   0.432   1.844
 2265SOL    HW1 7694   6.673   0.466   1.896
 2265SOL    HW2 7695   6.723   0.411   1.751
 2266SOL     OW 7696   5.997   6.967   0.724
 2266SOL    HW1 7697   6.024   6.881   0.767
 2266SOL    HW2 7698   6.039   6.973   0.634
 2267SOL     OW 7699   5.282   1.532   5.688
 2267SOL    HW1 7700   5.210   1.599   5.705
 2267SOL    HW2 7701   5.292   1.518   5.590
 2268SOL     OW 7702   6.481   5.259   0.278
 2268SOL    HW1 7703   6.450   5.206   0.199
 2268SOL    HW2 7704   6.549   5.327   0.248
 2269SOL     OW 7705   0.057   5.175   4.820
 2269SOL    HW1 7706   0.114   5.228   4.882
 2269SOL    HW2 7707   0.058   5.218   4.730
 2270SOL     OW 7708   4.367   3.284   1.691
 2270SOL    HW1 7709   4.275   3.298   1.729
 2270SOL    HW2 7710   4.402   3.370   1.656
 2271SOL     OW 7711   6.292   4.358   3.005
 2271SOL    HW1 7712   6.308   4.302   2.923
 2271SOL    HW2 7713   6.213   4.323   3.055
 2272SOL     OW 7714   5.133   2.078   6.737
 2272SOL    HW1 7715   5.232   2.075   6.727
 2272SOL    HW2 7716   5.097   1.984   6.732
 2273SOL     OW 7717   1.032   1.810   3.596
 2273SOL    HW1 7718   1.106   1.778   3.656
 2273SOL    HW2 7719   1.067   1.819   3.503
 2274SOL     OW 7720   1.762   3.222   3.502
 2274SOL    HW1 7721   1.733   3.142   3.554
 2274SOL    HW2 7722   1.684   3.283   3.487
 2275SOL     OW 7723   4.803   0.087   3.461
 2275SOL    HW1 7724   4.876   0.133   3.511
 2275SOL    HW2 7725   4.778   0.141   3.380
 2276SOL     OW 7726   4.802   4.913   1.456
 2276SOL    HW1 7727   4.834   4.945   1.367
 2276SOL    HW2 7728   4.807   4.989   1.522
 2277SOL     OW 7729   3.231   3.997   0.445
 2277SOL    HW1 7730   3.165   3.921   0.445
 2277SOL    HW2 7731   3.206   4.062   0.373
 2278SOL     OW 7732   5.888   6.747   0.949
 2278SOL    HW1 7733   5.898   6.685   0.871
 2278SOL    HW2 7734   5.792   6.775   0.956
 2279SOL     OW 7735   5.107   4.456   4.849
 2279SOL    HW1 7736   5.190   4.427   4.801
 2279SOL    HW2 7737   5.062   4.377   4.889
 2280SOL     OW 7738   5.108   6.913   6.005
 2280SOL    HW1 7739   5.071   6.845   5.943
 2280SOL    HW2 7740   5.122   6.871   6.095
 2281SOL     OW 7741   2.771   3.049   1.103
 2281SOL    HW1 7742   2.750   2.957   1.134
 2281SOL    HW2 7743   2.703   3.078   1.035
 2282SOL     OW 7744   3.941   5.172   2.935
 2282SOL    HW1 7745   3.935   5.179   3.035
 2282SOL    HW2 7746   4.005   5.242   2.901
 2283SOL     OW 7747   0.244   3.621   3.059
 2283SOL    HW1 7748   0.202   3.592   3.144
 2283SOL    HW2 7749   0.230   3.551   2.989
 2284SOL     OW 7750   2.359   2.728   2.204
 2284SOL    HW1 7751   2.376   2.724   2.106
 2284SOL    HW2 7752   2.436   2.687   2.253
 2285SOL     OW 7753   1.816   4.308   0.059
 2285SOL    HW1 7754   1.869   4.341   7.006
 2285SOL    HW2 7755   1.853   4.221   0.091
 2286SOL     OW 7756   5.792   6.598   4.377
 2286SOL    HW1 7757   5.758   6.683   4.337
 2286SOL    HW2 7758   5.802   6.610   4.476
 2287SOL     OW 7759   1.952   2.789   1.846
 2287SOL    HW1 7760   1.907   2.868   1.804
 2287SOL    HW2 7761   1.899   2.761   1.927
 2288SOL     OW 7762   0.634   6.543   4.690
 2288SOL    HW1 7763   0.704   6.479   4.721
 2288SOL    HW2 7764   0.672   6.635   4.685
 2289SOL     OW 7765   4.464   2.466   1.558
 2289SOL    HW1 7766   4.513   2.394   1.508
 2289SOL    HW2 7767   4.426   2.532   1.493
 2290SOL     OW 7768   3.364   3.431   2.836
 2290SOL    HW1 7769   3.378   3.348   2.891
 2290SOL    HW2 7770   3.290   3.485   2.875
 2291SOL     OW 7771   1.073   2.462   0.144
 2291SOL    HW1 7772   1.149   2.430   0.201
 2291SOL    HW2 7773   0.986   2.437   0.187
 2292SOL     OW 7774   4.586   1.931   2.637
 2292SOL    HW1 7775   4.571   1.835   2.660
 2292SOL    HW2 7776   4.643   1.974   2.707
 2293SOL     OW 7777   6.804   1.437   6.592
 2293SOL    HW1 7778   6.727   1.499   6.608
 2293SOL    HW2 7779   6.885   1.473   6.637
 2294SOL     OW 7780   0.005   1.979   5.615
 2294SOL    HW1 7781   6.953   1.968   5.679
 2294SOL    HW2 7782   0.013   1.896   5.559
 2295SOL     OW 7783   5.941   6.490   1.136
 2295SOL    HW1 7784   6.010   6.477   1.064
 2295SOL    HW2 7785   5.881   6.410   1.139
 2296SOL     OW 7786   3.419   5.496   4.457
 2296SOL    HW1 7787   3.509   5.520   4.493
 2296SOL    HW2 7788   3.353   5.492   4.532
 2297SOL     OW 7789   4.350   4.128   5.436
 2297SOL    HW1 7790   4.259   4.154   5.468
 2297SOL    HW2 7791   4.399   4.210   5.405
 2298SOL     OW 7792   3.801   3.721   4.796
 2298SOL    HW1 7793   3.861   3.754   4.869
 2298SOL    HW2 7794   3.843   3.739   4.707
 2299SOL     OW 7795   5.934   3.370   4.804
 2299SOL    HW1 7796   5.867   3.443   4.792
 2299SOL    HW2 7797   5.886   3.284   4.823
 2300SOL     OW 7798   4.606   6.410   2.346
 2300SOL    HW1 7799   4.641   6.423   2.439
 2300SOL    HW2 7800   4.619   6.315   2.319
 2301SOL     OW 7801   3.824   3.075   4.347
 2301SOL    HW1 7802   3.752   3.140   4.324
 2301SOL    HW2 7803   3.797   3.023   4.429
 2302SOL     OW 7804   5.032   2.444   0.498
 2302SOL    HW1 7805   5.041   2.543   0.490
 2302SOL    HW2 7806   4.960   2.422   0.564
 2303SOL     OW 7807   3.933   1.798   6.810
 2303SOL    HW1 7808   3.855   1.845   6.851
 2303SOL    HW2 7809   3.966   1.727   6.871
 2304SOL     OW 7810   4.988   6.020   2.219
 2304SOL    HW1 7811   4.926   6.026   2.298
 2304SOL    HW2 7812   4.991   5.926   2.186
 2305SOL     OW 7813   2.591   0.622   4.920
 2305SOL    HW1 7814   2.605   0.585   5.012
 2305SOL    HW2 7815   2.670   0.677   4.893
 2306SOL     OW 7816   0.936   4.988   4.362
 2306SOL    HW1 7817   0.890   4.907   4.328
 2306SOL    HW2 7818   0.990   4.964   4.443
 2307SOL     OW 7819   6.651   3.378   6.078
 2307SOL    HW1 7820   6.727   3.442   6.093
 2307SOL    HW2 7821   6.609   3.354   6.165
 2308SOL     OW 7822   1.899   5.520   1.824
 2308SOL    HW1 7823   1.951   5.484   1.902
 2308SOL    HW2 7824   1.834   5.589   1.856
 2309SOL     OW 7825   2.023   6.299   5.268
 2309SOL    HW1 7826   1.978   6.216   5.235
 2309SOL    HW2 7827   2.104   6.274   5.322
 2310SOL     OW 7828   4.658   6.744   1.566
 2310SOL    HW1 7829   4.700   6.742   1.475
 2310SOL    HW2 7830   4.600   6.664   1.577
 2311SOL     OW 7831   3.321   5.563   1.312
 2311SOL    HW1 7832   3.363   5.496   1.251
 2311SOL    HW2 7833   3.241   5.523   1.356
 2312SOL     OW 7834   3.184   4.826   2.572
 2312SOL    HW1 7835   3.241   4.898   2.532
 2312SOL    HW2 7836   3.150   4.855   2.661
 2313SOL     OW 7837   5.202   5.820   1.441
 2313SOL    HW1 7838   5.210   5.774   1.529
 2313SOL    HW2 7839   5.151   5.762   1.377
 2314SOL     OW 7840   1.788   5.374   4.425
 2314SOL    HW1 7841   1.720   5.302   4.434
 2314SOL    HW2 7842   1.781   5.417   4.335
 2315SOL     OW 7843   4.271   2.395   6.517
 2315SOL    HW1 7844   4.201   2.329   6.488
 2315SOL    HW2 7845   4.360   2.349   6.522
 2316SOL     OW 7846   5.176   4.062   2.037
 2316SOL    HW1 7847   5.203   4.157   2.019
 2316SOL    HW2 7848   5.211   4.035   2.127
 2317SOL     OW 7849   0.747   4.822   3.624
 2317SOL    HW1 7850   0.752   4.921   3.635
 2317SOL    HW2 7851   0.652   4.795   3.606
 2318SOL     OW 7852   0.104   0.695   4.214
 2318SOL    HW1 7853   0.116   0.713   4.311
 2318SOL    HW2 7854   0.140   0.772   4.161
 2319SOL     OW 7855   0.707   4.034   3.379
 2319SOL    HW1 7856   0.698   4.067   3.474
 2319SOL    HW2 7857   0.803   4.027   3.356
 2320SOL     OW 7858   6.263   4.499   4.660
 2320SOL    HW1 7859   6.259   4.573   4.592
 2320SOL    HW2 7860   6.260   4.411   4.613
 2321SOL     OW 7861   2.461   5.195   5.298
 2321SOL    HW1 7862   2.476   5.190   5.397
 2321SOL    HW2 7863   2.510   5.120   5.253
 2322SOL     OW 7864   2.334   0.405   6.294
 2322SOL    HW1 7865   2.408   0.468   6.317
 2322SOL    HW2 7866   2.255   0.458   6.263
 2323SOL     OW 7867   5.108   4.813   1.679
 2323SOL    HW1 7868   5.058   4.764   1.608
 2323SOL    HW2 7869   5.115   4.756   1.761
 2324SOL     OW 7870   6.673   4.847   3.673
 2324SOL    HW1 7871   6.635   4.913   3.737
 2324SOL    HW2 7872   6.751   4.887   3.626
 2325SOL     OW 7873   6.855   2.639   0.512
 2325SOL    HW1 7874   6.914   2.559   0.510
 2325SOL    HW2 7875   6.904   2.719   0.477
 2326SOL     OW 7876   1.847   4.970   0.177
 2326SOL    HW1 7877   1.884   5.018   0.256
 2326SOL    HW2 7878   1.860   4.872   0.188
 2327SOL     OW 7879   5.699   2.443   5.079
 2327SOL    HW1 7880   5.757   2.365   5.103
 2327SOL    HW2 7881   5.605   2.411   5.065
 2328SOL     OW 7882   5.563   6.944   3.274
 2328SOL    HW1 7883   5.510   6.966   3.192
 2328SOL    HW2 7884   5.640   6.885   3.249
 2329SOL     OW 7885   7.009   6.209   3.638
 2329SOL    HW1 7886   0.010   6.123   3.593
 2329SOL    HW2 7887   0.060   6.239   3.697
 2330SOL     OW 7888   0.485   3.845   2.023
 2330SOL    HW1 7889   0.480   3.801   2.113
 2330SOL    HW2 7890   0.579   3.875   2.007
 2331SOL     OW 7891   0.620   4.047   5.836
 2331SOL    HW1 7892   0.709   4.005   5.819
 2331SOL    HW2 7893   0.611   4.130   5.780
 2332SOL     OW 7894   5.980   2.284   4.883
 2332SOL    HW1 7895   5.951   2.338   4.962
 2332SOL    HW2 7896   6.002   2.191   4.913
 2333SOL     OW 7897   1.399   4.820   3.665
 2333SOL    HW1 7898   1.374   4.796   3.572
 2333SOL    HW2 7899   1.421   4.737   3.717
 2334SOL     OW 7900   2.134   0.267   0.821
 2334SOL    HW1 7901   2.109   0.286   0.916
 2334SOL    HW2 7902   2.055   0.228   0.773
 2335SOL     OW 7903   4.732   6.679   4.033
 2335SOL    HW1 7904   4.736   6.652   4.129
 2335SOL    HW2 7905   4.700   6.774   4.026
 2336SOL     OW 7906   4.672   1.956   5.923
 2336SOL    HW1 7907   4.597   1.929   5.983
 2336SOL    HW2 7908   4.655   1.921   5.831
 2337SOL     OW 7909   6.093   0.555   2.671
 2337SOL    HW1 7910   6.090   0.480   2.738
 2337SOL    HW2 7911   6.040   0.529   2.590
 2338SOL     OW 7912   1.488   6.682   6.288
 2338SOL    HW1 7913   1.557   6.649   6.352
 2338SOL    HW2 7914   1.443   6.763   6.325
 2339SOL     OW 7915   4.104   4.671   7.005
 2339SOL    HW1 7916   4.059   4.593   6.963
 2339SOL    HW2 7917   4.200   4.674   6.976
 2340SOL     OW 7918   4.072   4.800   4.189
 2340SOL    HW1 7919   3.978   4.799   4.154
 2340SOL    HW2 7920   4.134   4.825   4.114
 2341SOL     OW 7921   6.071   5.195   0.072
 2341SOL    HW1 7922   6.081   5.154   0.163
 2341SOL    HW2 7923   5.982   5.168   0.033
 2342SOL     OW 7924   6.413   0.254   4.914
 2342SOL    HW1 7925   6.366   0.170   4.885
 2342SOL    HW2 7926   6.380   0.330   4.858
 2343SOL     OW 7927   1.534   6.723   0.362
 2343SOL    HW1 7928   1.485   6.649   0.408
 2343SOL    HW2 7929   1.546   6.799   0.426
 2344SOL     OW 7930   2.283   1.364   3.117
 2344SOL    HW1 7931   2.204   1.398   3.066
 2344SOL    HW2 7932   2.254   1.300   3.187
 2345SOL     OW 7933   2.087   1.314   3.927
 2345SOL    HW1 7934   2.063   1.225   3.967
 2345SOL    HW2 7935   2.184   1.314   3.902
 2346SOL     OW 7936   4.769   3.836   5.969
 2346SOL    HW1 7937   4.853   3.890   5.981
 2346SOL    HW2 7938   4.765   3.764   6.039
 2347SOL     OW 7939   1.360   3.264   1.231
 2347SOL    HW1 7940   1.372   3.216   1.144
 2347SOL    HW2 7941   1.265   3.294   1.239
 2348SOL     OW 7942   2.636   6.458   1.694
 2348SOL    HW1 7943   2.710   6.481   1.757
 2348SOL    HW2 7944   2.664   6.478   1.601
 2349SOL     OW 7945   5.027   5.409   5.877
 2349SOL    HW1 7946   5.120   5.442   5.863
 2349SOL    HW2 7947   4.987   5.381   5.790
 2350SOL     OW 7948   2.624   6.258   5.580
 2350SOL    HW1 7949   2.666   6.255   5.671
 2350SOL    HW2 7950   2.693   6.281   5.512
 2351SOL     OW 7951   2.303   5.599   4.332
 2351SOL    HW1 7952   2.243   5.678   4.322
 2351SOL    HW2 7953   2.253   5.516   4.308
 2352SOL     OW 7954   0.078   3.645   2.144
 2352SOL    HW1 7955   0.138   3.710   2.191
 2352SOL    HW2 7956   7.011   3.648   2.184
 2353SOL     OW 7957   2.538   4.289   6.012
 2353SOL    HW1 7958   2.480   4.354   5.963
 2353SOL    HW2 7959   2.560   4.213   5.952
 2354SOL     OW 7960   3.686   3.168   1.349
 2354SOL    HW1 7961   3.742   3.113   1.287
 2354SOL    HW2 7962   3.589   3.153   1.328
 2355SOL     OW 7963   0.415   0.018   0.974
 2355SOL    HW1 7964   0.490   0.084   0.976
 2355SOL    HW2 7965   0.425   6.982   0.895
 2356SOL     OW 7966   2.787   4.856   3.258
 2356SOL    HW1 7967   2.773   4.883   3.354
 2356SOL    HW2 7968   2.768   4.934   3.198
 2357SOL     OW 7969   6.282   4.958   0.803
 2357SOL    HW1 7970   6.346   5.020   0.847
 2357SOL    HW2 7971   6.317   4.865   0.807
 2358SOL     OW 7972   4.050   1.693   5.838
 2358SOL    HW1 7973   3.952   1.694   5.820
 2358SOL    HW2 7974   4.068   1.640   5.921
 2359SOL     OW 7975   1.479   1.341   5.595
 2359SOL    HW1 7976   1.449   1.395   5.517
 2359SOL    HW2 7977   1.449   1.385   5.680
 2360SOL     OW 7978   4.137   3.915   0.379
 2360SOL    HW1 7979   4.106   3.921   0.284
 2360SOL    HW2 7980   4.058   3.914   0.440
 2361SOL     OW 7981   4.296   5.855   1.506
 2361SOL    HW1 7982   4.270   5.951   1.520
 2361SOL    HW2 7983   4.395   5.845   1.521
 2362SOL     OW 7984   4.291   5.715   3.467
 2362SOL    HW1 7985   4.239   5.727   3.551
 2362SOL    HW2 7986   4.369   5.778   3.467
 2363SOL     OW 7987   2.600   4.113   0.710
 2363SOL    HW1 7988   2.554   4.088   0.624
 2363SOL    HW2 7989   2.531   4.143   0.776
 2364SOL     OW 7990   4.075   1.426   2.314
 2364SOL    HW1 7991   4.112   1.466   2.230
 2364SOL    HW2 7992   4.085   1.492   2.389
 2365SOL     OW 7993   4.854   3.372   3.223
 2365SOL    HW1 7994   4.928   3.305   3.229
 2365SOL    HW2 7995   4.783   3.337   3.161
 2366SOL     OW 7996   2.462   4.491   4.996
 2366SOL    HW1 7997   2.498   4.584   5.002
 2366SOL    HW2 7998   2.535   4.426   5.016
 2367SOL     OW 7999   5.879   4.519   6.346
 2367SOL    HW1 8000   5.926   4.526   6.258
 2367SOL    HW2 8001   5.780   4.519   6.331
 2368SOL     OW 8002   5.331   6.499   4.440
 2368SOL    HW1 8003   5.343   6.440   4.360
 2368SOL    HW2 8004   5.263   6.459   4.501
 2369SOL     OW 8005   3.354   1.863   4.543
 2369SOL    HW1 8006   3.372   1.953   4.584
 2369SOL    HW2 8007   3.267   1.828   4.577
 2370SOL     OW 8008   5.872   3.005   1.724
 2370SOL    HW1 8009   5.806   3.050   1.664
 2370SOL    HW2 8010   5.965   3.037   1.703
 2371SOL     OW 8011   0.626   6.509   2.930
 2371SOL    HW1 8012   0.621   6.410   2.916
 2371SOL    HW2 8013   0.714   6.532   2.970
 2372SOL     OW 8014   6.460   0.312   6.109
 2372SOL    HW1 8015   6.498   0.290   6.019
 2372SOL    HW2 8016   6.514   0.268   6.180
 2373SOL     OW 8017   5.787   5.127   0.055
 2373SOL    HW1 8018   5.775   5.118   0.154
 2373SOL    HW2 8019   5.757   5.043   0.010
 2374SOL     OW 8020   6.629   6.092   2.141
 2374SOL    HW1 8021   6.641   6.107   2.043
 2374SOL    HW2 8022   6.707   6.130   2.190
 2375SOL     OW 8023   1.156   0.116   4.149
 2375SOL    HW1 8024   1.069   0.113   4.100
 2375SOL    HW2 8025   1.214   0.041   4.117
 2376SOL     OW 8026   5.690   1.533   3.413
 2376SOL    HW1 8027   5.783   1.567   3.408
 2376SOL    HW2 8028   5.626   1.608   3.398
 2377SOL     OW 8029   4.206   4.715   5.612
 2377SOL    HW1 8030   4.233   4.809   5.589
 2377SOL    HW2 8031   4.204   4.705   5.711
 2378SOL     OW 8032   6.619   0.981   0.112
 2378SOL    HW1 8033   6.708   1.021   0.089
 2378SOL    HW2 8034   6.621   0.947   0.206
 2379SOL     OW 8035   6.376   4.517   0.963
 2379SOL    HW1 8036   6.417   4.539   0.874
 2379SOL    HW2 8037   6.276   4.515   0.954
 2380SOL     OW 8038   4.701   4.900   4.862
 2380SOL    HW1 8039   4.763   4.824   4.845
 2380SOL    HW2 8040   4.741   4.962   4.930
 2381SOL     OW 8041   1.586   4.576   4.818
 2381SOL    HW1 8042   1.575   4.506   4.747
 2381SOL    HW2 8043   1.682   4.579   4.847
 2382SOL     OW 8044   0.590   6.098   2.753
 2382SOL    HW1 8045   0.635   6.099   2.842
 2382SOL    HW2 8046   0.629   6.169   2.695
 2383SOL     OW 8047   5.847   5.504   5.616
 2383SOL    HW1 8048   5.946   5.518   5.610
 2383SOL    HW2 8049   5.815   5.460   5.533
 2384SOL     OW 8050   0.605   1.596   2.086
 2384SOL    HW1 8051   0.685   1.542   2.112
 2384SOL    HW2 8052   0.522   1.555   2.124
 2385SOL     OW 8053   0.429   1.765   0.876
 2385SOL    HW1 8054   0.449   1.859   0.848
 2385SOL    HW2 8055   0.408   1.763   0.973
 2386SOL     OW 8056   5.275   5.671   3.520
 2386SOL    HW1 8057   5.302   5.589   3.569
 2386SOL    HW2 8058   5.181   5.696   3.545
 2387SOL     OW 8059   2.120   2.136   4.293
 2387SOL    HW1 8060   2.211   2.124   4.331
 2387SOL    HW2 8061   2.127   2.157   4.195
 2388SOL     OW 8062   6.320   2.093   5.209
 2388SOL    HW1 8063   6.221   2.103   5.209
 2388SOL    HW2 8064   6.358   2.128   5.295
 2389SOL     OW 8065   5.153   4.803   4.393
 2389SOL    HW1 8066   5.094   4.782   4.471
 2389SOL    HW2 8067   5.103   4.786   4.308
 2390SOL     OW 8068   4.158   3.612   5.565
 2390SOL    HW1 8069   4.180   3.660   5.480
 2390SOL    HW2 8070   4.228   3.542   5.582
 2391SOL     OW 8071   2.828   4.929   6.210
 2391SOL    HW1 8072   2.868   4.887   6.292
 2391SOL    HW2 8073   2.735   4.960   6.230
 2392SOL     OW 8074   3.691   5.430   5.350
 2392SOL    HW1 8075   3.644   5.484   5.280
 2392SOL    HW2 8076   3.664   5.334   5.341
 2393SOL     OW 8077   3.763   4.697   1.169
 2393SOL    HW1 8078   3.693   4.747   1.119
 2393SOL    HW2 8079   3.731   4.604   1.189
 2394SOL     OW 8080   0.749   2.212   3.457
 2394SOL    HW1 8081   0.672   2.156   3.487
 2394SOL    HW2 8082   0.817   2.154   3.411
 2395SOL     OW 8083   0.281   2.459   4.592
 2395SOL    HW1 8084   0.307   2.552   4.565
 2395SOL    HW2 8085   0.221   2.420   4.522
 2396SOL     OW 8086   0.071   0.198   5.043
 2396SOL    HW1 8087   0.007   0.270   5.015
 2396SOL    HW2 8088   0.021   0.112   5.052
 2397SOL     OW 8089   0.117   4.334   5.622
 2397SOL    HW1 8090   0.187   4.315   5.553
 2397SOL    HW2 8091   0.033   4.286   5.599
 2398SOL     OW 8092   3.750   6.455   4.120
 2398SOL    HW1 8093   3.734   6.362   4.153
 2398SOL    HW2 8094   3.768   6.453   4.021
 2399SOL     OW 8095   3.678   2.122   3.884
 2399SOL    HW1 8096   3.610   2.098   3.954
 2399SOL    HW2 8097   3.636   2.118   3.794
 2400SOL     OW 8098   0.705   4.189   0.550
 2400SOL    HW1 8099   0.689   4.117   0.618
 2400SOL    HW2 8100   0.625   4.199   0.492
 2401SOL     OW 8101   2.640   0.393   5.789
 2401SOL    HW1 8102   2.554   0.342   5.792
 2401SOL    HW2 8103   2.717   0.329   5.795
 2402SOL     OW 8104   1.058   4.370   2.281
 2402SOL    HW1 8105   1.088   4.312   2.205
 2402SOL    HW2 8106   1.107   4.344   2.364
 2403SOL     OW 8107   4.119   3.508   3.015
 2403SOL    HW1 8108   4.101   3.596   3.058
 2403SOL    HW2 8109   4.142   3.521   2.919
 2404SOL     OW 8110   6.189   1.470   0.934
 2404SOL    HW1 8111   6.136   1.431   0.859
 2404SOL    HW2 8112   6.128   1.517   0.998
 2405SOL     OW 8113   1.792   3.246   0.811
 2405SOL    HW1 8114   1.795   3.340   0.845
 2405SOL    HW2 8115   1.705   3.204   0.837
 2406SOL     OW 8116   2.764   5.892   4.782
 2406SOL    HW1 8117   2.702   5.932   4.850
 2406SOL    HW2 8118   2.740   5.928   4.691
 2407SOL     OW 8119   3.286   1.155   3.963
 2407SOL    HW1 8120   3.253   1.091   4.032
 2407SOL    HW2 8121   3.212   1.218   3.939
 2408SOL     OW 8122   3.016   5.908   4.449
 2408SOL    HW1 8123   2.951   5.941   4.518
 2408SOL    HW2 8124   2.995   5.952   4.361
 2409SOL     OW 8125   1.698   3.325   1.645
 2409SOL    HW1 8126   1.658   3.328   1.554
 2409SOL    HW2 8127   1.796   3.344   1.639
 2410SOL     OW 8128   1.028   3.504   5.191
 2410SOL    HW1 8129   0.994   3.441   5.260
 2410SOL    HW2 8130   1.043   3.455   5.105
 2411SOL     OW 8131   2.970   4.242   0.421
 2411SOL    HW1 8132   2.993   4.217   0.515
 2411SOL    HW2 8133   3.051   4.280   0.376
 2412SOL     OW 8134   3.376   1.977   6.749
 2412SOL    HW1 8135   3.420   2.043   6.810
 2412SOL    HW2 8136   3.330   1.907   6.805
 2413SOL     OW 8137   0.017   3.090   6.913
 2413SOL    HW1 8138   7.013   3.145   6.835
 2413SOL    HW2 8139   0.115   3.102   6.929
 2414SOL     OW 8140   6.844   2.403   5.262
 2414SOL    HW1 8141   6.765   2.344   5.274
 2414SOL    HW2 8142   6.853   2.428   5.165
 2415SOL     OW 8143   2.592   5.278   0.387
 2415SOL    HW1 8144   2.651   5.198   0.396
 2415SOL    HW2 8145   2.648   5.361   0.392
 2416SOL     OW 8146   6.976   3.847   1.946
 2416SOL    HW1 8147   0.011   3.816   2.020
 2416SOL    HW2 8148   6.976   3.779   1.872
 2417SOL     OW 8149   3.027   2.839   1.799
 2417SOL    HW1 8150   3.088   2.870   1.726
 2417SOL    HW2 8151   2.977   2.759   1.768
 2418SOL     OW 8152   4.613   4.204   6.508
 2418SOL    HW1 8153   4.515   4.223   6.512
 2418SOL    HW2 8154   4.630   4.125   6.449
 2419SOL     OW 8155   2.072   6.409   3.784
 2419SOL    HW1 8156   2.008   6.410   3.861
 2419SOL    HW2 8157   2.118   6.320   3.781
 2420SOL     OW 8158   1.448   3.991   2.806
 2420SOL    HW1 8159   1.364   4.045   2.812
 2420SOL    HW2 8160   1.432   3.913   2.745
 2421SOL     OW 8161   2.360   6.333   4.290
 2421SOL    HW1 8162   2.448   6.286   4.287
 2421SOL    HW2 8163   2.292   6.272   4.331
 2422SOL     OW 8164   4.781   6.708   0.589
 2422SOL    HW1 8165   4.829   6.778   0.536
 2422SOL    HW2 8166   4.803   6.617   0.551
 2423SOL     OW 8167   2.641   5.425   2.715
 2423SOL    HW1 8168   2.555   5.470   2.738
 2423SOL    HW2 8169   2.627   5.326   2.711
 2424SOL     OW 8170   5.852   0.596   6.020
 2424SOL    HW1 8171   5.769   0.572   5.970
 2424SOL    HW2 8172   5.855   0.695   6.035
 2425SOL     OW 8173   5.277   6.004   5.264
 2425SOL    HW1 8174   5.288   6.069   5.339
 2425SOL    HW2 8175   5.267   5.912   5.301
 2426SOL     OW 8176   2.601   4.068   5.852
 2426SOL    HW1 8177   2.634   4.130   5.780
 2426SOL    HW2 8178   2.535   4.004   5.813
 2427SOL     OW 8179   5.094   1.158   0.211
 2427SOL    HW1 8180   5.014   1.141   0.269
 2427SOL    HW2 8181   5.159   1.215   0.260
 2428SOL     OW 8182   0.514   0.305   3.083
 2428SOL    HW1 8183   0.547   0.363   3.008
 2428SOL    HW2 8184   0.468   0.225   3.046
 2429SOL     OW 8185   5.648   5.142   1.776
 2429SOL    HW1 8186   5.566   5.184   1.737
 2429SOL    HW2 8187   5.726   5.157   1.715
 2430SOL     OW 8188   6.540   1.621   7.018
 2430SOL    HW1 8189   6.463   1.560   0.014
 2430SOL    HW2 8190   6.552   1.685   0.070
 2431SOL     OW 8191   6.800   2.836   1.629
 2431SOL    HW1 8192   6.860   2.907   1.594
 2431SOL    HW2 8193   6.824   2.814   1.724
 2432SOL     OW 8194   3.321   5.178   2.640
 2432SOL    HW1 8195   3.315   5.274   2.668
 2432SOL    HW2 8196   3.238   5.152   2.592
 2433SOL     OW 8197   6.005   4.291   6.074
 2433SOL    HW1 8198   6.017   4.193   6.059
 2433SOL    HW2 8199   6.062   4.321   6.150
 2434SOL     OW 8200   4.916   1.190   2.923
 2434SOL    HW1 8201   4.973   1.114   2.954
 2434SOL    HW2 8202   4.890   1.246   3.001
 2435SOL     OW 8203   5.878   6.575   6.988
 2435SOL    HW1 8204   5.894   6.480   6.961
 2435SOL    HW2 8205   5.928   6.636   6.927
 2436SOL     OW 8206   1.947   2.137   2.172
 2436SOL    HW1 8207   1.849   2.151   2.160
 2436SOL    HW2 8208   1.986   2.212   2.225
 2437SOL     OW 8209   0.025   4.572   2.425
 2437SOL    HW1 8210   0.008   4.624   2.508
 2437SOL    HW2 8211   6.996   4.611   2.350
 2438SOL     OW 8212   3.028   1.318   4.995
 2438SOL    HW1 8213   3.007   1.376   5.074
 2438SOL    HW2 8214   3.092   1.365   4.935
 2439SOL     OW 8215   1.154   6.504   1.512
 2439SOL    HW1 8216   1.238   6.488   1.563
 2439SOL    HW2 8217   1.080   6.450   1.551
 2440SOL     OW 8218   5.746   0.867   4.928
 2440SOL    HW1 8219   5.760   0.890   5.024
 2440SOL    HW2 8220   5.812   0.798   4.900
 2441SOL     OW 8221   6.390   7.017   0.010
 2441SOL    HW1 8222   6.337   0.065   0.054
 2441SOL    HW2 8223   6.361   7.007   6.939
 2442SOL     OW 8224   5.079   3.216   1.978
 2442SOL    HW1 8225   5.032   3.288   2.029
 2442SOL    HW2 8226   5.014   3.173   1.915
 2443SOL     OW 8227   0.390   2.030   1.457
 2443SOL    HW1 8228   0.463   2.012   1.523
 2443SOL    HW2 8229   0.420   2.099   1.392
 2444SOL     OW 8230   3.783   6.161   1.762
 2444SOL    HW1 8231   3.692   6.127   1.786
 2444SOL    HW2 8232   3.839   6.169   1.844
 2445SOL     OW 8233   6.731   2.335   0.558
 2445SOL    HW1 8234   6.721   2.399   0.482
 2445SOL    HW2 8235   6.818   2.287   0.550
 2446SOL     OW 8236   2.038   4.743   1.382
 2446SOL    HW1 8237   1.973   4.699   1.320
 2446SOL    HW2 8238   2.123   4.691   1.384
 2447SOL     OW 8239   3.186   0.027   0.308
 2447SOL    HW1 8240   3.250   0.102   0.324
 2447SOL    HW2 8241   3.102   0.062   0.268
 2448SOL     OW 8242   6.428   1.954   4.578
 2448SOL    HW1 8243   6.496   1.888   4.609
 2448SOL    HW2 8244   6.447   1.979   4.483
 2449SOL     OW 8245   1.738   4.669   1.670
 2449SOL    HW1 8246   1.719   4.733   1.596
 2449SOL    HW2 8247   1.663   4.671   1.736
 2450SOL     OW 8248   1.690   6.526   6.102
 2450SOL    HW1 8249   1.598   6.522   6.142
 2450SOL    HW2 8250   1.733   6.435   6.109
 2451SOL     OW 8251   1.049   7.011   4.940
 2451SOL    HW1 8252   1.103   7.020   4.856
 2451SOL    HW2 8253   0.997   6.926   4.937
 2452SOL     OW 8254   3.080   1.355   4.037
 2452SOL    HW1 8255   3.097   1.440   3.986
 2452SOL    HW2 8256   2.992   1.317   4.009
 2453SOL     OW 8257   1.206   1.540   6.979
 2453SOL    HW1 8258   1.288   1.551   0.010
 2453SOL    HW2 8259   1.211   1.599   6.898
 2454SOL     OW 8260   3.335   5.182   1.086
 2454SOL    HW1 8261   3.288   5.216   1.168
 2454SOL    HW2 8262   3.364   5.087   1.101
 2455SOL     OW 8263   3.388   2.145   0.543
 2455SOL    HW1 8264   3.469   2.162   0.600
 2455SOL    HW2 8265   3.416   2.129   0.449
 2456SOL     OW 8266   0.941   4.696   6.011
 2456SOL    HW1 8267   1.033   4.735   6.010
 2456SOL    HW2 8268   0.924   4.648   5.925
 2457SOL     OW 8269   5.500   2.103   5.681
 2457SOL    HW1 8270   5.547   2.183   5.718
 2457SOL    HW2 8271   5.401   2.113   5.694
 2458SOL     OW 8272   1.752   0.115   1.531
 2458SOL    HW1 8273   1.824   0.053   1.562
 2458SOL    HW2 8274   1.732   0.181   1.602
 2459SOL     OW 8275   3.071   5.979   1.110
 2459SOL    HW1 8276   3.012   5.972   1.191
 2459SOL    HW2 8277   3.026   5.934   1.032
 2460SOL     OW 8278   1.136   0.957   5.354
 2460SOL    HW1 8279   1.115   0.861   5.335
 2460SOL    HW2 8280   1.123   1.011   5.270
 2461SOL     OW 8281   3.755   1.429   4.009
 2461SOL    HW1 8282   3.782   1.513   4.056
 2461SOL    HW2 8283   3.657   1.415   4.020
 2462SOL     OW 8284   7.021   4.178   1.013
 2462SOL    HW1 8285   7.017   4.188   1.112
 2462SOL    HW2 8286   0.069   4.237   0.976
 2463SOL     OW 8287   6.672   1.170   6.157
 2463SOL    HW1 8288   6.613   1.091   6.172
 2463SOL    HW2 8289   6.741   1.147   6.087
 2464SOL     OW 8290   0.341   1.779   3.165
 2464SOL    HW1 8291   0.356   1.806   3.070
 2464SOL    HW2 8292   0.414   1.816   3.222
 2465SOL     OW 8293   0.736   4.606   5.661
 2465SOL    HW1 8294   0.743   4.565   5.570
 2465SOL    HW2 8295   0.793   4.555   5.725
 2466SOL     OW 8296   0.565   2.451   1.916
 2466SOL    HW1 8297   0.606   2.481   1.830
 2466SOL    HW2 8298   0.578   2.353   1.927
 2467SOL     OW 8299   5.199   1.237   6.124
 2467SOL    HW1 8300   5.162   1.315   6.074
 2467SOL    HW2 8301   5.233   1.168   6.060
 2468SOL     OW 8302   3.298   6.790   5.528
 2468SOL    HW1 8303   3.220   6.850   5.546
 2468SOL    HW2 8304   3.372   6.811   5.591
 2469SOL     OW 8305   3.498   2.684   5.696
 2469SOL    HW1 8306   3.443   2.607   5.728
 2469SOL    HW2 8307   3.443   2.741   5.634
 2470SOL     OW 8308   3.272   4.970   6.556
 2470SOL    HW1 8309   3.252   4.958   6.653
 2470SOL    HW2 8310   3.254   5.064   6.530
 2471SOL     OW 8311   4.560   5.839   1.511
 2471SOL    HW1 8312   4.645   5.860   1.559
 2471SOL    HW2 8313   4.574   5.760   1.451
 2472SOL     OW 8314   4.800   1.514   4.532
 2472SOL    HW1 8315   4.739   1.465   4.593
 2472SOL    HW2 8316   4.876   1.455   4.505
 2473SOL     OW 8317   0.413   4.180   4.932
 2473SOL    HW1 8318   0.369   4.269   4.922
 2473SOL    HW2 8319   0.493   4.175   4.872
 2474SOL     OW 8320   1.346   5.753   1.647
 2474SOL    HW1 8321   1.377   5.661   1.624
 2474SOL    HW2 8322   1.388   5.819   1.586
 2475SOL     OW 8323   4.650   0.582   1.043
 2475SOL    HW1 8324   4.645   0.581   0.943
 2475SOL    HW2 8325   4.739   0.619   1.071
 2476SOL     OW 8326   5.817   0.298   0.308
 2476SOL    HW1 8327   5.818   0.339   0.399
 2476SOL    HW2 8328   5.807   0.369   0.239
 2477SOL     OW 8329   4.007   0.366   3.184
 2477SOL    HW1 8330   3.955   0.384   3.267
 2477SOL    HW2 8331   3.999   0.445   3.122
 2478SOL     OW 8332   4.282   1.027   3.186
 2478SOL    HW1 8333   4.227   1.092   3.237
 2478SOL    HW2 8334   4.259   1.032   3.089
 2479SOL     OW 8335   0.494   3.653   0.765
 2479SOL    HW1 8336   0.551   3.651   0.848
 2479SOL    HW2 8337   0.490   3.561   0.726
 2480SOL     OW 8338   3.535   2.415   1.251
 2480SOL    HW1 8339   3.486   2.347   1.198
 2480SOL    HW2 8340   3.562   2.376   1.339
 2481SOL     OW 8341   2.860   0.974   0.937
 2481SOL    HW1 8342   2.934   0.919   0.899
 2481SOL    HW2 8343   2.793   0.913   0.980
 2482SOL     OW 8344   5.223   3.737   6.938
 2482SOL    HW1 8345   5.261   3.829   6.939
 2482SOL    HW2 8346   5.132   3.738   6.898
 2483SOL     OW 8347   0.727   2.055   0.766
 2483SOL    HW1 8348   0.676   2.138   0.740
 2483SOL    HW2 8349   0.773   2.071   0.853
 2484SOL     OW 8350   5.097   1.799   2.165
 2484SOL    HW1 8351   5.150   1.743   2.102
 2484SOL    HW2 8352   5.055   1.741   2.235
 2485SOL     OW 8353   4.979   2.528   6.213
 2485SOL    HW1 8354   5.068   2.559   6.178
 2485SOL    HW2 8355   4.991   2.442   6.262
 2486SOL     OW 8356   0.467   3.815   5.044
 2486SOL    HW1 8357   0.469   3.739   5.109
 2486SOL    HW2 8358   0.415   3.891   5.083
 2487SOL     OW 8359   4.838   6.027   0.252
 2487SOL    HW1 8360   4.845   5.975   0.337
 2487SOL    HW2 8361   4.858   5.966   0.175
 2488SOL     OW 8362   6.818   4.758   1.645
 2488SOL    HW1 8363   6.897   4.706   1.613
 2488SOL    HW2 8364   6.744   4.751   1.579
 2489SOL     OW 8365   0.390   5.921   3.881
 2489SOL    HW1 8366   0.311   5.860   3.872
 2489SOL    HW2 8367   0.473   5.871   3.856
 2490SOL     OW 8368   3.169   6.012   2.493
 2490SOL    HW1 8369   3.234   6.077   2.533
 2490SOL    HW2 8370   3.077   6.032   2.526
 2491SOL     OW 8371   4.328   5.039   1.686
 2491SOL    HW1 8372   4.399   4.991   1.634
 2491SOL    HW2 8373   4.306   5.125   1.642
 2492SOL     OW 8374   5.626   3.784   0.534
 2492SOL    HW1 8375   5.621   3.853   0.462
 2492SOL    HW2 8376   5.664   3.826   0.617
 2493SOL     OW 8377   0.168   6.659   1.476
 2493SOL    HW1 8378   0.187   6.696   1.567
 2493SOL    HW2 8379   0.120   6.572   1.484
 2494SOL     OW 8380   6.160   2.530   1.500
 2494SOL    HW1 8381   6.136   2.450   1.554
 2494SOL    HW2 8382   6.083   2.556   1.443
 2495SOL     OW 8383   5.453   5.620   3.325
 2495SOL    HW1 8384   5.402   5.578   3.250
 2495SOL    HW2 8385   5.389   5.650   3.396
 2496SOL     OW 8386   6.424   4.399   6.558
 2496SOL    HW1 8387   6.375   4.486   6.558
 2496SOL    HW2 8388   6.482   4.393   6.640
 2497SOL     OW 8389   0.434   6.881   1.689
 2497SOL    HW1 8390   0.434   6.843   1.781
 2497SOL    HW2 8391   0.368   6.957   1.684
 2498SOL     OW 8392   2.828   3.337   5.962
 2498SOL    HW1 8393   2.838   3.365   5.866
 2498SOL    HW2 8394   2.868   3.407   6.021
 2499SOL     OW 8395   6.256   3.567   1.732
 2499SOL    HW1 8396   6.257   3.566   1.832
 2499SOL    HW2 8397   6.161   3.575   1.700
 2500SOL     OW 8398   3.824   4.046   6.498
 2500SOL    HW1 8399   3.906   3.989   6.505
 2500SOL    HW2 8400   3.764   4.011   6.426
 2501SOL     OW 8401   5.788   6.160   0.366
 2501SOL    HW1 8402   5.815   6.245   0.412
 2501SOL    HW2 8403   5.851   6.141   0.291
 2502SOL     OW 8404   2.625   5.804   5.058
 2502SOL    HW1 8405   2.701   5.749   5.093
 2502SOL    HW2 8406   2.565   5.747   5.002
 2503SOL     OW 8407   2.563   6.869   5.419
 2503SOL    HW1 8408   2.593   6.781   5.383
 2503SOL    HW2 8409   2.643   6.926   5.439
 2504SOL     OW 8410   3.102   5.648   3.219
 2504SOL    HW1 8411   3.047   5.657   3.136
 2504SOL    HW2 8412   3.198   5.665   3.198
 2505SOL     OW 8413   0.825   5.747   2.486
 2505SOL    HW1 8414   0.920   5.780   2.479
 2505SOL    HW2 8415   0.773   5.808   2.545
 2506SOL     OW 8416   6.195   4.356   6.259
 2506SOL    HW1 8417   6.216   4.264   6.291
 2506SOL    HW2 8418   6.281   4.406   6.242
 2507SOL     OW 8419   6.822   2.997   0.321
 2507SOL    HW1 8420   6.877   2.992   0.404
 2507SOL    HW2 8421   6.833   3.087   0.279
 2508SOL     OW 8422   3.095   2.273   5.372
 2508SOL    HW1 8423   3.154   2.337   5.322
 2508SOL    HW2 8424   3.000   2.292   5.351
 2509SOL     OW 8425   6.198   3.822   6.557
 2509SOL    HW1 8426   6.135   3.849   6.630
 2509SOL    HW2 8427   6.170   3.867   6.472
 2510SOL     OW 8428   3.474   4.186   1.851
 2510SOL    HW1 8429   3.453   4.281   1.825
 2510SOL    HW2 8430   3.569   4.166   1.829
 2511SOL     OW 8431   2.222   0.731   5.180
 2511SOL    HW1 8432   2.318   0.708   5.193
 2511SOL    HW2 8433   2.204   0.824   5.214
 2512SOL     OW 8434   3.531   4.768   5.249
 2512SOL    HW1 8435   3.623   4.766   5.288
 2512SOL    HW2 8436   3.486   4.679   5.263
 2513SOL     OW 8437   1.922   6.799   5.921
 2513SOL    HW1 8438   1.868   6.717   5.899
 2513SOL    HW2 8439   2.018   6.783   5.900
 2514SOL     OW 8440   1.305   2.981   3.605
 2514SOL    HW1 8441   1.295   3.031   3.519
 2514SOL    HW2 8442   1.222   2.928   3.622
 2515SOL     OW 8443   1.913   0.532   1.461
 2515SOL    HW1 8444   1.950   0.440   1.451
 2515SOL    HW2 8445   1.937   0.587   1.381
 2516SOL     OW 8446   5.035   1.520   3.868
 2516SOL    HW1 8447   5.017   1.595   3.804
 2516SOL    HW2 8448   4.953   1.502   3.922
 2517SOL     OW 8449   1.355   0.729   4.948
 2517SOL    HW1 8450   1.346   0.821   4.986
 2517SOL    HW2 8451   1.265   0.697   4.917
 2518SOL     OW 8452   2.499   5.431   1.474
 2518SOL    HW1 8453   2.433   5.359   1.454
 2518SOL    HW2 8454   2.592   5.395   1.459
 2519SOL     OW 8455   2.515   1.423   1.782
 2519SOL    HW1 8456   2.565   1.382   1.705
 2519SOL    HW2 8457   2.574   1.423   1.863
 2520SOL     OW 8458   3.624   2.309   0.653
 2520SOL    HW1 8459   3.580   2.395   0.679
 2520SOL    HW2 8460   3.641   2.255   0.736
 2521SOL     OW 8461   4.236   1.444   4.920
 2521SOL    HW1 8462   4.197   1.415   4.833
 2521SOL    HW2 8463   4.293   1.371   4.957
 2522SOL     OW 8464   0.985   1.821   5.340
 2522SOL    HW1 8465   0.948   1.777   5.258
 2522SOL    HW2 8466   1.044   1.756   5.388
 2523SOL     OW 8467   2.014   4.393   0.856
 2523SOL    HW1 8468   2.093   4.340   0.887
 2523SOL    HW2 8469   2.011   4.480   0.905
 2524SOL     OW 8470   0.748   6.782   4.298
 2524SOL    HW1 8471   0.811   6.716   4.338
 2524SOL    HW2 8472   0.702   6.742   4.218
 2525SOL     OW 8473   0.997   2.836   4.692
 2525SOL    HW1 8474   1.069   2.767   4.702
 2525SOL    HW2 8475   0.935   2.810   4.618
 2526SOL     OW 8476   1.778   5.158   0.006
 2526SOL    HW1 8477   1.812   5.074   0.049
 2526SOL    HW2 8478   1.854   5.221   7.016
 2527SOL     OW 8479   5.467   5.763   5.370
 2527SOL    HW1 8480   5.379   5.737   5.330
 2527SOL    HW2 8481   5.460   5.760   5.470
 2528SOL     OW 8482   5.600   4.379   5.266
 2528SOL    HW1 8483   5.507   4.357   5.296
 2528SOL    HW2 8484   5.596   4.443   5.189
 2529SOL     OW 8485   0.838   0.431   6.292
 2529SOL    HW1 8486   0.884   0.343   6.307
 2529SOL    HW2 8487   0.740   0.415   6.279
 2530SOL     OW 8488   2.714   6.203   5.997
 2530SOL    HW1 8489   2.739   6.292   6.034
 2530SOL    HW2 8490   2.635   6.166   6.047
 2531SOL     OW 8491   5.555   5.920   5.697
 2531SOL    HW1 8492   5.517   5.827   5.697
 2531SOL    HW2 8493   5.555   5.956   5.604
 2532SOL     OW 8494   0.791   6.078   1.279
 2532SOL    HW1 8495   0.811   6.029   1.194
 2532SOL    HW2 8496   0.736   6.160   1.258
 2533SOL     OW 8497   4.874   1.121   3.458
 2533SOL    HW1 8498   4.885   1.037   3.404
 2533SOL    HW2 8499   4.869   1.098   3.555
 2534SOL     OW 8500   4.771   1.667   1.653
 2534SOL    HW1 8501   4.788   1.598   1.724
 2534SOL    HW2 8502   4.859   1.706   1.624
 2535SOL     OW 8503   3.407   2.753   6.658
 2535SOL    HW1 8504   3.405   2.653   6.667
 2535SOL    HW2 8505   3.356   2.794   6.733
 2536SOL     OW 8506   1.788   0.736   6.459
 2536SOL    HW1 8507   1.729   0.816   6.452
 2536SOL    HW2 8508   1.797   0.693   6.369
 2537SOL     OW 8509   3.459   0.581   6.544
 2537SOL    HW1 8510   3.449   0.676   6.512
 2537SOL    HW2 8511   3.547   0.571   6.591
 2538SOL     OW 8512   6.886   3.905   3.687
 2538SOL    HW1 8513   6.932   3.994   3.688
 2538SOL    HW2 8514   6.956   3.833   3.686
 2539SOL     OW 8515   5.920   1.061   3.405
 2539SOL    HW1 8516   5.898   1.065   3.502
 2539SOL    HW2 8517   5.861   1.123   3.354
 2540SOL     OW 8518   3.894   2.138   3.093
 2540SOL    HW1 8519   3.844   2.146   3.006
 2540SOL    HW2 8520   3.847   2.073   3.152
 2541SOL     OW 8521   2.545   6.942   5.015
 2541SOL    HW1 8522   2.462   6.904   5.055
 2541SOL    HW2 8523   2.531   0.015   4.995
 2542SOL     OW 8524   2.069   3.769   6.577
 2542SOL    HW1 8525   2.106   3.839   6.638
 2542SOL    HW2 8526   2.144   3.727   6.525
 2543SOL     OW 8527   0.762   1.361   3.891
 2543SOL    HW1 8528   0.778   1.374   3.989
 2543SOL    HW2 8529   0.748   1.264   3.872
 2544SOL     OW 8530   1.248   5.510   0.893
 2544SOL    HW1 8531   1.259   5.416   0.861
 2544SOL    HW2 8532   1.291   5.521   0.982
 2545SOL     OW 8533   2.039   6.976   2.356
 2545SOL    HW1 8534   2.060   7.017   2.444
 2545SOL    HW2 8535   2.006   6.882   2.370
 2546SOL     OW 8536   6.382   1.609   0.575
 2546SOL    HW1 8537   6.460   1.653   0.531
 2546SOL    HW2 8538   6.409   1.517   0.604
 2547SOL     OW 8539   0.490   4.135   6.403
 2547SOL    HW1 8540   0.539   4.062   6.355
 2547SOL    HW2 8541   0.417   4.171   6.345
 2548SOL     OW 8542   0.340   6.642   4.312
 2548SOL    HW1 8543   0.439   6.653   4.312
 2548SOL    HW2 8544   0.302   6.680   4.227
 2549SOL     OW 8545   0.562   0.549   1.655
 2549SOL    HW1 8546   0.601   0.541   1.563
 2549SOL    HW2 8547   0.538   0.458   1.689
 2550SOL     OW 8548   6.291   6.936   0.898
 2550SOL    HW1 8549   6.337   6.902   0.981
 2550SOL    HW2 8550   6.320   0.006   0.881
 2551SOL     OW 8551   2.690   4.427   6.759
 2551SOL    HW1 8552   2.669   4.333   6.786
 2551SOL    HW2 8553   2.610   4.467   6.714
 2552SOL     OW 8554   2.488   4.469   4.386
 2552SOL    HW1 8555   2.439   4.437   4.305
 2552SOL    HW2 8556   2.448   4.426   4.467
 2553SOL     OW 8557   3.969   3.694   6.251
 2553SOL    HW1 8558   3.929   3.784   6.232
 2553SOL    HW2 8559   3.976   3.643   6.165
 2554SOL     OW 8560   2.343   1.637   0.533
 2554SOL    HW1 8561   2.419   1.613   0.472
 2554SOL    HW2 8562   2.376   1.638   0.628
 2555SOL     OW 8563   4.890   3.174   4.392
 2555SOL    HW1 8564   4.966   3.151   4.332
 2555SOL    HW2 8565   4.853   3.090   4.433
 2556SOL     OW 8566   3.687   6.130   0.672
 2556SOL    HW1 8567   3.599   6.086   0.654
 2556SOL    HW2 8568   3.678   6.190   0.752
 2557SOL     OW 8569   1.909   3.302   6.423
 2557SOL    HW1 8570   2.007   3.307   6.440
 2557SOL    HW2 8571   1.885   3.362   6.346
 2558SOL     OW 8572   5.029   0.883   5.707
 2558SOL    HW1 8573   5.020   0.865   5.609
 2558SOL    HW2 8574   5.110   0.940   5.723
 2559SOL     OW 8575   0.892   4.321   6.010
 2559SOL    HW1 8576   0.918   4.238   6.059
 2559SOL    HW2 8577   0.793   4.328   6.007
 2560SOL     OW 8578   6.467   2.327   6.446
 2560SOL    HW1 8579   6.391   2.311   6.508
 2560SOL    HW2 8580   6.551   2.343   6.498
 2561SOL     OW 8581   3.240   4.886   4.363
 2561SOL    HW1 8582   3.287   4.885   4.451
 2561SOL    HW2 8583   3.306   4.868   4.290
 2562SOL     OW 8584   2.360   4.165   0.828
 2562SOL    HW1 8585   2.339   4.226   0.752
 2562SOL    HW2 8586   2.318   4.199   0.911
 2563SOL     OW 8587   2.840   0.461   0.432
 2563SOL    HW1 8588   2.810   0.515   0.511
 2563SOL    HW2 8589   2.767   0.457   0.365
 2564SOL     OW 8590   1.848   5.468   1.185
 2564SOL    HW1 8591   1.900   5.409   1.247
 2564SOL    HW2 8592   1.909   5.504   1.115
 2565SOL     OW 8593   1.000   0.496   0.945
 2565SOL    HW1 8594   0.963   0.409   0.977
 2565SOL    HW2 8595   1.002   0.498   0.845
 2566SOL     OW 8596   2.295   6.373   1.058
 2566SOL    HW1 8597   2.319   6.413   1.147
 2566SOL    HW2 8598   2.267   6.446   0.995
 2567SOL     OW 8599   1.517   6.937   0.492
 2567SOL    HW1 8600   1.500   6.973   0.583
 2567SOL    HW2 8601   1.608   6.965   0.460
 2568SOL     OW 8602   4.631   2.573   6.976
 2568SOL    HW1 8603   4.641   2.475   6.961
 2568SOL    HW2 8604   4.655   2.595   0.047
 2569SOL     OW 8605   3.580   1.565   3.470
 2569SOL    HW1 8606   3.680   1.561   3.480
 2569SOL    HW2 8607   3.554   1.530   3.380
 2570SOL     OW 8608   5.565   1.011   5.606
 2570SOL    HW1 8609   5.585   0.925   5.654
 2570SOL    HW2 8610   5.651   1.057   5.584
 2571SOL     OW 8611   1.587   4.851   4.183
 2571SOL    HW1 8612   1.623   4.767   4.142
 2571SOL    HW2 8613   1.622   4.860   4.276
 2572SOL     OW 8614   2.313   4.843   2.961
 2572SOL    HW1 8615   2.258   4.874   2.884
 2572SOL    HW2 8616   2.359   4.921   3.003
 2573SOL     OW 8617   0.511   1.592   1.094
 2573SOL    HW1 8618   0.439   1.540   1.140
 2573SOL    HW2 8619   0.547   1.538   1.018
 2574SOL     OW 8620   6.057   3.118   0.929
 2574SOL    HW1 8621   6.133   3.160   0.880
 2574SOL    HW2 8622   6.077   3.022   0.947
 2575SOL     OW 8623   5.943   6.126   0.142
 2575SOL    HW1 8624   6.022   6.188   0.134
 2575SOL    HW2 8625   5.948   6.056   0.072
 2576SOL     OW 8626   4.560   7.020   4.423
 2576SOL    HW1 8627   4.498   0.074   4.423
 2576SOL    HW2 8628   4.557   6.975   4.512
 2577SOL     OW 8629   2.945   4.798   2.148
 2577SOL    HW1 8630   2.922   4.735   2.073
 2577SOL    HW2 8631   3.042   4.821   2.143
 2578SOL     OW 8632   3.678   1.444   4.434
 2578SOL    HW1 8633   3.625   1.430   4.350
 2578SOL    HW2 8634   3.632   1.511   4.491
 2579SOL     OW 8635   0.787   6.425   3.482
 2579SOL    HW1 8636   0.842   6.396   3.560
 2579SOL    HW2 8637   0.701   6.373   3.480
 2580SOL     OW 8638   2.457   4.108   0.498
 2580SOL    HW1 8639   2.394   4.179   0.528
 2580SOL    HW2 8640   2.411   4.049   0.431
 2581SOL     OW 8641   2.874   6.594   5.930
 2581SOL    HW1 8642   2.777   6.616   5.941
 2581SOL    HW2 8643   2.921   6.671   5.886
 2582SOL     OW 8644   6.659   3.584   1.177
 2582SOL    HW1 8645   6.645   3.554   1.272
 2582SOL    HW2 8646   6.573   3.574   1.126
 2583SOL     OW 8647   0.081   6.600   0.705
 2583SOL    HW1 8648   0.153   6.552   0.755
 2583SOL    HW2 8649   0.116   6.687   0.671
 2584SOL     OW 8650   3.598   4.943   5.817
 2584SOL    HW1 8651   3.659   5.021   5.799
 2584SOL    HW2 8652   3.521   4.974   5.872
 2585SOL     OW 8653   2.963   5.341   6.223
 2585SOL    HW1 8654   2.992   5.248   6.245
 2585SOL    HW2 8655   3.001   5.405   6.289
 2586SOL     OW 8656   2.259   1.141   5.869
 2586SOL    HW1 8657   2.189   1.127   5.799
 2586SOL    HW2 8658   2.333   1.198   5.832
 2587SOL     OW 8659   0.690   1.012   2.996
 2587SOL    HW1 8660   0.735   1.102   3.001
 2587SOL    HW2 8661   0.740   0.953   2.934
 2588SOL     OW 8662   4.809   2.219   5.662
 2588SOL    HW1 8663   4.831   2.138   5.608
 2588SOL    HW2 8664   4.727   2.201   5.717
 2589SOL     OW 8665   1.183   6.874   0.014
 2589SOL    HW1 8666   1.159   6.823   6.955
 2589SOL    HW2 8667   1.245   6.948   7.016
 2590SOL     OW 8668   2.605   4.972   0.240
 2590SOL    HW1 8669   2.696   4.934   0.252
 2590SOL    HW2 8670   2.541   4.929   0.303
 2591SOL     OW 8671   6.193   5.562   4.033
 2591SOL    HW1 8672   6.170   5.648   4.077
 2591SOL    HW2 8673   6.131   5.490   4.065
 2592SOL     OW 8674   2.201   4.128   6.969
 2592SOL    HW1 8675   2.267   4.157   6.900
 2592SOL    HW2 8676   2.120   4.090   6.923
 2593SOL     OW 8677   3.214   5.903   0.730
 2593SOL    HW1 8678   3.244   5.844   0.805
 2593SOL    HW2 8679   3.293   5.954   0.695
 2594SOL     OW 8680   1.741   4.199   5.197
 2594SOL    HW1 8681   1.776   4.265   5.131
 2594SOL    HW2 8682   1.809   4.185   5.269
 2595SOL     OW 8683   1.287   1.706   4.408
 2595SOL    HW1 8684   1.210   1.770   4.415
 2595SOL    HW2 8685   1.339   1.725   4.324
 2596SOL     OW 8686   1.724   3.005   1.158
 2596SOL    HW1 8687   1.798   3.068   1.185
 2596SOL    HW2 8688   1.755   2.949   1.081
 2597SOL     OW 8689   0.628   5.692   6.266
 2597SOL    HW1 8690   0.589   5.645   6.346
 2597SOL    HW2 8691   0.673   5.625   6.207
 2598SOL     OW 8692   6.102   1.367   1.870
 2598SOL    HW1 8693   6.052   1.314   1.939
 2598SOL    HW2 8694   6.199   1.344   1.875
 2599SOL     OW 8695   3.160   6.659   1.658
 2599SOL    HW1 8696   3.203   6.571   1.636
 2599SOL    HW2 8697   3.188   6.687   1.750
 2600SOL     OW 8698   6.668   3.908   4.333
 2600SOL    HW1 8699   6.671   3.934   4.237
 2600SOL    HW2 8700   6.712   3.979   4.388
 2601SOL     OW 8701   1.004   1.438   2.386
 2601SOL    HW1 8702   1.012   1.360   2.447
 2601SOL    HW2 8703   0.931   1.499   2.418
 2602SOL     OW 8704   1.526   5.125   4.134
 2602SOL    HW1 8705   1.441   5.120   4.082
 2602SOL    HW2 8706   1.547   5.036   4.172
 2603SOL     OW 8707   2.965   1.275   2.373
 2603SOL    HW1 8708   2.938   1.287   2.469
 2603SOL    HW2 8709   3.062   1.251   2.369
 2604SOL     OW 8710   6.098   1.469   1.629
 2604SOL    HW1 8711   6.008   1.508   1.610
 2604SOL    HW2 8712   6.094   1.417   1.714
 2605SOL     OW 8713   1.481   3.878   1.604
 2605SOL    HW1 8714   1.467   3.950   1.672
 2605SOL    HW2 8715   1.394   3.833   1.584
 2606SOL     OW 8716   5.137   4.703   1.064
 2606SOL    HW1 8717   5.179   4.686   0.975
 2606SOL    HW2 8718   5.189   4.654   1.135
 2607SOL     OW 8719   1.826   2.562   1.150
 2607SOL    HW1 8720   1.754   2.629   1.130
 2607SOL    HW2 8721   1.808   2.478   1.099
 2608SOL     OW 8722   2.575   6.107   6.353
 2608SOL    HW1 8723   2.561   6.074   6.447
 2608SOL    HW2 8724   2.662   6.156   6.347
 2609SOL     OW 8725   1.003   0.685   1.130
 2609SOL    HW1 8726   1.012   0.616   1.201
 2609SOL    HW2 8727   0.997   0.641   1.040
 2610SOL     OW 8728   0.902   4.715   4.303
 2610SOL    HW1 8729   0.824   4.668   4.261
 2610SOL    HW2 8730   0.957   4.650   4.355
 2611SOL     OW 8731   5.084   6.402   6.974
 2611SOL    HW1 8732   5.143   6.350   0.012
 2611SOL    HW2 8733   4.989   6.374   6.987
 2612SOL     OW 8734   5.454   0.503   4.802
 2612SOL    HW1 8735   5.448   0.534   4.897
 2612SOL    HW2 8736   5.529   0.438   4.792
 2613SOL     OW 8737   0.691   5.730   6.593
 2613SOL    HW1 8738   0.628   5.691   6.525
 2613SOL    HW2 8739   0.714   5.824   6.566
 2614SOL     OW 8740   6.638   0.547   5.846
 2614SOL    HW1 8741   6.602   0.456   5.867
 2614SOL    HW2 8742   6.616   0.570   5.751
 2615SOL     OW 8743   1.201   3.957   0.956
 2615SOL    HW1 8744   1.271   4.027   0.969
 2615SOL    HW2 8745   1.230   3.894   0.884
 2616SOL     OW 8746   1.609   0.303   5.318
 2616SOL    HW1 8747   1.514   0.332   5.330
 2616SOL    HW2 8748   1.666   0.382   5.299
 2617SOL     OW 8749   5.497   0.359   0.243
 2617SOL    HW1 8750   5.532   0.453   0.241
 2617SOL    HW2 8751   5.560   0.302   0.296
 2618SOL     OW 8752   1.463   6.316   5.987
 2618SOL    HW1 8753   1.549   6.280   5.952
 2618SOL    HW2 8754   1.407   6.350   5.911
 2619SOL     OW 8755   4.362   1.572   2.052
 2619SOL    HW1 8756   4.330   1.597   2.144
 2619SOL    HW2 8757   4.387   1.475   2.050
 2620SOL     OW 8758   6.954   6.353   1.951
 2620SOL    HW1 8759   6.973   6.276   1.888
 2620SOL    HW2 8760   6.902   6.423   1.902
 2621SOL     OW 8761   1.211   5.784   2.810
 2621SOL    HW1 8762   1.280   5.843   2.767
 2621SOL    HW2 8763   1.218   5.692   2.773
 2622SOL     OW 8764   2.823   3.226   6.572
 2622SOL    HW1 8765   2.884   3.258   6.499
 2622SOL    HW2 8766   2.866   3.149   6.619
 2623SOL     OW 8767   0.943   6.972   3.852
 2623SOL    HW1 8768   0.872   6.956   3.783
 2623SOL    HW2 8769   0.971   6.885   3.892
 2624SOL     OW 8770   0.266   2.042   4.499
 2624SOL    HW1 8771   0.173   2.044   4.461
 2624SOL    HW2 8772   0.268   2.094   4.585
 2625SOL     OW 8773   1.869   5.243   5.284
 2625SOL    HW1 8774   1.870   5.152   5.327
 2625SOL    HW2 8775   1.956   5.260   5.239
 2626SOL     OW 8776   6.403   6.024   5.629
 2626SOL    HW1 8777   6.340   6.089   5.672
 2626SOL    HW2 8778   6.369   5.931   5.640
 2627SOL     OW 8779   1.357   6.900   6.371
 2627SOL    HW1 8780   1.327   6.953   6.451
 2627SOL    HW2 8781   1.403   6.961   6.306
 2628SOL     OW 8782   1.709   3.706   3.008
 2628SOL    HW1 8783   1.679   3.773   2.940
 2628SOL    HW2 8784   1.636   3.692   3.076
 2629SOL     OW 8785   3.619   4.035   3.328
 2629SOL    HW1 8786   3.662   4.076   3.248
 2629SOL    HW2 8787   3.524   4.063   3.334
 2630SOL     OW 8788   3.758   1.145   3.930
 2630SOL    HW1 8789   3.675   1.092   3.913
 2630SOL    HW2 8790   3.757   1.228   3.874
 2631SOL     OW 8791   5.786   0.675   6.959
 2631SOL    HW1 8792   5.794   0.636   6.867
 2631SOL    HW2 8793   5.690   0.672   6.988
 2632SOL     OW 8794   5.610   4.830   1.719
 2632SOL    HW1 8795   5.554   4.785   1.789
 2632SOL    HW2 8796   5.586   4.927   1.715
 2633SOL     OW 8797   7.017   3.457   5.956
 2633SOL    HW1 8798   6.976   3.496   6.038
 2633SOL    HW2 8799   6.961   3.482   5.876
 2634SOL     OW 8800   6.014   0.198   4.973
 2634SOL    HW1 8801   6.076   0.249   4.913
 2634SOL    HW2 8802   6.027   0.229   5.067
 2635SOL     OW 8803   5.580   5.319   3.803
 2635SOL    HW1 8804   5.541   5.236   3.842
 2635SOL    HW2 8805   5.534   5.399   3.841
 2636SOL     OW 8806   3.858   6.762   6.252
 2636SOL    HW1 8807   3.782   6.789   6.193
 2636SOL    HW2 8808   3.823   6.704   6.326
 2637SOL     OW 8809   1.563   1.198   3.220
 2637SOL    HW1 8810   1.481   1.161   3.175
 2637SOL    HW2 8811   1.644   1.166   3.172
 2638SOL     OW 8812   1.012   0.428   4.339
 2638SOL    HW1 8813   0.965   0.355   4.388
 2638SOL    HW2 8814   1.024   0.507   4.400
 2639SOL     OW 8815   4.659   5.261   4.896
 2639SOL    HW1 8816   4.592   5.188   4.905
 2639SOL    HW2 8817   4.726   5.237   4.825
 2640SOL     OW 8818   0.924   0.196   4.499
 2640SOL    HW1 8819   0.870   0.119   4.466
 2640SOL    HW2 8820   1.021   0.173   4.493
 2641SOL     OW 8821   5.601   2.226   0.080
 2641SOL    HW1 8822   5.697   2.239   0.105
 2641SOL    HW2 8823   5.542   2.271   0.147
 2642SOL     OW 8824   0.036   1.183   4.210
 2642SOL    HW1 8825   6.962   1.204   4.218
 2642SOL    HW2 8826   0.089   1.251   4.260
 2643SOL     OW 8827   0.959   4.110   3.268
 2643SOL    HW1 8828   0.916   4.198   3.245
 2643SOL    HW2 8829   1.032   4.125   3.334
 2644SOL     OW 8830   4.989   5.555   5.106
 2644SOL    HW1 8831   4.943   5.644   5.097
 2644SOL    HW2 8832   4.921   5.482   5.101
 2645SOL     OW 8833   5.016   4.878   3.397
 2645SOL    HW1 8834   5.020   4.966   3.351
 2645SOL    HW2 8835   5.015   4.804   3.329
 2646SOL     OW 8836   0.243   3.720   6.029
 2646SOL    HW1 8837   0.285   3.730   5.939
 2646SOL    HW2 8838   0.154   3.765   6.029
 2647SOL     OW 8839   5.072   6.556   1.786
 2647SOL    HW1 8840   5.033   6.512   1.704
 2647SOL    HW2 8841   5.170   6.538   1.789
 2648SOL     OW 8842   0.251   0.377   4.334
 2648SOL    HW1 8843   0.306   0.461   4.333
 2648SOL    HW2 8844   0.301   0.306   4.382
 2649SOL     OW 8845   4.988   2.636   1.928
 2649SOL    HW1 8846   4.945   2.680   2.007
 2649SOL    HW2 8847   4.995   2.537   1.945
 2650SOL     OW 8848   3.497   6.057   5.202
 2650SOL    HW1 8849   3.552   5.982   5.238
 2650SOL    HW2 8850   3.422   6.076   5.265
 2651SOL     OW 8851   3.977   1.901   5.218
 2651SOL    HW1 8852   4.024   1.932   5.136
 2651SOL    HW2 8853   4.006   1.957   5.296
 2652SOL     OW 8854   5.306   4.180   5.663
 2652SOL    HW1 8855   5.356   4.094   5.677
 2652SOL    HW2 8856   5.355   4.255   5.706
 2653SOL     OW 8857   3.037   6.514   0.081
 2653SOL    HW1 8858   3.051   6.609   0.052
 2653SOL    HW2 8859   2.940   6.500   0.100
 2654SOL     OW 8860   5.707   0.919   0.463
 2654SOL    HW1 8861   5.619   0.913   0.511
 2654SOL    HW2 8862   5.709   1.002   0.407
 2655SOL     OW 8863   4.912   5.867   3.203
 2655SOL    HW1 8864   4.896   5.868   3.105
 2655SOL    HW2 8865   4.907   5.960   3.239
 2656SOL     OW 8866   3.734   5.014   3.787
 2656SOL    HW1 8867   3.702   5.107   3.809
 2656SOL    HW2 8868   3.655   4.958   3.761
 2657SOL     OW 8869   1.826   3.636   0.102
 2657SOL    HW1 8870   1.803   3.659   0.197
 2657SOL    HW2 8871   1.839   3.537   0.094
 2658SOL     OW 8872   4.354   4.918   6.393
 2658SOL    HW1 8873   4.419   4.849   6.425
 2658SOL    HW2 8874   4.335   4.903   6.296
 2659SOL     OW 8875   6.792   2.586   4.629
 2659SOL    HW1 8876   6.748   2.608   4.542
 2659SOL    HW2 8877   6.744   2.510   4.673
 2660SOL     OW 8878   0.482   1.870   1.693
 2660SOL    HW1 8879   0.429   1.806   1.748
 2660SOL    HW2 8880   0.465   1.963   1.726
 2661SOL     OW 8881   1.869   1.454   0.880
 2661SOL    HW1 8882   1.838   1.472   0.973
 2661SOL    HW2 8883   1.921   1.532   0.846
 2662SOL     OW 8884   3.112   0.565   2.747
 2662SOL    HW1 8885   3.118   0.625   2.667
 2662SOL    HW2 8886   3.092   0.472   2.718
 2663SOL     OW 8887   4.183   6.592   6.933
 2663SOL    HW1 8888   4.098   6.616   6.980
 2663SOL    HW2 8889   4.257   6.649   6.968
 2664SOL     OW 8890   4.245   2.800   5.855
 2664SOL    HW1 8891   4.173   2.863   5.882
 2664SOL    HW2 8892   4.273   2.745   5.933
 2665SOL     OW 8893   1.996   3.838   5.276
 2665SOL    HW1 8894   1.926   3.868   5.340
 2665SOL    HW2 8895   2.012   3.909   5.208
 2666SOL     OW 8896   2.015   4.220   2.102
 2666SOL    HW1 8897   2.074   4.148   2.066
 2666SOL    HW2 8898   2.002   4.208   2.200
 2667SOL     OW 8899   6.076   3.735   4.093
 2667SOL    HW1 8900   6.117   3.709   4.180
 2667SOL    HW2 8901   6.018   3.815   4.106
 2668SOL     OW 8902   5.815   1.406   4.328
 2668SOL    HW1 8903   5.745   1.376   4.393
 2668SOL    HW2 8904   5.806   1.356   4.242
 2669SOL     OW 8905   2.403   0.618   0.164
 2669SOL    HW1 8906   2.389   0.607   0.065
 2669SOL    HW2 8907   2.314   0.630   0.208
 2670SOL     OW 8908   0.437   0.708   6.024
 2670SOL    HW1 8909   0.473   0.617   6.005
 2670SOL    HW2 8910   0.491   0.750   6.097
 2671SOL     OW 8911   3.967   5.345   5.784
 2671SOL    HW1 8912   3.918   5.412   5.729
 2671SOL    HW2 8913   3.927   5.342   5.876
 2672SOL     OW 8914   3.433   1.100   1.872
 2672SOL    HW1 8915   3.412   1.197   1.878
 2672SOL    HW2 8916   3.528   1.087   1.846
 2673SOL     OW 8917   4.856   0.453   2.453
 2673SOL    HW1 8918   4.908   0.497   2.527
 2673SOL    HW2 8919   4.775   0.409   2.491
 2674SOL     OW 8920   0.826   5.145   2.457
 2674SOL    HW1 8921   0.848   5.047   2.461
 2674SOL    HW2 8922   0.879   5.194   2.526
 2675SOL     OW 8923   5.996   0.142   4.148
 2675SOL    HW1 8924   6.055   0.074   4.191
 2675SOL    HW2 8925   5.966   0.208   4.217
 2676SOL     OW 8926   3.388   3.746   3.189
 2676SOL    HW1 8927   3.340   3.822   3.233
 2676SOL    HW2 8928   3.329   3.707   3.118
 2677SOL     OW 8929   2.382   4.975   1.729
 2677SOL    HW1 8930   2.419   4.894   1.683
 2677SOL    HW2 8931   2.446   5.005   1.799
 2678SOL     OW 8932   5.579   2.271   2.418
 2678SOL    HW1 8933   5.512   2.270   2.344
 2678SOL    HW2 8934   5.532   2.269   2.506
 2679SOL     OW 8935   1.930   4.612   3.783
 2679SOL    HW1 8936   1.850   4.653   3.740
 2679SOL    HW2 8937   1.974   4.548   3.719
 2680SOL     OW 8938   0.829   1.767   0.035
 2680SOL    HW1 8939   0.876   1.783   0.122
 2680SOL    HW2 8940   0.894   1.778   6.984
 2681SOL     OW 8941   1.727   2.589   5.270
 2681SOL    HW1 8942   1.688   2.681   5.262
 2681SOL    HW2 8943   1.707   2.552   5.361
 2682SOL     OW 8944   4.545   4.439   1.403
 2682SOL    HW1 8945   4.460   4.394   1.430
 2682SOL    HW2 8946   4.616   4.422   1.472
 2683SOL     OW 8947   2.386   4.416   2.356
 2683SOL    HW1 8948   2.472   4.367   2.348
 2683SOL    HW2 8949   2.377   4.481   2.280
 2684SOL     OW 8950   5.975   6.770   2.171
 2684SOL    HW1 8951   6.024   6.812   2.096
 2684SOL    HW2 8952   6.040   6.730   2.236
 2685SOL     OW 8953   0.760   6.061   5.054
 2685SOL    HW1 8954   0.822   6.004   5.000
 2685SOL    HW2 8955   0.685   6.092   4.996
 2686SOL     OW 8956   1.091   1.526   4.318
 2686SOL    HW1 8957   1.081   1.462   4.395
 2686SOL    HW2 8958   1.153   1.600   4.345
 2687SOL     OW 8959   3.494   1.435   1.380
 2687SOL    HW1 8960   3.420   1.503   1.384
 2687SOL    HW2 8961   3.569   1.471   1.324
 2688SOL     OW 8962   3.553   3.522   5.873
 2688SOL    HW1 8963   3.601   3.509   5.786
 2688SOL    HW2 8964   3.620   3.541   5.945
 2689SOL     OW 8965   0.997   3.711   3.322
 2689SOL    HW1 8966   1.083   3.747   3.359
 2689SOL    HW2 8967   0.961   3.776   3.255
 2690SOL     OW 8968   3.544   1.433   6.490
 2690SOL    HW1 8969   3.487   1.351   6.499
 2690SOL    HW2 8970   3.564   1.449   6.394
 2691SOL     OW 8971   0.494   4.691   3.710
 2691SOL    HW1 8972   0.492   4.660   3.805
 2691SOL    HW2 8973   0.402   4.716   3.681
 2692SOL     OW 8974   2.937   5.688   2.983
 2692SOL    HW1 8975   2.973   5.691   2.889
 2692SOL    HW2 8976   2.856   5.747   2.989
 2693SOL     OW 8977   1.586   5.302   3.747
 2693SOL    HW1 8978   1.532   5.218   3.740
 2693SOL    HW2 8979   1.631   5.319   3.659
 2694SOL     OW 8980   3.358   6.795   4.195
 2694SOL    HW1 8981   3.295   6.798   4.118
 2694SOL    HW2 8982   3.431   6.729   4.175
 2695SOL     OW 8983   0.021   5.596   3.303
 2695SOL    HW1 8984   0.062   5.555   3.222
 2695SOL    HW2 8985   6.994   5.678   3.277
 2696SOL     OW 8986   5.077   4.145   6.376
 2696SOL    HW1 8987   5.003   4.136   6.443
 2696SOL    HW2 8988   5.039   4.177   6.289
 2697SOL     OW 8989   4.096   2.577   0.818
 2697SOL    HW1 8990   4.101   2.607   0.722
 2697SOL    HW2 8991   4.168   2.510   0.835
 2698SOL     OW 8992   1.527   3.810   6.043
 2698SOL    HW1 8993   1.578   3.895   6.029
 2698SOL    HW2 8994   1.560   3.765   6.126
 2699SOL     OW 8995   3.660   5.694   2.216
 2699SOL    HW1 8996   3.682   5.726   2.123
 2699SOL    HW2 8997   3.597   5.617   2.211
 2700SOL     OW 8998   2.886   2.189   1.768
 2700SOL    HW1 8999   2.876   2.111   1.830
 2700SOL    HW2 9000   2.858   2.272   1.815
 2701SOL     OW 9001   5.005   2.886   4.763
 2701SOL    HW1 9002   5.064   2.964   4.783
 2701SOL    HW2 9003   4.991   2.879   4.664
 2702SOL     OW 9004   2.574   1.893   4.802
 2702SOL    HW1 9005   2.515   1.851   4.871
 2702SOL    HW2 9006   2.528   1.892   4.713
 2703SOL     OW 9007   1.549   6.531   2.057
 2703SOL    HW1 9008   1.552   6.536   2.157
 2703SOL    HW2 9009   1.639   6.548   2.019
 2704SOL     OW 9010   5.663   6.900   3.844
 2704SOL    HW1 9011   5.691   6.805   3.828
 2704SOL    HW2 9012   5.702   6.931   3.931
 2705SOL     OW 9013   0.008   6.912   5.075
 2705SOL    HW1 9014   7.000   6.849   5.003
 2705SOL    HW2 9015   7.005   6.876   5.164
 2706SOL     OW 9016   6.626   3.832   3.701
 2706SOL    HW1 9017   6.723   3.854   3.700
 2706SOL    HW2 9018   6.589   3.848   3.793
 2707SOL     OW 9019   4.048   0.669   3.181
 2707SOL    HW1 9020   4.080   0.621   3.262
 2707SOL    HW2 9021   4.025   0.763   3.205
 2708SOL     OW 9022   6.015   2.856   0.421
 2708SOL    HW1 9023   6.074   2.837   0.343
 2708SOL    HW2 9024   5.920   2.835   0.398
 2709SOL     OW 9025   4.676   1.046   5.046
 2709SOL    HW1 9026   4.646   1.059   5.141
 2709SOL    HW2 9027   4.769   1.082   5.036
 2710SOL     OW 9028   1.156   2.468   3.970
 2710SOL    HW1 9029   1.236   2.428   3.925
 2710SOL    HW2 9030   1.086   2.489   3.902
 2711SOL     OW 9031   3.377   2.066   2.696
 2711SOL    HW1 9032   3.353   2.096   2.603
 2711SOL    HW2 9033   3.472   2.090   2.715
 2712SOL     OW 9034   4.467   5.536   2.226
 2712SOL    HW1 9035   4.452   5.441   2.256
 2712SOL    HW2 9036   4.456   5.541   2.127
 2713SOL     OW 9037   3.444   4.854   6.296
 2713SOL    HW1 9038   3.439   4.799   6.380
 2713SOL    HW2 9039   3.375   4.822   6.232
 2714SOL     OW 9040   2.918   4.523   0.104
 2714SOL    HW1 9041   2.939   4.425   0.109
 2714SOL    HW2 9042   2.834   4.542   0.156
 2715SOL     OW 9043   4.170   0.928   1.312
 2715SOL    HW1 9044   4.160   0.892   1.219
 2715SOL    HW2 9045   4.256   0.896   1.351
 2716SOL     OW 9046   3.793   2.127   2.803
 2716SOL    HW1 9047   3.775   2.030   2.791
 2716SOL    HW2 9048   3.862   2.157   2.737
 2717SOL     OW 9049   0.662   1.115   2.677
 2717SOL    HW1 9050   0.601   1.057   2.623
 2717SOL    HW2 9051   0.609   1.186   2.722
 2718SOL     OW 9052   0.006   6.811   5.713
 2718SOL    HW1 9053   7.022   6.856   5.802
 2718SOL    HW2 9054   6.943   6.818   5.664
 2719SOL     OW 9055   1.729   3.941   2.499
 2719SOL    HW1 9056   1.700   3.959   2.405
 2719SOL    HW2 9057   1.755   3.845   2.508
 2720SOL     OW 9058   1.282   5.937   5.524
 2720SOL    HW1 9059   1.363   5.899   5.478
 2720SOL    HW2 9060   1.217   5.968   5.456
 2721SOL     OW 9061   3.510   5.624   1.648
 2721SOL    HW1 9062   3.529   5.669   1.561
 2721SOL    HW2 9063   3.544   5.530   1.646
 2722SOL     OW 9064   4.536   5.339   6.896
 2722SOL    HW1 9065   4.527   5.281   6.977
 2722SOL    HW2 9066   4.507   5.288   6.815
 2723SOL     OW 9067   3.281   6.618   0.639
 2723SOL    HW1 9068   3.352   6.548   0.638
 2723SOL    HW2 9069   3.250   6.636   0.546
 2724SOL     OW 9070   1.663   5.950   1.056
 2724SOL    HW1 9071   1.606   5.877   1.019
 2724SOL    HW2 9072   1.622   6.039   1.033
 2725SOL     OW 9073   5.718   3.888   4.919
 2725SOL    HW1 9074   5.740   3.817   4.986
 2725SOL    HW2 9075   5.642   3.943   4.953
 2726SOL     OW 9076   0.327   1.341   1.631
 2726SOL    HW1 9077   0.340   1.266   1.695
 2726SOL    HW2 9078   0.265   1.313   1.558
 2727SOL     OW 9079   2.191   3.973   4.344
 2727SOL    HW1 9080   2.202   3.927   4.257
 2727SOL    HW2 9081   2.099   3.955   4.380
 2728SOL     OW 9082   5.356   5.724   5.693
 2728SOL    HW1 9083   5.336   5.655   5.763
 2728SOL    HW2 9084   5.273   5.776   5.673
 2729SOL     OW 9085   5.549   5.498   5.961
 2729SOL    HW1 9086   5.575   5.526   5.869
 2729SOL    HW2 9087   5.631   5.483   6.017
 2730SOL     OW 9088   1.029   5.535   2.284
 2730SOL    HW1 9089   1.082   5.588   2.351
 2730SOL    HW2 9090   0.931   5.544   2.304
 2731SOL     OW 9091   3.348   3.013   3.912
 2731SOL    HW1 9092   3.259   2.976   3.940
 2731SOL    HW2 9093   3.361   3.104   3.952
 2732SOL     OW 9094   5.770   1.420   1.891
 2732SOL    HW1 9095   5.690   1.477   1.909
 2732SOL    HW2 9096   5.829   1.466   1.825
 2733SOL     OW 9097   0.770   0.295   5.933
 2733SOL    HW1 9098   0.774   0.374   5.871
 2733SOL    HW2 9099   0.776   0.211   5.879
 2734SOL     OW 9100   3.624   5.657   1.886
 2734SOL    HW1 9101   3.580   5.647   1.797
 2734SOL    HW2 9102   3.701   5.721   1.878
 2735SOL     OW 9103   0.675   1.486   1.389
 2735SOL    HW1 9104   0.649   1.437   1.472
 2735SOL    HW2 9105   0.684   1.583   1.410
 2736SOL     OW 9106   4.479   5.427   3.482
 2736SOL    HW1 9107   4.544   5.417   3.558
 2736SOL    HW2 9108   4.443   5.521   3.481
 2737SOL     OW 9109   2.523   1.891   6.771
 2737SOL    HW1 9110   2.437   1.921   6.812
 2737SOL    HW2 9111   2.568   1.825   6.830
 2738SOL     OW 9112   5.784   0.586   1.641
 2738SOL    HW1 9113   5.863   0.589   1.703
 2738SOL    HW2 9114   5.710   0.642   1.678
 2739SOL     OW 9115   1.130   5.278   2.263
 2739SOL    HW1 9116   1.098   5.372   2.261
 2739SOL    HW2 9117   1.120   5.241   2.356
 2740SOL     OW 9118   6.597   6.187   3.268
 2740SOL    HW1 9119   6.691   6.197   3.235
 2740SOL    HW2 9120   6.554   6.277   3.273
 2741SOL     OW 9121   0.994   2.055   4.692
 2741SOL    HW1 9122   0.915   1.993   4.690
 2741SOL    HW2 9123   0.972   2.134   4.748
 2742SOL     OW 9124   3.623   5.141   2.101
 2742SOL    HW1 9125   3.601   5.232   2.065
 2742SOL    HW2 9126   3.542   5.101   2.143
 2743SOL     OW 9127   5.969   4.255   2.256
 2743SOL    HW1 9128   5.943   4.343   2.216
 2743SOL    HW2 9129   6.002   4.269   2.349
 2744SOL     OW 9130   3.553   3.891   3.001
 2744SOL    HW1 9131   3.558   3.809   2.944
 2744SOL    HW2 9132   3.479   3.881   3.068
 2745SOL     OW 9133   6.727   0.040   5.846
 2745SOL    HW1 9134   6.816   0.084   5.855
 2745SOL    HW2 9135   6.723   7.014   5.760
 2746SOL     OW 9136   1.387   1.026   3.693
 2746SOL    HW1 9137   1.377   1.064   3.785
 2746SOL    HW2 9138   1.433   1.092   3.634
 2747SOL     OW 9139   3.946   6.040   0.640
 2747SOL    HW1 9140   3.999   6.123   0.624
 2747SOL    HW2 9141   3.849   6.063   0.643
 2748SOL     OW 9142   4.431   6.604   1.596
 2748SOL    HW1 9143   4.483   6.536   1.545
 2748SOL    HW2 9144   4.337   6.605   1.563
 2749SOL     OW 9145   2.032   3.561   0.565
 2749SOL    HW1 9146   1.978   3.478   0.556
 2749SOL    HW2 9147   2.115   3.553   0.510
 2750SOL     OW 9148   2.412   5.341   2.140
 2750SOL    HW1 9149   2.325   5.304   2.171
 2750SOL    HW2 9150   2.485   5.276   2.160
 2751SOL     OW 9151   1.064   3.075   1.214
 2751SOL    HW1 9152   1.142   3.088   1.153
 2751SOL    HW2 9153   0.994   3.022   1.167
 2752SOL     OW 9154   3.547   4.760   6.544
 2752SOL    HW1 9155   3.620   4.813   6.587
 2752SOL    HW2 9156   3.488   4.721   6.615
 2753SOL     OW 9157   6.232   5.890   5.086
 2753SOL    HW1 9158   6.175   5.807   5.085
 2753SOL    HW2 9159   6.247   5.918   5.181
 2754SOL     OW 9160   0.749   6.734   6.654
 2754SOL    HW1 9161   0.822   6.784   6.608
 2754SOL    HW2 9162   0.775   6.638   6.664
 2755SOL     OW 9163   2.774   6.781   3.156
 2755SOL    HW1 9164   2.748   6.785   3.253
 2755SOL    HW2 9165   2.777   6.874   3.119
 2756SOL     OW 9166   4.892   6.284   0.142
 2756SOL    HW1 9167   4.883   6.187   0.163
 2756SOL    HW2 9168   4.870   6.338   0.222
 2757SOL     OW 9169   0.798   4.938   1.393
 2757SOL    HW1 9170   0.765   4.968   1.483
 2757SOL    HW2 9171   0.721   4.933   1.330
 2758SOL     OW 9172   4.714   0.251   5.829
 2758SOL    HW1 9173   4.766   0.319   5.881
 2758SOL    HW2 9174   4.768   0.166   5.823
 2759SOL     OW 9175   5.699   6.789   4.193
 2759SOL    HW1 9176   5.675   6.881   4.223
 2759SOL    HW2 9177   5.617   6.744   4.156
 2760SOL     OW 9178   2.461   5.162   2.734
 2760SOL    HW1 9179   2.363   5.166   2.751
 2760SOL    HW2 9180   2.501   5.085   2.785
 2761SOL     OW 9181   2.026   5.489   2.508
 2761SOL    HW1 9182   1.988   5.452   2.593
 2761SOL    HW2 9183   2.003   5.586   2.501
 2762SOL     OW 9184   1.217   6.754   5.559
 2762SOL    HW1 9185   1.133   6.761   5.505
 2762SOL    HW2 9186   1.254   6.846   5.574
 2763SOL     OW 9187   5.390   1.939   3.545
 2763SOL    HW1 9188   5.478   1.925   3.499
 2763SOL    HW2 9189   5.330   1.861   3.528
 2764SOL     OW 9190   5.545   0.730   1.345
 2764SOL    HW1 9191   5.546   0.743   1.245
 2764SOL    HW2 9192   5.622   0.672   1.372
 2765SOL     OW 9193   5.915   1.060   1.780
 2765SOL    HW1 9194   5.938   1.087   1.873
 2765SOL    HW2 9195   5.953   1.126   1.715
 2766SOL     OW 9196   5.861   1.596   1.535
 2766SOL    HW1 9197   5.916   1.628   1.457
 2766SOL    HW2 9198   5.780   1.549   1.501
 2767SOL     OW 9199   5.389   3.442   6.279
 2767SOL    HW1 9200   5.481   3.480   6.265
 2767SOL    HW2 9201   5.327   3.514   6.308
 2768SOL     OW 9202   5.117   1.512   6.979
 2768SOL    HW1 9203   5.120   1.530   0.053
 2768SOL    HW2 9204   5.023   1.487   6.953
 2769SOL     OW 9205   0.137   4.207   1.748
 2769SOL    HW1 9206   0.053   4.238   1.793
 2769SOL    HW2 9207   0.197   4.164   1.816
 2770SOL     OW 9208   1.347   4.991   1.481
 2770SOL    HW1 9209   1.415   4.994   1.408
 2770SOL    HW2 9210   1.256   5.005   1.442
 2771SOL     OW 9211   5.615   2.078   1.208
 2771SOL    HW1 9212   5.576   2.167   1.229
 2771SOL    HW2 9213   5.630   2.070   1.110
 2772SOL     OW 9214   4.236   2.533   6.767
 2772SOL    HW1 9215   4.205   2.494   6.679
 2772SOL    HW2 9216   4.193   2.483   6.842
 2773SOL     OW 9217   4.130   4.381   6.492
 2773SOL    HW1 9218   4.157   4.475   6.510
 2773SOL    HW2 9219   4.068   4.349   6.564
 2774SOL     OW 9220   5.472   3.109   2.169
 2774SOL    HW1 9221   5.496   3.093   2.074
 2774SOL    HW2 9222   5.555   3.116   2.225
 2775SOL     OW 9223   0.152   5.296   1.100
 2775SOL    HW1 9224   0.247   5.308   1.072
 2775SOL    HW2 9225   0.122   5.378   1.150
 2776SOL     OW 9226   3.572   6.751   6.181
 2776SOL    HW1 9227   3.544   6.658   6.202
 2776SOL    HW2 9228   3.555   6.770   6.085
 2777SOL     OW 9229   3.263   1.432   2.668
 2777SOL    HW1 9230   3.207   1.464   2.591
 2777SOL    HW2 9231   3.220   1.352   2.709
 2778SOL     OW 9232   2.428   1.692   5.764
 2778SOL    HW1 9233   2.514   1.740   5.750
 2778SOL    HW2 9234   2.438   1.624   5.836
 2779SOL     OW 9235   5.221   0.120   6.754
 2779SOL    HW1 9236   5.171   0.085   6.832
 2779SOL    HW2 9237   5.319   0.123   6.776
 2780SOL     OW 9238   4.787   5.024   6.198
 2780SOL    HW1 9239   4.744   4.956   6.257
 2780SOL    HW2 9240   4.824   4.978   6.117
 2781SOL     OW 9241   5.971   4.514   1.488
 2781SOL    HW1 9242   5.881   4.534   1.527
 2781SOL    HW2 9243   6.015   4.442   1.540
 2782SOL     OW 9244   3.157   2.801   6.396
 2782SOL    HW1 9245   3.123   2.840   6.311
 2782SOL    HW2 9246   3.218   2.724   6.376
 2783SOL     OW 9247   6.997   4.560   5.648
 2783SOL    HW1 9248   0.027   4.481   5.619
 2783SOL    HW2 9249   6.927   4.530   5.714
 2784SOL     OW 9250   2.036   2.704   1.084
 2784SOL    HW1 9251   2.119   2.650   1.094
 2784SOL    HW2 9252   1.958   2.652   1.119
 2785SOL     OW 9253   6.685   0.744   0.261
 2785SOL    HW1 9254   6.773   0.763   0.219
 2785SOL    HW2 9255   6.649   0.657   0.228
 2786SOL     OW 9256   4.199   6.035   1.206
 2786SOL    HW1 9257   4.297   6.015   1.207
 2786SOL    HW2 9258   4.184   6.130   1.231
 2787SOL     OW 9259   1.769   2.880   6.330
 2787SOL    HW1 9260   1.714   2.934   6.266
 2787SOL    HW2 9261   1.803   2.939   6.403
 2788SOL     OW 9262   2.725   4.630   0.777
 2788SOL    HW1 9263   2.795   4.589   0.718
 2788SOL    HW2 9264   2.760   4.636   0.871
 2789SOL     OW 9265   1.087   1.754   4.149
 2789SOL    HW1 9266   1.012   1.818   4.167
 2789SOL    HW2 9267   1.056   1.685   4.082
 2790SOL     OW 9268   3.780   4.917   3.179
 2790SOL    HW1 9269   3.709   4.879   3.120
 2790SOL    HW2 9270   3.737   4.974   3.249
 2791SOL     OW 9271   1.534   3.676   4.708
 2791SOL    HW1 9272   1.436   3.684   4.729
 2791SOL    HW2 9273   1.549   3.597   4.650
 2792SOL     OW 9274   0.649   0.916   5.059
 2792SOL    HW1 9275   0.704   0.999   5.072
 2792SOL    HW2 9276   0.579   0.933   4.990
 2793SOL     OW 9277   5.521   1.352   2.624
 2793SOL    HW1 9278   5.526   1.320   2.529
 2793SOL    HW2 9279   5.544   1.449   2.627
 2794SOL     OW 9280   0.201   1.565   0.269
 2794SOL    HW1 9281   0.243   1.481   0.233
 2794SOL    HW2 9282   0.147   1.543   0.350
 2795SOL     OW 9283   2.850   4.002   1.381
 2795SOL    HW1 9284   2.938   3.954   1.386
 2795SOL    HW2 9285   2.786   3.948   1.326
 2796SOL     OW 9286   5.845   3.959   2.583
 2796SOL    HW1 9287   5.939   3.987   2.598
 2796SOL    HW2 9288   5.827   3.875   2.634
 2797SOL     OW 9289   4.727   5.461   5.069
 2797SOL    HW1 9290   4.688   5.379   5.026
 2797SOL    HW2 9291   4.660   5.534   5.069
 2798SOL     OW 9292   1.010   3.370   3.779
 2798SOL    HW1 9293   1.008   3.275   3.812
 2798SOL    HW2 9294   0.922   3.394   3.740
 2799SOL     OW 9295   6.858   5.234   6.260
 2799SOL    HW1 9296   6.793   5.272   6.195
 2799SOL    HW2 9297   6.930   5.301   6.277
 2800SOL     OW 9298   3.256   5.239   6.292
 2800SOL    HW1 9299   3.186   5.171   6.317
 2800SOL    HW2 9300   3.306   5.207   6.212
 2801SOL     OW 9301   4.990   5.224   2.569
 2801SOL    HW1 9302   4.966   5.321   2.573
 2801SOL    HW2 9303   5.070   5.207   2.627
 2802SOL     OW 9304   4.275   2.047   5.692
 2802SOL    HW1 9305   4.191   2.093   5.718
 2802SOL    HW2 9306   4.307   2.082   5.604
 2803SOL     OW 9307   2.575   6.774   6.243
 2803SOL    HW1 9308   2.565   6.865   6.284
 2803SOL    HW2 9309   2.567   6.705   6.315
 2804SOL     OW 9310   6.333   4.709   3.701
 2804SOL    HW1 9311   6.338   4.797   3.653
 2804SOL    HW2 9312   6.420   4.692   3.747
 2805SOL     OW 9313   4.850   3.043   1.093
 2805SOL    HW1 9314   4.806   3.132   1.081
 2805SOL    HW2 9315   4.868   3.001   1.004
 2806SOL     OW 9316   5.812   5.256   2.988
 2806SOL    HW1 9317   5.771   5.346   3.000
 2806SOL    HW2 9318   5.815   5.208   3.076
 2807SOL     OW 9319   4.147   4.751   3.703
 2807SOL    HW1 9320   4.167   4.654   3.689
 2807SOL    HW2 9321   4.137   4.796   3.614
 2808SOL     OW 9322   5.701   1.247   3.322
 2808SOL    HW1 9323   5.626   1.190   3.355
 2808SOL    HW2 9324   5.709   1.329   3.380
 2809SOL     OW 9325   6.175   2.510   1.016
 2809SOL    HW1 9326   6.260   2.464   0.988
 2809SOL    HW2 9327   6.100   2.480   0.957
 2810SOL     OW 9328   2.758   0.261   5.503
 2810SOL    HW1 9329   2.658   0.267   5.501
 2810SOL    HW2 9330   2.789   0.252   5.598
 2811SOL     OW 9331   0.593   1.173   3.238
 2811SOL    HW1 9332   0.602   1.099   3.171
 2811SOL    HW2 9333   0.679   1.183   3.288
 2812SOL     OW 9334   4.965   3.811   2.684
 2812SOL    HW1 9335   5.056   3.772   2.669
 2812SOL    HW2 9336   4.896   3.750   2.646
 2813SOL     OW 9337   5.771   6.643   5.863
 2813SOL    HW1 9338   5.812   6.726   5.899
 2813SOL    HW2 9339   5.813   6.563   5.906
 2814SOL     OW 9340   4.117   3.978   5.945
 2814SOL    HW1 9341   4.191   4.005   6.007
 2814SOL    HW2 9342   4.084   4.059   5.896
 2815SOL     OW 9343   6.649   1.347   4.715
 2815SOL    HW1 9344   6.609   1.437   4.735
 2815SOL    HW2 9345   6.723   1.329   4.779
 2816SOL     OW 9346   5.858   0.086   3.894
 2816SOL    HW1 9347   5.877   0.110   3.990
 2816SOL    HW2 9348   5.944   0.079   3.844
 2817SOL     OW 9349   1.684   1.155   1.826
 2817SOL    HW1 9350   1.608   1.216   1.849
 2817SOL    HW2 9351   1.769   1.193   1.862
 2818SOL     OW 9352   6.799   4.789   6.032
 2818SOL    HW1 9353   6.809   4.856   5.959
 2818SOL    HW2 9354   6.865   4.809   6.105
 2819SOL     OW 9355   0.249   3.200   0.560
 2819SOL    HW1 9356   0.172   3.205   0.624
 2819SOL    HW2 9357   0.215   3.215   0.467
 2820SOL     OW 9358   0.188   2.367   2.874
 2820SOL    HW1 9359   0.131   2.340   2.796
 2820SOL    HW2 9360   0.128   2.392   2.951
 2821SOL     OW 9361   1.629   4.456   5.502
 2821SOL    HW1 9362   1.694   4.486   5.433
 2821SOL    HW2 9363   1.565   4.391   5.462
 2822SOL     OW 9364   4.974   1.948   0.246
 2822SOL    HW1 9365   5.060   1.985   0.212
 2822SOL    HW2 9366   4.976   1.944   0.346
 2823SOL     OW 9367   2.465   6.896   2.449
 2823SOL    HW1 9368   2.560   6.919   2.470
 2823SOL    HW2 9369   2.456   6.797   2.438
 2824SOL     OW 9370   2.416   1.331   5.243
 2824SOL    HW1 9371   2.342   1.396   5.229
 2824SOL    HW2 9372   2.449   1.299   5.155
 2825SOL     OW 9373   6.952   6.357   1.033
 2825SOL    HW1 9374   6.948   6.441   0.977
 2825SOL    HW2 9375   6.997   6.285   0.981
 2826SOL     OW 9376   5.109   2.162   5.341
 2826SOL    HW1 9377   5.132   2.226   5.268
 2826SOL    HW2 9378   5.010   2.149   5.346
 2827SOL     OW 9379   6.535   1.102   5.215
 2827SOL    HW1 9380   6.549   1.163   5.293
 2827SOL    HW2 9381   6.549   1.007   5.244
 2828SOL     OW 9382   4.072   0.857   6.347
 2828SOL    HW1 9383   4.019   0.929   6.391
 2828SOL    HW2 9384   4.140   0.897   6.286
 2829SOL     OW 9385   3.898   5.867   6.121
 2829SOL    HW1 9386   3.873   5.803   6.047
 2829SOL    HW2 9387   3.897   5.819   6.208
 2830SOL     OW 9388   4.818   3.303   6.255
 2830SOL    HW1 9389   4.908   3.309   6.298
 2830SOL    HW2 9390   4.782   3.210   6.265
 2831SOL     OW 9391   5.664   6.359   4.154
 2831SOL    HW1 9392   5.674   6.451   4.192
 2831SOL    HW2 9393   5.567   6.343   4.133
 2832SOL     OW 9394   0.180   1.320   1.011
 2832SOL    HW1 9395   0.180   1.260   1.091
 2832SOL    HW2 9396   0.184   1.415   1.041
 2833SOL     OW 9397   6.270   2.614   1.741
 2833SOL    HW1 9398   6.298   2.519   1.748
 2833SOL    HW2 9399   6.248   2.636   1.646
 2834SOL     OW 9400   3.702   1.517   6.266
 2834SOL    HW1 9401   3.682   1.525   6.168
 2834SOL    HW2 9402   3.721   1.607   6.304
 2835SOL     OW 9403   0.642   6.426   2.250
 2835SOL    HW1 9404   0.615   6.339   2.291
 2835SOL    HW2 9405   0.700   6.477   2.314
 2836SOL     OW 9406   0.174   0.088   1.803
 2836SOL    HW1 9407   0.134   7.022   1.820
 2836SOL    HW2 9408   0.105   0.149   1.763
 2837SOL     OW 9409   5.344   3.578   3.552
 2837SOL    HW1 9410   5.313   3.610   3.462
 2837SOL    HW2 9411   5.372   3.483   3.546
 2838SOL     OW 9412   2.601   4.615   1.935
 2838SOL    HW1 9413   2.593   4.714   1.930
 2838SOL    HW2 9414   2.697   4.590   1.949
 2839SOL     OW 9415   5.728   1.862   1.666
 2839SOL    HW1 9416   5.766   1.844   1.757
 2839SOL    HW2 9417   5.750   1.785   1.606
 2840SOL     OW 9418   0.222   1.484   5.233
 2840SOL    HW1 9419   0.222   1.579   5.265
 2840SOL    HW2 9420   0.228   1.422   5.311
 2841SOL     OW 9421   1.236   5.783   1.073
 2841SOL    HW1 9422   1.278   5.787   0.982
 2841SOL    HW2 9423   1.306   5.798   1.142
 2842SOL     OW 9424   6.715   3.336   3.720
 2842SOL    HW1 9425   6.687   3.327   3.816
 2842SOL    HW2 9426   6.725   3.245   3.679
 2843SOL     OW 9427   3.546   0.997   5.032
 2843SOL    HW1 9428   3.481   1.041   4.970
 2843SOL    HW2 9429   3.639   1.006   4.996
 2844SOL     OW 9430   0.941   4.222   6.949
 2844SOL    HW1 9431   0.874   4.148   6.941
 2844SOL    HW2 9432   1.026   4.196   6.903
 2845SOL     OW 9433   0.499   3.955   0.052
 2845SOL    HW1 9434   0.471   3.946   6.981
 2845SOL    HW2 9435   0.443   3.893   0.108
 2846SOL     OW 9436   4.837   1.359   0.190
 2846SOL    HW1 9437   4.907   1.383   0.258
 2846SOL    HW2 9438   4.872   1.377   0.098
 2847SOL     OW 9439   5.967   4.259   3.599
 2847SOL    HW1 9440   5.900   4.242   3.526
 2847SOL    HW2 9441   6.002   4.352   3.591
 2848SOL     OW 9442   0.461   4.822   5.595
 2848SOL    HW1 9443   0.541   4.842   5.539
 2848SOL    HW2 9444   0.455   4.888   5.669
 2849SOL     OW 9445   3.218   1.489   0.480
 2849SOL    HW1 9446   3.250   1.547   0.405
 2849SOL    HW2 9447   3.150   1.424   0.446
 2850SOL     OW 9448   3.424   0.377   1.598
 2850SOL    HW1 9449   3.513   0.398   1.558
 2850SOL    HW2 9450   3.424   0.403   1.695
 2851SOL     OW 9451   1.050   4.625   5.346
 2851SOL    HW1 9452   1.105   4.690   5.397
 2851SOL    HW2 9453   1.108   4.575   5.281
 2852SOL     OW 9454   6.165   3.266   6.870
 2852SOL    HW1 9455   6.167   3.196   6.942
 2852SOL    HW2 9456   6.125   3.350   6.907
 2853SOL     OW 9457   3.366   2.321   0.919
 2853SOL    HW1 9458   3.339   2.322   1.015
 2853SOL    HW2 9459   3.301   2.265   0.867
 2854SOL     OW 9460   2.556   0.729   4.430
 2854SOL    HW1 9461   2.566   0.667   4.352
 2854SOL    HW2 9462   2.486   0.692   4.492
 2855SOL     OW 9463   2.066   0.787   5.513
 2855SOL    HW1 9464   2.008   0.771   5.593
 2855SOL    HW2 9465   2.009   0.785   5.431
 2856SOL     OW 9466   2.413   2.346   5.300
 2856SOL    HW1 9467   2.486   2.368   5.365
 2856SOL    HW2 9468   2.363   2.430   5.277
 2857SOL     OW 9469   2.757   2.207   1.295
 2857SOL    HW1 9470   2.719   2.273   1.230
 2857SOL    HW2 9471   2.767   2.118   1.250
 2858SOL     OW 9472   6.506   2.809   2.353
 2858SOL    HW1 9473   6.456   2.794   2.268
 2858SOL    HW2 9474   6.495   2.904   2.383
 2859SOL     OW 9475   4.912   1.030   0.643
 2859SOL    HW1 9476   4.888   0.934   0.626
 2859SOL    HW2 9477   4.993   1.034   0.701
 2860SOL     OW 9478   3.740   1.665   1.713
 2860SOL    HW1 9479   3.712   1.721   1.635
 2860SOL    HW2 9480   3.807   1.716   1.767
 2861SOL     OW 9481   4.257   6.049   5.554
 2861SOL    HW1 9482   4.322   6.115   5.592
 2861SOL    HW2 9483   4.220   6.084   5.468
 2862SOL     OW 9484   5.201   1.294   3.836
 2862SOL    HW1 9485   5.125   1.359   3.824
 2862SOL    HW2 9486   5.172   1.203   3.806
 2863SOL     OW 9487   6.365   1.993   0.383
 2863SOL    HW1 9488   6.452   2.013   0.428
 2863SOL    HW2 9489   6.366   2.029   0.290
 2864SOL     OW 9490   4.054   0.496   1.376
 2864SOL    HW1 9491   4.001   0.581   1.374
 2864SOL    HW2 9492   3.994   0.419   1.354
 2865SOL     OW 9493   4.446   4.396   5.345
 2865SOL    HW1 9494   4.384   4.445   5.284
 2865SOL    HW2 9495   4.540   4.407   5.314
 2866SOL     OW 9496   6.946   5.883   6.840
 2866SOL    HW1 9497   6.863   5.879   6.896
 2866SOL    HW2 9498   6.934   5.951   6.767
 2867SOL     OW 9499   6.168   5.166   2.626
 2867SOL    HW1 9500   6.145   5.177   2.529
 2867SOL    HW2 9501   6.084   5.151   2.678
 2868SOL     OW 9502   0.314   4.031   5.149
 2868SOL    HW1 9503   0.246   4.086   5.197
 2868SOL    HW2 9504   0.358   4.086   5.078
 2869SOL     OW 9505   6.147   0.404   2.208
 2869SOL    HW1 9506   6.184   0.315   2.235
 2869SOL    HW2 9507   6.086   0.438   2.279
 2870SOL     OW 9508   6.385   2.096   3.216
 2870SOL    HW1 9509   6.367   2.097   3.315
 2870SOL    HW2 9510   6.304   2.131   3.168
 2871SOL     OW 9511   2.085   2.064   6.640
 2871SOL    HW1 9512   2.039   2.129   6.580
 2871SOL    HW2 9513   2.016   2.010   6.690
 2872SOL     OW 9514   2.630   0.562   4.235
 2872SOL    HW1 9515   2.538   0.537   4.204
 2872SOL    HW2 9516   2.698   0.511   4.182
 2873SOL     OW 9517   0.946   5.876   2.871
 2873SOL    HW1 9518   1.043   5.855   2.860
 2873SOL    HW2 9519   0.936   5.970   2.904
 2874SOL     OW 9520   5.390   4.093   2.451
 2874SOL    HW1 9521   5.468   4.119   2.394
 2874SOL    HW2 9522   5.309   4.080   2.393
 2875SOL     OW 9523   3.577   6.267   6.052
 2875SOL    HW1 9524   3.497   6.209   6.061
 2875SOL    HW2 9525   3.660   6.213   6.072
 2876SOL     OW 9526   0.627   1.139   1.469
 2876SOL    HW1 9527   0.539   1.105   1.436
 2876SOL    HW2 9528   0.612   1.216   1.531
 2877SOL     OW 9529   2.943   2.898   5.333
 2877SOL    HW1 9530   2.992   2.969   5.283
 2877SOL    HW2 9531   2.850   2.930   5.353
 2878SOL     OW 9532   2.274   4.641   4.785
 2878SOL    HW1 9533   2.315   4.619   4.874
 2878SOL    HW2 9534   2.297   4.569   4.720
 2879SOL     OW 9535   4.817   5.340   6.809
 2879SOL    HW1 9536   4.735   5.314   6.860
 2879SOL    HW2 9537   4.802   5.429   6.766
 2880SOL     OW 9538   0.486   6.125   1.441
 2880SOL    HW1 9539   0.555   6.053   1.428
 2880SOL    HW2 9540   0.512   6.206   1.388
 2881SOL     OW 9541   6.447   6.318   0.612
 2881SOL    HW1 9542   6.377   6.299   0.543
 2881SOL    HW2 9543   6.449   6.243   0.679
 2882SOL     OW 9544   0.088   3.072   2.478
 2882SOL    HW1 9545   0.137   3.158   2.465
 2882SOL    HW2 9546   0.019   3.063   2.407
 2883SOL     OW 9547   3.660   6.987   3.058
 2883SOL    HW1 9548   3.689   7.015   3.150
 2883SOL    HW2 9549   3.735   6.939   3.013
 2884SOL     OW 9550   0.873   6.157   2.930
 2884SOL    HW1 9551   0.900   6.147   3.026
 2884SOL    HW2 9552   0.824   6.244   2.918
 2885SOL     OW 9553   0.559   2.161   2.815
 2885SOL    HW1 9554   0.548   2.136   2.718
 2885SOL    HW2 9555   0.650   2.134   2.846
 2886SOL     OW 9556   1.511   2.353   0.182
 2886SOL    HW1 9557   1.564   2.270   0.166
 2886SOL    HW2 9558   1.483   2.392   0.095
 2887SOL     OW 9559   2.115   0.430   5.014
 2887SOL    HW1 9560   2.182   0.501   4.993
 2887SOL    HW2 9561   2.159   0.340   5.008
 2888SOL     OW 9562   6.582   4.345   6.771
 2888SOL    HW1 9563   6.665   4.370   6.820
 2888SOL    HW2 9564   6.585   4.247   6.749
 2889SOL     OW 9565   0.825   0.911   1.847
 2889SOL    HW1 9566   0.829   0.928   1.749
 2889SOL    HW2 9567   0.891   0.840   1.871
 2890SOL     OW 9568   3.066   0.521   1.583
 2890SOL    HW1 9569   2.993   0.584   1.555
 2890SOL    HW2 9570   3.110   0.483   1.502
 2891SOL     OW 9571   1.912   4.361   3.489
 2891SOL    HW1 9572   1.842   4.419   3.530
 2891SOL    HW2 9573   1.870   4.278   3.453
 2892SOL     OW 9574   3.491   4.429   6.534
 2892SOL    HW1 9575   3.556   4.356   6.557
 2892SOL    HW2 9576   3.428   4.396   6.464
 2893SOL     OW 9577   2.602   6.681   5.070
 2893SOL    HW1 9578   2.608   6.657   4.973
 2893SOL    HW2 9579   2.594   6.780   5.079
 2894SOL     OW 9580   2.954   2.767   0.003
 2894SOL    HW1 9581   2.900   2.837   0.050
 2894SOL    HW2 9582   2.910   2.745   6.940
 2895SOL     OW 9583   3.969   3.093   6.513
 2895SOL    HW1 9584   3.980   3.042   6.428
 2895SOL    HW2 9585   4.009   3.184   6.504
 2896SOL     OW 9586   2.232   5.438   0.063
 2896SOL    HW1 9587   2.220   5.513   0.128
 2896SOL    HW2 9588   2.322   5.397   0.074
 2897SOL     OW 9589   2.733   6.523   3.431
 2897SOL    HW1 9590   2.700   6.441   3.477
 2897SOL    HW2 9591   2.809   6.499   3.371
 2898SOL     OW 9592   4.314   5.140   2.746
 2898SOL    HW1 9593   4.238   5.113   2.687
 2898SOL    HW2 9594   4.289   5.224   2.795
 2899SOL     OW 9595   0.273   0.101   6.645
 2899SOL    HW1 9596   0.182   0.138   6.664
 2899SOL    HW2 9597   0.276   0.005   6.671
 2900SOL     OW 9598   1.024   4.950   5.742
 2900SOL    HW1 9599   1.039   4.992   5.832
 2900SOL    HW2 9600   1.072   4.863   5.737
 2901SOL     OW 9601   2.781   0.729   2.652
 2901SOL    HW1 9602   2.690   0.766   2.668
 2901SOL    HW2 9603   2.845   0.803   2.634
 2902SOL     OW 9604   5.453   6.675   0.801
 2902SOL    HW1 9605   5.461   6.665   0.702
 2902SOL    HW2 9606   5.365   6.718   0.823
 2903SOL     OW 9607   2.585   1.125   2.003
 2903SOL    HW1 9608   2.592   1.224   2.021
 2903SOL    HW2 9609   2.673   1.091   1.969
 2904SOL     OW 9610   2.155   3.347   5.187
 2904SOL    HW1 9611   2.242   3.367   5.233
 2904SOL    HW2 9612   2.171   3.283   5.112
 2905SOL     OW 9613   1.598   0.835   2.389
 2905SOL    HW1 9614   1.563   0.909   2.331
 2905SOL    HW2 9615   1.589   0.862   2.485
 2906SOL     OW 9616   5.412   5.027   2.257
 2906SOL    HW1 9617   5.448   4.955   2.317
 2906SOL    HW2 9618   5.487   5.068   2.205
 2907SOL     OW 9619   0.152   2.102   5.382
 2907SOL    HW1 9620   0.100   2.073   5.462
 2907SOL    HW2 9621   0.241   2.138   5.412
 2908SOL     OW 9622   3.860   6.774   4.132
 2908SOL    HW1 9623   3.912   6.698   4.172
 2908SOL    HW2 9624   3.837   6.840   4.203
 2909SOL     OW 9625   1.015   5.644   4.247
 2909SOL    HW1 9626   0.968   5.620   4.162
 2909SOL    HW2 9627   0.960   5.709   4.298
 2910SOL     OW 9628   3.683   6.511   4.894
 2910SOL    HW1 9629   3.728   6.596   4.867
 2910SOL    HW2 9630   3.653   6.461   4.813
 2911SOL     OW 9631   2.240   4.703   3.430
 2911SOL    HW1 9632   2.175   4.647   3.481
 2911SOL    HW2 9633   2.217   4.701   3.333
 2912SOL     OW 9634   2.920   5.995   0.350
 2912SOL    HW1 9635   2.892   6.073   0.407
 2912SOL    HW2 9636   2.944   5.918   0.409
 2913SOL     OW 9637   1.510   3.543   2.412
 2913SOL    HW1 9638   1.543   3.541   2.318
 2913SOL    HW2 9639   1.582   3.575   2.473
 2914SOL     OW 9640   5.495   4.318   6.154
 2914SOL    HW1 9641   5.406   4.309   6.108
 2914SOL    HW2 9642   5.568   4.322   6.086
 2915SOL     OW 9643   4.238   1.211   4.470
 2915SOL    HW1 9644   4.168   1.266   4.424
 2915SOL    HW2 9645   4.279   1.147   4.405
 2916SOL     OW 9646   6.262   4.415   5.197
 2916SOL    HW1 9647   6.245   4.393   5.101
 2916SOL    HW2 9648   6.360   4.408   5.216
 2917SOL     OW 9649   3.844   0.108   1.046
 2917SOL    HW1 9650   3.885   0.039   1.106
 2917SOL    HW2 9651   3.770   0.154   1.095
 2918SOL     OW 9652   0.446   3.650   3.294
 2918SOL    HW1 9653   0.357   3.614   3.268
 2918SOL    HW2 9654   0.498   3.580   3.342
 2919SOL     OW 9655   6.698   6.389   0.301
 2919SOL    HW1 9656   6.650   6.422   0.382
 2919SOL    HW2 9657   6.766   6.457   0.273
 2920SOL     OW 9658   3.946   2.116   2.589
 2920SOL    HW1 9659   3.914   2.143   2.498
 2920SOL    HW2 9660   4.005   2.036   2.581
 2921SOL     OW 9661   6.840   1.204   2.763
 2921SOL    HW1 9662   6.936   1.196   2.792
 2921SOL    HW2 9663   6.810   1.118   2.724
 2922SOL     OW 9664   4.876   0.031   5.800
 2922SOL    HW1 9665   4.925   0.084   5.730
 2922SOL    HW2 9666   4.941   6.998   5.849
 2923SOL     OW 9667   6.860   4.957   2.209
 2923SOL    HW1 9668   6.847   5.029   2.142
 2923SOL    HW2 9669   6.809   4.980   2.293
 2924SOL     OW 9670   0.602   1.055   5.855
 2924SOL    HW1 9671   0.676   1.096   5.802
 2924SOL    HW2 9672   0.518   1.108   5.842
 2925SOL     OW 9673   5.504   2.934   1.825
 2925SOL    HW1 9674   5.453   2.848   1.825
 2925SOL    HW2 9675   5.595   2.918   1.865
 2926SOL     OW 9676   6.860   1.961   5.074
 2926SOL    HW1 9677   6.830   1.989   5.165
 2926SOL    HW2 9678   6.947   2.005   5.052
 2927SOL     OW 9679   1.045   2.588   2.669
 2927SOL    HW1 9680   1.055   2.505   2.614
 2927SOL    HW2 9681   1.122   2.595   2.733
 2928SOL     OW 9682   6.813   0.256   6.752
 2928SOL    HW1 9683   6.883   0.184   6.750
 2928SOL    HW2 9684   6.771   0.263   6.662
 2929SOL     OW 9685   0.677   0.504   6.662
 2929SOL    HW1 9686   0.694   0.603   6.668
 2929SOL    HW2 9687   0.758   0.458   6.626
 2930SOL     OW 9688   5.245   0.337   4.600
 2930SOL    HW1 9689   5.323   0.399   4.590
 2930SOL    HW2 9690   5.258   0.279   4.681
 2931SOL     OW 9691   4.598   6.459   6.627
 2931SOL    HW1 9692   4.561   6.370   6.655
 2931SOL    HW2 9693   4.566   6.481   6.535
 2932SOL     OW 9694   1.156   4.121   1.608
 2932SOL    HW1 9695   1.196   4.094   1.696
 2932SOL    HW2 9696   1.227   4.160   1.549
 2933SOL     OW 9697   5.209   3.138   3.748
 2933SOL    HW1 9698   5.268   3.131   3.828
 2933SOL    HW2 9699   5.126   3.188   3.772
 2934SOL     OW 9700   3.427   0.244   0.320
 2934SOL    HW1 9701   3.502   0.186   0.352
 2934SOL    HW2 9702   3.415   0.231   0.221
 2935SOL     OW 9703   6.336   3.863   1.230
 2935SOL    HW1 9704   6.377   3.846   1.141
 2935SOL    HW2 9705   6.325   3.777   1.279
 2936SOL     OW 9706   4.780   5.572   0.742
 2936SOL    HW1 9707   4.760   5.625   0.824
 2936SOL    HW2 9708   4.758   5.627   0.661
 2937SOL     OW 9709   3.629   5.128   0.794
 2937SOL    HW1 9710   3.613   5.221   0.828
 2937SOL    HW2 9711   3.542   5.089   0.763
 2938SOL     OW 9712   4.800   5.638   5.540
 2938SOL    HW1 9713   4.771   5.681   5.626
 2938SOL    HW2 9714   4.726   5.579   5.507
 2939SOL     OW 9715   6.055   0.277   5.231
 2939SOL    HW1 9716   6.153   0.290   5.244
 2939SOL    HW2 9717   6.005   0.336   5.295
 2940SOL     OW 9718   5.604   0.251   5.110
 2940SOL    HW1 9719   5.512   0.229   5.077
 2940SOL    HW2 9720   5.655   0.167   5.125
 2941SOL     OW 9721   0.900   1.972   4.967
 2941SOL    HW1 9722   0.904   1.917   4.883
 2941SOL    HW2 9723   0.815   1.954   5.015
 2942SOL     OW 9724   3.314   0.432   2.327
 2942SOL    HW1 9725   3.231   0.459   2.278
 2942SOL    HW2 9726   3.349   0.347   2.290
 2943SOL     OW 9727   6.260   3.365   2.788
 2943SOL    HW1 9728   6.280   3.443   2.730
 2943SOL    HW2 9729   6.327   3.293   2.772
 2944SOL     OW 9730   3.318   4.996   4.931
 2944SOL    HW1 9731   3.238   4.991   4.871
 2944SOL    HW2 9732   3.401   4.979   4.877
 2945SOL     OW 9733   3.564   3.226   3.147
 2945SOL    HW1 9734   3.598   3.135   3.124
 2945SOL    HW2 9735   3.561   3.236   3.247
 2946SOL     OW 9736   6.644   5.869   5.951
 2946SOL    HW1 9737   6.585   5.948   5.967
 2946SOL    HW2 9738   6.660   5.858   5.853
 2947SOL     OW 9739   6.704   3.794   6.220
 2947SOL    HW1 9740   6.707   3.822   6.124
 2947SOL    HW2 9741   6.625   3.835   6.265
 2948SOL     OW 9742   6.395   3.912   4.942
 2948SOL    HW1 9743   6.374   3.926   4.845
 2948SOL    HW2 9744   6.482   3.862   4.950
 2949SOL     OW 9745   1.893   6.781   0.851
 2949SOL    HW1 9746   1.795   6.764   0.855
 2949SOL    HW2 9747   1.918   6.808   0.758
 2950SOL     OW 9748   6.147   3.631   4.328
 2950SOL    HW1 9749   6.083   3.565   4.369
 2950SOL    HW2 9750   6.226   3.643   4.388
 2951SOL     OW 9751   0.247   1.871   0.270
 2951SOL    HW1 9752   0.270   1.883   0.367
 2951SOL    HW2 9753   0.254   1.775   0.246
 2952SOL     OW 9754   1.226   4.193   3.206
 2952SOL    HW1 9755   1.249   4.104   3.245
 2952SOL    HW2 9756   1.225   4.186   3.106
 2953SOL     OW 9757   4.905   2.065   2.181
 2953SOL    HW1 9758   4.828   2.002   2.189
 2953SOL    HW2 9759   4.977   2.023   2.125
 2954SOL     OW 9760   0.174   6.495   2.652
 2954SOL    HW1 9761   0.126   6.583   2.651
 2954SOL    HW2 9762   0.212   6.477   2.561
 2955SOL     OW 9763   0.289   3.216   0.876
 2955SOL    HW1 9764   0.341   3.274   0.813
 2955SOL    HW2 9765   0.337   3.210   0.963
 2956SOL     OW 9766   0.152   5.429   3.119
 2956SOL    HW1 9767   0.129   5.442   3.022
 2956SOL    HW2 9768   0.171   5.332   3.135
 2957SOL     OW 9769   0.042   3.843   1.307
 2957SOL    HW1 9770   6.997   3.910   1.281
 2957SOL    HW2 9771   0.003   3.779   1.373
 2958SOL     OW 9772   1.342   4.591   5.883
 2958SOL    HW1 9773   1.433   4.633   5.875
 2958SOL    HW2 9774   1.351   4.492   5.879
 2959SOL     OW 9775   5.330   4.663   6.054
 2959SOL    HW1 9776   5.424   4.652   6.022
 2959SOL    HW2 9777   5.284   4.734   6.000
 2960SOL     OW 9778   2.783   1.852   0.082
 2960SOL    HW1 9779   2.806   1.947   0.060
 2960SOL    HW2 9780   2.809   1.832   0.176
 2961SOL     OW 9781   5.466   3.570   4.430
 2961SOL    HW1 9782   5.523   3.652   4.440
 2961SOL    HW2 9783   5.408   3.580   4.349
 2962SOL     OW 9784   4.476   1.190   3.689
 2962SOL    HW1 9785   4.518   1.177   3.599
 2962SOL    HW2 9786   4.464   1.288   3.706
 2963SOL     OW 9787   1.764   1.000   5.734
 2963SOL    HW1 9788   1.749   1.099   5.739
 2963SOL    HW2 9789   1.694   0.959   5.677
 2964SOL     OW 9790   1.806   6.434   1.597
 2964SOL    HW1 9791   1.841   6.522   1.628
 2964SOL    HW2 9792   1.710   6.444   1.570
 2965SOL     OW 9793   0.307   1.097   5.529
 2965SOL    HW1 9794   0.343   1.145   5.609
 2965SOL    HW2 9795   0.300   1.000   5.550
 2966SOL     OW 9796   5.411   4.481   3.975
 2966SOL    HW1 9797   5.319   4.507   3.947
 2966SOL    HW2 9798   5.435   4.530   4.059
 2967SOL     OW 9799   5.647   2.135   3.586
 2967SOL    HW1 9800   5.589   2.091   3.517
 2967SOL    HW2 9801   5.705   2.204   3.542
 2968SOL     OW 9802   0.592   3.886   4.415
 2968SOL    HW1 9803   0.579   3.926   4.506
 2968SOL    HW2 9804   0.504   3.882   4.368
 2969SOL     OW 9805   5.914   2.348   4.628
 2969SOL    HW1 9806   5.935   2.315   4.720
 2969SOL    HW2 9807   5.817   2.333   4.609
 2970SOL     OW 9808   0.900   4.545   6.282
 2970SOL    HW1 9809   0.945   4.536   6.193
 2970SOL    HW2 9810   0.966   4.575   6.350
 2971SOL     OW 9811   6.198   3.173   3.468
 2971SOL    HW1 9812   6.207   3.111   3.547
 2971SOL    HW2 9813   6.125   3.239   3.486
 2972SOL     OW 9814   6.207   3.265   6.405
 2972SOL    HW1 9815   6.235   3.359   6.427
 2972SOL    HW2 9816   6.146   3.231   6.477
 2973SOL     OW 9817   5.494   0.615   3.702
 2973SOL    HW1 9818   5.505   0.570   3.613
 2973SOL    HW2 9819   5.506   0.714   3.692
 2974SOL     OW 9820   6.744   4.552   2.715
 2974SOL    HW1 9821   6.697   4.572   2.801
 2974SOL    HW2 9822   6.794   4.466   2.723
 2975SOL     OW 9823   0.594   1.365   5.213
 2975SOL    HW1 9824   0.660   1.385   5.141
 2975SOL    HW2 9825   0.501   1.375   5.177
 2976SOL     OW 9826   4.256   1.419   2.944
 2976SOL    HW1 9827   4.239   1.488   2.873
 2976SOL    HW2 9828   4.331   1.359   2.915
 2977SOL     OW 9829   2.760   6.855   4.387
 2977SOL    HW1 9830   2.696   6.886   4.458
 2977SOL    HW2 9831   2.716   6.860   4.298
 2978SOL     OW 9832   4.892   4.723   0.205
 2978SOL    HW1 9833   4.885   4.820   0.181
 2978SOL    HW2 9834   4.969   4.709   0.266
 2979SOL     OW 9835   3.462   0.206   3.038
 2979SOL    HW1 9836   3.504   0.116   3.041
 2979SOL    HW2 9837   3.529   0.275   3.067
 2980SOL     OW 9838   0.863   6.442   4.139
 2980SOL    HW1 9839   0.850   6.437   4.040
 2980SOL    HW2 9840   0.955   6.411   4.162
 2981SOL     OW 9841   1.518   0.871   5.593
 2981SOL    HW1 9842   1.500   0.813   5.514
 2981SOL    HW2 9843   1.477   0.961   5.579
 2982SOL     OW 9844   4.203   5.952   2.532
 2982SOL    HW1 9845   4.243   5.969   2.442
 2982SOL    HW2 9846   4.187   5.853   2.542
 2983SOL     OW 9847   0.067   0.959   4.719
 2983SOL    HW1 9848   0.025   1.022   4.784
 2983SOL    HW2 9849   0.036   0.981   4.627
 2984SOL     OW 9850   6.511   5.484   1.934
 2984SOL    HW1 9851   6.460   5.503   2.017
 2984SOL    HW2 9852   6.480   5.545   1.861
 2985SOL     OW 9853   0.344   1.815   4.329
 2985SOL    HW1 9854   0.429   1.774   4.362
 2985SOL    HW2 9855   0.319   1.891   4.389
 2986SOL     OW 9856   1.414   3.373   5.121
 2986SOL    HW1 9857   1.438   3.304   5.052
 2986SOL    HW2 9858   1.421   3.464   5.080
 2987SOL     OW 9859   4.036   1.230   4.748
 2987SOL    HW1 9860   4.101   1.155   4.742
 2987SOL    HW2 9861   4.075   1.311   4.703
 2988SOL     OW 9862   0.983   0.388   1.664
 2988SOL    HW1 9863   0.925   0.467   1.646
 2988SOL    HW2 9864   1.079   0.414   1.653
 2989SOL     OW 9865   6.525   4.786   1.242
 2989SOL    HW1 9866   6.442   4.735   1.219
 2989SOL    HW2 9867   6.605   4.738   1.207
 2990SOL     OW 9868   3.175   0.957   2.411
 2990SOL    HW1 9869   3.175   0.933   2.314
 2990SOL    HW2 9870   3.239   1.033   2.426
 2991SOL     OW 9871   0.167   3.801   0.548
 2991SOL    HW1 9872   0.193   3.798   0.645
 2991SOL    HW2 9873   0.110   3.881   0.531
 2992SOL     OW 9874   2.999   5.763   6.327
 2992SOL    HW1 9875   2.906   5.796   6.307
 2992SOL    HW2 9876   3.065   5.833   6.300
 2993SOL     OW 9877   1.862   4.937   1.528
 2993SOL    HW1 9878   1.923   4.878   1.475
 2993SOL    HW2 9879   1.908   4.967   1.611
 2994SOL     OW 9880   4.892   0.740   0.005
 2994SOL    HW1 9881   4.974   0.796   7.016
 2994SOL    HW2 9882   4.868   0.739   0.101
 2995SOL     OW 9883   1.035   2.138   0.191
 2995SOL    HW1 9884   1.133   2.144   0.170
 2995SOL    HW2 9885   1.009   2.213   0.253
 2996SOL     OW 9886   3.048   5.177   5.320
 2996SOL    HW1 9887   3.002   5.260   5.349
 2996SOL    HW2 9888   2.981   5.113   5.282
 2997SOL     OW 9889   5.814   6.218   1.325
 2997SOL    HW1 9890   5.804   6.151   1.251
 2997SOL    HW2 9891   5.848   6.172   1.407
 2998SOL     OW 9892   5.515   6.166   3.892
 2998SOL    HW1 9893   5.477   6.116   3.970
 2998SOL    HW2 9894   5.598   6.120   3.860
 2999SOL     OW 9895   3.468   6.832   2.936
 2999SOL    HW1 9896   3.383   6.870   2.974
 2999SOL    HW2 9897   3.546   6.882   2.973
 3000SOL     OW 9898   1.544   3.089   5.610
 3000SOL    HW1 9899   1.513   2.994   5.602
 3000SOL    HW2 9900   1.626   3.092   5.667
 3001SOL     OW 9901   4.906   0.504   5.623
 3001SOL    HW1 9902   4.878   0.521   5.718
 3001SOL    HW2 9903   5.005   0.517   5.615
 3002SOL     OW 9904   4.445   0.147   5.189
 3002SOL    HW1 9905   4.385   0.175   5.263
 3002SOL    HW2 9906   4.539   0.143   5.222
 3003SOL     OW 9907   2.514   6.548   5.719
 3003SOL    HW1 9908   2.489   6.474   5.782
 3003SOL    HW2 9909   2.535   6.510   5.629
 3004SOL     OW 9910   6.108   4.041   3.951
 3004SOL    HW1 9911   6.078   4.128   3.991
 3004SOL    HW2 9912   6.153   4.059   3.864
 3005SOL     OW 9913   3.380   2.896   1.258
 3005SOL    HW1 9914   3.401   2.989   1.227
 3005SOL    HW2 9915   3.413   2.884   1.351
 3006SOL     OW 9916   5.416   1.214   0.841
 3006SOL    HW1 9917   5.499   1.224   0.897
 3006SOL    HW2 9918   5.347   1.280   0.871
 3007SOL     OW 9919   6.139   4.776   2.806
 3007SOL    HW1 9920   6.221   4.720   2.797
 3007SOL    HW2 9921   6.093   4.756   2.892
 3008SOL     OW 9922   3.129   6.778   6.138
 3008SOL    HW1 9923   3.147   6.685   6.170
 3008SOL    HW2 9924   3.132   6.841   6.216
 3009SOL     OW 9925   1.185   0.237   2.171
 3009SOL    HW1 9926   1.197   0.322   2.120
 3009SOL    HW2 9927   1.268   0.219   2.224
 3010SOL     OW 9928   3.816   5.312   3.156
 3010SOL    HW1 9929   3.728   5.277   3.187
 3010SOL    HW2 9930   3.813   5.412   3.154
 3011SOL     OW 9931   6.242   0.318   6.901
 3011SOL    HW1 9932   6.331   0.323   6.856
 3011SOL    HW2 9933   6.254   0.283   6.994
 3012SOL     OW 9934   0.109   3.696   3.555
 3012SOL    HW1 9935   0.169   3.726   3.629
 3012SOL    HW2 9936   0.034   3.642   3.593
 3013SOL     OW 9937   6.000   5.845   2.375
 3013SOL    HW1 9938   6.061   5.879   2.447
 3013SOL    HW2 9939   5.906   5.845   2.410
 3014SOL     OW 9940   5.126   1.491   4.260
 3014SOL    HW1 9941   5.216   1.533   4.263
 3014SOL    HW2 9942   5.123   1.422   4.187
 3015SOL     OW 9943   2.476   2.535   0.615
 3015SOL    HW1 9944   2.482   2.443   0.655
 3015SOL    HW2 9945   2.518   2.535   0.525
 3016SOL     OW 9946   3.602   6.228   4.184
 3016SOL    HW1 9947   3.522   6.277   4.218
 3016SOL    HW2 9948   3.573   6.149   4.130
 3017SOL     OW 9949   1.504   6.120   1.712
 3017SOL    HW1 9950   1.490   6.180   1.790
 3017SOL    HW2 9951   1.558   6.041   1.739
 3018SOL     OW 9952   4.168   0.119   6.974
 3018SOL    HW1 9953   4.241   0.171   7.019
 3018SOL    HW2 9954   4.193   0.101   6.879
 3019SOL     OW 9955   3.305   5.820   1.091
 3019SOL    HW1 9956   3.377   5.838   1.157
 3019SOL    HW2 9957   3.228   5.882   1.107
 3020SOL     OW 9958   2.960   3.670   1.850
 3020SOL    HW1 9959   2.991   3.734   1.779
 3020SOL    HW2 9960   2.888   3.611   1.813
 3021SOL     OW 9961   1.403   1.862   6.698
 3021SOL    HW1 9962   1.470   1.894   6.631
 3021SOL    HW2 9963   1.387   1.934   6.765
 3022SOL     OW 9964   4.167   6.060   3.302
 3022SOL    HW1 9965   4.186   5.976   3.252
 3022SOL    HW2 9966   4.163   6.137   3.238
 3023SOL     OW 9967   3.856   5.628   3.754
 3023SOL    HW1 9968   3.765   5.588   3.748
 3023SOL    HW2 9969   3.908   5.583   3.826
 3024SOL     OW 9970   3.484   1.482   0.008
 3024SOL    HW1 9971   3.545   1.433   6.969
 3024SOL    HW2 9972   3.458   1.569   6.991
 3025SOL     OW 9973   2.720   2.800   1.191
 3025SOL    HW1 9974   2.625   2.791   1.221
 3025SOL    HW2 9975   2.746   2.719   1.138
 3026SOL     OW 9976   1.254   3.111   1.016
 3026SOL    HW1 9977   1.247   3.015   0.988
 3026SOL    HW2 9978   1.189   3.166   0.964
 3027SOL     OW 9979   3.156   1.090   1.869
 3027SOL    HW1 9980   3.240   1.096   1.922
 3027SOL    HW2 9981   3.177   1.101   1.772
 3028SOL     OW 9982   1.543   5.279   6.330
 3028SOL    HW1 9983   1.450   5.268   6.366
 3028SOL    HW2 9984   1.559   5.375   6.309
 3029SOL     OW 9985   6.236   5.598   4.752
 3029SOL    HW1 9986   6.234   5.671   4.684
 3029SOL    HW2 9987   6.327   5.593   4.794
 3030SOL     OW 9988   0.816   0.845   5.627
 3030SOL    HW1 9989   0.764   0.926   5.600
 3030SOL    HW2 9990   0.805   0.829   5.725
 3031SOL     OW 9991   0.578   3.930   6.687
 3031SOL    HW1 9992   0.630   3.935   6.773
 3031SOL    HW2 9993   0.481   3.940   6.707
 3032SOL     OW 9994   5.006   0.312   0.035
 3032SOL    HW1 9995   4.986   0.332   6.963
 3032SOL    HW2 9996   5.094   0.350   0.060
 3033SOL     OW 9997   0.151   3.788   6.915
 3033SOL    HW1 9998   0.083   3.824   6.852
 3033SOL    HW2 9999   0.109   3.772   7.004
 3034SOL     OW10000   3.146   6.504   3.895
 3034SOL    HW110001   3.135   6.581   3.832
 3034SOL    HW210002   3.170   6.422   3.843
 3035SOL     OW10003   6.326   1.052   0.087
 3035SOL    HW110004   6.261   0.998   0.034
 3035SOL    HW210005   6.408   0.998   0.104
 3036SOL     OW10006   1.215   3.995   6.954
 3036SOL    HW110007   1.218   3.910   6.901
 3036SOL    HW210008   1.195   4.071   6.893
 3037SOL     OW10009   6.607   6.260   4.746
 3037SOL    HW110010   6.526   6.227   4.696
 3037SOL    HW210011   6.620   6.205   4.828
 3038SOL     OW10012   5.197   0.247   6.263
 3038SOL    HW110013   5.131   0.292   6.203
 3038SOL    HW210014   5.155   0.166   6.304
 3039SOL     OW10015   6.836   4.458   2.092
 3039SOL    HW110016   6.850   4.515   2.173
 3039SOL    HW210017   6.921   4.452   2.040
 3040SOL     OW10018   3.325   3.520   6.662
 3040SOL    HW110019   3.237   3.526   6.710
 3040SOL    HW210020   3.369   3.610   6.663
 3041SOL     OW10021   2.019   2.166   5.511
 3041SOL    HW110022   2.084   2.136   5.441
 3041SOL    HW210023   2.066   2.222   5.579
 3042SOL     OW10024   5.063   0.239   1.678
 3042SOL    HW110025   5.132   0.186   1.629
 3042SOL    HW210026   5.023   0.182   1.751
 3043SOL     OW10027   0.995   5.453   0.362
 3043SOL    HW110028   0.942   5.371   0.346
 3043SOL    HW210029   0.934   5.531   0.376
 3044SOL     OW10030   3.374   4.058   5.428
 3044SOL    HW110031   3.469   4.038   5.450
 3044SOL    HW210032   3.362   4.156   5.417
 3045SOL     OW10033   4.522   1.694   2.776
 3045SOL    HW110034   4.429   1.669   2.751
 3045SOL    HW210035   4.521   1.767   2.844
 3046SOL     OW10036   1.299   2.938   5.744
 3046SOL    HW110037   1.335   2.909   5.833
 3046SOL    HW210038   1.205   2.972   5.756
 3047SOL     OW10039   6.364   5.563   2.181
 3047SOL    HW110040   6.293   5.493   2.172
 3047SOL    HW210041   6.373   5.588   2.278
 3048SOL     OW10042   3.983   3.713   1.246
 3048SOL    HW110043   3.918   3.655   1.294
 3048SOL    HW210044   4.046   3.754   1.311
 3049SOL     OW10045   1.237   0.014   1.621
 3049SOL    HW110046   1.235   0.043   1.525
 3049SOL    HW210047   1.268   0.090   1.678
 3050SOL     OW10048   3.537   5.886   3.577
 3050SOL    HW110049   3.446   5.928   3.573
 3050SOL    HW210050   3.536   5.800   3.525
 3051SOL     OW10051   2.448   5.277   6.692
 3051SOL    HW110052   2.424   5.183   6.715
 3051SOL    HW210053   2.379   5.339   6.729
 3052SOL     OW10054   4.024   0.364   2.782
 3052SOL    HW110055   4.088   0.294   2.814
 3052SOL    HW210056   4.067   0.454   2.788
 3053SOL     OW10057   6.116   0.403   0.265
 3053SOL    HW110058   6.156   0.474   0.322
 3053SOL    HW210059   6.036   0.440   0.218
 3054SOL     OW10060   6.903   3.594   0.601
 3054SOL    HW110061   6.817   3.641   0.621
 3054SOL    HW210062   6.976   3.661   0.587
 3055SOL     OW10063   5.828   0.310   3.543
 3055SOL    HW110064   5.791   0.398   3.515
 3055SOL    HW210065   5.762   0.237   3.524
 3056SOL     OW10066   6.867   0.349   0.219
 3056SOL    HW110067   6.844   0.440   0.186
 3056SOL    HW210068   6.963   0.329   0.200
 3057SOL     OW10069   6.057   4.677   2.257
 3057SOL    HW110070   5.963   4.652   2.281
 3057SOL    HW210071   6.115   4.596   2.265
 3058SOL     OW10072   6.446   6.072   0.762
 3058SOL    HW110073   6.517   6.060   0.831
 3058SOL    HW210074   6.392   5.987   0.756
 3059SOL     OW10075   0.392   2.648   4.852
 3059SOL    HW110076   0.300   2.617   4.831
 3059SOL    HW210077   0.397   2.748   4.842
 3060SOL     OW10078   0.548   6.686   1.215
 3060SOL    HW110079   0.586   6.662   1.304
 3060SOL    HW210080   0.580   6.622   1.146
 3061SOL     OW10081   0.032   1.117   4.948
 3061SOL    HW110082   0.116   1.075   4.982
 3061SOL    HW210083   6.979   1.088   5.004
 3062SOL     OW10084   2.744   6.514   1.418
 3062SOL    HW110085   2.843   6.532   1.416
 3062SOL    HW210086   2.728   6.416   1.422
 3063SOL     OW10087   1.962   4.726   1.847
 3063SOL    HW110088   1.902   4.680   1.782
 3063SOL    HW210089   1.984   4.664   1.922
 3064SOL     OW10090   6.447   3.803   3.358
 3064SOL    HW110091   6.518   3.786   3.426
 3064SOL    HW210092   6.357   3.793   3.401
 3065SOL     OW10093   1.554   0.492   6.913
 3065SOL    HW110094   1.563   0.572   6.973
 3065SOL    HW210095   1.475   0.506   6.853
 3066SOL     OW10096   5.841   4.519   0.662
 3066SOL    HW110097   5.817   4.428   0.627
 3066SOL    HW210098   5.932   4.544   0.629
 3067SOL     OW10099   4.331   0.569   4.972
 3067SOL    HW110100   4.285   0.653   5.001
 3067SOL    HW210101   4.267   0.493   4.977
 3068SOL     OW10102   6.337   6.157   1.234
 3068SOL    HW110103   6.426   6.199   1.250
 3068SOL    HW210104   6.304   6.183   1.143
 3069SOL     OW10105   0.566   5.890   2.140
 3069SOL    HW110106   0.556   5.823   2.214
 3069SOL    HW210107   0.586   5.980   2.179
 3070SOL     OW10108   1.882   1.490   3.114
 3070SOL    HW110109   1.946   1.419   3.083
 3070SOL    HW210110   1.933   1.561   3.163
 3071SOL     OW10111   6.284   0.150   4.001
 3071SOL    HW110112   6.374   0.166   3.959
 3071SOL    HW210113   6.225   0.228   3.983
 3072SOL     OW10114   0.312   6.064   2.370
 3072SOL    HW110115   0.230   6.024   2.409
 3072SOL    HW210116   0.296   6.089   2.275
 3073SOL     OW10117   0.819   3.082   5.195
 3073SOL    HW110118   0.802   3.159   5.257
 3073SOL    HW210119   0.893   3.105   5.133
 3074SOL     OW10120   4.555   3.321   0.601
 3074SOL    HW110121   4.559   3.393   0.670
 3074SOL    HW210122   4.623   3.339   0.530
 3075SOL     OW10123   2.086   6.505   1.508
 3075SOL    HW110124   1.999   6.518   1.555
 3075SOL    HW210125   2.097   6.408   1.485
 3076SOL     OW10126   6.713   0.459   4.935
 3076SOL    HW110127   6.690   0.541   4.986
 3076SOL    HW210128   6.681   0.468   4.840
 3077SOL     OW10129   6.197   4.300   4.316
 3077SOL    HW110130   6.113   4.277   4.364
 3077SOL    HW210131   6.271   4.311   4.382
 3078SOL     OW10132   1.909   3.931   1.881
 3078SOL    HW110133   1.981   3.934   1.951
 3078SOL    HW210134   1.917   3.847   1.828
 3079SOL     OW10135   0.637   2.506   4.844
 3079SOL    HW110136   0.559   2.569   4.845
 3079SOL    HW210137   0.613   2.423   4.894
 3080SOL     OW10138   6.012   5.037   0.881
 3080SOL    HW110139   6.101   4.997   0.862
 3080SOL    HW210140   5.970   4.991   0.960
 3081SOL     OW10141   0.438   4.132   6.014
 3081SOL    HW110142   0.509   4.117   5.945
 3081SOL    HW210143   0.397   4.222   6.001
 3082SOL     OW10144   3.842   6.881   2.878
 3082SOL    HW110145   3.933   6.920   2.864
 3082SOL    HW210146   3.832   6.798   2.822
 3083SOL     OW10147   3.546   0.663   2.183
 3083SOL    HW110148   3.512   0.723   2.110
 3083SOL    HW210149   3.516   0.569   2.165
 3084SOL     OW10150   4.942   5.330   4.037
 3084SOL    HW110151   4.942   5.255   4.102
 3084SOL    HW210152   4.913   5.414   4.082
 3085SOL     OW10153   6.733   5.308   2.634
 3085SOL    HW110154   6.798   5.381   2.614
 3085SOL    HW210155   6.644   5.332   2.596
 3086SOL     OW10156   4.423   1.192   2.191
 3086SOL    HW110157   4.330   1.199   2.226
 3086SOL    HW210158   4.439   1.098   2.159
 3087SOL     OW10159   6.050   3.942   2.957
 3087SOL    HW110160   6.086   3.850   2.973
 3087SOL    HW210161   5.951   3.941   2.963
 3088SOL     OW10162   2.024   4.375   4.812
 3088SOL    HW110163   2.102   4.371   4.873
 3088SOL    HW210164   2.020   4.292   4.757
 3089SOL     OW10165   1.043   2.575   6.831
 3089SOL    HW110166   1.127   2.572   6.884
 3089SOL    HW210167   1.063   2.608   6.738
 3090SOL     OW10168   2.028   1.854   1.560
 3090SOL    HW110169   1.969   1.893   1.490
 3090SOL    HW210170   2.116   1.902   1.559
 3091SOL     OW10171   2.567   0.177   0.362
 3091SOL    HW110172   2.576   0.167   0.462
 3091SOL    HW210173   2.569   0.086   0.320
 3092SOL     OW10174   6.536   6.388   0.098
 3092SOL    HW110175   6.611   6.368   0.161
 3092SOL    HW210176   6.457   6.421   0.149
 3093SOL     OW10177   6.252   5.132   5.455
 3093SOL    HW110178   6.161   5.120   5.496
 3093SOL    HW210179   6.299   5.207   5.501
 3094SOL     OW10180   3.199   5.546   5.060
 3094SOL    HW110181   3.283   5.559   5.008
 3094SOL    HW210182   3.193   5.450   5.089
 3095SOL     OW10183   1.995   4.567   4.233
 3095SOL    HW110184   1.989   4.493   4.299
 3095SOL    HW210185   2.050   4.642   4.271
 3096SOL     OW10186   6.768   6.718   5.018
 3096SOL    HW110187   6.796   6.796   4.963
 3096SOL    HW210188   6.776   6.634   4.965
 3097SOL     OW10189   0.733   2.997   0.797
 3097SOL    HW110190   0.689   2.953   0.718
 3097SOL    HW210191   0.737   3.095   0.782
 3098SOL     OW10192   2.769   3.931   0.818
 3098SOL    HW110193   2.715   4.007   0.781
 3098SOL    HW210194   2.713   3.875   0.878
 3099SOL     OW10195   0.043   6.051   4.744
 3099SOL    HW110196   7.005   6.116   4.701
 3099SOL    HW210197   0.090   6.095   4.821
 3100SOL     OW10198   6.505   6.291   5.504
 3100SOL    HW110199   6.567   6.307   5.581
 3100SOL    HW210200   6.460   6.202   5.515
 3101SOL     OW10201   4.777   6.329   6.077
 3101SOL    HW110202   4.835   6.371   6.007
 3101SOL    HW210203   4.773   6.230   6.062
 3102SOL     OW10204   1.837   4.416   1.256
 3102SOL    HW110205   1.845   4.512   1.230
 3102SOL    HW210206   1.778   4.408   1.337
 3103SOL     OW10207   3.679   2.737   0.954
 3103SOL    HW110208   3.770   2.771   0.978
 3103SOL    HW210209   3.629   2.711   1.036
 3104SOL     OW10210   5.308   6.383   4.178
 3104SOL    HW110211   5.332   6.393   4.081
 3104SOL    HW210212   5.210   6.398   4.190
 3105SOL     OW10213   5.815   6.264   3.443
 3105SOL    HW110214   5.789   6.319   3.363
 3105SOL    HW210215   5.754   6.185   3.449
 3106SOL     OW10216   6.099   2.590   2.578
 3106SOL    HW110217   6.050   2.649   2.515
 3106SOL    HW210218   6.034   2.547   2.641
 3107SOL     OW10219   3.284   0.773   3.948
 3107SOL    HW110220   3.203   0.717   3.963
 3107SOL    HW210221   3.274   0.824   3.862
 3108SOL     OW10222   1.947   0.721   4.251
 3108SOL    HW110223   1.926   0.637   4.202
 3108SOL    HW210224   1.900   0.720   4.340
 3109SOL     OW10225   5.224   5.888   2.620
 3109SOL    HW110226   5.278   5.921   2.542
 3109SOL    HW210227   5.228   5.956   2.694
 3110SOL     OW10228   0.351   3.246   3.386
 3110SOL    HW110229   0.362   3.202   3.297
 3110SOL    HW210230   0.257   3.281   3.394
 3111SOL     OW10231   6.644   4.994   3.929
 3111SOL    HW110232   6.560   4.964   3.974
 3111SOL    HW210233   6.697   5.051   3.992
 3112SOL     OW10234   4.432   3.622   5.985
 3112SOL    HW110235   4.366   3.672   6.043
 3112SOL    HW210236   4.396   3.532   5.964
 3113SOL     OW10237   2.259   6.934   4.021
 3113SOL    HW110238   2.183   6.929   3.955
 3113SOL    HW210239   2.279   6.843   4.056
 3114SOL     OW10240   4.758   3.942   6.732
 3114SOL    HW110241   4.666   3.907   6.716
 3114SOL    HW210242   4.757   4.007   6.808
 3115SOL     OW10243   3.659   4.002   0.670
 3115SOL    HW110244   3.698   3.950   0.746
 3115SOL    HW210245   3.579   4.053   0.702
 3116SOL     OW10246   5.931   2.392   6.632
 3116SOL    HW110247   5.874   2.399   6.714
 3116SOL    HW210248   6.003   2.325   6.647
 3117SOL     OW10249   4.346   3.409   5.570
 3117SOL    HW110250   4.417   3.363   5.623
 3117SOL    HW210251   4.340   3.368   5.479
 3118SOL     OW10252   6.905   5.132   0.523
 3118SOL    HW110253   6.894   5.041   0.483
 3118SOL    HW210254   6.868   5.201   0.459
 3119SOL     OW10255   1.471   4.333   5.301
 3119SOL    HW110256   1.535   4.256   5.306
 3119SOL    HW210257   1.498   4.393   5.225
 3120SOL     OW10258   2.356   5.116   4.472
 3120SOL    HW110259   2.293   5.168   4.415
 3120SOL    HW210260   2.308   5.039   4.513
 3121SOL     OW10261   0.151   1.410   2.376
 3121SOL    HW110262   0.117   1.425   2.284
 3121SOL    HW210263   0.136   1.492   2.431
 3122SOL     OW10264   2.495   5.453   6.346
 3122SOL    HW110265   2.423   5.444   6.415
 3122SOL    HW210266   2.559   5.377   6.354
 3123SOL     OW10267   3.563   6.648   4.102
 3123SOL    HW110268   3.610   6.563   4.124
 3123SOL    HW210269   3.630   6.719   4.079
 3124SOL     OW10270   4.580   1.036   5.308
 3124SOL    HW110271   4.545   1.114   5.359
 3124SOL    HW210272   4.641   0.983   5.367
 3125SOL     OW10273   6.268   1.837   5.435
 3125SOL    HW110274   6.336   1.813   5.366
 3125SOL    HW210275   6.304   1.910   5.493
 3126SOL     OW10276   4.550   5.193   6.136
 3126SOL    HW110277   4.642   5.181   6.171
 3126SOL    HW210278   4.546   5.163   6.041
 3127SOL     OW10279   1.389   1.645   4.023
 3127SOL    HW110280   1.359   1.739   4.005
 3127SOL    HW210281   1.482   1.634   3.988
 3128SOL     OW10282   2.105   1.492   0.576
 3128SOL    HW110283   2.151   1.404   0.583
 3128SOL    HW210284   2.171   1.562   0.549
 3129SOL     OW10285   0.005   4.465   4.945
 3129SOL    HW110286   0.061   4.476   5.027
 3129SOL    HW210287   6.991   4.554   4.919
 3130SOL     OW10288   2.279   4.665   2.556
 3130SOL    HW110289   2.331   4.580   2.551
 3130SOL    HW210290   2.204   4.654   2.621
 3131SOL     OW10291   0.116   3.803   2.772
 3131SOL    HW110292   0.172   3.720   2.778
 3131SOL    HW210293   0.137   3.851   2.687
 3132SOL     OW10294   5.570   6.162   5.889
 3132SOL    HW110295   5.571   6.087   5.823
 3132SOL    HW210296   5.485   6.214   5.879
 3133SOL     OW10297   2.262   1.723   3.825
 3133SOL    HW110298   2.309   1.774   3.752
 3133SOL    HW210299   2.327   1.702   3.897
 3134SOL     OW10300   4.994   3.080   1.586
 3134SOL    HW110301   4.938   3.044   1.660
 3134SOL    HW210302   5.046   3.005   1.544
 3135SOL     OW10303   4.016   1.840   3.995
 3135SOL    HW110304   4.055   1.798   3.914
 3135SOL    HW210305   3.994   1.936   3.976
 3136SOL     OW10306   5.805   5.463   6.105
 3136SOL    HW110307   5.800   5.406   6.187
 3136SOL    HW210308   5.870   5.537   6.120
 3137SOL     OW10309   5.615   2.180   4.205
 3137SOL    HW110310   5.529   2.194   4.156
 3137SOL    HW210311   5.670   2.112   4.156
 3138SOL     OW10312   6.170   1.379   4.730
 3138SOL    HW110313   6.234   1.330   4.788
 3138SOL    HW210314   6.166   1.335   4.640
 3139SOL     OW10315   4.918   5.897   5.498
 3139SOL    HW110316   4.922   5.921   5.401
 3139SOL    HW210317   4.833   5.847   5.517
 3140SOL     OW10318   6.752   6.551   6.810
 3140SOL    HW110319   6.796   6.530   6.897
 3140SOL    HW210320   6.815   6.603   6.753
 3141SOL     OW10321   1.271   6.085   0.438
 3141SOL    HW110322   1.261   6.136   0.353
 3141SOL    HW210323   1.289   5.989   0.418
 3142SOL     OW10324   4.882   6.498   6.610
 3142SOL    HW110325   4.797   6.453   6.636
 3142SOL    HW210326   4.911   6.560   6.683
 3143SOL     OW10327   0.077   2.001   6.564
 3143SOL    HW110328   0.133   2.083   6.573
 3143SOL    HW210329   0.010   1.997   6.639
 3144SOL     OW10330   1.655   3.680   6.799
 3144SOL    HW110331   1.568   3.636   6.822
 3144SOL    HW210332   1.680   3.745   6.871
 3145SOL     OW10333   2.832   5.443   3.140
 3145SOL    HW110334   2.806   5.438   3.236
 3145SOL    HW210335   2.818   5.537   3.107
 3146SOL     OW10336   1.336   0.430   3.208
 3146SOL    HW110337   1.424   0.384   3.219
 3146SOL    HW210338   1.277   0.376   3.148
 3147SOL     OW10339   4.389   3.766   0.441
 3147SOL    HW110340   4.455   3.836   0.414
 3147SOL    HW210341   4.297   3.796   0.414
 3148SOL     OW10342   4.300   5.445   4.393
 3148SOL    HW110343   4.238   5.412   4.463
 3148SOL    HW210344   4.318   5.372   4.327
 3149SOL     OW10345   3.107   0.354   5.641
 3149SOL    HW110346   3.089   0.290   5.566
 3149SOL    HW210347   3.182   0.415   5.615
 3150SOL     OW10348   5.558   6.972   4.657
 3150SOL    HW110349   5.506   6.887   4.648
 3150SOL    HW210350   5.655   6.953   4.641
 3151SOL     OW10351   4.611   1.644   6.342
 3151SOL    HW110352   4.600   1.656   6.243
 3151SOL    HW210353   4.702   1.674   6.369
 3152SOL     OW10354   0.835   5.712   1.416
 3152SOL    HW110355   0.836   5.689   1.319
 3152SOL    HW210356   0.928   5.704   1.453
 3153SOL     OW10357   5.877   4.025   2.164
 3153SOL    HW110358   5.906   4.117   2.192
 3153SOL    HW210359   5.797   3.997   2.217
 3154SOL     OW10360   6.206   2.520   5.824
 3154SOL    HW110361   6.195   2.605   5.773
 3154SOL    HW210362   6.282   2.528   5.888
 3155SOL     OW10363   5.930   5.559   0.756
 3155SOL    HW110364   5.974   5.562   0.667
 3155SOL    HW210365   5.946   5.470   0.799
 3156SOL     OW10366   3.668   3.705   3.257
 3156SOL    HW110367   3.578   3.695   3.214
 3156SOL    HW210368   3.721   3.773   3.206
 3157SOL     OW10369   2.121   3.581   4.735
 3157SOL    HW110370   2.080   3.504   4.783
 3157SOL    HW210371   2.164   3.642   4.801
 3158SOL     OW10372   5.087   6.375   1.350
 3158SOL    HW110373   5.145   6.311   1.400
 3158SOL    HW210374   5.092   6.465   1.392
 3159SOL     OW10375   4.435   5.915   6.683
 3159SOL    HW110376   4.505   5.867   6.735
 3159SOL    HW210377   4.356   5.855   6.670
 3160SOL     OW10378   4.885   4.137   6.591
 3160SOL    HW110379   4.804   4.195   6.583
 3160SOL    HW210380   4.857   4.045   6.617
 3161SOL     OW10381   1.601   0.958   2.653
 3161SOL    HW110382   1.561   0.939   2.742
 3161SOL    HW210383   1.689   1.003   2.665
 3162SOL     OW10384   0.512   5.518   6.433
 3162SOL    HW110385   0.418   5.522   6.401
 3162SOL    HW210386   0.517   5.462   6.515
 3163SOL     OW10387   3.634   3.002   6.660
 3163SOL    HW110388   3.626   3.082   6.720
 3163SOL    HW210389   3.566   2.934   6.687
 3164SOL     OW10390   5.500   3.868   0.144
 3164SOL    HW110391   5.423   3.929   0.127
 3164SOL    HW210392   5.469   3.790   0.199
 3165SOL     OW10393   0.977   0.494   2.066
 3165SOL    HW110394   0.897   0.440   2.041
 3165SOL    HW210395   0.961   0.538   2.155
 3166SOL     OW10396   4.682   3.651   6.127
 3166SOL    HW110397   4.662   3.598   6.210
 3166SOL    HW210398   4.600   3.654   6.070
 3167SOL     OW10399   0.323   4.542   1.138
 3167SOL    HW110400   0.291   4.463   1.190
 3167SOL    HW210401   0.408   4.576   1.178
 3168SOL     OW10402   5.692   3.252   0.778
 3168SOL    HW110403   5.602   3.267   0.737
 3168SOL    HW210404   5.685   3.257   0.878
 3169SOL     OW10405   1.132   2.446   4.970
 3169SOL    HW110406   1.216   2.454   5.023
 3169SOL    HW210407   1.102   2.350   4.970
 3170SOL     OW10408   4.325   0.974   0.075
 3170SOL    HW110409   4.397   0.917   0.034
 3170SOL    HW210410   4.237   0.927   0.068
 3171SOL     OW10411   6.191   6.847   2.659
 3171SOL    HW110412   6.141   6.933   2.669
 3171SOL    HW210413   6.188   6.817   2.563
 3172SOL     OW10414   6.080   6.838   5.535
 3172SOL    HW110415   6.050   6.771   5.466
 3172SOL    HW210416   6.176   6.821   5.557
 3173SOL     OW10417   1.993   0.745   1.669
 3173SOL    HW110418   2.002   0.839   1.638
 3173SOL    HW210419   1.979   0.685   1.590
 3174SOL     OW10420   2.974   2.674   6.055
 3174SOL    HW110421   2.996   2.766   6.087
 3174SOL    HW210422   3.021   2.607   6.112
 3175SOL     OW10423   1.393   6.467   0.436
 3175SOL    HW110424   1.348   6.445   0.350
 3175SOL    HW210425   1.478   6.414   0.444
 3176SOL     OW10426   1.564   4.245   6.577
 3176SOL    HW110427   1.594   4.167   6.632
 3176SOL    HW210428   1.519   4.211   6.494
 3177SOL     OW10429   5.475   5.236   5.929
 3177SOL    HW110430   5.527   5.198   5.852
 3177SOL    HW210431   5.509   5.328   5.949
 3178SOL     OW10432   0.465   4.285   1.521
 3178SOL    HW110433   0.539   4.265   1.458
 3178SOL    HW210434   0.463   4.215   1.593
 3179SOL     OW10435   1.520   1.644   2.416
 3179SOL    HW110436   1.451   1.649   2.343
 3179SOL    HW210437   1.586   1.573   2.394
 3180SOL     OW10438   5.665   0.431   5.830
 3180SOL    HW110439   5.610   0.368   5.885
 3180SOL    HW210440   5.760   0.398   5.827
 3181SOL     OW10441   0.839   0.540   3.356
 3181SOL    HW110442   0.875   0.503   3.442
 3181SOL    HW210443   0.838   0.640   3.361
 3182SOL     OW10444   1.431   5.783   5.237
 3182SOL    HW110445   1.336   5.755   5.251
 3182SOL    HW210446   1.491   5.727   5.294
 3183SOL     OW10447   4.380   4.142   1.215
 3183SOL    HW110448   4.375   4.191   1.128
 3183SOL    HW210449   4.476   4.130   1.241
 3184SOL     OW10450   2.749   1.705   1.865
 3184SOL    HW110451   2.818   1.633   1.859
 3184SOL    HW210452   2.793   1.794   1.856
 3185SOL     OW10453   6.797   6.923   5.592
 3185SOL    HW110454   6.809   7.004   5.534
 3185SOL    HW210455   6.790   6.842   5.534
 3186SOL     OW10456   3.342   1.469   2.930
 3186SOL    HW110457   3.315   1.388   2.982
 3186SOL    HW210458   3.339   1.448   2.832
 3187SOL     OW10459   3.456   4.929   0.395
 3187SOL    HW110460   3.500   4.841   0.414
 3187SOL    HW210461   3.405   4.923   0.309
 3188SOL     OW10462   4.037   6.228   3.745
 3188SOL    HW110463   4.039   6.129   3.751
 3188SOL    HW210464   4.012   6.256   3.652
 3189SOL     OW10465   1.943   0.131   3.400
 3189SOL    HW110466   1.861   0.074   3.388
 3189SOL    HW210467   1.929   0.219   3.354
 3190SOL     OW10468   1.810   6.261   2.767
 3190SOL    HW110469   1.732   6.246   2.707
 3190SOL    HW210470   1.879   6.191   2.750
 3191SOL     OW10471   3.639   0.411   1.153
 3191SOL    HW110472   3.593   0.323   1.137
 3191SOL    HW210473   3.717   0.397   1.214
 3192SOL     OW10474   0.285   2.612   2.244
 3192SOL    HW110475   0.339   2.642   2.165
 3192SOL    HW210476   0.204   2.669   2.252
 3193SOL     OW10477   4.590   2.744   5.534
 3193SOL    HW110478   4.583   2.787   5.445
 3193SOL    HW210479   4.683   2.711   5.549
 3194SOL     OW10480   1.024   2.998   5.840
 3194SOL    HW110481   1.037   3.029   5.934
 3194SOL    HW210482   0.983   2.907   5.840
 3195SOL     OW10483   0.374   2.709   3.734
 3195SOL    HW110484   0.463   2.665   3.748
 3195SOL    HW210485   0.304   2.657   3.783
 3196SOL     OW10486   6.808   6.488   4.880
 3196SOL    HW110487   6.857   6.405   4.909
 3196SOL    HW210488   6.713   6.464   4.859
 3197SOL     OW10489   1.316   4.261   3.883
 3197SOL    HW110490   1.230   4.276   3.932
 3197SOL    HW210491   1.339   4.164   3.886
 3198SOL     OW10492   0.439   2.499   6.140
 3198SOL    HW110493   0.525   2.541   6.169
 3198SOL    HW210494   0.440   2.486   6.041
 3199SOL     OW10495   4.870   2.081   1.777
 3199SOL    HW110496   4.895   2.007   1.841
 3199SOL    HW210497   4.800   2.139   1.819
 3200SOL     OW10498   6.664   2.060   0.176
 3200SOL    HW110499   6.673   2.090   0.271
 3200SOL    HW210500   6.603   1.981   0.172
 3201SOL     OW10501   4.813   4.590   3.487
 3201SOL    HW110502   4.872   4.609   3.565
 3201SOL    HW210503   4.856   4.624   3.403
 3202SOL     OW10504   1.985   5.019   1.779
 3202SOL    HW110505   1.972   4.930   1.823
 3202SOL    HW210506   2.043   5.077   1.836
 3203SOL     OW10507   6.860   0.614   1.012
 3203SOL    HW110508   6.949   0.569   1.022
 3203SOL    HW210509   6.788   0.554   1.048
 3204SOL     OW10510   6.911   5.649   1.666
 3204SOL    HW110511   6.989   5.627   1.607
 3204SOL    HW210512   6.845   5.573   1.662
 3205SOL     OW10513   0.413   3.828   4.206
 3205SOL    HW110514   0.366   3.762   4.266
 3205SOL    HW210515   0.493   3.784   4.165
 3206SOL     OW10516   1.201   6.659   6.304
 3206SOL    HW110517   1.248   6.746   6.295
 3206SOL    HW210518   1.265   6.584   6.288
 3207SOL     OW10519   0.458   0.923   4.812
 3207SOL    HW110520   0.373   0.877   4.839
 3207SOL    HW210521   0.445   1.022   4.816
 3208SOL     OW10522   4.835   6.412   4.961
 3208SOL    HW110523   4.855   6.360   4.878
 3208SOL    HW210524   4.814   6.348   5.036
 3209SOL     OW10525   2.336   0.471   4.174
 3209SOL    HW110526   2.284   0.549   4.207
 3209SOL    HW210527   2.344   0.403   4.247
 3210SOL     OW10528   6.531   4.582   2.525
 3210SOL    HW110529   6.540   4.677   2.495
 3210SOL    HW210530   6.594   4.565   2.600
 3211SOL     OW10531   1.723   4.521   2.013
 3211SOL    HW110532   1.792   4.530   2.084
 3211SOL    HW210533   1.721   4.426   1.980
 3212SOL     OW10534   5.481   1.786   6.750
 3212SOL    HW110535   5.432   1.844   6.815
 3212SOL    HW210536   5.457   1.690   6.767
 3213SOL     OW10537   6.053   6.346   2.424
 3213SOL    HW110538   5.954   6.353   2.438
 3213SOL    HW210539   6.075   6.253   2.393
 3214SOL     OW10540   3.641   5.462   6.450
 3214SOL    HW110541   3.561   5.405   6.430
 3214SOL    HW210542   3.646   5.537   6.384
 3215SOL     OW10543   5.757   1.756   6.675
 3215SOL    HW110544   5.668   1.744   6.718
 3215SOL    HW210545   5.827   1.768   6.745
 3216SOL     OW10546   5.849   0.124   3.165
 3216SOL    HW110547   5.794   0.060   3.111
 3216SOL    HW210548   5.919   0.165   3.107
 3217SOL     OW10549   6.391   4.771   2.081
 3217SOL    HW110550   6.436   4.682   2.069
 3217SOL    HW210551   6.298   4.766   2.044
 3218SOL     OW10552   3.569   0.934   3.878
 3218SOL    HW110553   3.496   0.996   3.848
 3218SOL    HW210554   3.538   0.840   3.871
 3219SOL     OW10555   6.541   0.952   3.956
 3219SOL    HW110556   6.626   0.927   3.910
 3219SOL    HW210557   6.473   0.879   3.943
 3220SOL     OW10558   6.643   4.200   5.661
 3220SOL    HW110559   6.565   4.244   5.618
 3220SOL    HW210560   6.635   4.208   5.760
 3221SOL     OW10561   3.125   6.830   3.500
 3221SOL    HW110562   3.031   6.836   3.466
 3221SOL    HW210563   3.179   6.773   3.437
 3222SOL     OW10564   5.915   2.513   3.077
 3222SOL    HW110565   5.906   2.566   2.993
 3222SOL    HW210566   5.831   2.461   3.093
 3223SOL     OW10567   1.952   5.001   5.406
 3223SOL    HW110568   1.930   4.906   5.430
 3223SOL    HW210569   2.048   5.019   5.428
 3224SOL     OW10570   4.114   4.739   0.253
 3224SOL    HW110571   4.113   4.705   0.159
 3224SOL    HW210572   4.201   4.713   0.297
 3225SOL     OW10573   2.200   3.605   0.364
 3225SOL    HW110574   2.160   3.686   0.321
 3225SOL    HW210575   2.299   3.607   0.352
 3226SOL     OW10576   1.104   0.714   3.783
 3226SOL    HW110577   1.013   0.695   3.749
 3226SOL    HW210578   1.162   0.750   3.709
 3227SOL     OW10579   3.307   1.431   5.801
 3227SOL    HW110580   3.344   1.466   5.715
 3227SOL    HW210581   3.358   1.350   5.829
 3228SOL     OW10582   5.612   4.122   4.532
 3228SOL    HW110583   5.518   4.093   4.549
 3228SOL    HW210584   5.675   4.068   4.587
 3229SOL     OW10585   4.045   1.937   5.575
 3229SOL    HW110586   4.003   1.861   5.625
 3229SOL    HW210587   4.144   1.937   5.593
 3230SOL     OW10588   1.178   0.362   3.435
 3230SOL    HW110589   1.250   0.412   3.388
 3230SOL    HW210590   1.217   0.282   3.481
 3231SOL     OW10591   5.798   6.240   0.792
 3231SOL    HW110592   5.748   6.155   0.780
 3231SOL    HW210593   5.758   6.311   0.734
 3232SOL     OW10594   2.354   4.803   4.118
 3232SOL    HW110595   2.342   4.824   4.021
 3232SOL    HW210596   2.414   4.724   4.128
 3233SOL     OW10597   0.936   3.840   1.251
 3233SOL    HW110598   0.867   3.768   1.259
 3233SOL    HW210599   1.008   3.824   1.318
 3234SOL     OW10600   0.496   1.890   5.744
 3234SOL    HW110601   0.517   1.931   5.655
 3234SOL    HW210602   0.559   1.926   5.813
 3235SOL     OW10603   5.315   6.829   2.631
 3235SOL    HW110604   5.371   6.838   2.549
 3235SOL    HW210605   5.255   6.750   2.623
 3236SOL     OW10606   0.291   3.054   2.100
 3236SOL    HW110607   0.252   3.145   2.112
 3236SOL    HW210608   0.389   3.062   2.082
 3237SOL     OW10609   3.405   0.266   4.461
 3237SOL    HW110610   3.334   0.196   4.449
 3237SOL    HW210611   3.442   0.292   4.372
 3238SOL     OW10612   0.229   6.243   6.439
 3238SOL    HW110613   0.255   6.236   6.535
 3238SOL    HW210614   0.302   6.205   6.382
 3239SOL     OW10615   6.210   6.803   5.162
 3239SOL    HW110616   6.260   6.742   5.223
 3239SOL    HW210617   6.169   6.877   5.216
 3240SOL     OW10618   1.434   0.629   4.480
 3240SOL    HW110619   1.469   0.669   4.565
 3240SOL    HW210620   1.504   0.568   4.441
 3241SOL     OW10621   5.277   0.913   3.620
 3241SOL    HW110622   5.237   0.860   3.546
 3241SOL    HW210623   5.268   1.011   3.601
 3242SOL     OW10624   3.769   0.186   0.156
 3242SOL    HW110625   3.737   0.252   0.225
 3242SOL    HW210626   3.691   0.153   0.103
 3243SOL     OW10627   3.671   4.898   0.962
 3243SOL    HW110628   3.594   4.858   0.912
 3243SOL    HW210629   3.724   4.955   0.900
 3244SOL     OW10630   2.840   6.109   6.610
 3244SOL    HW110631   2.855   6.124   6.512
 3244SOL    HW210632   2.888   6.179   6.662
 3245SOL     OW10633   3.658   2.635   6.538
 3245SOL    HW110634   3.614   2.604   6.622
 3245SOL    HW210635   3.591   2.634   6.463
 3246SOL     OW10636   5.578   6.513   2.881
 3246SOL    HW110637   5.537   6.550   2.965
 3246SOL    HW210638   5.649   6.575   2.848
 3247SOL     OW10639   0.787   2.325   4.479
 3247SOL    HW110640   0.808   2.408   4.531
 3247SOL    HW210641   0.722   2.346   4.407
 3248SOL     OW10642   6.355   3.263   2.303
 3248SOL    HW110643   6.265   3.306   2.304
 3248SOL    HW210644   6.349   3.170   2.339
 3249SOL     OW10645   1.891   4.058   4.903
 3249SOL    HW110646   1.967   4.017   4.853
 3249SOL    HW210647   1.919   4.077   4.997
 3250SOL     OW10648   4.800   6.504   2.156
 3250SOL    HW110649   4.848   6.416   2.150
 3250SOL    HW210650   4.721   6.495   2.217
 3251SOL     OW10651   3.448   0.931   3.250
 3251SOL    HW110652   3.467   0.928   3.152
 3251SOL    HW210653   3.477   0.845   3.293
 3252SOL     OW10654   2.810   1.577   3.092
 3252SOL    HW110655   2.830   1.609   2.999
 3252SOL    HW210656   2.821   1.653   3.156
 3253SOL     OW10657   4.720   3.523   1.244
 3253SOL    HW110658   4.807   3.475   1.256
 3253SOL    HW210659   4.663   3.509   1.325
 3254SOL     OW10660   5.246   4.351   2.933
 3254SOL    HW110661   5.169   4.323   2.876
 3254SOL    HW210662   5.306   4.272   2.948
 3255SOL     OW10663   4.415   5.295   0.688
 3255SOL    HW110664   4.336   5.305   0.748
 3255SOL    HW210665   4.386   5.258   0.600
 3256SOL     OW10666   6.093   6.189   5.391
 3256SOL    HW110667   6.036   6.264   5.358
 3256SOL    HW210668   6.062   6.162   5.482
 3257SOL     OW10669   1.620   2.750   1.111
 3257SOL    HW110670   1.561   2.678   1.150
 3257SOL    HW210671   1.622   2.828   1.173
 3258SOL     OW10672   5.439   6.994   1.752
 3258SOL    HW110673   5.467   6.907   1.712
 3258SOL    HW210674   5.444   6.989   1.851
 3259SOL     OW10675   4.161   6.886   3.999
 3259SOL    HW110676   4.153   6.911   3.903
 3259SOL    HW210677   4.069   6.877   4.039
 3260SOL     OW10678   1.281   2.406   0.300
 3260SOL    HW110679   1.370   2.396   0.255
 3260SOL    HW210680   1.268   2.330   0.364
 3261SOL     OW10681   4.079   6.907   1.891
 3261SOL    HW110682   4.177   6.915   1.871
 3261SOL    HW210683   4.032   6.991   1.862
 3262SOL     OW10684   4.115   1.981   3.016
 3262SOL    HW110685   4.062   2.065   3.001
 3262SOL    HW210686   4.171   1.962   2.936
 3263SOL     OW10687   3.712   6.251   1.474
 3263SOL    HW110688   3.744   6.180   1.537
 3263SOL    HW210689   3.638   6.302   1.516
 3264SOL     OW10690   5.171   5.047   6.457
 3264SOL    HW110691   5.118   5.106   6.397
 3264SOL    HW210692   5.113   4.974   6.493
 3265SOL     OW10693   4.818   0.356   6.249
 3265SOL    HW110694   4.879   0.326   6.176
 3265SOL    HW210695   4.727   0.372   6.212
 3266SOL     OW10696   1.097   1.696   6.326
 3266SOL    HW110697   1.191   1.691   6.360
 3266SOL    HW210698   1.051   1.609   6.344
 3267SOL     OW10699   3.335   2.572   1.400
 3267SOL    HW110700   3.306   2.649   1.342
 3267SOL    HW210701   3.392   2.510   1.346
 3268SOL     OW10702   0.776   4.280   6.305
 3268SOL    HW110703   0.823   4.193   6.289
 3268SOL    HW210704   0.830   4.354   6.265
 3269SOL     OW10705   4.382   3.764   1.100
 3269SOL    HW110706   4.434   3.683   1.076
 3269SOL    HW210707   4.297   3.766   1.047
 3270SOL     OW10708   1.240   6.354   4.622
 3270SOL    HW110709   1.196   6.349   4.712
 3270SOL    HW210710   1.226   6.268   4.573
 3271SOL     OW10711   5.723   1.592   0.981
 3271SOL    HW110712   5.817   1.596   0.946
 3271SOL    HW210713   5.669   1.664   0.938
 3272SOL     OW10714   5.080   0.585   0.563
 3272SOL    HW110715   5.157   0.556   0.508
 3272SOL    HW210716   5.003   0.522   0.550
 3273SOL     OW10717   6.997   6.704   2.580
 3273SOL    HW110718   6.940   6.625   2.558
 3273SOL    HW210719   6.976   6.736   2.672
 3274SOL     OW10720   3.343   2.195   5.905
 3274SOL    HW110721   3.282   2.116   5.891
 3274SOL    HW210722   3.330   2.259   5.829
 3275SOL     OW10723   3.068   1.155   6.376
 3275SOL    HW110724   3.122   1.079   6.413
 3275SOL    HW210725   2.984   1.118   6.335
 3276SOL     OW10726   3.095   6.441   0.329
 3276SOL    HW110727   3.192   6.435   0.351
 3276SOL    HW210728   3.083   6.478   0.237
 3277SOL     OW10729   0.013   6.687   4.867
 3277SOL    HW110730   0.105   6.664   4.900
 3277SOL    HW210731   6.982   6.604   4.862
 3278SOL     OW10732   1.201   0.592   6.431
 3278SOL    HW110733   1.171   0.648   6.354
 3278SOL    HW210734   1.132   0.522   6.449
 3279SOL     OW10735   1.427   6.922   1.230
 3279SOL    HW110736   1.329   6.927   1.214
 3279SOL    HW210737   1.446   6.933   1.328
 3280SOL     OW10738   1.539   4.386   6.251
 3280SOL    HW110739   1.587   4.424   6.330
 3280SOL    HW210740   1.478   4.313   6.281
 3281SOL     OW10741   2.697   5.514   0.425
 3281SOL    HW110742   2.773   5.563   0.382
 3281SOL    HW210743   2.681   5.552   0.516
 3282SOL     OW10744   2.349   5.331   2.559
 3282SOL    HW110745   2.414   5.265   2.597
 3282SOL    HW210746   2.289   5.284   2.494
 3283SOL     OW10747   2.184   0.594   3.536
 3283SOL    HW110748   2.111   0.558   3.594
 3283SOL    HW210749   2.200   0.532   3.460
 3284SOL     OW10750   6.570   3.684   6.821
 3284SOL    HW110751   6.510   3.644   6.890
 3284SOL    HW210752   6.530   3.670   6.731
 3285SOL     OW10753   0.565   1.741   3.709
 3285SOL    HW110754   0.529   1.648   3.719
 3285SOL    HW210755   0.635   1.742   3.637
 3286SOL     OW10756   3.385   3.875   5.193
 3286SOL    HW110757   3.329   3.855   5.112
 3286SOL    HW210758   3.325   3.902   5.268
 3287SOL     OW10759   1.619   5.357   1.180
 3287SOL    HW110760   1.714   5.378   1.156
 3287SOL    HW210761   1.617   5.303   1.265
 3288SOL     OW10762   0.293   6.531   6.391
 3288SOL    HW110763   0.232   6.548   6.468
 3288SOL    HW210764   0.297   6.432   6.373
 3289SOL     OW10765   2.020   5.963   4.503
 3289SOL    HW110766   1.980   6.043   4.460
 3289SOL    HW210767   1.951   5.917   4.559
 3290SOL     OW10768   6.908   5.034   1.514
 3290SOL    HW110769   6.829   4.992   1.469
 3290SOL    HW210770   6.915   4.999   1.608
 3291SOL     OW10771   1.722   6.516   1.218
 3291SOL    HW110772   1.661   6.593   1.237
 3291SOL    HW210773   1.676   6.431   1.241
 3292SOL     OW10774   0.748   6.017   6.553
 3292SOL    HW110775   0.713   6.051   6.640
 3292SOL    HW210776   0.778   6.094   6.497
 3293SOL     OW10777   6.997   0.854   2.548
 3293SOL    HW110778   6.918   0.910   2.571
 3293SOL    HW210779   0.005   0.878   2.457
 3294SOL     OW10780   0.685   0.786   0.433
 3294SOL    HW110781   0.612   0.848   0.404
 3294SOL    HW210782   0.644   0.699   0.462
 3295SOL     OW10783   1.440   2.588   6.662
 3295SOL    HW110784   1.349   2.623   6.638
 3295SOL    HW210785   1.504   2.665   6.670
 3296SOL     OW10786   1.558   6.534   2.535
 3296SOL    HW110787   1.487   6.603   2.545
 3296SOL    HW210788   1.517   6.445   2.517
 3297SOL     OW10789   3.542   2.495   6.759
 3297SOL    HW110790   3.625   2.441   6.744
 3297SOL    HW210791   3.489   2.453   6.833
 3298SOL     OW10792   6.549   3.468   2.798
 3298SOL    HW110793   6.517   3.433   2.886
 3298SOL    HW210794   6.633   3.420   2.772
 3299SOL     OW10795   2.020   6.785   5.007
 3299SOL    HW110796   2.065   6.841   5.077
 3299SOL    HW210797   2.027   6.688   5.031
 3300SOL     OW10798   6.715   0.035   5.320
 3300SOL    HW110799   6.805   7.016   5.323
 3300SOL    HW210800   6.698   0.070   5.228
 3301SOL     OW10801   0.693   3.662   3.153
 3301SOL    HW110802   0.607   3.676   3.202
 3301SOL    HW210803   0.753   3.741   3.168
 3302SOL     OW10804   1.004   4.138   3.987
 3302SOL    HW110805   0.968   4.077   4.058
 3302SOL    HW210806   1.040   4.083   3.912
 3303SOL     OW10807   3.866   3.533   2.860
 3303SOL    HW110808   3.966   3.527   2.850
 3303SOL    HW210809   3.842   3.509   2.954
 3304SOL     OW10810   0.437   6.094   4.339
 3304SOL    HW110811   0.429   6.070   4.242
 3304SOL    HW210812   0.346   6.100   4.379
 3305SOL     OW10813   1.976   1.203   2.211
 3305SOL    HW110814   1.976   1.104   2.197
 3305SOL    HW210815   2.068   1.233   2.237
 3306SOL     OW10816   1.156   4.107   3.487
 3306SOL    HW110817   1.212   4.183   3.521
 3306SOL    HW210818   1.190   4.021   3.524
 3307SOL     OW10819   0.622   6.162   6.749
 3307SOL    HW110820   0.644   6.259   6.746
 3307SOL    HW210821   0.600   6.136   6.843
 3308SOL     OW10822   4.420   6.041   0.746
 3308SOL    HW110823   4.339   6.099   0.744
 3308SOL    HW210824   4.412   5.975   0.820
 3309SOL     OW10825   6.510   5.050   3.298
 3309SOL    HW110826   6.493   4.955   3.325
 3309SOL    HW210827   6.510   5.108   3.380
 3310SOL     OW10828   1.335   5.827   1.919
 3310SOL    HW110829   1.251   5.773   1.914
 3310SOL    HW210830   1.377   5.832   1.828
 3311SOL     OW10831   4.442   6.456   1.240
 3311SOL    HW110832   4.497   6.496   1.167
 3311SOL    HW210833   4.498   6.446   1.322
 3312SOL     OW10834   2.890   3.736   0.250
 3312SOL    HW110835   2.933   3.707   0.165
 3312SOL    HW210836   2.951   3.716   0.327
 3313SOL     OW10837   6.702   5.463   3.979
 3313SOL    HW110838   6.690   5.540   4.042
 3313SOL    HW210839   6.612   5.427   3.954
 3314SOL     OW10840   0.922   3.760   5.263
 3314SOL    HW110841   0.872   3.802   5.186
 3314SOL    HW210842   0.961   3.673   5.233
 3315SOL     OW10843   6.687   1.739   3.389
 3315SOL    HW110844   6.709   1.833   3.413
 3315SOL    HW210845   6.611   1.707   3.446
 3316SOL     OW10846   4.621   1.627   0.502
 3316SOL    HW110847   4.548   1.560   0.510
 3316SOL    HW210848   4.676   1.628   0.586
 3317SOL     OW10849   3.985   2.499   1.712
 3317SOL    HW110850   3.893   2.510   1.750
 3317SOL    HW210851   4.029   2.588   1.705
 3318SOL     OW10852   2.423   5.830   5.479
 3318SOL    HW110853   2.358   5.756   5.462
 3318SOL    HW210854   2.444   5.876   5.393
 3319SOL     OW10855   0.673   5.598   5.133
 3319SOL    HW110856   0.701   5.505   5.156
 3319SOL    HW210857   0.699   5.619   5.039
 3320SOL     OW10858   0.228   0.918   6.310
 3320SOL    HW110859   0.231   0.829   6.355
 3320SOL    HW210860   0.257   0.989   6.374
 3321SOL     OW10861   3.350   4.028   3.375
 3321SOL    HW110862   3.298   4.054   3.456
 3321SOL    HW210863   3.287   3.998   3.303
 3322SOL     OW10864   4.262   1.854   0.959
 3322SOL    HW110865   4.254   1.757   0.982
 3322SOL    HW210866   4.305   1.863   0.869
 3323SOL     OW10867   2.316   5.072   0.199
 3323SOL    HW110868   2.256   5.061   0.120
 3323SOL    HW210869   2.411   5.059   0.171
 3324SOL     OW10870   0.455   2.045   0.795
 3324SOL    HW110871   0.548   2.039   0.761
 3324SOL    HW210872   0.440   2.135   0.836
 3325SOL     OW10873   1.848   2.896   0.511
 3325SOL    HW110874   1.787   2.918   0.587
 3325SOL    HW210875   1.804   2.920   0.425
 3326SOL     OW10876   6.310   1.428   1.258
 3326SOL    HW110877   6.408   1.419   1.240
 3326SOL    HW210878   6.260   1.433   1.172
 3327SOL     OW10879   3.374   6.252   2.376
 3327SOL    HW110880   3.444   6.214   2.438
 3327SOL    HW210881   3.411   6.257   2.283
 3328SOL     OW10882   4.449   0.677   2.708
 3328SOL    HW110883   4.400   0.760   2.681
 3328SOL    HW210884   4.407   0.598   2.663
 3329SOL     OW10885   5.014   0.457   5.310
 3329SOL    HW110886   4.990   0.371   5.357
 3329SOL    HW210887   4.966   0.533   5.353
 3330SOL     OW10888   6.864   5.573   2.490
 3330SOL    HW110889   6.926   5.641   2.451
 3330SOL    HW210890   6.791   5.553   2.426
 3331SOL     OW10891   2.040   3.084   3.132
 3331SOL    HW110892   2.049   2.990   3.100
 3331SOL    HW210893   1.944   3.105   3.147
 3332SOL     OW10894   3.792   5.396   1.189
 3332SOL    HW110895   3.840   5.434   1.268
 3332SOL    HW210896   3.696   5.384   1.211
 3333SOL     OW10897   2.674   3.128   1.723
 3333SOL    HW110898   2.710   3.036   1.709
 3333SOL    HW210899   2.740   3.182   1.775
 3334SOL     OW10900   1.917   2.325   2.560
 3334SOL    HW110901   1.884   2.410   2.601
 3334SOL    HW210902   1.979   2.347   2.485
 3335SOL     OW10903   3.956   4.628   5.518
 3335SOL    HW110904   3.996   4.554   5.464
 3335SOL    HW210905   4.026   4.665   5.580
 3336SOL     OW10906   5.111   5.833   4.131
 3336SOL    HW110907   5.012   5.848   4.139
 3336SOL    HW210908   5.128   5.759   4.067
 3337SOL     OW10909   3.550   2.920   3.436
 3337SOL    HW110910   3.639   2.965   3.436
 3337SOL    HW210911   3.520   2.906   3.531
 3338SOL     OW10912   2.638   2.462   1.509
 3338SOL    HW110913   2.721   2.512   1.484
 3338SOL    HW210914   2.640   2.441   1.607
 3339SOL     OW10915   1.783   6.562   5.851
 3339SOL    HW110916   1.706   6.625   5.837
 3339SOL    HW210917   1.777   6.523   5.942
 3340SOL     OW10918   4.002   0.794   4.412
 3340SOL    HW110919   4.102   0.794   4.402
 3340SOL    HW210920   3.964   0.873   4.365
 3341SOL     OW10921   1.687   3.969   2.928
 3341SOL    HW110922   1.704   4.051   2.983
 3341SOL    HW210923   1.597   3.976   2.884
 3342SOL     OW10924   0.079   0.461   2.080
 3342SOL    HW110925   0.159   0.422   2.034
 3342SOL    HW210926   7.022   0.410   2.052
 3343SOL     OW10927   4.641   5.328   5.734
 3343SOL    HW110928   4.574   5.268   5.778
 3343SOL    HW210929   4.593   5.404   5.690
 3344SOL     OW10930   0.573   3.377   2.576
 3344SOL    HW110931   0.577   3.346   2.671
 3344SOL    HW210932   0.559   3.299   2.516
 3345SOL     OW10933   6.379   4.401   0.085
 3345SOL    HW110934   6.437   4.355   0.153
 3345SOL    HW210935   6.283   4.381   0.105
 3346SOL     OW10936   2.103   0.856   0.139
 3346SOL    HW110937   2.134   0.891   0.228
 3346SOL    HW210938   2.165   0.889   0.068
 3347SOL     OW10939   6.871   3.624   6.586
 3347SOL    HW110940   6.837   3.625   6.680
 3347SOL    HW210941   6.872   3.717   6.549
 3348SOL     OW10942   3.694   3.595   6.373
 3348SOL    HW110943   3.685   3.610   6.472
 3348SOL    HW210944   3.789   3.571   6.352
 3349SOL     OW10945   1.701   4.473   3.606
 3349SOL    HW110946   1.650   4.419   3.673
 3349SOL    HW210947   1.700   4.569   3.633
 3350SOL     OW10948   0.762   4.465   4.599
 3350SOL    HW110949   0.829   4.539   4.599
 3350SOL    HW210950   0.803   4.383   4.559
 3351SOL     OW10951   4.786   1.050   1.353
 3351SOL    HW110952   4.860   1.116   1.361
 3351SOL    HW210953   4.771   1.005   1.442
 3352SOL     OW10954   6.460   1.614   6.576
 3352SOL    HW110955   6.530   1.654   6.636
 3352SOL    HW210956   6.371   1.616   6.622
 3353SOL     OW10957   2.651   0.293   1.107
 3353SOL    HW110958   2.602   0.297   1.020
 3353SOL    HW210959   2.713   0.215   1.108
 3354SOL     OW10960   3.440   4.146   6.399
 3354SOL    HW110961   3.509   4.155   6.327
 3354SOL    HW210962   3.385   4.064   6.382
 3355SOL     OW10963   2.043   0.742   4.971
 3355SOL    HW110964   2.094   0.692   4.901
 3355SOL    HW210965   2.095   0.742   5.056
 3356SOL     OW10966   1.630   6.943   5.528
 3356SOL    HW110967   1.566   6.896   5.467
 3356SOL    HW210968   1.707   6.883   5.548
 3357SOL     OW10969   3.056   3.067   2.170
 3357SOL    HW110970   3.062   3.101   2.076
 3357SOL    HW210971   3.028   2.971   2.169
 3358SOL     OW10972   6.727   0.872   1.446
 3358SOL    HW110973   6.704   0.962   1.481
 3358SOL    HW210974   6.781   0.881   1.362
 3359SOL     OW10975   6.742   6.279   4.012
 3359SOL    HW110976   6.674   6.331   3.961
 3359SOL    HW210977   6.726   6.181   4.000
 3360SOL     OW10978   0.500   3.566   4.554
 3360SOL    HW110979   0.534   3.635   4.490
 3360SOL    HW210980   0.512   3.599   4.648
 3361SOL     OW10981   6.659   0.111   5.054
 3361SOL    HW110982   6.749   0.114   5.009
 3361SOL    HW210983   6.604   0.188   5.022
 3362SOL     OW10984   3.830   0.907   4.063
 3362SOL    HW110985   3.904   0.909   3.996
 3362SOL    HW210986   3.744   0.930   4.018
 3363SOL     OW10987   5.818   3.662   0.314
 3363SOL    HW110988   5.853   3.575   0.282
 3363SOL    HW210989   5.718   3.656   0.325
 3364SOL     OW10990   1.649   3.594   3.675
 3364SOL    HW110991   1.712   3.631   3.607
 3364SOL    HW210992   1.582   3.665   3.700
 3365SOL     OW10993   2.287   4.169   3.996
 3365SOL    HW110994   2.286   4.153   3.897
 3365SOL    HW210995   2.318   4.086   4.042
 3366SOL     OW10996   6.023   3.684   3.812
 3366SOL    HW110997   6.095   3.624   3.776
 3366SOL    HW210998   6.052   3.722   3.899
 3367SOL     OW10999   3.566   3.358   3.678
 3367SOL    HW111000   3.613   3.293   3.738
 3367SOL    HW211001   3.498   3.409   3.731
 3368SOL     OW11002   1.802   6.290   1.855
 3368SOL    HW111003   1.815   6.376   1.903
 3368SOL    HW211004   1.815   6.304   1.757
 3369SOL     OW11005   4.915   2.871   0.890
 3369SOL    HW111006   5.009   2.839   0.904
 3369SOL    HW211007   4.910   2.925   0.806
 3370SOL     OW11008   0.931   5.575   2.972
 3370SOL    HW111009   0.909   5.603   3.066
 3370SOL    HW211010   0.949   5.657   2.917
 3371SOL     OW11011   1.962   2.487   2.810
 3371SOL    HW111012   2.016   2.479   2.893
 3371SOL    HW211013   1.901   2.408   2.802
 3372SOL     OW11014   5.836   3.727   2.378
 3372SOL    HW111015   5.929   3.717   2.416
 3372SOL    HW211016   5.828   3.672   2.296
 3373SOL     OW11017   6.363   3.368   1.565
 3373SOL    HW111018   6.404   3.289   1.611
 3373SOL    HW211019   6.317   3.425   1.633
 3374SOL     OW11020   0.440   0.091   3.789
 3374SOL    HW111021   0.451   0.060   3.695
 3374SOL    HW211022   0.514   0.053   3.845
 3375SOL     OW11023   6.518   5.155   6.000
 3375SOL    HW111024   6.444   5.157   6.067
 3375SOL    HW211025   6.479   5.149   5.908
 3376SOL     OW11026   3.041   3.896   4.780
 3376SOL    HW111027   3.136   3.928   4.781
 3376SOL    HW211028   3.030   3.823   4.846
 3377SOL     OW11029   6.263   5.229   3.633
 3377SOL    HW111030   6.344   5.217   3.574
 3377SOL    HW211031   6.212   5.310   3.604
 3378SOL     OW11032   1.493   6.290   0.851
 3378SOL    HW111033   1.436   6.222   0.805
 3378SOL    HW211034   1.516   6.363   0.787
 3379SOL     OW11035   6.504   4.074   3.246
 3379SOL    HW111036   6.456   4.082   3.159
 3379SOL    HW211037   6.479   3.987   3.290
 3380SOL     OW11038   2.878   4.905   0.135
 3380SOL    HW111039   2.927   4.821   0.112
 3380SOL    HW211040   2.929   4.954   0.206
 3381SOL     OW11041   1.694   3.467   6.572
 3381SOL    HW111042   1.774   3.420   6.537
 3381SOL    HW211043   1.705   3.566   6.560
 3382SOL     OW11044   6.985   2.885   0.952
 3382SOL    HW111045   6.986   2.828   0.870
 3382SOL    HW211046   6.932   2.839   1.024
 3383SOL     OW11047   4.975   5.250   0.300
 3383SOL    HW111048   4.965   5.209   0.391
 3383SOL    HW211049   4.908   5.210   0.238
 3384SOL     OW11050   2.456   3.942   6.610
 3384SOL    HW111051   2.411   3.859   6.578
 3384SOL    HW211052   2.555   3.931   6.603
 3385SOL     OW11053   0.061   1.742   4.337
 3385SOL    HW111054   0.146   1.786   4.367
 3385SOL    HW211055   0.083   1.666   4.276
 3386SOL     OW11056   0.124   4.219   5.288
 3386SOL    HW111057   0.025   4.220   5.280
 3386SOL    HW211058   0.159   4.313   5.288
 3387SOL     OW11059   6.598   0.694   3.408
 3387SOL    HW111060   6.618   0.748   3.326
 3387SOL    HW211061   6.658   0.723   3.482
 3388SOL     OW11062   6.567   3.593   0.843
 3388SOL    HW111063   6.484   3.544   0.872
 3388SOL    HW211064   6.644   3.530   0.843
 3389SOL     OW11065   6.031   6.346   0.889
 3389SOL    HW111066   6.110   6.286   0.898
 3389SOL    HW211067   5.949   6.291   0.875
 3390SOL     OW11068   3.316   6.557   5.899
 3390SOL    HW111069   3.270   6.642   5.873
 3390SOL    HW211070   3.380   6.576   5.974
 3391SOL     OW11071   5.866   3.217   4.052
 3391SOL    HW111072   5.787   3.272   4.026
 3391SOL    HW211073   5.879   3.142   3.987
 3392SOL     OW11074   4.718   6.563   5.815
 3392SOL    HW111075   4.630   6.609   5.831
 3392SOL    HW211076   4.741   6.505   5.892
 3393SOL     OW11077   5.153   6.017   1.067
 3393SOL    HW111078   5.167   6.116   1.070
 3393SOL    HW211079   5.225   5.975   1.012
 3394SOL     OW11080   3.024   5.630   1.216
 3394SOL    HW111081   3.109   5.669   1.183
 3394SOL    HW211082   3.006   5.664   1.309
 3395SOL     OW11083   2.586   0.058   3.682
 3395SOL    HW111084   2.560   0.084   3.589
 3395SOL    HW211085   2.512   0.079   3.745
 3396SOL     OW11086   5.098   1.595   4.588
 3396SOL    HW111087   5.090   1.681   4.538
 3396SOL    HW211088   5.114   1.520   4.524
 3397SOL     OW11089   2.085   6.562   6.993
 3397SOL    HW111090   2.071   6.658   6.970
 3397SOL    HW211091   1.998   6.514   6.990
 3398SOL     OW11092   6.874   2.396   4.995
 3398SOL    HW111093   6.937   2.435   4.928
 3398SOL    HW211094   6.787   2.374   4.951
 3399SOL     OW11095   6.611   5.791   1.556
 3399SOL    HW111096   6.620   5.871   1.497
 3399SOL    HW211097   6.578   5.819   1.646
 3400SOL     OW11098   5.186   1.639   6.400
 3400SOL    HW111099   5.127   1.584   6.341
 3400SOL    HW211100   5.158   1.627   6.495
 3401SOL     OW11101   6.315   3.411   5.478
 3401SOL    HW111102   6.318   3.325   5.529
 3401SOL    HW211103   6.361   3.399   5.390
 3402SOL     OW11104   6.001   3.570   1.672
 3402SOL    HW111105   5.981   3.592   1.576
 3402SOL    HW211106   5.927   3.514   1.709
 3403SOL     OW11107   5.139   6.526   6.727
 3403SOL    HW111108   5.180   6.617   6.722
 3403SOL    HW211109   5.126   6.501   6.823
 3404SOL     OW11110   5.028   4.510   5.093
 3404SOL    HW111111   5.089   4.571   5.142
 3404SOL    HW211112   5.056   4.504   4.997
 3405SOL     OW11113   5.018   5.892   6.589
 3405SOL    HW111114   5.059   5.824   6.528
 3405SOL    HW211115   5.079   5.911   6.665
 3406SOL     OW11116   2.479   5.108   1.332
 3406SOL    HW111117   2.418   5.125   1.409
 3406SOL    HW211118   2.574   5.103   1.364
 3407SOL     OW11119   0.991   3.826   0.278
 3407SOL    HW111120   0.909   3.881   0.292
 3407SOL    HW211121   0.966   3.734   0.248
 3408SOL     OW11122   4.823   1.957   3.557
 3408SOL    HW111123   4.904   2.011   3.581
 3408SOL    HW211124   4.821   1.943   3.458
 3409SOL     OW11125   4.248   0.024   0.650
 3409SOL    HW111126   4.238   0.099   0.717
 3409SOL    HW211127   4.212   0.054   0.562
 3410SOL     OW11128   5.790   0.468   3.021
 3410SOL    HW111129   5.794   0.390   3.082
 3410SOL    HW211130   5.724   0.450   2.948
 3411SOL     OW11131   6.068   1.914   0.032
 3411SOL    HW111132   6.165   1.915   0.055
 3411SOL    HW211133   6.057   1.936   6.959
 3412SOL     OW11134   6.431   2.978   1.931
 3412SOL    HW111135   6.376   2.920   1.991
 3412SOL    HW211136   6.452   2.929   1.846
 3413SOL     OW11137   6.648   2.866   6.418
 3413SOL    HW111138   6.667   2.914   6.332
 3413SOL    HW211139   6.704   2.783   6.423
 3414SOL     OW11140   3.071   4.289   1.170
 3414SOL    HW111141   3.150   4.237   1.202
 3414SOL    HW211142   3.103   4.362   1.109
 3415SOL     OW11143   1.718   1.865   6.308
 3415SOL    HW111144   1.628   1.828   6.285
 3415SOL    HW211145   1.789   1.799   6.281
 3416SOL     OW11146   6.039   0.164   6.761
 3416SOL    HW111147   5.949   0.176   6.803
 3416SOL    HW211148   6.106   0.221   6.809
 3417SOL     OW11149   5.735   6.731   3.517
 3417SOL    HW111150   5.685   6.784   3.449
 3417SOL    HW211151   5.813   6.784   3.550
 3418SOL     OW11152   4.869   5.181   0.985
 3418SOL    HW111153   4.789   5.184   0.924
 3418SOL    HW211154   4.870   5.263   1.042
 3419SOL     OW11155   2.419   5.852   5.199
 3419SOL    HW111156   2.354   5.781   5.170
 3419SOL    HW211157   2.510   5.828   5.165
 3420SOL     OW11158   4.527   2.611   2.740
 3420SOL    HW111159   4.581   2.584   2.660
 3420SOL    HW211160   4.587   2.650   2.809
 3421SOL     OW11161   6.651   2.394   3.519
 3421SOL    HW111162   6.629   2.381   3.422
 3421SOL    HW211163   6.724   2.461   3.528
 3422SOL     OW11164   1.982   6.361   0.592
 3422SOL    HW111165   1.993   6.286   0.658
 3422SOL    HW211166   2.022   6.335   0.504
 3423SOL     OW11167   1.191   4.245   6.021
 3423SOL    HW111168   1.181   4.325   6.080
 3423SOL    HW211169   1.276   4.252   5.970
 3424SOL     OW11170   4.469   0.637   2.073
 3424SOL    HW111171   4.474   0.625   1.974
 3424SOL    HW211172   4.560   0.659   2.109
 3425SOL     OW11173   5.561   3.645   0.838
 3425SOL    HW111174   5.625   3.708   0.796
 3425SOL    HW211175   5.610   3.581   0.897
 3426SOL     OW11176   5.395   3.193   6.589
 3426SOL    HW111177   5.391   3.263   6.518
 3426SOL    HW211178   5.457   3.120   6.561
 3427SOL     OW11179   1.466   2.556   1.233
 3427SOL    HW111180   1.488   2.458   1.239
 3427SOL    HW211181   1.368   2.567   1.215
 3428SOL     OW11182   5.074   6.298   5.643
 3428SOL    HW111183   5.163   6.254   5.635
 3428SOL    HW211184   5.069   6.376   5.580
 3429SOL     OW11185   6.309   0.121   1.263
 3429SOL    HW111186   6.287   0.066   1.182
 3429SOL    HW211187   6.325   0.060   1.341
 3430SOL     OW11188   1.808   4.553   5.336
 3430SOL    HW111189   1.881   4.505   5.288
 3430SOL    HW211190   1.765   4.619   5.274
 3431SOL     OW11191   0.615   4.875   3.102
 3431SOL    HW111192   0.555   4.810   3.055
 3431SOL    HW211193   0.656   4.936   3.035
 3432SOL     OW11194   1.591   3.951   0.210
 3432SOL    HW111195   1.627   4.000   0.289
 3432SOL    HW211196   1.494   3.934   0.223
 3433SOL     OW11197   2.730   1.869   6.530
 3433SOL    HW111198   2.651   1.900   6.582
 3433SOL    HW211199   2.719   1.893   6.434
 3434SOL     OW11200   3.359   2.609   1.679
 3434SOL    HW111201   3.315   2.529   1.720
 3434SOL    HW211202   3.374   2.593   1.582
 3435SOL     OW11203   2.273   1.457   0.914
 3435SOL    HW111204   2.188   1.492   0.951
 3435SOL    HW211205   2.330   1.533   0.884
 3436SOL     OW11206   3.428   6.922   6.759
 3436SOL    HW111207   3.382   6.881   6.838
 3436SOL    HW211208   3.422   7.021   6.764
 3437SOL     OW11209   1.157   0.214   6.476
 3437SOL    HW111210   1.254   0.209   6.454
 3437SOL    HW211211   1.103   0.171   6.403
 3438SOL     OW11212   1.682   4.014   1.444
 3438SOL    HW111213   1.652   3.982   1.354
 3438SOL    HW211214   1.614   3.988   1.513
 3439SOL     OW11215   2.861   5.663   1.708
 3439SOL    HW111216   2.820   5.752   1.688
 3439SOL    HW211217   2.789   5.598   1.731
 3440SOL     OW11218   4.075   3.757   4.673
 3440SOL    HW111219   4.124   3.692   4.731
 3440SOL    HW211220   4.075   3.724   4.579
 3441SOL     OW11221   5.617   4.872   5.508
 3441SOL    HW111222   5.697   4.821   5.541
 3441SOL    HW211223   5.622   4.879   5.408
 3442SOL     OW11224   3.002   3.031   1.444
 3442SOL    HW111225   2.949   2.947   1.443
 3442SOL    HW211226   3.063   3.031   1.523
 3443SOL     OW11227   1.036   5.966   2.224
 3443SOL    HW111228   0.980   5.995   2.147
 3443SOL    HW211229   1.131   5.956   2.195
 3444SOL     OW11230   6.033   3.500   6.594
 3444SOL    HW111231   6.070   3.544   6.512
 3444SOL    HW211232   5.984   3.417   6.567
 3445SOL     OW11233   6.076   4.889   3.071
 3445SOL    HW111234   6.145   4.833   3.118
 3445SOL    HW211235   6.122   4.950   3.007
 3446SOL     OW11236   5.052   1.080   1.065
 3446SOL    HW111237   5.138   1.085   1.115
 3446SOL    HW211238   5.005   0.995   1.088
 3447SOL     OW11239   5.120   0.848   6.746
 3447SOL    HW111240   5.176   0.868   6.665
 3447SOL    HW211241   5.149   0.761   6.786
 3448SOL     OW11242   1.385   5.646   4.738
 3448SOL    HW111243   1.430   5.706   4.804
 3448SOL    HW211244   1.289   5.671   4.731
 3449SOL     OW11245   6.837   4.239   5.261
 3449SOL    HW111246   6.801   4.145   5.259
 3449SOL    HW211247   6.885   4.258   5.176
 3450SOL     OW11248   2.227   6.851   1.672
 3450SOL    HW111249   2.322   6.834   1.645
 3450SOL    HW211250   2.218   6.836   1.771
 3451SOL     OW11251   2.169   1.570   1.374
 3451SOL    HW111252   2.237   1.598   1.441
 3451SOL    HW211253   2.148   1.473   1.387
 3452SOL     OW11254   4.364   0.765   4.720
 3452SOL    HW111255   4.414   0.827   4.781
 3452SOL    HW211256   4.374   0.796   4.625
 3453SOL     OW11257   3.908   6.526   6.059
 3453SOL    HW111258   3.944   6.447   6.109
 3453SOL    HW211259   3.977   6.598   6.057
 3454SOL     OW11260   0.757   2.816   1.356
 3454SOL    HW111261   0.828   2.789   1.292
 3454SOL    HW211262   0.688   2.869   1.308
 3455SOL     OW11263   0.548   2.900   4.893
 3455SOL    HW111264   0.641   2.881   4.922
 3455SOL    HW211265   0.490   2.911   4.974
 3456SOL     OW11266   5.770   5.043   3.158
 3456SOL    HW111267   5.760   4.981   3.080
 3456SOL    HW211268   5.839   5.007   3.221
 3457SOL     OW11269   3.422   4.409   6.215
 3457SOL    HW111270   3.521   4.409   6.233
 3457SOL    HW211271   3.402   4.344   6.143
 3458SOL     OW11272   3.865   1.220   1.971
 3458SOL    HW111273   3.910   1.147   2.022
 3458SOL    HW211274   3.933   1.289   1.945
 3459SOL     OW11275   4.376   6.527   2.816
 3459SOL    HW111276   4.320   6.578   2.881
 3459SOL    HW211277   4.398   6.585   2.737
 3460SOL     OW11278   4.441   1.677   4.786
 3460SOL    HW111279   4.384   1.650   4.863
 3460SOL    HW211280   4.384   1.711   4.711
 3461SOL     OW11281   5.938   5.579   4.788
 3461SOL    HW111282   5.903   5.535   4.705
 3461SOL    HW211283   6.038   5.573   4.789
 3462SOL     OW11284   1.270   3.800   6.545
 3462SOL    HW111285   1.347   3.863   6.549
 3462SOL    HW211286   1.251   3.765   6.637
 3463SOL     OW11287   5.424   4.301   1.204
 3463SOL    HW111288   5.348   4.236   1.198
 3463SOL    HW211289   5.435   4.348   1.117
 3464SOL     OW11290   0.150   4.556   5.159
 3464SOL    HW111291   0.197   4.547   5.247
 3464SOL    HW211292   0.172   4.645   5.119
 3465SOL     OW11293   1.306   1.182   1.070
 3465SOL    HW111294   1.319   1.094   1.025
 3465SOL    HW211295   1.258   1.169   1.157
 3466SOL     OW11296   6.636   3.811   5.915
 3466SOL    HW111297   6.594   3.749   5.849
 3466SOL    HW211298   6.572   3.886   5.935
 3467SOL     OW11299   1.987   2.254   0.065
 3467SOL    HW111300   2.049   2.188   0.021
 3467SOL    HW211301   1.906   2.206   0.099
 3468SOL     OW11302   3.563   6.549   3.677
 3468SOL    HW111303   3.512   6.534   3.762
 3468SOL    HW211304   3.661   6.552   3.697
 3469SOL     OW11305   5.560   3.237   2.875
 3469SOL    HW111306   5.602   3.181   2.946
 3469SOL    HW211307   5.574   3.334   2.897
 3470SOL     OW11308   0.250   5.109   1.326
 3470SOL    HW111309   0.178   5.144   1.386
 3470SOL    HW211310   0.228   5.131   1.231
 3471SOL     OW11311   4.205   6.658   4.944
 3471SOL    HW111312   4.152   6.632   5.024
 3471SOL    HW211313   4.151   6.645   4.861
 3472SOL     OW11314   3.467   1.104   5.519
 3472SOL    HW111315   3.514   1.055   5.446
 3472SOL    HW211316   3.371   1.077   5.521
 3473SOL     OW11317   5.303   1.073   5.655
 3473SOL    HW111318   5.291   1.166   5.689
 3473SOL    HW211319   5.397   1.062   5.623
 3474SOL     OW11320   4.631   4.417   0.357
 3474SOL    HW111321   4.674   4.348   0.416
 3474SOL    HW211322   4.670   4.507   0.378
 3475SOL     OW11323   1.858   5.654   4.936
 3475SOL    HW111324   1.861   5.628   5.032
 3475SOL    HW211325   1.950   5.651   4.897
 3476SOL     OW11326   4.799   1.010   4.425
 3476SOL    HW111327   4.815   1.095   4.374
 3476SOL    HW211328   4.731   1.027   4.496
 3477SOL     OW11329   4.590   6.138   1.615
 3477SOL    HW111330   4.529   6.058   1.613
 3477SOL    HW211331   4.644   6.137   1.699
 3478SOL     OW11332   3.969   4.097   0.114
 3478SOL    HW111333   3.990   4.193   0.097
 3478SOL    HW211334   3.873   4.088   0.140
 3479SOL     OW11335   0.998   0.217   1.857
 3479SOL    HW111336   0.985   0.281   1.781
 3479SOL    HW211337   1.096   0.204   1.874
 3480SOL     OW11338   1.114   1.269   3.641
 3480SOL    HW111339   1.182   1.319   3.588
 3480SOL    HW211340   1.151   1.248   3.732
 3481SOL     OW11341   2.435   6.930   6.689
 3481SOL    HW111342   2.338   6.908   6.678
 3481SOL    HW211343   2.474   6.958   6.601
 3482SOL     OW11344   0.705   1.807   0.592
 3482SOL    HW111345   0.717   1.900   0.625
 3482SOL    HW211346   0.626   1.765   0.636
 3483SOL     OW11347   3.475   0.108   1.437
 3483SOL    HW111348   3.495   0.034   1.500
 3483SOL    HW211349   3.449   0.190   1.488
 3484SOL     OW11350   3.637   3.319   3.416
 3484SOL    HW111351   3.723   3.363   3.392
 3484SOL    HW211352   3.614   3.340   3.512
 3485SOL     OW11353   0.506   1.831   4.930
 3485SOL    HW111354   0.457   1.896   4.989
 3485SOL    HW211355   0.469   1.835   4.837
 3486SOL     OW11356   4.301   1.635   2.329
 3486SOL    HW111357   4.370   1.708   2.329
 3486SOL    HW211358   4.229   1.657   2.395
 3487SOL     OW11359   0.038   0.646   6.712
 3487SOL    HW111360   0.106   0.669   6.782
 3487SOL    HW211361   6.981   0.606   6.755
 3488SOL     OW11362   6.242   3.380   3.859
 3488SOL    HW111363   6.261   3.460   3.803
 3488SOL    HW211364   6.171   3.401   3.926
 3489SOL     OW11365   2.910   0.041   0.748
 3489SOL    HW111366   2.813   0.045   0.770
 3489SOL    HW211367   2.962   0.021   0.831
 3490SOL     OW11368   3.736   3.653   0.589
 3490SOL    HW111369   3.656   3.700   0.552
 3490SOL    HW211370   3.746   3.565   0.543
 3491SOL     OW11371   0.244   2.921   4.640
 3491SOL    HW111372   0.225   2.999   4.580
 3491SOL    HW211373   0.342   2.902   4.640
 3492SOL     OW11374   5.687   4.710   6.689
 3492SOL    HW111375   5.622   4.786   6.698
 3492SOL    HW211376   5.703   4.669   6.778
 3493SOL     OW11377   6.663   4.767   0.006
 3493SOL    HW111378   6.686   4.744   0.101
 3493SOL    HW211379   6.613   4.691   6.989
 3494SOL     OW11380   3.293   0.232   0.691
 3494SOL    HW111381   3.254   0.275   0.773
 3494SOL    HW211382   3.231   0.160   0.659
 3495SOL     OW11383   5.216   4.987   0.139
 3495SOL    HW111384   5.181   5.006   0.230
 3495SOL    HW211385   5.182   5.055   0.074
 3496SOL     OW11386   1.755   4.041   0.428
 3496SOL    HW111387   1.731   4.128   0.472
 3496SOL    HW211388   1.766   3.970   0.497
 3497SOL     OW11389   4.833   6.670   3.632
 3497SOL    HW111390   4.803   6.744   3.691
 3497SOL    HW211391   4.845   6.703   3.539
 3498SOL     OW11392   2.709   1.366   1.991
 3498SOL    HW111393   2.695   1.422   2.072
 3498SOL    HW211394   2.803   1.331   1.990
 3499SOL     OW11395   6.456   3.477   3.369
 3499SOL    HW111396   6.356   3.484   3.366
 3499SOL    HW211397   6.490   3.527   3.448
 3500SOL     OW11398   6.571   3.364   0.607
 3500SOL    HW111399   6.620   3.420   0.541
 3500SOL    HW211400   6.632   3.338   0.682
 3501SOL     OW11401   1.324   4.704   4.074
 3501SOL    HW111402   1.360   4.673   3.986
 3501SOL    HW211403   1.399   4.736   4.131
 3502SOL     OW11404   0.485   3.522   1.549
 3502SOL    HW111405   0.478   3.581   1.630
 3502SOL    HW211406   0.395   3.511   1.508
 3503SOL     OW11407   4.801   6.658   4.306
 3503SOL    HW111408   4.870   6.717   4.265
 3503SOL    HW211409   4.843   6.573   4.337
 3504SOL     OW11410   2.091   3.623   2.225
 3504SOL    HW111411   2.137   3.553   2.171
 3504SOL    HW211412   1.995   3.627   2.198
 3505SOL     OW11413   4.569   5.724   5.223
 3505SOL    HW111414   4.668   5.727   5.207
 3505SOL    HW211415   4.547   5.642   5.277
 3506SOL     OW11416   5.180   4.774   2.310
 3506SOL    HW111417   5.254   4.803   2.250
 3506SOL    HW211418   5.199   4.683   2.345
 3507SOL     OW11419   1.055   0.246   5.972
 3507SOL    HW111420   1.093   0.199   5.893
 3507SOL    HW211421   0.956   0.256   5.961
 3508SOL     OW11422   5.928   3.250   6.505
 3508SOL    HW111423   5.909   3.152   6.497
 3508SOL    HW211424   5.873   3.300   6.438
 3509SOL     OW11425   6.740   5.867   1.184
 3509SOL    HW111426   6.805   5.924   1.134
 3509SOL    HW211427   6.703   5.919   1.261
 3510SOL     OW11428   1.671   3.285   2.599
 3510SOL    HW111429   1.580   3.252   2.572
 3510SOL    HW211430   1.708   3.343   2.527
 3511SOL     OW11431   0.627   1.019   5.527
 3511SOL    HW111432   0.552   1.011   5.593
 3511SOL    HW211433   0.608   0.962   5.447
 3512SOL     OW11434   3.070   3.696   1.190
 3512SOL    HW111435   3.034   3.619   1.138
 3512SOL    HW211436   3.167   3.709   1.170
 3513SOL     OW11437   5.858   4.907   1.054
 3513SOL    HW111438   5.760   4.920   1.038
 3513SOL    HW211439   5.876   4.909   1.152
 3514SOL     OW11440   1.442   6.367   1.844
 3514SOL    HW111441   1.476   6.423   1.920
 3514SOL    HW211442   1.342   6.371   1.841
 3515SOL     OW11443   2.944   5.995   3.312
 3515SOL    HW111444   2.998   5.984   3.228
 3515SOL    HW211445   2.954   5.914   3.369
 3516SOL     OW11446   2.644   1.397   0.531
 3516SOL    HW111447   2.574   1.328   0.547
 3516SOL    HW211448   2.671   1.438   0.618
 3517SOL     OW11449   1.536   1.079   6.182
 3517SOL    HW111450   1.478   1.111   6.108
 3517SOL    HW211451   1.576   1.157   6.230
 3518SOL     OW11452   4.412   2.983   6.051
 3518SOL    HW111453   4.353   3.012   5.976
 3518SOL    HW211454   4.460   2.899   6.026
 3519SOL     OW11455   2.604   6.816   0.745
 3519SOL    HW111456   2.623   6.911   0.773
 3519SOL    HW211457   2.505   6.799   0.752
 3520SOL     OW11458   4.443   5.601   1.094
 3520SOL    HW111459   4.363   5.620   1.151
 3520SOL    HW211460   4.447   5.503   1.075
 3521SOL     OW11461   5.472   2.377   0.630
 3521SOL    HW111462   5.380   2.342   0.612
 3521SOL    HW211463   5.537   2.301   0.635
 3522SOL     OW11464   3.408   5.023   2.278
 3522SOL    HW111465   3.345   5.100   2.274
 3522SOL    HW211466   3.382   4.954   2.210
 3523SOL     OW11467   2.222   4.950   6.084
 3523SOL    HW111468   2.266   5.018   6.025
 3523SOL    HW211469   2.222   4.982   6.179
 3524SOL     OW11470   2.530   6.979   1.147
 3524SOL    HW111471   2.473   6.976   1.229
 3524SOL    HW211472   2.538   0.049   1.115
 3525SOL     OW11473   1.302   2.961   2.634
 3525SOL    HW111474   1.334   2.931   2.724
 3525SOL    HW211475   1.244   2.889   2.595
 3526SOL     OW11476   2.332   0.649   2.743
 3526SOL    HW111477   2.307   0.684   2.653
 3526SOL    HW211478   2.409   0.701   2.779
 3527SOL     OW11479   4.689   3.330   5.982
 3527SOL    HW111480   4.726   3.360   6.070
 3527SOL    HW211481   4.673   3.231   5.985
 3528SOL     OW11482   0.400   6.768   4.639
 3528SOL    HW111483   0.303   6.790   4.635
 3528SOL    HW211484   0.414   6.671   4.619
 3529SOL     OW11485   3.804   6.439   6.922
 3529SOL    HW111486   3.731   6.454   6.856
 3529SOL    HW211487   3.840   6.527   6.953
 3530SOL     OW11488   2.096   6.210   2.843
 3530SOL    HW111489   2.135   6.174   2.758
 3530SOL    HW211490   2.034   6.142   2.882
 3531SOL     OW11491   4.000   3.276   6.862
 3531SOL    HW111492   4.062   3.203   6.888
 3531SOL    HW211493   4.052   3.353   6.824
 3532SOL     OW11494   1.859   6.716   0.358
 3532SOL    HW111495   1.831   6.771   0.279
 3532SOL    HW211496   1.841   6.767   0.442
 3533SOL     OW11497   1.315   1.423   3.492
 3533SOL    HW111498   1.397   1.444   3.439
 3533SOL    HW211499   1.236   1.469   3.453
 3534SOL     OW11500   5.334   1.253   4.799
 3534SOL    HW111501   5.288   1.181   4.747
 3534SOL    HW211502   5.279   1.276   4.880
 3535SOL     OW11503   4.625   5.839   6.843
 3535SOL    HW111504   4.652   5.766   6.906
 3535SOL    HW211505   4.586   5.915   6.896
 3536SOL     OW11506   0.953   4.331   3.647
 3536SOL    HW111507   1.022   4.261   3.628
 3536SOL    HW211508   0.954   4.400   3.574
 3537SOL     OW11509   2.437   4.800   0.399
 3537SOL    HW111510   2.353   4.851   0.415
 3537SOL    HW211511   2.486   4.789   0.486
 3538SOL     OW11512   2.808   0.788   4.821
 3538SOL    HW111513   2.842   0.881   4.832
 3538SOL    HW211514   2.884   0.725   4.808
 3539SOL     OW11515   5.659   5.802   6.367
 3539SOL    HW111516   5.559   5.795   6.369
 3539SOL    HW211517   5.694   5.803   6.461
 3540SOL     OW11518   2.915   3.750   6.817
 3540SOL    HW111519   2.967   3.835   6.814
 3540SOL    HW211520   2.822   3.769   6.848
 3541SOL     OW11521   1.998   2.738   1.523
 3541SOL    HW111522   2.040   2.726   1.613
 3541SOL    HW211523   1.962   2.651   1.491
 3542SOL     OW11524   5.394   1.477   6.398
 3542SOL    HW111525   5.456   1.501   6.324
 3542SOL    HW211526   5.328   1.551   6.412
 3543SOL     OW11527   0.605   2.336   3.096
 3543SOL    HW111528   0.662   2.373   3.169
 3543SOL    HW211529   0.651   2.349   3.008
 3544SOL     OW11530   3.050   3.993   6.808
 3544SOL    HW111531   3.120   4.057   6.838
 3544SOL    HW211532   2.987   4.040   6.746
 3545SOL     OW11533   3.272   6.406   1.571
 3545SOL    HW111534   3.244   6.363   1.485
 3545SOL    HW211535   3.371   6.419   1.571
 3546SOL     OW11536   6.977   4.699   2.656
 3546SOL    HW111537   0.007   4.733   2.733
 3546SOL    HW211538   6.920   4.622   2.686
 3547SOL     OW11539   0.743   4.089   5.451
 3547SOL    HW111540   0.786   4.102   5.362
 3547SOL    HW211541   0.748   3.992   5.477
 3548SOL     OW11542   5.536   0.583   5.050
 3548SOL    HW111543   5.527   0.639   5.132
 3548SOL    HW211544   5.625   0.537   5.051
 3549SOL     OW11545   2.775   6.480   0.118
 3549SOL    HW111546   2.737   6.387   0.117
 3549SOL    HW211547   2.713   6.542   0.165
 3550SOL     OW11548   5.560   1.008   5.330
 3550SOL    HW111549   5.481   1.010   5.269
 3550SOL    HW211550   5.531   1.026   5.423
 3551SOL     OW11551   4.512   1.974   4.259
 3551SOL    HW111552   4.557   1.889   4.284
 3551SOL    HW211553   4.547   2.006   4.170
 3552SOL     OW11554   0.083   6.969   2.810
 3552SOL    HW111555   0.106   6.881   2.852
 3552SOL    HW211556   0.104   0.018   2.874
 3553SOL     OW11557   5.386   5.554   6.918
 3553SOL    HW111558   5.443   5.542   6.999
 3553SOL    HW211559   5.443   5.565   6.837
 3554SOL     OW11560   5.409   3.003   0.802
 3554SOL    HW111561   5.437   2.966   0.714
 3554SOL    HW211562   5.488   3.010   0.862
 3555SOL     OW11563   3.114   2.163   4.814
 3555SOL    HW111564   3.093   2.080   4.865
 3555SOL    HW211565   3.127   2.239   4.878
 3556SOL     OW11566   5.487   1.305   5.502
 3556SOL    HW111567   5.524   1.386   5.458
 3556SOL    HW211568   5.506   1.308   5.600
 3557SOL     OW11569   6.071   0.734   0.735
 3557SOL    HW111570   6.125   0.784   0.667
 3557SOL    HW211571   6.132   0.703   0.808
 3558SOL     OW11572   3.713   5.962   2.079
 3558SOL    HW111573   3.639   5.991   2.018
 3558SOL    HW211574   3.702   6.004   2.168
 3559SOL     OW11575   5.002   6.700   5.829
 3559SOL    HW111576   5.030   6.716   5.734
 3559SOL    HW211577   4.998   6.602   5.846
 3560SOL     OW11578   2.030   5.243   3.944
 3560SOL    HW111579   1.942   5.249   3.991
 3560SOL    HW211580   2.081   5.164   3.979
 3561SOL     OW11581   4.743   3.596   5.413
 3561SOL    HW111582   4.728   3.589   5.314
 3561SOL    HW211583   4.687   3.671   5.449
 3562SOL     OW11584   2.232   1.462   6.038
 3562SOL    HW111585   2.299   1.535   6.053
 3562SOL    HW211586   2.218   1.411   6.124
 3563SOL     OW11587   6.180   3.026   4.796
 3563SOL    HW111588   6.269   3.007   4.839
 3563SOL    HW211589   6.129   2.941   4.788
 3564SOL     OW11590   6.224   3.920   1.712
 3564SOL    HW111591   6.158   3.934   1.786
 3564SOL    HW211592   6.239   3.822   1.699
 3565SOL     OW11593   3.847   5.942   3.907
 3565SOL    HW111594   3.874   5.847   3.892
 3565SOL    HW211595   3.807   5.952   3.998
 3566SOL     OW11596   1.246   0.137   5.428
 3566SOL    HW111597   1.272   0.091   5.513
 3566SOL    HW211598   1.209   0.070   5.364
 3567SOL     OW11599   6.390   3.652   6.625
 3567SOL    HW111600   6.404   3.615   6.533
 3567SOL    HW211601   6.316   3.719   6.623
 3568SOL     OW11602   5.429   3.767   6.133
 3568SOL    HW111603   5.340   3.729   6.108
 3568SOL    HW211604   5.416   3.860   6.168
 3569SOL     OW11605   2.140   1.230   4.877
 3569SOL    HW111606   2.050   1.241   4.836
 3569SOL    HW211607   2.156   1.133   4.898
 3570SOL     OW11608   6.254   1.784   3.127
 3570SOL    HW111609   6.351   1.803   3.118
 3570SOL    HW211610   6.240   1.685   3.138
 3571SOL     OW11611   6.665   6.346   5.730
 3571SOL    HW111612   6.713   6.308   5.810
 3571SOL    HW211613   6.587   6.400   5.761
 3572SOL     OW11614   6.251   5.927   4.373
 3572SOL    HW111615   6.172   5.879   4.412
 3572SOL    HW211616   6.223   5.974   4.289
 3573SOL     OW11617   1.023   2.604   3.277
 3573SOL    HW111618   1.091   2.591   3.350
 3573SOL    HW211619   1.068   2.596   3.188
 3574SOL     OW11620   6.665   3.732   0.636
 3574SOL    HW111621   6.745   3.780   0.673
 3574SOL    HW211622   6.612   3.693   0.712
 3575SOL     OW11623   6.199   5.151   1.874
 3575SOL    HW111624   6.241   5.071   1.832
 3575SOL    HW211625   6.233   5.234   1.830
 3576SOL     OW11626   0.682   1.756   6.073
 3576SOL    HW111627   0.652   1.810   5.994
 3576SOL    HW211628   0.704   1.817   6.149
 3577SOL     OW11629   1.778   3.004   0.244
 3577SOL    HW111630   1.816   3.084   0.198
 3577SOL    HW211631   1.816   2.921   0.203
 3578SOL     OW11632   3.843   5.460   0.745
 3578SOL    HW111633   3.936   5.486   0.772
 3578SOL    HW211634   3.834   5.469   0.646
 3579SOL     OW11635   0.286   4.568   4.464
 3579SOL    HW111636   0.350   4.585   4.539
 3579SOL    HW211637   0.242   4.654   4.437
 3580SOL     OW11638   6.349   2.443   1.989
 3580SOL    HW111639   6.322   2.535   1.961
 3580SOL    HW211640   6.402   2.449   2.074
 3581SOL     OW11641   6.702   0.438   2.662
 3581SOL    HW111642   6.671   0.518   2.611
 3581SOL    HW211643   6.750   0.376   2.601
 3582SOL     OW11644   1.325   0.889   6.126
 3582SOL    HW111645   1.407   0.914   6.177
 3582SOL    HW211646   1.345   0.887   6.028
 3583SOL     OW11647   1.648   5.619   0.516
 3583SOL    HW111648   1.707   5.570   0.452
 3583SOL    HW211649   1.703   5.659   0.589
 3584SOL     OW11650   4.735   6.086   6.315
 3584SOL    HW111651   4.725   5.990   6.340
 3584SOL    HW211652   4.799   6.131   6.377
 3585SOL     OW11653   2.680   5.049   4.019
 3585SOL    HW111654   2.662   4.950   4.020
 3585SOL    HW211655   2.735   5.073   4.099
 3586SOL     OW11656   6.346   2.549   6.369
 3586SOL    HW111657   6.396   2.630   6.401
 3586SOL    HW211658   6.404   2.468   6.380
 3587SOL     OW11659   4.086   7.014   6.552
 3587SOL    HW111660   4.088   6.964   6.638
 3587SOL    HW211661   4.122   6.955   6.479
 3588SOL     OW11662   1.740   1.542   5.492
 3588SOL    HW111663   1.655   1.589   5.515
 3588SOL    HW211664   1.812   1.568   5.556
 3589SOL     OW11665   3.152   0.709   5.404
 3589SOL    HW111666   3.148   0.737   5.308
 3589SOL    HW211667   3.060   0.716   5.444
 3590SOL     OW11668   1.923   5.419   6.800
 3590SOL    HW111669   1.876   5.365   6.731
 3590SOL    HW211670   1.943   5.510   6.763
 3591SOL     OW11671   5.123   2.597   5.314
 3591SOL    HW111672   5.202   2.658   5.314
 3591SOL    HW211673   5.105   2.567   5.220
 3592SOL     OW11674   4.811   2.961   2.442
 3592SOL    HW111675   4.778   3.033   2.381
 3592SOL    HW211676   4.908   2.944   2.424
 3593SOL     OW11677   1.902   5.783   3.891
 3593SOL    HW111678   1.936   5.853   3.829
 3593SOL    HW211679   1.805   5.801   3.912
 3594SOL     OW11680   2.902   1.137   3.987
 3594SOL    HW111681   2.962   1.073   3.940
 3594SOL    HW211682   2.863   1.093   4.068
 3595SOL     OW11683   3.061   6.132   5.772
 3595SOL    HW111684   2.966   6.161   5.763
 3595SOL    HW211685   3.121   6.202   5.733
 3596SOL     OW11686   6.717   2.621   2.696
 3596SOL    HW111687   6.695   2.665   2.609
 3596SOL    HW211688   6.757   2.531   2.679
 3597SOL     OW11689   3.784   5.261   4.151
 3597SOL    HW111690   3.882   5.281   4.154
 3597SOL    HW211691   3.734   5.343   4.123
 3598SOL     OW11692   0.951   7.002   6.789
 3598SOL    HW111693   1.045   0.011   6.793
 3598SOL    HW211694   0.918   6.983   6.882
 3599SOL     OW11695   0.321   1.195   4.508
 3599SOL    HW111696   0.264   1.115   4.489
 3599SOL    HW211697   0.417   1.172   4.495
 3600SOL     OW11698   6.036   1.440   0.695
 3600SOL    HW111699   6.064   1.534   0.713
 3600SOL    HW211700   5.942   1.438   0.661
 3601SOL     OW11701   6.407   3.936   6.302
 3601SOL    HW111702   6.441   4.013   6.357
 3601SOL    HW211703   6.312   3.955   6.274
 3602SOL     OW11704   2.141   0.977   0.380
 3602SOL    HW111705   2.188   1.064   0.367
 3602SOL    HW211706   2.085   0.980   0.463
 3603SOL     OW11707   4.466   4.929   4.361
 3603SOL    HW111708   4.411   4.873   4.300
 3603SOL    HW211709   4.510   4.871   4.430
 3604SOL     OW11710   7.020   2.891   3.089
 3604SOL    HW111711   6.986   2.984   3.103
 3604SOL    HW211712   0.061   2.868   3.163
 3605SOL     OW11713   5.830   3.689   6.626
 3605SOL    HW111714   5.900   3.618   6.629
 3605SOL    HW211715   5.759   3.662   6.560
 3606SOL     OW11716   0.788   4.708   4.872
 3606SOL    HW111717   0.818   4.616   4.896
 3606SOL    HW211718   0.839   4.741   4.793
 3607SOL     OW11719   5.371   6.816   0.192
 3607SOL    HW111720   5.395   6.891   0.255
 3607SOL    HW211721   5.452   6.787   0.142
 3608SOL     OW11722   0.545   2.253   2.414
 3608SOL    HW111723   0.598   2.314   2.472
 3608SOL    HW211724   0.575   2.263   2.319
 3609SOL     OW11725   6.629   0.076   4.232
 3609SOL    HW111726   6.693   0.009   4.194
 3609SOL    HW211727   6.654   0.168   4.200
 3610SOL     OW11728   1.313   6.658   5.926
 3610SOL    HW111729   1.266   6.626   6.008
 3610SOL    HW211730   1.295   6.596   5.850
 3611SOL     OW11731   3.293   5.064   5.345
 3611SOL    HW111732   3.272   4.990   5.282
 3611SOL    HW211733   3.208   5.099   5.384
 3612SOL     OW11734   1.153   6.906   1.196
 3612SOL    HW111735   1.092   6.901   1.117
 3612SOL    HW211736   1.133   6.830   1.258
 3613SOL     OW11737   5.403   5.306   6.654
 3613SOL    HW111738   5.445   5.367   6.587
 3613SOL    HW211739   5.474   5.256   6.703
 3614SOL     OW11740   3.493   2.889   3.703
 3614SOL    HW111741   3.436   2.934   3.771
 3614SOL    HW211742   3.590   2.896   3.729
 3615SOL     OW11743   6.607   5.850   6.383
 3615SOL    HW111744   6.702   5.834   6.357
 3615SOL    HW211745   6.561   5.762   6.395
 3616SOL     OW11746   0.083   2.354   5.376
 3616SOL    HW111747   0.106   2.259   5.355
 3616SOL    HW211748   7.019   2.377   5.335
 3617SOL     OW11749   0.306   1.376   6.435
 3617SOL    HW111750   0.273   1.341   6.522
 3617SOL    HW211751   0.405   1.362   6.429
 3618SOL     OW11752   2.168   2.070   7.008
 3618SOL    HW111753   2.176   1.985   0.036
 3618SOL    HW211754   2.165   2.049   6.910
 3619SOL     OW11755   6.259   2.209   4.423
 3619SOL    HW111756   6.169   2.165   4.418
 3619SOL    HW211757   6.320   2.165   4.357
 3620SOL     OW11758   6.069   6.998   5.294
 3620SOL    HW111759   6.048   6.959   5.384
 3620SOL    HW211760   6.060   0.073   5.298
 3621SOL     OW11761   2.239   3.898   5.922
 3621SOL    HW111762   2.245   3.812   5.871
 3621SOL    HW211763   2.284   3.888   6.011
 3622SOL     OW11764   0.761   2.712   1.907
 3622SOL    HW111765   0.725   2.620   1.923
 3622SOL    HW211766   0.710   2.755   1.833
 3623SOL     OW11767   5.442   4.825   3.341
 3623SOL    HW111768   5.407   4.841   3.433
 3623SOL    HW211769   5.461   4.912   3.296
 3624SOL     OW11770   2.593   6.568   2.174
 3624SOL    HW111771   2.665   6.631   2.143
 3624SOL    HW211772   2.566   6.508   2.098
 3625SOL     OW11773   6.361   3.558   4.907
 3625SOL    HW111774   6.364   3.460   4.927
 3625SOL    HW211775   6.285   3.577   4.845
 3626SOL     OW11776   2.269   3.760   5.329
 3626SOL    HW111777   2.326   3.793   5.253
 3626SOL    HW211778   2.174   3.786   5.312
 3627SOL     OW11779   3.015   3.816   3.800
 3627SOL    HW111780   2.965   3.803   3.714
 3627SOL    HW211781   3.094   3.756   3.803
 3628SOL     OW11782   2.601   5.167   2.242
 3628SOL    HW111783   2.522   5.109   2.261
 3628SOL    HW211784   2.684   5.111   2.245
 3629SOL     OW11785   6.059   1.812   5.254
 3629SOL    HW111786   6.087   1.739   5.191
 3629SOL    HW211787   6.116   1.810   5.336
 3630SOL     OW11788   6.750   2.047   4.507
 3630SOL    HW111789   6.728   1.950   4.508
 3630SOL    HW211790   6.740   2.083   4.414
 3631SOL     OW11791   2.551   0.885   4.735
 3631SOL    HW111792   2.575   0.981   4.725
 3631SOL    HW211793   2.630   0.834   4.767
 3632SOL     OW11794   4.842   0.758   0.617
 3632SOL    HW111795   4.769   0.738   0.552
 3632SOL    HW211796   4.922   0.703   0.596
 3633SOL     OW11797   2.007   2.890   5.943
 3633SOL    HW111798   2.088   2.854   5.896
 3633SOL    HW211799   2.025   2.983   5.975
 3634SOL     OW11800   1.693   6.010   4.733
 3634SOL    HW111801   1.663   6.064   4.654
 3634SOL    HW211802   1.733   5.924   4.701
 3635SOL     OW11803   2.709   1.512   5.675
 3635SOL    HW111804   2.791   1.560   5.644
 3635SOL    HW211805   2.639   1.513   5.604
 3636SOL     OW11806   0.533   5.504   5.721
 3636SOL    HW111807   0.471   5.474   5.793
 3636SOL    HW211808   0.599   5.432   5.700
 3637SOL     OW11809   5.323   1.244   1.282
 3637SOL    HW111810   5.278   1.171   1.333
 3637SOL    HW211811   5.398   1.206   1.229
 3638SOL     OW11812   0.053   4.427   3.447
 3638SOL    HW111813   7.008   4.354   3.441
 3638SOL    HW211814   0.135   4.392   3.493
 3639SOL     OW11815   2.400   5.077   0.847
 3639SOL    HW111816   2.382   5.030   0.933
 3639SOL    HW211817   2.359   5.168   0.849
 3640SOL     OW11818   3.577   5.854   1.470
 3640SOL    HW111819   3.608   5.809   1.386
 3640SOL    HW211820   3.656   5.874   1.528
 3641SOL     OW11821   2.973   1.428   4.709
 3641SOL    HW111822   2.913   1.509   4.709
 3641SOL    HW211823   2.947   1.368   4.785
 3642SOL     OW11824   5.301   0.633   3.930
 3642SOL    HW111825   5.376   0.627   3.863
 3642SOL    HW211826   5.327   0.696   4.003
 3643SOL     OW11827   2.523   4.837   4.773
 3643SOL    HW111828   2.558   4.751   4.736
 3643SOL    HW211829   2.507   4.826   4.871
 3644SOL     OW11830   6.830   1.294   0.706
 3644SOL    HW111831   6.864   1.361   0.772
 3644SOL    HW211832   6.907   1.245   0.666
 3645SOL     OW11833   4.490   1.492   3.789
 3645SOL    HW111834   4.577   1.538   3.772
 3645SOL    HW211835   4.454   1.521   3.878
 3646SOL     OW11836   6.959   5.093   5.575
 3646SOL    HW111837   6.897   5.168   5.598
 3646SOL    HW211838   0.028   5.127   5.570
 3647SOL     OW11839   1.714   2.908   0.753
 3647SOL    HW111840   1.687   2.970   0.827
 3647SOL    HW211841   1.638   2.845   0.733
 3648SOL     OW11842   3.660   5.389   1.983
 3648SOL    HW111843   3.755   5.377   1.953
 3648SOL    HW211844   3.630   5.481   1.960
 3649SOL     OW11845   4.398   3.369   0.831
 3649SOL    HW111846   4.426   3.308   0.757
 3649SOL    HW211847   4.479   3.406   0.876
 3650SOL     OW11848   0.615   5.919   1.754
 3650SOL    HW111849   0.575   5.851   1.816
 3650SOL    HW211850   0.602   5.890   1.660
 3651SOL     OW11851   0.977   6.179   2.685
 3651SOL    HW111852   0.908   6.215   2.622
 3651SOL    HW211853   0.939   6.176   2.777
 3652SOL     OW11854   4.474   5.930   3.473
 3652SOL    HW111855   4.521   6.018   3.470
 3652SOL    HW211856   4.473   5.896   3.567
 3653SOL     OW11857   6.872   1.435   2.939
 3653SOL    HW111858   6.818   1.375   2.997
 3653SOL    HW211859   6.861   1.409   2.844
 3654SOL     OW11860   1.577   6.726   0.876
 3654SOL    HW111861   1.540   6.801   0.822
 3654SOL    HW211862   1.513   6.704   0.950
 3655SOL     OW11863   1.799   0.489   4.622
 3655SOL    HW111864   1.800   0.390   4.613
 3655SOL    HW211865   1.813   0.514   4.718
 3656SOL     OW11866   1.967   2.734   2.307
 3656SOL    HW111867   1.873   2.703   2.293
 3656SOL    HW211868   2.000   2.700   2.395
 3657SOL     OW11869   3.930   5.666   1.072
 3657SOL    HW111870   3.889   5.582   1.037
 3657SOL    HW211871   3.979   5.646   1.157
 3658SOL     OW11872   0.960   6.188   5.598
 3658SOL    HW111873   0.883   6.221   5.653
 3658SOL    HW211874   0.931   6.108   5.545
 3659SOL     OW11875   2.315   4.386   0.075
 3659SOL    HW111876   2.406   4.378   0.115
 3659SOL    HW211877   2.299   4.309   0.012
 3660SOL     OW11878   4.510   5.790   2.302
 3660SOL    HW111879   4.472   5.698   2.292
 3660SOL    HW211880   4.439   5.857   2.283
 3661SOL     OW11881   4.650   1.080   0.695
 3661SOL    HW111882   4.750   1.069   0.688
 3661SOL    HW211883   4.622   1.070   0.791
 3662SOL     OW11884   3.181   0.441   5.275
 3662SOL    HW111885   3.088   0.408   5.286
 3662SOL    HW211886   3.196   0.523   5.330
 3663SOL     OW11887   1.328   2.097   0.170
 3663SOL    HW111888   1.269   2.017   0.163
 3663SOL    HW211889   1.364   2.104   0.263
 3664SOL     OW11890   5.313   1.701   0.900
 3664SOL    HW111891   5.261   1.742   0.825
 3664SOL    HW211892   5.315   1.765   0.977
 3665SOL     OW11893   0.699   6.877   5.192
 3665SOL    HW111894   0.707   6.793   5.139
 3665SOL    HW211895   0.713   6.956   5.132
 3666SOL     OW11896   1.518   3.539   4.444
 3666SOL    HW111897   1.477   3.620   4.401
 3666SOL    HW211898   1.503   3.459   4.386
 3667SOL     OW11899   6.589   0.768   6.008
 3667SOL    HW111900   6.594   0.677   5.967
 3667SOL    HW211901   6.672   0.785   6.062
 3668SOL     OW11902   1.917   0.173   2.793
 3668SOL    HW111903   1.903   0.159   2.891
 3668SOL    HW211904   1.847   0.123   2.742
 3669SOL     OW11905   6.635   2.177   3.298
 3669SOL    HW111906   6.630   2.268   3.256
 3669SOL    HW211907   6.563   2.119   3.260
 3670SOL     OW11908   1.991   5.860   5.709
 3670SOL    HW111909   1.999   5.884   5.613
 3670SOL    HW211910   2.047   5.921   5.764
 3671SOL     OW11911   0.891   0.391   3.148
 3671SOL    HW111912   0.874   0.454   3.224
 3671SOL    HW211913   0.829   0.313   3.155
 3672SOL     OW11914   6.716   1.442   6.905
 3672SOL    HW111915   6.688   1.351   6.936
 3672SOL    HW211916   6.657   1.511   6.946
 3673SOL     OW11917   4.658   1.124   0.077
 3673SOL    HW111918   4.575   1.178   0.061
 3673SOL    HW211919   4.736   1.185   0.086
 3674SOL     OW11920   0.820   6.967   0.332
 3674SOL    HW111921   0.829   6.881   0.383
 3674SOL    HW211922   0.902   7.022   0.345
 3675SOL     OW11923   2.172   2.409   5.511
 3675SOL    HW111924   2.139   2.490   5.559
 3675SOL    HW211925   2.167   2.424   5.412
 3676SOL     OW11926   3.396   5.356   4.057
 3676SOL    HW111927   3.383   5.316   4.148
 3676SOL    HW211928   3.320   5.417   4.037
 3677SOL     OW11929   6.712   6.558   3.380
 3677SOL    HW111930   6.654   6.502   3.320
 3677SOL    HW211931   6.759   6.499   3.445
 3678SOL     OW11932   1.309   1.911   3.932
 3678SOL    HW111933   1.262   1.980   3.876
 3678SOL    HW211934   1.324   1.947   4.024
 3679SOL     OW11935   0.532   0.920   1.862
 3679SOL    HW111936   0.485   0.877   1.939
 3679SOL    HW211937   0.628   0.895   1.864
 3680SOL     OW11938   6.645   2.812   3.915
 3680SOL    HW111939   6.557   2.859   3.907
 3680SOL    HW211940   6.634   2.730   3.972
 3681SOL     OW11941   0.531   7.004   5.971
 3681SOL    HW111942   0.544   6.911   5.936
 3681SOL    HW211943   0.579   0.045   5.911
 3682SOL     OW11944   6.505   1.946   5.794
 3682SOL    HW111945   6.501   1.933   5.893
 3682SOL    HW211946   6.598   1.929   5.762
 3683SOL     OW11947   6.142   6.370   4.259
 3683SOL    HW111948   6.147   6.277   4.223
 3683SOL    HW211949   6.076   6.423   4.204
 3684SOL     OW11950   1.553   3.485   2.113
 3684SOL    HW111951   1.503   3.399   2.119
 3684SOL    HW211952   1.500   3.550   2.058
 3685SOL     OW11953   6.424   6.158   6.677
 3685SOL    HW111954   6.449   6.253   6.692
 3685SOL    HW211955   6.472   6.123   6.596
 3686SOL     OW11956   6.200   4.888   1.598
 3686SOL    HW111957   6.283   4.939   1.571
 3686SOL    HW211958   6.226   4.799   1.634
 3687SOL     OW11959   3.224   0.522   6.682
 3687SOL    HW111960   3.217   0.591   6.754
 3687SOL    HW211961   3.310   0.536   6.631
 3688SOL     OW11962   0.917   3.375   6.980
 3688SOL    HW111963   1.005   3.327   6.977
 3688SOL    HW211964   0.858   3.332   0.025
 3689SOL     OW11965   1.743   1.146   4.793
 3689SOL    HW111966   1.693   1.124   4.709
 3689SOL    HW211967   1.762   1.061   4.843
 3690SOL     OW11968   5.383   0.635   5.713
 3690SOL    HW111969   5.378   0.653   5.812
 3690SOL    HW211970   5.476   0.647   5.681
 3691SOL     OW11971   3.090   3.754   0.492
 3691SOL    HW111972   3.028   3.791   0.562
 3691SOL    HW211973   3.105   3.657   0.509
 3692SOL     OW11974   1.580   6.670   4.953
 3692SOL    HW111975   1.589   6.767   4.976
 3692SOL    HW211976   1.622   6.614   5.024
 3693SOL     OW11977   2.985   2.125   3.217
 3693SOL    HW111978   3.079   2.159   3.206
 3693SOL    HW211979   2.964   2.117   3.314
 3694SOL     OW11980   1.380   6.238   3.335
 3694SOL    HW111981   1.327   6.153   3.330
 3694SOL    HW211982   1.385   6.270   3.429
 3695SOL     OW11983   2.173   1.459   2.550
 3695SOL    HW111984   2.155   1.540   2.494
 3695SOL    HW211985   2.231   1.484   2.627
 3696SOL     OW11986   4.265   6.970   5.839
 3696SOL    HW111987   4.254   0.035   5.795
 3696SOL    HW211988   4.323   6.979   5.920
 3697SOL     OW11989   6.956   6.691   3.303
 3697SOL    HW111990   6.893   6.769   3.304
 3697SOL    HW211991   6.916   6.616   3.355
 3698SOL     OW11992   3.086   0.449   5.892
 3698SOL    HW111993   2.998   0.497   5.890
 3698SOL    HW211994   3.112   0.422   5.800
 3699SOL     OW11995   6.713   4.253   2.961
 3699SOL    HW111996   6.670   4.336   2.998
 3699SOL    HW211997   6.812   4.257   2.977
 3700SOL     OW11998   6.459   0.386   4.370
 3700SOL    HW111999   6.457   0.482   4.342
 3700SOL    HW212000   6.547   0.346   4.347
 3701SOL     OW12001   6.540   0.886   4.643
 3701SOL    HW112002   6.508   0.792   4.628
 3701SOL    HW212003   6.540   0.935   4.555
 3702SOL     OW12004   3.569   6.687   1.578
 3702SOL    HW112005   3.491   6.750   1.572
 3702SOL    HW212006   3.628   6.714   1.654
 3703SOL     OW12007   3.720   4.505   6.383
 3703SOL    HW112008   3.638   4.515   6.440
 3703SOL    HW212009   3.799   4.539   6.433
 3704SOL     OW12010   2.874   1.250   2.655
 3704SOL    HW112011   2.798   1.270   2.717
 3704SOL    HW212012   2.958   1.234   2.707
 3705SOL     OW12013   5.042   0.533   3.465
 3705SOL    HW112014   4.998   0.583   3.540
 3705SOL    HW212015   5.044   0.436   3.487
 3706SOL     OW12016   1.806   2.899   4.399
 3706SOL    HW112017   1.808   2.992   4.437
 3706SOL    HW212018   1.728   2.849   4.436
 3707SOL     OW12019   4.863   2.097   6.026
 3707SOL    HW112020   4.902   2.156   5.956
 3707SOL    HW212021   4.791   2.040   5.986
 3708SOL     OW12022   6.027   0.476   6.702
 3708SOL    HW112023   6.114   0.468   6.655
 3708SOL    HW212024   6.006   0.572   6.719
 3709SOL     OW12025   3.945   0.475   6.052
 3709SOL    HW112026   3.886   0.475   6.132
 3709SOL    HW212027   3.969   0.569   6.027
 3710SOL     OW12028   6.587   5.331   0.733
 3710SOL    HW112029   6.593   5.431   0.727
 3710SOL    HW212030   6.528   5.296   0.661
 3711SOL     OW12031   0.059   5.551   2.231
 3711SOL    HW112032   0.153   5.584   2.220
 3711SOL    HW212033   0.001   5.627   2.262
 3712SOL     OW12034   1.054   6.754   6.834
 3712SOL    HW112035   1.038   6.834   6.777
 3712SOL    HW212036   1.079   6.676   6.776
 3713SOL     OW12037   3.302   6.122   5.395
 3713SOL    HW112038   3.269   6.135   5.489
 3713SOL    HW212039   3.263   6.038   5.358
 3714SOL     OW12040   4.295   0.303   4.690
 3714SOL    HW112041   4.272   0.230   4.625
 3714SOL    HW212042   4.356   0.267   4.761
 3715SOL     OW12043   5.140   5.131   4.410
 3715SOL    HW112044   5.084   5.069   4.463
 3715SOL    HW212045   5.216   5.165   4.466
 3716SOL     OW12046   0.034   0.097   4.577
 3716SOL    HW112047   6.969   0.131   4.547
 3716SOL    HW212048   0.024   0.006   4.615
 3717SOL     OW12049   6.056   6.015   0.951
 3717SOL    HW112050   6.053   5.961   1.035
 3717SOL    HW212051   6.002   5.969   0.880
 3718SOL     OW12052   1.030   6.487   0.033
 3718SOL    HW112053   1.050   6.457   0.126
 3718SOL    HW212054   0.938   6.525   0.029
 3719SOL     OW12055   4.387   5.053   6.964
 3719SOL    HW112056   4.368   5.124   6.895
 3719SOL    HW212057   4.335   5.074   0.023
 3720SOL     OW12058   6.651   1.550   6.080
 3720SOL    HW112059   6.745   1.526   6.104
 3720SOL    HW212060   6.628   1.510   5.991
 3721SOL     OW12061   5.549   5.117   0.416
 3721SOL    HW112062   5.648   5.100   0.414
 3721SOL    HW212063   5.509   5.071   0.495
 3722SOL     OW12064   0.010   6.086   2.738
 3722SOL    HW112065   6.979   6.167   2.718
 3722SOL    HW212066   0.074   6.107   2.812
 3723SOL     OW12067   4.934   0.147   1.416
 3723SOL    HW112068   4.925   0.235   1.370
 3723SOL    HW212069   4.925   0.160   1.515
 3724SOL     OW12070   1.394   5.219   0.150
 3724SOL    HW112071   1.391   5.305   0.201
 3724SOL    HW212072   1.328   5.223   0.075
 3725SOL     OW12073   0.318   6.210   6.683
 3725SOL    HW112074   0.298   6.134   6.745
 3725SOL    HW212075   0.413   6.238   6.695
 3726SOL     OW12076   5.812   4.107   1.819
 3726SOL    HW112077   5.735   4.048   1.843
 3726SOL    HW212078   5.892   4.081   1.873
 3727SOL     OW12079   1.302   2.729   4.953
 3727SOL    HW112080   1.281   2.822   4.924
 3727SOL    HW212081   1.400   2.720   4.968
 3728SOL     OW12082   2.266   2.900   0.074
 3728SOL    HW112083   2.253   2.823   0.136
 3728SOL    HW212084   2.238   2.873   7.006
 3729SOL     OW12085   1.050   1.705   3.057
 3729SOL    HW112086   1.108   1.750   2.988
 3729SOL    HW212087   0.975   1.766   3.082
 3730SOL     OW12088   3.220   1.809   6.922
 3730SOL    HW112089   3.273   1.730   6.891
 3730SOL    HW212090   3.136   1.778   6.967
 3731SOL     OW12091   4.431   0.792   1.123
 3731SOL    HW112092   4.504   0.724   1.112
 3731SOL    HW212093   4.395   0.818   1.033
 3732SOL     OW12094   2.416   3.570   5.684
 3732SOL    HW112095   2.354   3.645   5.661
 3732SOL    HW212096   2.363   3.486   5.697
 3733SOL     OW12097   2.777   3.999   1.655
 3733SOL    HW112098   2.810   4.012   1.562
 3733SOL    HW212099   2.681   4.026   1.661
 3734SOL     OW12100   4.560   1.131   2.555
 3734SOL    HW112101   4.555   1.209   2.618
 3734SOL    HW212102   4.604   1.160   2.470
 3735SOL     OW12103   2.270   2.472   2.588
 3735SOL    HW112104   2.361   2.508   2.605
 3735SOL    HW212105   2.271   2.416   2.505
 3736SOL     OW12106   6.542   2.127   0.867
 3736SOL    HW112107   6.474   2.071   0.820
 3736SOL    HW212108   6.632   2.084   0.859
 3737SOL     OW12109   5.046   0.188   2.974
 3737SOL    HW112110   5.007   0.246   3.046
 3737SOL    HW212111   5.011   0.217   2.885
 3738SOL     OW12112   6.775   6.559   3.822
 3738SOL    HW112113   6.788   6.510   3.736
 3738SOL    HW212114   6.726   6.645   3.804
 3739SOL     OW12115   1.025   3.894   2.375
 3739SOL    HW112116   0.960   3.825   2.404
 3739SOL    HW212117   1.026   3.900   2.275
 3740SOL     OW12118   5.131   1.284   6.694
 3740SOL    HW112119   5.048   1.247   6.652
 3740SOL    HW212120   5.140   1.247   6.787
 3741SOL     OW12121   4.496   3.509   1.089
 3741SOL    HW112122   4.585   3.525   1.133
 3741SOL    HW212123   4.449   3.434   1.135
 3742SOL     OW12124   3.770   2.263   5.685
 3742SOL    HW112125   3.695   2.200   5.701
 3742SOL    HW212126   3.833   2.225   5.617
 3743SOL     OW12127   6.514   4.997   6.533
 3743SOL    HW112128   6.537   5.081   6.582
 3743SOL    HW212129   6.583   4.981   6.462
 3744SOL     OW12130   0.210   5.192   3.650
 3744SOL    HW112131   0.248   5.284   3.657
 3744SOL    HW212132   0.284   5.126   3.638
 3745SOL     OW12133   3.566   5.516   2.553
 3745SOL    HW112134   3.580   5.419   2.531
 3745SOL    HW212135   3.470   5.540   2.538
 3746SOL     OW12136   4.499   1.724   1.639
 3746SOL    HW112137   4.486   1.802   1.578
 3746SOL    HW212138   4.596   1.704   1.648
 3747SOL     OW12139   3.620   0.805   6.717
 3747SOL    HW112140   3.705   0.754   6.728
 3747SOL    HW212141   3.587   0.835   6.806
 3748SOL     OW12142   5.981   0.623   1.828
 3748SOL    HW112143   6.060   0.611   1.887
 3748SOL    HW212144   5.911   0.677   1.876
 3749SOL     OW12145   1.676   6.710   4.642
 3749SOL    HW112146   1.691   6.721   4.544
 3749SOL    HW212147   1.584   6.673   4.657
 3750SOL     OW12148   0.262   3.797   0.815
 3750SOL    HW112149   0.328   3.724   0.826
 3750SOL    HW212150   0.238   3.835   0.904
 3751SOL     OW12151   0.442   4.734   2.981
 3751SOL    HW112152   0.435   4.744   2.881
 3751SOL    HW212153   0.352   4.749   3.022
 3752SOL     OW12154   6.873   0.541   5.948
 3752SOL    HW112155   6.791   0.545   5.891
 3752SOL    HW212156   6.877   0.621   6.008
 3753SOL     OW12157   6.832   0.888   4.107
 3753SOL    HW112158   6.930   0.867   4.114
 3753SOL    HW212159   6.791   0.887   4.198
 3754SOL     OW12160   1.763   1.731   1.313
 3754SOL    HW112161   1.750   1.802   1.383
 3754SOL    HW212162   1.835   1.759   1.250
 3755SOL     OW12163   2.196   4.428   3.913
 3755SOL    HW112164   2.214   4.344   3.966
 3755SOL    HW212165   2.250   4.426   3.829
 3756SOL     OW12166   2.740   6.585   6.622
 3756SOL    HW112167   2.729   6.527   6.703
 3756SOL    HW212168   2.838   6.598   6.604
 3757SOL     OW12169   6.370   4.541   1.297
 3757SOL    HW112170   6.352   4.500   1.208
 3757SOL    HW212171   6.285   4.571   1.339
 3758SOL     OW12172   2.352   0.138   3.247
 3758SOL    HW112173   2.342   0.049   3.291
 3758SOL    HW212174   2.347   0.127   3.148
 3759SOL     OW12175   5.193   0.439   4.185
 3759SOL    HW112176   5.267   0.506   4.188
 3759SOL    HW212177   5.143   0.440   4.271
 3760SOL     OW12178   0.123   0.626   3.663
 3760SOL    HW112179   0.202   0.584   3.618
 3760SOL    HW212180   0.068   0.675   3.595
 3761SOL     OW12181   5.043   1.041   4.080
 3761SOL    HW112182   5.078   1.025   3.987
 3761SOL    HW212183   5.096   0.987   4.145
 3762SOL     OW12184   0.842   3.429   2.495
 3762SOL    HW112185   0.902   3.352   2.517
 3762SOL    HW212186   0.747   3.402   2.509
 3763SOL     OW12187   6.890   4.865   0.273
 3763SOL    HW112188   6.879   4.765   0.281
 3763SOL    HW212189   6.958   4.885   0.203
 3764SOL     OW12190   1.946   6.741   2.440
 3764SOL    HW112191   1.865   6.756   2.497
 3764SOL    HW212192   1.986   6.652   2.462
 3765SOL     OW12193   6.127   2.284   1.677
 3765SOL    HW112194   6.205   2.263   1.618
 3765SOL    HW212195   6.097   2.200   1.723
 3766SOL     OW12196   1.258   3.722   3.482
 3766SOL    HW112197   1.237   3.632   3.444
 3766SOL    HW212198   1.222   3.728   3.575
 3767SOL     OW12199   1.725   5.023   6.129
 3767SOL    HW112200   1.742   5.103   6.071
 3767SOL    HW212201   1.637   4.983   6.106
 3768SOL     OW12202   1.482   0.242   4.616
 3768SOL    HW112203   1.470   0.285   4.706
 3768SOL    HW212204   1.432   0.294   4.547
 3769SOL     OW12205   5.269   5.992   4.483
 3769SOL    HW112206   5.176   6.026   4.473
 3769SOL    HW212207   5.326   6.028   4.410
 3770SOL     OW12208   1.460   0.418   0.840
 3770SOL    HW112209   1.430   0.328   0.873
 3770SOL    HW212210   1.381   0.478   0.831
 3771SOL     OW12211   0.125   4.476   0.516
 3771SOL    HW112212   0.084   4.539   0.582
 3771SOL    HW212213   0.209   4.516   0.480
 3772SOL     OW12214   1.557   5.882   0.483
 3772SOL    HW112215   1.562   5.918   0.390
 3772SOL    HW212216   1.594   5.789   0.485
 3773SOL     OW12217   5.304   3.507   5.811
 3773SOL    HW112218   5.333   3.423   5.858
 3773SOL    HW212219   5.222   3.544   5.855
 3774SOL     OW12220   6.050   5.807   1.158
 3774SOL    HW112221   6.122   5.785   1.092
 3774SOL    HW212222   5.988   5.729   1.167
 3775SOL     OW12223   4.578   5.200   4.081
 3775SOL    HW112224   4.644   5.255   4.133
 3775SOL    HW212225   4.489   5.203   4.125
 3776SOL     OW12226   3.350   2.989   6.505
 3776SOL    HW112227   3.391   2.914   6.557
 3776SOL    HW212228   3.266   2.957   6.460
 3777SOL     OW12229   2.738   6.399   4.031
 3777SOL    HW112230   2.753   6.487   4.076
 3777SOL    HW212231   2.779   6.326   4.085
 3778SOL     OW12232   3.165   5.231   5.090
 3778SOL    HW112233   3.224   5.167   5.040
 3778SOL    HW212234   3.142   5.193   5.179
 3779SOL     OW12235   6.598   5.237   6.658
 3779SOL    HW112236   6.561   5.219   6.749
 3779SOL    HW212237   6.664   5.313   6.663
 3780SOL     OW12238   6.215   4.059   1.466
 3780SOL    HW112239   6.200   4.008   1.551
 3780SOL    HW212240   6.165   4.015   1.392
 3781SOL     OW12241   2.512   6.008   4.872
 3781SOL    HW112242   2.485   5.912   4.882
 3781SOL    HW212243   2.464   6.048   4.793
 3782SOL     OW12244   5.231   5.693   1.726
 3782SOL    HW112245   5.275   5.607   1.751
 3782SOL    HW212246   5.289   5.770   1.754
 3783SOL     OW12247   4.840   5.065   5.041
 3783SOL    HW112248   4.860   4.979   5.087
 3783SOL    HW212249   4.769   5.115   5.090
 3784SOL     OW12250   5.845   2.311   4.265
 3784SOL    HW112251   5.761   2.259   4.283
 3784SOL    HW212252   5.850   2.332   4.167
 3785SOL     OW12253   1.334   3.776   4.412
 3785SOL    HW112254   1.292   3.714   4.478
 3785SOL    HW212255   1.326   3.871   4.445
 3786SOL     OW12256   2.608   2.412   4.656
 3786SOL    HW112257   2.550   2.493   4.651
 3786SOL    HW212258   2.683   2.420   4.590
 3787SOL     OW12259   4.747   6.845   3.145
 3787SOL    HW112260   4.780   6.838   3.239
 3787SOL    HW212261   4.657   6.802   3.139
 3788SOL     OW12262   7.010   3.836   5.628
 3788SOL    HW112263   0.052   3.761   5.625
 3788SOL    HW212264   6.960   3.833   5.715
 3789SOL     OW12265   1.708   3.042   2.759
 3789SOL    HW112266   1.691   3.109   2.687
 3789SOL    HW212267   1.807   3.026   2.766
 3790SOL     OW12268   0.646   6.331   1.256
 3790SOL    HW112269   0.548   6.347   1.249
 3790SOL    HW212270   0.694   6.419   1.265
 3791SOL     OW12271   5.503   1.002   6.340
 3791SOL    HW112272   5.530   1.010   6.244
 3791SOL    HW212273   5.445   1.080   6.364
 3792SOL     OW12274   0.816   0.695   4.052
 3792SOL    HW112275   0.915   0.701   4.042
 3792SOL    HW212276   0.793   0.619   4.113
 3793SOL     OW12277   5.485   5.455   0.140
 3793SOL    HW112278   5.401   5.406   0.163
 3793SOL    HW212279   5.550   5.393   0.097
 3794SOL     OW12280   1.793   3.742   6.537
 3794SOL    HW112281   1.771   3.705   6.627
 3794SOL    HW212282   1.890   3.765   6.532
 3795SOL     OW12283   2.587   5.760   1.593
 3795SOL    HW112284   2.657   5.830   1.608
 3795SOL    HW212285   2.600   5.719   1.503
 3796SOL     OW12286   4.137   2.033   6.760
 3796SOL    HW112287   4.100   1.954   6.808
 3796SOL    HW212288   4.208   2.004   6.696
 3797SOL     OW12289   1.213   4.678   2.921
 3797SOL    HW112290   1.305   4.646   2.898
 3797SOL    HW212291   1.219   4.745   2.995
 3798SOL     OW12292   1.987   6.878   3.285
 3798SOL    HW112293   1.909   6.823   3.314
 3798SOL    HW212294   1.976   6.972   3.317
 3799SOL     OW12295   0.023   2.244   2.661
 3799SOL    HW112296   7.023   2.335   2.625
 3799SOL    HW212297   0.090   2.201   2.600
 3800SOL     OW12298   5.614   1.939   2.565
 3800SOL    HW112299   5.714   1.940   2.557
 3800SOL    HW212300   5.586   2.001   2.638
 3801SOL     OW12301   5.151   0.622   1.809
 3801SOL    HW112302   5.177   0.561   1.884
 3801SOL    HW212303   5.054   0.644   1.815
 3802SOL     OW12304   5.969   2.108   2.115
 3802SOL    HW112305   6.063   2.142   2.125
 3802SOL    HW212306   5.923   2.156   2.041
 3803SOL     OW12307   3.269   3.743   4.110
 3803SOL    HW112308   3.319   3.795   4.041
 3803SOL    HW212309   3.241   3.804   4.184
 3804SOL     OW12310   3.269   6.241   3.844
 3804SOL    HW112311   3.350   6.290   3.810
 3804SOL    HW212312   3.205   6.227   3.769
 3805SOL     OW12313   2.492   2.642   0.128
 3805SOL    HW112314   2.399   2.662   0.157
 3805SOL    HW212315   2.547   2.613   0.207
 3806SOL     OW12316   3.885   3.971   0.483
 3806SOL    HW112317   3.824   3.989   0.560
 3806SOL    HW212318   3.832   3.942   0.403
 3807SOL     OW12319   1.614   4.387   4.347
 3807SOL    HW112320   1.655   4.471   4.313
 3807SOL    HW212321   1.519   4.382   4.318
 3808SOL     OW12322   3.755   6.921   6.591
 3808SOL    HW112323   3.662   6.893   6.614
 3808SOL    HW212324   3.818   6.846   6.613
 3809SOL     OW12325   5.116   2.419   1.372
 3809SOL    HW112326   5.115   2.321   1.388
 3809SOL    HW212327   5.178   2.440   1.296
 3810SOL     OW12328   6.689   2.504   1.906
 3810SOL    HW112329   6.651   2.504   1.814
 3810SOL    HW212330   6.768   2.443   1.909
 3811SOL     OW12331   0.284   5.902   4.765
 3811SOL    HW112332   0.189   5.933   4.765
 3811SOL    HW212333   0.317   5.898   4.670
 3812SOL     OW12334   4.561   6.917   0.092
 3812SOL    HW112335   4.641   6.869   0.128
 3812SOL    HW212336   4.587   7.009   0.064
 3813SOL     OW12337   6.386   3.903   0.381
 3813SOL    HW112338   6.428   3.947   0.301
 3813SOL    HW212339   6.290   3.883   0.361
 3814SOL     OW12340   6.543   0.180   4.565
 3814SOL    HW112341   6.526   0.118   4.642
 3814SOL    HW212342   6.457   0.200   4.518
 3815SOL     OW12343   5.350   3.636   0.150
 3815SOL    HW112344   5.361   3.540   0.127
 3815SOL    HW212345   5.299   3.682   0.077
 3816SOL     OW12346   0.878   5.478   5.815
 3816SOL    HW112347   0.823   5.412   5.765
 3816SOL    HW212348   0.973   5.472   5.784
 3817SOL     OW12349   4.955   3.534   2.411
 3817SOL    HW112350   4.972   3.517   2.508
 3817SOL    HW212351   4.921   3.451   2.368
 3818SOL     OW12352   0.318   0.382   1.952
 3818SOL    HW112353   0.407   0.411   1.986
 3818SOL    HW212354   0.326   0.290   1.913
 3819SOL     OW12355   6.667   4.365   3.933
 3819SOL    HW112356   6.644   4.402   4.023
 3819SOL    HW212357   6.724   4.284   3.944
 3820SOL     OW12358   5.249   7.024   4.322
 3820SOL    HW112359   5.320   0.052   4.369
 3820SOL    HW212360   5.159   0.031   4.352
 3821SOL     OW12361   1.056   0.084   0.293
 3821SOL    HW112362   1.156   0.087   0.293
 3821SOL    HW212363   1.020   0.177   0.306
 3822SOL     OW12364   4.707   1.532   1.075
 3822SOL    HW112365   4.803   1.540   1.051
 3822SOL    HW212366   4.666   1.456   1.025
 3823SOL     OW12367   4.914   4.753   5.687
 3823SOL    HW112368   4.947   4.681   5.748
 3823SOL    HW212369   4.965   4.837   5.705
 3824SOL     OW12370   2.078   3.401   0.051
 3824SOL    HW112371   2.159   3.397   0.108
 3824SOL    HW212372   2.013   3.330   0.079
 3825SOL     OW12373   1.944   4.343   6.013
 3825SOL    HW112374   1.855   4.299   6.006
 3825SOL    HW212375   2.000   4.296   6.082
 3826SOL     OW12376   5.879   4.249   2.794
 3826SOL    HW112377   5.786   4.227   2.823
 3826SOL    HW212378   5.911   4.180   2.729
 3827SOL     OW12379   1.521   1.242   1.608
 3827SOL    HW112380   1.581   1.190   1.670
 3827SOL    HW212381   1.507   1.334   1.645
 3828SOL     OW12382   3.933   4.000   4.627
 3828SOL    HW112383   3.941   4.041   4.718
 3828SOL    HW212384   3.990   3.918   4.623
 3829SOL     OW12385   0.518   4.110   3.077
 3829SOL    HW112386   0.475   4.172   3.143
 3829SOL    HW212387   0.492   4.016   3.098
 3830SOL     OW12388   0.235   0.797   4.888
 3830SOL    HW112389   0.173   0.754   4.954
 3830SOL    HW212390   0.183   0.834   4.812
 3831SOL     OW12391   4.563   1.625   3.189
 3831SOL    HW112392   4.598   1.610   3.281
 3831SOL    HW212393   4.467   1.598   3.184
 3832SOL     OW12394   0.750   0.741   2.456
 3832SOL    HW112395   0.776   0.719   2.550
 3832SOL    HW212396   0.830   0.730   2.396
 3833SOL     OW12397   0.980   0.176   6.247
 3833SOL    HW112398   0.944   0.084   6.235
 3833SOL    HW212399   1.037   0.200   6.169
 3834SOL     OW12400   4.711   4.127   0.877
 3834SOL    HW112401   4.740   4.039   0.916
 3834SOL    HW212402   4.611   4.132   0.878
 3835SOL     OW12403   3.957   5.736   5.497
 3835SOL    HW112404   3.904   5.813   5.462
 3835SOL    HW212405   4.021   5.705   5.427
 3836SOL     OW12406   0.030   5.744   6.599
 3836SOL    HW112407   0.015   5.812   6.670
 3836SOL    HW212408   0.048   5.655   6.642
 3837SOL     OW12409   4.161   4.837   4.992
 3837SOL    HW112410   4.118   4.913   5.041
 3837SOL    HW212411   4.156   4.855   4.893
 3838SOL     OW12412   1.660   1.803   3.242
 3838SOL    HW112413   1.730   1.789   3.172
 3838SOL    HW212414   1.685   1.882   3.298
 3839SOL     OW12415   4.105   0.640   2.817
 3839SOL    HW112416   4.144   0.653   2.726
 3839SOL    HW212417   4.174   0.665   2.886
 3840SOL     OW12418   2.660   0.591   0.195
 3840SOL    HW112419   2.561   0.599   0.193
 3840SOL    HW212420   2.700   0.679   0.222
 3841SOL     OW12421   6.344   4.521   3.490
 3841SOL    HW112422   6.328   4.572   3.574
 3841SOL    HW212423   6.435   4.479   3.493
 3842SOL     OW12424   2.219   3.026   5.372
 3842SOL    HW112425   2.173   2.973   5.302
 3842SOL    HW212426   2.309   3.055   5.339
 3843SOL     OW12427   5.533   2.580   0.795
 3843SOL    HW112428   5.435   2.592   0.809
 3843SOL    HW212429   5.548   2.519   0.717
 3844SOL     OW12430   1.704   5.326   0.229
 3844SOL    HW112431   1.618   5.277   0.218
 3844SOL    HW212432   1.760   5.313   0.147
 3845SOL     OW12433   2.417   6.364   0.604
 3845SOL    HW112434   2.356   6.414   0.542
 3845SOL    HW212435   2.366   6.336   0.685
 3846SOL     OW12436   0.853   2.799   3.818
 3846SOL    HW112437   0.825   2.894   3.833
 3846SOL    HW212438   0.872   2.755   3.906
 3847SOL     OW12439   6.189   1.020   5.531
 3847SOL    HW112440   6.111   1.002   5.591
 3847SOL    HW212441   6.157   1.027   5.437
 3848SOL     OW12442   5.221   3.653   2.400
 3848SOL    HW112443   5.131   3.616   2.375
 3848SOL    HW212444   5.280   3.655   2.319
 3849SOL     OW12445   6.886   5.837   6.373
 3849SOL    HW112446   6.970   5.892   6.373
 3849SOL    HW212447   6.903   5.751   6.420
 3850SOL     OW12448   2.480   2.116   1.202
 3850SOL    HW112449   2.427   2.201   1.206
 3850SOL    HW212450   2.440   2.055   1.132
 3851SOL     OW12451   6.994   5.640   3.655
 3851SOL    HW112452   6.969   5.570   3.722
 3851SOL    HW212453   6.912   5.693   3.631
 3852SOL     OW12454   3.050   6.229   4.814
 3852SOL    HW112455   3.080   6.308   4.868
 3852SOL    HW212456   3.115   6.154   4.828
 3853SOL     OW12457   2.339   1.334   3.850
 3853SOL    HW112458   2.388   1.270   3.791
 3853SOL    HW212459   2.309   1.414   3.797
 3854SOL     OW12460   1.282   2.302   2.776
 3854SOL    HW112461   1.242   2.244   2.705
 3854SOL    HW212462   1.348   2.249   2.828
 3855SOL     OW12463   4.182   6.597   0.315
 3855SOL    HW112464   4.101   6.549   0.347
 3855SOL    HW212465   4.232   6.538   0.250
 3856SOL     OW12466   0.421   2.183   6.224
 3856SOL    HW112467   0.481   2.263   6.226
 3856SOL    HW212468   0.358   2.187   6.301
 3857SOL     OW12469   2.061   0.662   5.958
 3857SOL    HW112470   1.985   0.688   5.899
 3857SOL    HW212471   2.042   0.574   6.002
 3858SOL     OW12472   3.313   1.370   5.321
 3858SOL    HW112473   3.354   1.429   5.390
 3858SOL    HW212474   3.383   1.342   5.255
 3859SOL     OW12475   5.483   0.117   1.110
 3859SOL    HW112476   5.406   0.147   1.167
 3859SOL    HW212477   5.561   0.177   1.125
 3860SOL     OW12478   1.820   0.758   4.489
 3860SOL    HW112479   1.776   0.694   4.553
 3860SOL    HW212480   1.752   0.792   4.425
 3861SOL     OW12481   4.324   5.310   2.323
 3861SOL    HW112482   4.232   5.273   2.333
 3861SOL    HW212483   4.375   5.255   2.257
 3862SOL     OW12484   0.647   6.657   4.084
 3862SOL    HW112485   0.633   6.576   4.141
 3862SOL    HW212486   0.741   6.658   4.049
 3863SOL     OW12487   4.290   0.684   0.739
 3863SOL    HW112488   4.216   0.751   0.745
 3863SOL    HW212489   4.253   0.597   0.707
 3864SOL     OW12490   2.206   1.002   4.605
 3864SOL    HW112491   2.162   0.927   4.555
 3864SOL    HW212492   2.204   0.983   4.703
 3865SOL     OW12493   4.439   0.617   7.024
 3865SOL    HW112494   4.434   0.624   0.099
 3865SOL    HW212495   4.460   0.706   6.985
 3866SOL     OW12496   3.306   2.478   6.904
 3866SOL    HW112497   3.278   2.399   6.850
 3866SOL    HW212498   3.253   2.558   6.876
 3867SOL     OW12499   1.093   4.410   2.901
 3867SOL    HW112500   0.995   4.416   2.919
 3867SOL    HW212501   1.141   4.484   2.949
 3868SOL     OW12502   3.535   1.026   6.970
 3868SOL    HW112503   3.462   0.961   6.992
 3868SOL    HW212504   3.495   1.107   6.928
 3869SOL     OW12505   6.830   3.291   3.339
 3869SOL    HW112506   6.782   3.373   3.369
 3869SOL    HW212507   6.805   3.269   3.245
 3870SOL     OW12508   6.642   6.949   3.320
 3870SOL    HW112509   6.627   0.022   3.340
 3870SOL    HW212510   6.557   6.899   3.333
 3871SOL     OW12511   3.408   6.074   4.009
 3871SOL    HW112512   3.354   6.124   3.941
 3871SOL    HW212513   3.477   6.018   3.962
 3872SOL     OW12514   3.585   3.195   4.256
 3872SOL    HW112515   3.609   3.279   4.209
 3872SOL    HW212516   3.555   3.127   4.189
 3873SOL     OW12517   5.276   3.251   0.446
 3873SOL    HW112518   5.185   3.213   0.428
 3873SOL    HW212519   5.282   3.343   0.407
 3874SOL     OW12520   4.283   6.608   0.983
 3874SOL    HW112521   4.295   6.585   0.886
 3874SOL    HW212522   4.371   6.599   1.030
 3875SOL     OW12523   1.922   2.530   4.730
 3875SOL    HW112524   1.951   2.567   4.642
 3875SOL    HW212525   2.003   2.494   4.778
 3876SOL     OW12526   4.483   6.622   0.633
 3876SOL    HW112527   4.413   6.661   0.573
 3876SOL    HW212528   4.572   6.661   0.611
 3877SOL     OW12529   6.679   2.078   0.435
 3877SOL    HW112530   6.764   2.025   0.432
 3877SOL    HW212531   6.688   2.151   0.504
 3878SOL     OW12532   5.019   0.389   4.420
 3878SOL    HW112533   4.929   0.352   4.444
 3878SOL    HW212534   5.087   0.355   4.485
 3879SOL     OW12535   5.498   4.659   7.001
 3879SOL    HW112536   5.456   4.723   6.937
 3879SOL    HW212537   5.437   4.645   0.055
 3880SOL     OW12538   5.695   4.654   5.081
 3880SOL    HW112539   5.783   4.608   5.089
 3880SOL    HW212540   5.671   4.664   4.984
 3881SOL     OW12541   0.893   3.528   0.580
 3881SOL    HW112542   0.960   3.588   0.538
 3881SOL    HW212543   0.808   3.530   0.526
 3882SOL     OW12544   1.199   1.024   0.298
 3882SOL    HW112545   1.245   0.983   0.220
 3882SOL    HW212546   1.114   1.067   0.267
 3883SOL     OW12547   4.841   0.390   2.819
 3883SOL    HW112548   4.794   0.302   2.816
 3883SOL    HW212549   4.773   0.464   2.825
 3884SOL     OW12550   0.569   6.297   3.318
 3884SOL    HW112551   0.543   6.290   3.415
 3884SOL    HW212552   0.496   6.343   3.268
 3885SOL     OW12553   5.777   0.027   2.744
 3885SOL    HW112554   5.754   7.017   2.835
 3885SOL    HW212555   5.876   0.040   2.737
 3886SOL     OW12556   4.288   6.422   6.114
 3886SOL    HW112557   4.265   6.495   6.177
 3886SOL    HW212558   4.257   6.446   6.022
 3887SOL     OW12559   0.989   6.178   0.649
 3887SOL    HW112560   1.056   6.241   0.610
 3887SOL    HW212561   0.992   6.091   0.600
 3888SOL     OW12562   5.655   6.327   4.643
 3888SOL    HW112563   5.601   6.254   4.684
 3888SOL    HW212564   5.688   6.297   4.553
 3889SOL     OW12565   5.764   2.399   6.856
 3889SOL    HW112566   5.698   2.465   6.818
 3889SOL    HW212567   5.741   2.381   6.952
 3890SOL     OW12568   5.453   4.428   4.362
 3890SOL    HW112569   5.499   4.343   4.337
 3890SOL    HW212570   5.486   4.459   4.451
 3891SOL     OW12571   5.232   4.185   3.757
 3891SOL    HW112572   5.165   4.210   3.687
 3891SOL    HW212573   5.317   4.236   3.743
 3892SOL     OW12574   0.322   2.813   1.289
 3892SOL    HW112575   0.325   2.730   1.345
 3892SOL    HW212576   0.332   2.789   1.193
 3893SOL     OW12577   4.502   3.465   1.481
 3893SOL    HW112578   4.516   3.367   1.470
 3893SOL    HW212579   4.408   3.488   1.458
 3894SOL     OW12580   5.039   0.582   6.871
 3894SOL    HW112581   4.992   0.563   6.785
 3894SOL    HW212582   4.984   0.645   6.926
 3895SOL     OW12583   1.316   0.213   5.033
 3895SOL    HW112584   1.263   0.279   5.084
 3895SOL    HW212585   1.336   0.133   5.090
 3896SOL     OW12586   0.823   0.758   6.604
 3896SOL    HW112587   0.801   0.855   6.616
 3896SOL    HW212588   0.873   0.726   6.685
 3897SOL     OW12589   4.738   5.944   2.360
 3897SOL    HW112590   4.732   5.961   2.458
 3897SOL    HW212591   4.665   5.882   2.332
 3898SOL     OW12592   4.165   2.875   0.033
 3898SOL    HW112593   4.161   2.957   7.000
 3898SOL    HW212594   4.158   2.794   6.998
 3899SOL     OW12595   4.770   6.779   6.400
 3899SOL    HW112596   4.831   6.745   6.329
 3899SOL    HW212597   4.675   6.770   6.369
 3900SOL     OW12598   5.487   3.084   3.867
 3900SOL    HW112599   5.540   3.003   3.894
 3900SOL    HW212600   5.541   3.138   3.802
 3901SOL     OW12601   3.454   0.489   5.965
 3901SOL    HW112602   3.457   0.584   5.935
 3901SOL    HW212603   3.374   0.475   6.023
 3902SOL     OW12604   6.082   3.160   2.274
 3902SOL    HW112605   6.085   3.181   2.176
 3902SOL    HW212606   6.115   3.067   2.290
 3903SOL     OW12607   3.996   6.712   0.577
 3903SOL    HW112608   3.955   6.697   0.487
 3903SOL    HW212609   4.029   6.806   0.584
 3904SOL     OW12610   1.620   0.321   6.439
 3904SOL    HW112611   1.648   0.295   6.531
 3904SOL    HW212612   1.587   0.416   6.439
 3905SOL     OW12613   6.962   0.098   6.531
 3905SOL    HW112614   6.979   0.194   6.552
 3905SOL    HW212615   7.007   0.040   6.600
 3906SOL     OW12616   5.569   6.472   6.126
 3906SOL    HW112617   5.617   6.475   6.214
 3906SOL    HW212618   5.591   6.387   6.079
 3907SOL     OW12619   5.523   1.030   4.050
 3907SOL    HW112620   5.520   1.105   3.985
 3907SOL    HW212621   5.595   1.047   4.118
 3908SOL     OW12622   0.795   2.581   0.435
 3908SOL    HW112623   0.847   2.496   0.423
 3908SOL    HW212624   0.699   2.559   0.452
 3909SOL     OW12625   5.317   6.176   4.702
 3909SOL    HW112626   5.375   6.139   4.775
 3909SOL    HW212627   5.307   6.107   4.630
 3910SOL     OW12628   3.932   3.936   2.710
 3910SOL    HW112629   3.969   3.872   2.778
 3910SOL    HW212630   3.991   3.937   2.630
 3911SOL     OW12631   6.039   2.108   5.163
 3911SOL    HW112632   5.991   2.057   5.234
 3911SOL    HW212633   6.031   2.059   5.076
 3912SOL     OW12634   5.376   1.645   4.886
 3912SOL    HW112635   5.347   1.730   4.843
 3912SOL    HW212636   5.299   1.581   4.891
 3913SOL     OW12637   1.995   0.152   6.480
 3913SOL    HW112638   1.938   0.072   6.495
 3913SOL    HW212639   2.043   0.175   6.565
 3914SOL     OW12640   2.928   0.412   0.759
 3914SOL    HW112641   2.986   0.339   0.796
 3914SOL    HW212642   2.984   0.490   0.733
 3915SOL     OW12643   5.423   6.017   0.813
 3915SOL    HW112644   5.390   6.103   0.852
 3915SOL    HW212645   5.439   6.029   0.715
 3916SOL     OW12646   1.132   6.957   3.313
 3916SOL    HW112647   1.147   6.942   3.215
 3916SOL    HW212648   1.035   6.975   3.329
 3917SOL     OW12649   0.807   6.620   6.954
 3917SOL    HW112650   0.853   6.677   6.886
 3917SOL    HW212651   0.785   6.675   0.010
 3918SOL     OW12652   5.610   5.434   1.748
 3918SOL    HW112653   5.614   5.392   1.657
 3918SOL    HW212654   5.659   5.521   1.747
 3919SOL     OW12655   4.549   6.966   0.397
 3919SOL    HW112656   4.466   6.913   0.412
 3919SOL    HW212657   4.575   7.011   0.482
 3920SOL     OW12658   2.558   3.833   0.531
 3920SOL    HW112659   2.601   3.774   0.599
 3920SOL    HW212660   2.627   3.892   0.488
 3921SOL     OW12661   0.287   3.743   1.343
 3921SOL    HW112662   0.277   3.645   1.362
 3921SOL    HW212663   0.196   3.785   1.340
 3922SOL     OW12664   6.945   4.132   1.951
 3922SOL    HW112665   6.894   4.172   2.026
 3922SOL    HW212666   6.956   4.034   1.967
 3923SOL     OW12667   0.034   0.798   0.439
 3923SOL    HW112668   0.108   0.736   0.464
 3923SOL    HW212669   6.970   0.756   0.463
 3924SOL     OW12670   5.926   5.101   3.876
 3924SOL    HW112671   5.872   5.030   3.830
 3924SOL    HW212672   5.868   5.148   3.942
 3925SOL     OW12673   1.580   4.746   1.358
 3925SOL    HW112674   1.510   4.759   1.288
 3925SOL    HW212675   1.537   4.716   1.443
 3926SOL     OW12676   4.781   4.699   2.588
 3926SOL    HW112677   4.831   4.783   2.565
 3926SOL    HW212678   4.711   4.681   2.520
 3927SOL     OW12679   6.224   2.891   5.201
 3927SOL    HW112680   6.252   2.795   5.203
 3927SOL    HW212681   6.304   2.949   5.187
 3928SOL     OW12682   4.417   6.400   6.917
 3928SOL    HW112683   4.476   6.428   6.841
 3928SOL    HW212684   4.339   6.462   6.924
 3929SOL     OW12685   0.934   0.674   4.656
 3929SOL    HW112686   0.931   0.648   4.560
 3929SOL    HW212687   0.872   0.750   4.673
 3930SOL     OW12688   2.951   2.208   4.598
 3930SOL    HW112689   3.013   2.223   4.675
 3930SOL    HW212690   2.892   2.130   4.618
 3931SOL     OW12691   1.511   1.517   1.775
 3931SOL    HW112692   1.471   1.550   1.690
 3931SOL    HW212693   1.605   1.550   1.782
 3932SOL     OW12694   0.952   3.889   3.727
 3932SOL    HW112695   1.040   3.937   3.721
 3932SOL    HW212696   0.879   3.948   3.695
 3933SOL     OW12697   1.943   6.782   6.292
 3933SOL    HW112698   1.940   6.804   6.389
 3933SOL    HW212699   1.854   6.800   6.251
 3934SOL     OW12700   6.486   0.299   6.780
 3934SOL    HW112701   6.553   0.326   6.711
 3934SOL    HW212702   6.529   0.296   6.870
 3935SOL     OW12703   3.221   0.246   0.108
 3935SOL    HW112704   3.238   0.148   0.097
 3935SOL    HW212705   3.142   0.260   0.168
 3936SOL     OW12706   6.586   5.093   5.185
 3936SOL    HW112707   6.675   5.048   5.196
 3936SOL    HW212708   6.533   5.045   5.115
 3937SOL     OW12709   0.566   1.781   2.839
 3937SOL    HW112710   0.619   1.818   2.763
 3937SOL    HW212711   0.524   1.857   2.890
 3938SOL     OW12712   1.137   1.894   3.351
 3938SOL    HW112713   1.178   1.804   3.334
 3938SOL    HW212714   1.208   1.963   3.355
 3939SOL     OW12715   2.302   2.664   2.882
 3939SOL    HW112716   2.314   2.592   2.952
 3939SOL    HW212717   2.312   2.624   2.791
 3940SOL     OW12718   4.405   4.446   0.802
 3940SOL    HW112719   4.483   4.499   0.835
 3940SOL    HW212720   4.340   4.433   0.877
 3941SOL     OW12721   5.458   4.377   5.808
 3941SOL    HW112722   5.423   4.338   5.894
 3941SOL    HW212723   5.428   4.472   5.800
 3942SOL     OW12724   0.117   6.337   0.091
 3942SOL    HW112725   0.097   6.310   7.021
 3942SOL    HW212726   0.090   6.263   0.152
 3943SOL     OW12727   0.141   2.631   3.854
 3943SOL    HW112728   0.134   2.691   3.934
 3943SOL    HW212729   0.059   2.642   3.797
 3944SOL     OW12730   5.216   3.099   4.823
 3944SOL    HW112731   5.270   3.058   4.897
 3944SOL    HW212732   5.205   3.197   4.841
 3945SOL     OW12733   0.218   2.129   0.191
 3945SOL    HW112734   0.233   2.033   0.217
 3945SOL    HW212735   0.292   2.158   0.130
 3946SOL     OW12736   5.156   4.340   4.241
 3946SOL    HW112737   5.181   4.436   4.250
 3946SOL    HW212738   5.089   4.316   4.311
 3947SOL     OW12739   4.572   6.183   6.674
 3947SOL    HW112740   4.533   6.123   6.744
 3947SOL    HW212741   4.640   6.132   6.621
 3948SOL     OW12742   0.144   4.664   1.693
 3948SOL    HW112743   0.134   4.758   1.724
 3948SOL    HW212744   0.240   4.639   1.693
 3949SOL     OW12745   5.033   6.331   3.420
 3949SOL    HW112746   5.119   6.364   3.382
 3949SOL    HW212747   5.044   6.315   3.518
 3950SOL     OW12748   1.419   4.527   0.486
 3950SOL    HW112749   1.432   4.623   0.513
 3950SOL    HW212750   1.370   4.479   0.559
 3951SOL     OW12751   4.343   0.046   1.558
 3951SOL    HW112752   4.403   7.016   1.498
 3951SOL    HW212753   4.314   0.129   1.509
 3952SOL     OW12754   6.991   2.337   1.650
 3952SOL    HW112755   0.038   2.291   1.597
 3952SOL    HW212756   6.987   2.433   1.624
 3953SOL     OW12757   4.131   4.672   1.316
 3953SOL    HW112758   4.210   4.611   1.307
 3953SOL    HW212759   4.066   4.633   1.382
 3954SOL     OW12760   4.202   5.512   5.732
 3954SOL    HW112761   4.136   5.437   5.742
 3954SOL    HW212762   4.154   5.599   5.723
 3955SOL     OW12763   2.895   0.829   6.385
 3955SOL    HW112764   2.815   0.815   6.326
 3955SOL    HW212765   2.955   0.897   6.344
 3956SOL     OW12766   1.434   0.614   2.355
 3956SOL    HW112767   1.513   0.663   2.394
 3956SOL    HW212768   1.424   0.526   2.401
 3957SOL     OW12769   3.825   0.256   4.459
 3957SOL    HW112770   3.886   0.182   4.488
 3957SOL    HW212771   3.879   0.336   4.435
 3958SOL     OW12772   5.911   1.691   4.149
 3958SOL    HW112773   5.977   1.736   4.208
 3958SOL    HW212774   5.890   1.600   4.185
 3959SOL     OW12775   5.381   5.875   0.315
 3959SOL    HW112776   5.310   5.808   0.294
 3959SOL    HW212777   5.470   5.829   0.317
 3960SOL     OW12778   5.062   0.821   6.129
 3960SOL    HW112779   5.012   0.749   6.178
 3960SOL    HW212780   5.022   0.910   6.152
 3961SOL     OW12781   4.461   0.895   2.914
 3961SOL    HW112782   4.452   0.921   2.817
 3961SOL    HW212783   4.417   0.807   2.929
 3962SOL     OW12784   1.743   5.100   6.379
 3962SOL    HW112785   1.669   5.165   6.362
 3962SOL    HW212786   1.752   5.038   6.301
 3963SOL     OW12787   4.063   5.127   2.616
 3963SOL    HW112788   3.979   5.073   2.619
 3963SOL    HW212789   4.079   5.159   2.523
 3964SOL     OW12790   5.107   4.512   3.554
 3964SOL    HW112791   5.141   4.533   3.645
 3964SOL    HW212792   5.163   4.558   3.486
 3965SOL     OW12793   4.983   3.548   4.378
 3965SOL    HW112794   4.946   3.455   4.382
 3965SOL    HW212795   4.948   3.594   4.296
 3966SOL     OW12796   3.969   5.959   6.649
 3966SOL    HW112797   3.899   5.888   6.638
 3966SOL    HW212798   4.000   5.988   6.558
 3967SOL     OW12799   1.785   4.257   1.984
 3967SOL    HW112800   1.870   4.243   2.035
 3967SOL    HW212801   1.796   4.223   1.890
 3968SOL     OW12802   4.121   0.167   1.069
 3968SOL    HW112803   4.053   0.241   1.065
 3968SOL    HW212804   4.075   0.081   1.087
 3969SOL     OW12805   1.142   4.820   2.082
 3969SOL    HW112806   1.216   4.823   2.148
 3969SOL    HW212807   1.076   4.749   2.109
 3970SOL     OW12808   4.785   5.868   2.942
 3970SOL    HW112809   4.729   5.937   2.895
 3970SOL    HW212810   4.730   5.786   2.956
 3971SOL     OW12811   2.943   5.351   4.107
 3971SOL    HW112812   2.969   5.302   4.190
 3971SOL    HW212813   2.947   5.450   4.125
 3972SOL     OW12814   1.727   4.101   6.754
 3972SOL    HW112815   1.644   4.087   6.807
 3972SOL    HW212816   1.806   4.068   6.806
 3973SOL     OW12817   1.199   5.566   0.247
 3973SOL    HW112818   1.278   5.516   0.281
 3973SOL    HW212819   1.116   5.532   0.292
 3974SOL     OW12820   1.676   0.048   5.911
 3974SOL    HW112821   1.755   0.029   5.970
 3974SOL    HW212822   1.708   0.069   5.818
 3975SOL     OW12823   4.973   1.059   6.282
 3975SOL    HW112824   5.035   1.135   6.299
 3975SOL    HW212825   4.965   1.003   6.364
 3976SOL     OW12826   2.120   6.098   3.330
 3976SOL    HW112827   2.114   5.999   3.323
 3976SOL    HW212828   2.211   6.124   3.364
 3977SOL     OW12829   1.278   2.855   6.465
 3977SOL    HW112830   1.297   2.952   6.452
 3977SOL    HW212831   1.315   2.803   6.389
 3978SOL     OW12832   5.766   5.050   3.468
 3978SOL    HW112833   5.753   5.004   3.556
 3978SOL    HW212834   5.691   5.025   3.407
 3979SOL     OW12835   3.930   0.921   6.591
 3979SOL    HW112836   3.930   0.848   6.659
 3979SOL    HW212837   3.871   0.996   6.621
 3980SOL     OW12838   5.525   6.480   6.577
 3980SOL    HW112839   5.553   6.520   6.664
 3980SOL    HW212840   5.603   6.435   6.533
 3981SOL     OW12841   4.499   5.841   0.550
 3981SOL    HW112842   4.497   5.897   0.633
 3981SOL    HW212843   4.487   5.745   0.575
 3982SOL     OW12844   2.516   6.734   2.868
 3982SOL    HW112845   2.417   6.745   2.860
 3982SOL    HW212846   2.537   6.642   2.900
 3983SOL     OW12847   5.195   5.040   3.703
 3983SOL    HW112848   5.154   5.127   3.674
 3983SOL    HW212849   5.256   5.006   3.631
 3984SOL     OW12850   6.287   1.074   1.769
 3984SOL    HW112851   6.359   1.138   1.793
 3984SOL    HW212852   6.269   1.014   1.847
 3985SOL     OW12853   3.296   5.696   6.804
 3985SOL    HW112854   3.384   5.666   6.769
 3985SOL    HW212855   3.231   5.704   6.728
 3986SOL     OW12856   5.059   2.029   2.449
 3986SOL    HW112857   4.988   1.963   2.426
 3986SOL    HW212858   5.043   2.114   2.399
 3987SOL     OW12859   3.415   4.888   4.127
 3987SOL    HW112860   3.397   4.903   4.030
 3987SOL    HW212861   3.484   4.954   4.158
 3988SOL     OW12862   3.739   5.348   6.828
 3988SOL    HW112863   3.748   5.395   6.916
 3988SOL    HW212864   3.665   5.281   6.833
 3989SOL     OW12865   0.044   2.222   6.920
 3989SOL    HW112866   0.058   2.267   7.009
 3989SOL    HW212867   0.075   2.282   6.847
 3990SOL     OW12868   5.061   2.885   2.375
 3990SOL    HW112869   5.084   2.913   2.282
 3990SOL    HW212870   5.144   2.861   2.424
 3991SOL     OW12871   6.840   1.444   1.633
 3991SOL    HW112872   6.779   1.453   1.554
 3991SOL    HW212873   6.790   1.467   1.717
 3992SOL     OW12874   2.716   2.308   0.483
 3992SOL    HW112875   2.662   2.229   0.511
 3992SOL    HW212876   2.764   2.346   0.562
 3993SOL     OW12877   1.474   2.689   2.421
 3993SOL    HW112878   1.508   2.783   2.424
 3993SOL    HW212879   1.454   2.658   2.514
 3994SOL     OW12880   2.867   0.264   5.756
 3994SOL    HW112881   2.889   0.178   5.802
 3994SOL    HW212882   2.950   0.316   5.741
 3995SOL     OW12883   1.926   3.843   5.663
 3995SOL    HW112884   1.930   3.895   5.748
 3995SOL    HW212885   1.910   3.747   5.684
 3996SOL     OW12886   0.184   6.661   5.230
 3996SOL    HW112887   0.219   6.664   5.137
 3996SOL    HW212888   0.261   6.650   5.294
 3997SOL     OW12889   5.387   1.503   3.810
 3997SOL    HW112890   5.327   1.423   3.804
 3997SOL    HW212891   5.416   1.530   3.718
 3998SOL     OW12892   3.704   1.120   4.427
 3998SOL    HW112893   3.627   1.182   4.413
 3998SOL    HW212894   3.685   1.060   4.504
 3999SOL     OW12895   5.939   2.290   3.988
 3999SOL    HW112896   5.995   2.346   3.926
 3999SOL    HW212897   5.969   2.195   3.982
 4000SOL     OW12898   3.035   6.726   4.272
 4000SOL    HW112899   3.050   6.717   4.370
 4000SOL    HW212900   3.015   6.822   4.250
 4001SOL     OW12901   2.618   1.453   4.372
 4001SOL    HW112902   2.695   1.390   4.381
 4001SOL    HW212903   2.558   1.422   4.299
 4002SOL     OW12904   2.775   3.523   1.695
 4002SOL    HW112905   2.691   3.474   1.721
 4002SOL    HW212906   2.790   3.515   1.597
 4003SOL     OW12907   3.416   0.284   4.159
 4003SOL    HW112908   3.381   0.307   4.069
 4003SOL    HW212909   3.477   0.205   4.152
 4004SOL     OW12910   6.632   2.339   4.239
 4004SOL    HW112911   6.583   2.303   4.159
 4004SOL    HW212912   6.568   2.353   4.314
 4005SOL     OW12913   4.719   5.548   5.989
 4005SOL    HW112914   4.795   5.483   6.001
 4005SOL    HW212915   4.633   5.502   6.009
 4006SOL     OW12916   3.899   5.089   2.117
 4006SOL    HW112917   3.812   5.138   2.128
 4006SOL    HW212918   3.929   5.097   2.022
 4007SOL     OW12919   0.069   2.791   6.759
 4007SOL    HW112920   0.136   2.848   6.805
 4007SOL    HW212921   0.080   2.799   6.660
 4008SOL     OW12922   2.704   2.332   4.922
 4008SOL    HW112923   2.615   2.338   4.967
 4008SOL    HW212924   2.706   2.394   4.844
 4009SOL     OW12925   4.087   3.159   2.310
 4009SOL    HW112926   4.095   3.241   2.253
 4009SOL    HW212927   4.080   3.186   2.406
 4010SOL     OW12928   2.332   2.963   1.714
 4010SOL    HW112929   2.289   2.989   1.628
 4010SOL    HW212930   2.331   3.041   1.777
 4011SOL     OW12931   0.889   2.002   2.306
 4011SOL    HW112932   0.925   2.011   2.399
 4011SOL    HW212933   0.947   1.940   2.253
 4012SOL     OW12934   6.783   4.200   2.155
 4012SOL    HW112935   6.690   4.172   2.178
 4012SOL    HW212936   6.783   4.295   2.124
 4013SOL     OW12937   3.981   2.195   4.626
 4013SOL    HW112938   4.014   2.276   4.675
 4013SOL    HW212939   4.019   2.194   4.534
 4014SOL     OW12940   6.168   6.531   2.617
 4014SOL    HW112941   6.150   6.532   2.715
 4014SOL    HW212942   6.101   6.472   2.572
 4015SOL     OW12943   4.296   4.255   6.248
 4015SOL    HW112944   4.313   4.234   6.344
 4015SOL    HW212945   4.198   4.252   6.230
 4016SOL     OW12946   2.395   6.323   5.868
 4016SOL    HW112947   2.368   6.365   5.955
 4016SOL    HW212948   2.441   6.236   5.885
 4017SOL     OW12949   0.082   5.538   0.298
 4017SOL    HW112950   0.155   5.574   0.239
 4017SOL    HW212951   0.111   5.450   0.336
 4018SOL     OW12952   4.561   5.593   1.841
 4018SOL    HW112953   4.630   5.532   1.879
 4018SOL    HW212954   4.579   5.687   1.872
 4019SOL     OW12955   5.373   4.332   2.254
 4019SOL    HW112956   5.333   4.345   2.345
 4019SOL    HW212957   5.305   4.354   2.184
 4020SOL     OW12958   4.724   2.687   5.265
 4020SOL    HW112959   4.782   2.723   5.337
 4020SOL    HW212960   4.727   2.587   5.267
 4021SOL     OW12961   2.917   5.369   5.944
 4021SOL    HW112962   2.900   5.272   5.928
 4021SOL    HW212963   2.909   5.389   6.041
 4022SOL     OW12964   5.072   1.574   0.233
 4022SOL    HW112965   4.976   1.603   0.234
 4022SOL    HW212966   5.121   1.616   0.309
 4023SOL     OW12967   6.439   2.104   4.947
 4023SOL    HW112968   6.384   2.142   4.872
 4023SOL    HW212969   6.382   2.096   5.029
 4024SOL     OW12970   4.057   5.283   4.134
 4024SOL    HW112971   4.080   5.202   4.080
 4024SOL    HW212972   4.118   5.358   4.108
 4025SOL     OW12973   0.634   3.888   3.855
 4025SOL    HW112974   0.689   3.806   3.861
 4025SOL    HW212975   0.594   3.908   3.945
 4026SOL     OW12976   5.289   5.916   3.721
 4026SOL    HW112977   5.194   5.890   3.701
 4026SOL    HW212978   5.315   5.994   3.664
 4027SOL     OW12979   4.183   4.769   1.748
 4027SOL    HW112980   4.251   4.839   1.727
 4027SOL    HW212981   4.228   4.681   1.758
 4028SOL     OW12982   2.303   1.529   3.638
 4028SOL    HW112983   2.277   1.601   3.703
 4028SOL    HW212984   2.388   1.556   3.591
 4029SOL     OW12985   1.595   4.791   5.827
 4029SOL    HW112986   1.645   4.860   5.774
 4029SOL    HW212987   1.660   4.730   5.872
 4030SOL     OW12988   0.895   2.080   5.376
 4030SOL    HW112989   0.933   1.988   5.367
 4030SOL    HW212990   0.945   2.130   5.446
 4031SOL     OW12991   4.140   5.721   4.266
 4031SOL    HW112992   4.126   5.775   4.182
 4031SOL    HW212993   4.170   5.629   4.241
 4032SOL     OW12994   5.580   0.155   4.014
 4032SOL    HW112995   5.485   0.123   4.006
 4032SOL    HW212996   5.628   0.136   3.928
 4033SOL     OW12997   3.130   3.473   5.201
 4033SOL    HW112998   3.065   3.482   5.277
 4033SOL    HW212999   3.162   3.378   5.196
 4034SOL     OW13000   6.895   1.924   4.051
 4034SOL    HW113001   6.993   1.905   4.041
 4034SOL    HW213002   6.846   1.880   3.976
 4035SOL     OW13003   0.256   4.582   0.015
 4035SOL    HW113004   0.298   4.644   0.081
 4035SOL    HW213005   0.268   4.617   6.946
 4036SOL     OW13006   6.305   0.154   2.785
 4036SOL    HW113007   6.347   0.244   2.784
 4036SOL    HW213008   6.376   0.083   2.790
 4037SOL     OW13009   0.484   3.424   7.003
 4037SOL    HW113010   0.549   3.438   6.929
 4037SOL    HW213011   0.393   3.455   6.974
 4038SOL     OW13012   5.578   4.195   3.733
 4038SOL    HW113013   5.558   4.169   3.828
 4038SOL    HW213014   5.638   4.276   3.734
 4039SOL     OW13015   5.228   6.301   0.188
 4039SOL    HW113016   5.209   6.399   0.181
 4039SOL    HW213017   5.199   6.267   0.277
 4040SOL     OW13018   3.001   6.595   1.439
 4040SOL    HW113019   3.059   6.598   1.358
 4040SOL    HW213020   3.057   6.611   1.520
 4041SOL     OW13021   1.434   6.306   3.609
 4041SOL    HW113022   1.397   6.398   3.597
 4041SOL    HW213023   1.416   6.275   3.702
 4042SOL     OW13024   5.954   5.190   1.990
 4042SOL    HW113025   6.043   5.177   1.945
 4042SOL    HW213026   5.923   5.283   1.975
 4043SOL     OW13027   6.295   2.112   0.717
 4043SOL    HW113028   6.246   2.058   0.649
 4043SOL    HW213029   6.238   2.124   0.799
 4044SOL     OW13030   5.667   0.105   3.454
 4044SOL    HW113031   5.630   0.041   3.387
 4044SOL    HW213032   5.631   0.083   3.545
 4045SOL     OW13033   2.557   5.559   6.105
 4045SOL    HW113034   2.516   5.521   6.188
 4045SOL    HW213035   2.651   5.527   6.097
 4046SOL     OW13036   1.029   3.436   1.526
 4046SOL    HW113037   1.062   3.408   1.436
 4046SOL    HW213038   0.935   3.468   1.518
 4047SOL     OW13039   3.003   3.835   1.656
 4047SOL    HW113040   2.918   3.878   1.687
 4047SOL    HW213041   3.007   3.838   1.556
 4048SOL     OW13042   4.949   0.409   0.833
 4048SOL    HW113043   5.000   0.385   0.916
 4048SOL    HW213044   4.996   0.483   0.785
 4049SOL     OW13045   5.095   0.141   4.835
 4049SOL    HW113046   5.049   0.058   4.865
 4049SOL    HW213047   5.062   0.167   4.745
 4050SOL     OW13048   2.239   0.488   0.697
 4050SOL    HW113049   2.232   0.397   0.738
 4050SOL    HW213050   2.252   0.479   0.599
 4051SOL     OW13051   3.540   4.138   1.528
 4051SOL    HW113052   3.468   4.184   1.579
 4051SOL    HW213053   3.614   4.111   1.590
 4052SOL     OW13054   0.839   0.382   1.195
 4052SOL    HW113055   0.757   0.334   1.164
 4052SOL    HW213056   0.812   0.454   1.260
 4053SOL     OW13057   3.802   4.867   3.559
 4053SOL    HW113058   3.831   4.895   3.650
 4053SOL    HW213059   3.882   4.851   3.502
 4054SOL     OW13060   4.271   2.552   1.128
 4054SOL    HW113061   4.316   2.559   1.217
 4054SOL    HW213062   4.234   2.641   1.102
 4055SOL     OW13063   3.878   1.651   6.594
 4055SOL    HW113064   3.878   1.692   6.502
 4055SOL    HW213065   3.879   1.724   6.663
 4056SOL     OW13066   3.951   3.437   0.699
 4056SOL    HW113067   3.989   3.381   0.772
 4056SOL    HW213068   3.930   3.529   0.734
 4057SOL     OW13069   5.208   2.973   6.657
 4057SOL    HW113070   5.266   3.045   6.621
 4057SOL    HW213071   5.147   3.012   6.727
 4058SOL     OW13072   1.559   0.878   5.188
 4058SOL    HW113073   1.594   0.956   5.239
 4058SOL    HW213074   1.482   0.906   5.131
 4059SOL     OW13075   0.231   1.372   4.296
 4059SOL    HW113076   0.311   1.371   4.236
 4059SOL    HW213077   0.255   1.332   4.384
 4060SOL     OW13078   4.539   5.128   4.514
 4060SOL    HW113079   4.613   5.194   4.498
 4060SOL    HW213080   4.512   5.087   4.427
 4061SOL     OW13081   3.197   2.972   1.630
 4061SOL    HW113082   3.240   2.974   1.720
 4061SOL    HW213083   3.240   2.900   1.575
 4062SOL     OW13084   2.503   0.265   3.488
 4062SOL    HW113085   2.416   0.262   3.537
 4062SOL    HW213086   2.490   0.312   3.401
 4063SOL     OW13087   3.042   5.088   6.329
 4063SOL    HW113088   2.995   5.078   6.416
 4063SOL    HW213089   2.994   5.035   6.258
 4064SOL     OW13090   6.989   0.423   3.813
 4064SOL    HW113091   7.004   0.461   3.905
 4064SOL    HW213092   0.009   0.482   3.746
 4065SOL     OW13093   5.722   5.558   6.990
 4065SOL    HW113094   5.791   5.549   6.918
 4065SOL    HW213095   5.653   5.487   6.979
 4066SOL     OW13096   6.177   4.330   1.556
 4066SOL    HW113097   6.189   4.231   1.555
 4066SOL    HW213098   6.123   4.356   1.636
 4067SOL     OW13099   5.826   0.779   2.072
 4067SOL    HW113100   5.767   0.766   2.152
 4067SOL    HW213101   5.771   0.769   1.988
 4068SOL     OW13102   6.310   0.350   3.642
 4068SOL    HW113103   6.247   0.371   3.717
 4068SOL    HW213104   6.369   0.273   3.669
 4069SOL     OW13105   6.409   5.522   1.014
 4069SOL    HW113106   6.498   5.565   0.999
 4069SOL    HW213107   6.400   5.495   1.110
 4070SOL     OW13108   1.537   3.095   2.984
 4070SOL    HW113109   1.613   3.099   3.049
 4070SOL    HW213110   1.573   3.073   2.893
 4071SOL     OW13111   1.542   6.420   3.971
 4071SOL    HW113112   1.483   6.476   4.029
 4071SOL    HW213113   1.568   6.337   4.021
 4072SOL     OW13114   1.322   0.320   4.428
 4072SOL    HW113115   1.265   0.392   4.467
 4072SOL    HW213116   1.268   0.237   4.417
 4073SOL     OW13117   2.019   5.430   6.464
 4073SOL    HW113118   2.098   5.415   6.523
 4073SOL    HW213119   1.938   5.388   6.506
 4074SOL     OW13120   1.865   3.339   0.565
 4074SOL    HW113121   1.813   3.292   0.636
 4074SOL    HW213122   1.937   3.279   0.530
 4075SOL     OW13123   4.690   1.597   3.442
 4075SOL    HW113124   4.789   1.599   3.437
 4075SOL    HW213125   4.660   1.504   3.464
 4076SOL     OW13126   1.830   2.886   4.109
 4076SOL    HW113127   1.832   2.887   4.209
 4076SOL    HW213128   1.738   2.907   4.076
 4077SOL     OW13129   3.024   1.612   0.241
 4077SOL    HW113130   2.956   1.540   0.260
 4077SOL    HW213131   3.032   1.671   0.321
 4078SOL     OW13132   5.858   3.774   1.855
 4078SOL    HW113133   5.759   3.763   1.868
 4078SOL    HW213134   5.890   3.709   1.787
 4079SOL     OW13135   0.587   0.695   3.730
 4079SOL    HW113136   0.666   0.690   3.668
 4079SOL    HW213137   0.581   0.612   3.784
 4080SOL     OW13138   3.316   2.996   1.899
 4080SOL    HW113139   3.234   3.050   1.916
 4080SOL    HW213140   3.314   2.914   1.956
 4081SOL     OW13141   2.302   2.080   6.017
 4081SOL    HW113142   2.274   2.125   6.103
 4081SOL    HW213143   2.391   2.116   5.989
 4082SOL     OW13144   1.143   2.626   4.735
 4082SOL    HW113145   1.118   2.531   4.751
 4082SOL    HW213146   1.191   2.662   4.815
 4083SOL     OW13147   5.370   5.376   3.039
 4083SOL    HW113148   5.411   5.433   2.967
 4083SOL    HW213149   5.412   5.285   3.036
 4084SOL     OW13150   4.819   1.022   3.706
 4084SOL    HW113151   4.750   0.972   3.655
 4084SOL    HW213152   4.783   1.045   3.797
 4085SOL     OW13153   4.021   4.784   2.473
 4085SOL    HW113154   4.056   4.746   2.558
 4085SOL    HW213155   3.935   4.832   2.491
 4086SOL     OW13156   6.210   5.086   6.060
 4086SOL    HW113157   6.239   5.161   6.120
 4086SOL    HW213158   6.129   5.042   6.098
 4087SOL     OW13159   2.314   6.918   2.686
 4087SOL    HW113160   2.287   6.825   2.658
 4087SOL    HW213161   2.355   6.966   2.609
 4088SOL     OW13162   0.503   1.868   5.294
 4088SOL    HW113163   0.538   1.775   5.283
 4088SOL    HW213164   0.445   1.891   5.216
 4089SOL     OW13165   0.983   0.600   3.002
 4089SOL    HW113166   1.081   0.617   2.992
 4089SOL    HW213167   0.969   0.512   3.047
 4090SOL     OW13168   3.108   1.353   6.201
 4090SOL    HW113169   3.202   1.385   6.186
 4090SOL    HW213170   3.111   1.268   6.254
 4091SOL     OW13171   2.966   6.165   1.490
 4091SOL    HW113172   3.007   6.180   1.580
 4091SOL    HW213173   3.029   6.195   1.419
 4092SOL     OW13174   5.554   2.868   4.031
 4092SOL    HW113175   5.576   2.848   4.126
 4092SOL    HW213176   5.632   2.846   3.973
 4093SOL     OW13177   5.018   4.800   3.691
 4093SOL    HW113178   5.087   4.869   3.712
 4093SOL    HW213179   5.011   4.788   3.592
 4094SOL     OW13180   6.759   5.387   0.027
 4094SOL    HW113181   6.852   5.366   0.055
 4094SOL    HW213182   6.704   5.411   0.107
 4095SOL     OW13183   0.753   4.881   6.706
 4095SOL    HW113184   0.846   4.894   6.739
 4095SOL    HW213185   0.724   4.787   6.724
 4096SOL     OW13186   1.087   1.305   6.850
 4096SOL    HW113187   1.015   1.336   6.787
 4096SOL    HW213188   1.133   1.385   6.889
 4097SOL     OW13189   6.819   4.767   5.527
 4097SOL    HW113190   6.788   4.788   5.434
 4097SOL    HW213191   6.890   4.697   5.523
 4098SOL     OW13192   2.123   4.368   3.309
 4098SOL    HW113193   2.191   4.422   3.358
 4098SOL    HW213194   2.034   4.379   3.352
 4099SOL     OW13195   4.421   4.413   6.051
 4099SOL    HW113196   4.381   4.348   6.115
 4099SOL    HW213197   4.406   4.506   6.084
 4100SOL     OW13198   1.583   0.112   3.748
 4100SOL    HW113199   1.547   0.169   3.822
 4100SOL    HW213200   1.682   0.126   3.741
 4101SOL     OW13201   6.126   6.285   0.020
 4101SOL    HW113202   6.109   6.272   6.946
 4101SOL    HW213203   6.222   6.263   0.041
 4102SOL     OW13204   1.435   1.036   0.440
 4102SOL    HW113205   1.339   1.055   0.417
 4102SOL    HW213206   1.494   1.103   0.394
 4103SOL     OW13207   1.610   6.792   3.115
 4103SOL    HW113208   1.677   6.739   3.167
 4103SOL    HW213209   1.527   6.737   3.102
 4104SOL     OW13210   1.457   5.989   4.224
 4104SOL    HW113211   1.519   5.926   4.271
 4104SOL    HW213212   1.366   5.947   4.216
 4105SOL     OW13213   4.895   1.302   0.892
 4105SOL    HW113214   4.929   1.231   0.954
 4105SOL    HW213215   4.797   1.315   0.907
 4106SOL     OW13216   1.129   1.565   3.310
 4106SOL    HW113217   1.048   1.566   3.369
 4106SOL    HW213218   1.110   1.617   3.227
 4107SOL     OW13219   0.621   6.441   0.114
 4107SOL    HW113220   0.658   6.490   0.035
 4107SOL    HW213221   0.521   6.436   0.106
 4108SOL     OW13222   6.802   6.113   4.609
 4108SOL    HW113223   6.735   6.180   4.639
 4108SOL    HW213224   6.784   6.025   4.653
 4109SOL     OW13225   6.215   6.133   3.003
 4109SOL    HW113226   6.148   6.196   3.041
 4109SOL    HW213227   6.216   6.140   2.904
 4110SOL     OW13228   5.064   2.736   0.451
 4110SOL    HW113229   5.143   2.764   0.397
 4110SOL    HW213230   4.980   2.767   0.406
 4111SOL     OW13231   6.631   4.016   4.044
 4111SOL    HW113232   6.545   4.044   4.001
 4111SOL    HW213233   6.707   4.065   4.002
 4112SOL     OW13234   5.007   6.787   5.484
 4112SOL    HW113235   5.029   6.843   5.404
 4112SOL    HW213236   4.912   6.804   5.510
 4113SOL     OW13237   3.889   5.474   5.146
 4113SOL    HW113238   3.816   5.455   5.212
 4113SOL    HW213239   3.869   5.428   5.060
 4114SOL     OW13240   6.995   1.713   1.740
 4114SOL    HW113241   7.021   1.802   1.701
 4114SOL    HW213242   7.008   1.642   1.671
 4115SOL     OW13243   5.126   6.130   3.951
 4115SOL    HW113244   5.085   6.130   4.042
 4115SOL    HW213245   5.209   6.074   3.951
 4116SOL     OW13246   5.144   3.265   3.377
 4116SOL    HW113247   5.210   3.284   3.304
 4116SOL    HW213248   5.116   3.351   3.419
 4117SOL     OW13249   1.439   1.736   3.377
 4117SOL    HW113250   1.503   1.783   3.317
 4117SOL    HW213251   1.451   1.638   3.369
 4118SOL     OW13252   0.465   6.189   6.295
 4118SOL    HW113253   0.469   6.227   6.202
 4118SOL    HW213254   0.527   6.111   6.301
 4119SOL     OW13255   0.801   0.892   3.852
 4119SOL    HW113256   0.819   0.833   3.774
 4119SOL    HW213257   0.773   0.837   3.931
 4120SOL     OW13258   1.744   1.274   6.251
 4120SOL    HW113259   1.807   1.203   6.220
 4120SOL    HW213260   1.723   1.335   6.175
 4121SOL     OW13261   6.187   6.641   1.939
 4121SOL    HW113262   6.174   6.738   1.961
 4121SOL    HW213263   6.177   6.586   2.022
 4122SOL     OW13264   6.521   4.454   3.132
 4122SOL    HW113265   6.526   4.436   3.230
 4122SOL    HW213266   6.465   4.384   3.088
 4123SOL     OW13267   4.446   4.885   1.996
 4123SOL    HW113268   4.457   4.842   2.085
 4123SOL    HW213269   4.435   4.815   1.926
 4124SOL     OW13270   6.115   5.497   0.078
 4124SOL    HW113271   6.107   5.404   0.041
 4124SOL    HW213272   6.031   5.520   0.126
 4125SOL     OW13273   6.002   1.745   1.339
 4125SOL    HW113274   6.083   1.800   1.359
 4125SOL    HW213275   5.929   1.804   1.305
 4126SOL     OW13276   1.798   3.423   2.425
 4126SOL    HW113277   1.896   3.440   2.438
 4126SOL    HW213278   1.785   3.365   2.344
 4127SOL     OW13279   3.918   1.856   4.511
 4127SOL    HW113280   3.872   1.944   4.523
 4127SOL    HW213281   3.938   1.841   4.414
 4128SOL     OW13282   0.749   3.223   0.230
 4128SOL    HW113283   0.724   3.131   0.258
 4128SOL    HW213284   0.721   3.237   0.135
 4129SOL     OW13285   2.401   3.009   0.537
 4129SOL    HW113286   2.457   3.001   0.455
 4129SOL    HW213287   2.304   3.014   0.511
 4130SOL     OW13288   5.922   3.279   1.099
 4130SOL    HW113289   5.960   3.215   1.032
 4130SOL    HW213290   5.876   3.354   1.052
 4131SOL     OW13291   4.964   6.912   3.023
 4131SOL    HW113292   4.871   6.877   3.035
 4131SOL    HW213293   4.970   6.963   2.938
 4132SOL     OW13294   0.855   5.173   4.180
 4132SOL    HW113295   0.902   5.162   4.267
 4132SOL    HW213296   0.793   5.096   4.166
 4133SOL     OW13297   5.595   0.484   2.836
 4133SOL    HW113298   5.626   0.444   2.750
 4133SOL    HW213299   5.537   0.563   2.817
 4134SOL     OW13300   1.589   3.309   1.375
 4134SOL    HW113301   1.519   3.296   1.305
 4134SOL    HW213302   1.676   3.332   1.331
 4135SOL     OW13303   0.131   1.656   1.967
 4135SOL    HW113304   0.199   1.598   1.921
 4135SOL    HW213305   0.066   1.691   1.899
 4136SOL     OW13306   1.492   4.422   1.676
 4136SOL    HW113307   1.440   4.394   1.756
 4136SOL    HW213308   1.469   4.516   1.651
 4137SOL     OW13309   1.241   2.533   0.554
 4137SOL    HW113310   1.221   2.504   0.461
 4137SOL    HW213311   1.328   2.494   0.583
 4138SOL     OW13312   5.205   0.778   0.708
 4138SOL    HW113313   5.179   0.695   0.660
 4138SOL    HW213314   5.228   0.849   0.642
 4139SOL     OW13315   1.874   3.698   2.560
 4139SOL    HW113316   1.943   3.687   2.489
 4139SOL    HW213317   1.913   3.674   2.649
 4140SOL     OW13318   2.071   1.137   6.130
 4140SOL    HW113319   1.988   1.082   6.137
 4140SOL    HW213320   2.113   1.122   6.041
 4141SOL     OW13321   4.547   0.192   6.354
 4141SOL    HW113322   4.559   0.234   6.264
 4141SOL    HW213323   4.519   0.262   6.420
 4142SOL     OW13324   0.266   4.482   2.711
 4142SOL    HW113325   0.263   4.396   2.660
 4142SOL    HW213326   0.232   4.466   2.804
 4143SOL     OW13327   5.412   3.274   0.694
 4143SOL    HW113328   5.356   3.254   0.613
 4143SOL    HW213329   5.392   3.207   0.765
 4144SOL     OW13330   6.202   1.477   0.405
 4144SOL    HW113331   6.224   1.526   0.489
 4144SOL    HW213332   6.254   1.391   0.402
 4145SOL     OW13333   6.986   6.802   1.380
 4145SOL    HW113334   6.927   6.779   1.303
 4145SOL    HW213335   0.046   6.748   1.374
 4146SOL     OW13336   4.426   6.199   3.292
 4146SOL    HW113337   4.496   6.185   3.362
 4146SOL    HW213338   4.340   6.156   3.322
 4147SOL     OW13339   4.497   4.381   5.787
 4147SOL    HW113340   4.470   4.452   5.722
 4147SOL    HW213341   4.453   4.399   5.876
 4148SOL     OW13342   2.485   1.588   6.070
 4148SOL    HW113343   2.488   1.635   6.158
 4148SOL    HW213344   2.569   1.535   6.058
 4149SOL     OW13345   2.383   2.910   6.593
 4149SOL    HW113346   2.338   2.912   6.503
 4149SOL    HW213347   2.443   2.989   6.602
 4150SOL     OW13348   5.746   1.947   6.053
 4150SOL    HW113349   5.765   1.913   6.145
 4150SOL    HW213350   5.670   1.895   6.013
 4151SOL     OW13351   2.356   6.743   4.295
 4151SOL    HW113352   2.302   6.663   4.267
 4151SOL    HW213353   2.435   6.753   4.235
 4152SOL     OW13354   3.141   4.973   0.933
 4152SOL    HW113355   3.050   4.990   0.973
 4152SOL    HW213356   3.186   5.060   0.913
 4153SOL     OW13357   0.042   5.455   1.287
 4153SOL    HW113358   0.024   5.396   1.366
 4153SOL    HW213359   6.981   5.473   1.238
 4154SOL     OW13360   1.084   6.411   3.354
 4154SOL    HW113361   1.019   6.435   3.427
 4154SOL    HW213362   1.132   6.494   3.324
 4155SOL     OW13363   0.364   1.170   0.829
 4155SOL    HW113364   0.314   1.215   0.902
 4155SOL    HW213365   0.396   1.080   0.860
 4156SOL     OW13366   6.986   5.700   6.130
 4156SOL    HW113367   6.985   5.776   6.195
 4156SOL    HW213368   7.006   5.736   6.039
 4157SOL     OW13369   6.727   6.103   1.884
 4157SOL    HW113370   6.683   6.193   1.891
 4157SOL    HW213371   6.816   6.113   1.840
 4158SOL     OW13372   1.356   3.267   2.004
 4158SOL    HW113373   1.353   3.281   1.905
 4158SOL    HW213374   1.265   3.243   2.037
 4159SOL     OW13375   3.501   1.374   3.975
 4159SOL    HW113376   3.438   1.324   4.036
 4159SOL    HW213377   3.456   1.392   3.888
 4160SOL     OW13378   6.501   6.642   6.808
 4160SOL    HW113379   6.591   6.598   6.817
 4160SOL    HW213380   6.495   6.683   6.717
 4161SOL     OW13381   3.559   2.997   1.760
 4161SOL    HW113382   3.488   3.041   1.816
 4161SOL    HW213383   3.586   2.911   1.802
 4162SOL     OW13384   4.799   5.856   1.628
 4162SOL    HW113385   4.782   5.870   1.725
 4162SOL    HW213386   4.862   5.779   1.616
 4163SOL     OW13387   3.623   6.523   1.298
 4163SOL    HW113388   3.573   6.542   1.383
 4163SOL    HW213389   3.702   6.465   1.318
 4164SOL     OW13390   6.614   0.199   5.535
 4164SOL    HW113391   6.572   0.288   5.513
 4164SOL    HW213392   6.624   0.146   5.451
 4165SOL     OW13393   3.905   1.289   4.993
 4165SOL    HW113394   3.932   1.290   4.897
 4165SOL    HW213395   3.984   1.309   5.051
 4166SOL     OW13396   5.584   1.293   1.702
 4166SOL    HW113397   5.646   1.344   1.762
 4166SOL    HW213398   5.506   1.350   1.677
 4167SOL     OW13399   4.101   5.154   4.971
 4167SOL    HW113400   4.010   5.144   5.011
 4167SOL    HW213401   4.092   5.171   4.873
 4168SOL     OW13402   4.312   4.070   6.791
 4168SOL    HW113403   4.326   3.975   6.820
 4168SOL    HW213404   4.364   4.131   6.851
 4169SOL     OW13405   5.092   3.615   4.996
 4169SOL    HW113406   5.121   3.684   4.930
 4169SOL    HW213407   4.993   3.624   5.012
 4170SOL     OW13408   6.891   3.538   3.610
 4170SOL    HW113409   6.854   3.467   3.670
 4170SOL    HW213410   6.848   3.532   3.521
 4171SOL     OW13411   0.671   2.780   0.984
 4171SOL    HW113412   0.618   2.829   1.053
 4171SOL    HW213413   0.698   2.844   0.912
 4172SOL     OW13414   2.825   4.789   0.405
 4172SOL    HW113415   2.749   4.807   0.468
 4172SOL    HW213416   2.895   4.859   0.417
 4173SOL     OW13417   5.449   3.064   5.034
 4173SOL    HW113418   5.514   3.017   4.974
 4173SOL    HW213419   5.455   3.163   5.018
 4174SOL     OW13420   3.787   0.630   5.159
 4174SOL    HW113421   3.740   0.564   5.100
 4174SOL    HW213422   3.844   0.690   5.103
 4175SOL     OW13423   1.652   4.428   6.745
 4175SOL    HW113424   1.607   4.410   6.832
 4175SOL    HW213425   1.624   4.359   6.678
 4176SOL     OW13426   5.048   0.064   6.376
 4176SOL    HW113427   4.979   0.096   6.440
 4176SOL    HW213428   5.088   7.003   6.409
 4177SOL     OW13429   4.623   4.504   3.188
 4177SOL    HW113430   4.563   4.524   3.111
 4177SOL    HW213431   4.702   4.452   3.157
 4178SOL     OW13432   4.292   5.596   1.778
 4178SOL    HW113433   4.254   5.511   1.814
 4178SOL    HW213434   4.390   5.599   1.796
 4179SOL     OW13435   5.532   3.323   4.923
 4179SOL    HW113436   5.545   3.273   4.837
 4179SOL    HW213437   5.541   3.421   4.906
 4180SOL     OW13438   4.825   4.114   6.950
 4180SOL    HW113439   4.915   4.092   6.987
 4180SOL    HW213440   4.775   4.172   7.016
 4181SOL     OW13441   4.326   0.691   5.656
 4181SOL    HW113442   4.226   0.694   5.667
 4181SOL    HW213443   4.350   0.617   5.593
 4182SOL     OW13444   0.015   6.916   4.239
 4182SOL    HW113445   6.946   6.916   4.203
 4182SOL    HW213446   0.041   6.823   4.266
 4183SOL     OW13447   3.684   1.914   1.560
 4183SOL    HW113448   3.715   1.994   1.611
 4183SOL    HW213449   3.589   1.893   1.585
 4184SOL     OW13450   3.383   5.172   3.562
 4184SOL    HW113451   3.344   5.199   3.650
 4184SOL    HW213452   3.324   5.103   3.519
 4185SOL     OW13453   6.516   3.724   2.821
 4185SOL    HW113454   6.572   3.782   2.761
 4185SOL    HW213455   6.544   3.629   2.811
 4186SOL     OW13456   1.624   6.187   0.406
 4186SOL    HW113457   1.577   6.117   0.352
 4186SOL    HW213458   1.691   6.143   0.466
 4187SOL     OW13459   1.545   3.885   6.598
 4187SOL    HW113460   1.583   3.860   6.508
 4187SOL    HW213461   1.605   3.849   6.670
 4188SOL     OW13462   5.108   0.053   6.974
 4188SOL    HW113463   5.122   0.002   0.035
 4188SOL    HW213464   5.083   0.147   6.997
 4189SOL     OW13465   5.012   5.112   3.255
 4189SOL    HW113466   5.105   5.091   3.227
 4189SOL    HW213467   4.948   5.088   3.182
 4190SOL     OW13468   0.071   6.166   0.891
 4190SOL    HW113469   0.078   6.097   0.819
 4190SOL    HW213470   0.162   6.203   0.911
 4191SOL     OW13471   4.343   4.717   5.911
 4191SOL    HW113472   4.356   4.704   6.009
 4191SOL    HW213473   4.246   4.725   5.891
 4192SOL     OW13474   1.254   3.497   1.721
 4192SOL    HW113475   1.313   3.417   1.713
 4192SOL    HW213476   1.169   3.481   1.671
 4193SOL     OW13477   0.066   0.148   0.863
 4193SOL    HW113478   0.145   0.210   0.867
 4193SOL    HW213479   0.095   0.059   0.830
 4194SOL     OW13480   4.337   0.949   5.170
 4194SOL    HW113481   4.263   0.981   5.229
 4194SOL    HW213482   4.425   0.971   5.212
 4195SOL     OW13483   4.177   5.653   1.235
 4195SOL    HW113484   4.167   5.610   1.324
 4195SOL    HW213485   4.162   5.752   1.243
 4196SOL     OW13486   6.683   2.363   2.378
 4196SOL    HW113487   6.748   2.398   2.446
 4196SOL    HW213488   6.656   2.270   2.404
 4197SOL     OW13489   3.451   6.497   6.156
 4197SOL    HW113490   3.515   6.432   6.116
 4197SOL    HW213491   3.394   6.451   6.224
 4198SOL     OW13492   6.021   1.206   2.507
 4198SOL    HW113493   6.105   1.259   2.510
 4198SOL    HW213494   5.998   1.176   2.599
 4199SOL     OW13495   0.642   3.671   6.550
 4199SOL    HW113496   0.628   3.757   6.600
 4199SOL    HW213497   0.708   3.687   6.476
 4200SOL     OW13498   4.797   1.416   4.071
 4200SOL    HW113499   4.775   1.338   4.130
 4200SOL    HW213500   4.797   1.386   3.975
 4201SOL     OW13501   5.665   0.005   2.988
 4201SOL    HW113502   5.626   0.096   3.002
 4201SOL    HW213503   5.596   6.970   2.945
 4202SOL     OW13504   4.567   5.089   0.550
 4202SOL    HW113505   4.510   5.078   0.469
 4202SOL    HW213506   4.529   5.037   0.626
 4203SOL     OW13507   6.136   5.307   6.848
 4203SOL    HW113508   6.220   5.345   6.888
 4203SOL    HW213509   6.108   5.226   6.899
 4204SOL     OW13510   2.931   3.662   5.752
 4204SOL    HW113511   2.999   3.731   5.731
 4204SOL    HW213512   2.972   3.589   5.807
 4205SOL     OW13513   3.830   5.869   5.190
 4205SOL    HW113514   3.865   5.796   5.131
 4205SOL    HW213515   3.874   5.956   5.165
 4206SOL     OW13516   1.642   2.026   4.469
 4206SOL    HW113517   1.740   2.038   4.449
 4206SOL    HW213518   1.621   1.929   4.476
 4207SOL     OW13519   1.281   2.914   1.672
 4207SOL    HW113520   1.308   2.989   1.611
 4207SOL    HW213521   1.256   2.951   1.761
 4208SOL     OW13522   2.196   3.794   4.899
 4208SOL    HW113523   2.251   3.829   4.974
 4208SOL    HW213524   2.101   3.785   4.928
 4209SOL     OW13525   0.141   6.058   3.002
 4209SOL    HW113526   0.223   6.039   2.948
 4209SOL    HW213527   0.167   6.107   3.086
 4210SOL     OW13528   4.135   3.549   4.858
 4210SOL    HW113529   4.234   3.557   4.849
 4210SOL    HW213530   4.107   3.577   4.950
 4211SOL     OW13531   4.235   2.507   5.428
 4211SOL    HW113532   4.181   2.556   5.359
 4211SOL    HW213533   4.259   2.570   5.502
 4212SOL     OW13534   6.927   1.869   3.024
 4212SOL    HW113535   6.985   1.831   3.096
 4212SOL    HW213536   6.895   1.959   3.052
 4213SOL     OW13537   3.311   0.948   2.726
 4213SOL    HW113538   3.328   0.971   2.630
 4213SOL    HW213539   3.378   0.994   2.784
 4214SOL     OW13540   0.720   5.004   4.536
 4214SOL    HW113541   0.681   4.915   4.511
 4214SOL    HW213542   0.794   5.026   4.472
 4215SOL     OW13543   4.796   6.576   5.369
 4215SOL    HW113544   4.778   6.633   5.450
 4215SOL    HW213545   4.723   6.508   5.359
 4216SOL     OW13546   2.493   6.349   2.769
 4216SOL    HW113547   2.448   6.305   2.691
 4216SOL    HW213548   2.585   6.378   2.743
 4217SOL     OW13549   0.976   0.701   1.877
 4217SOL    HW113550   0.985   0.621   1.937
 4217SOL    HW213551   1.059   0.713   1.824
 4218SOL     OW13552   2.740   0.953   1.461
 4218SOL    HW113553   2.703   1.035   1.505
 4218SOL    HW213554   2.781   0.894   1.529
 4219SOL     OW13555   3.832   6.456   3.853
 4219SOL    HW113556   3.887   6.374   3.839
 4219SOL    HW213557   3.874   6.533   3.804
 4220SOL     OW13558   4.785   2.009   1.503
 4220SOL    HW113559   4.687   1.998   1.519
 4220SOL    HW213560   4.832   2.011   1.591
 4221SOL     OW13561   0.410   5.865   6.746
 4221SOL    HW113562   0.451   5.828   6.829
 4221SOL    HW213563   0.322   5.908   6.769
 4222SOL     OW13564   4.641   1.939   3.288
 4222SOL    HW113565   4.614   2.027   3.248
 4222SOL    HW213566   4.579   1.915   3.362
 4223SOL     OW13567   4.167   3.482   2.264
 4223SOL    HW113568   4.128   3.524   2.182
 4223SOL    HW213569   4.267   3.486   2.260
 4224SOL     OW13570   4.891   3.728   4.797
 4224SOL    HW113571   4.939   3.653   4.753
 4224SOL    HW213572   4.859   3.699   4.887
 4225SOL     OW13573   0.272   3.092   5.216
 4225SOL    HW113574   0.276   3.188   5.241
 4225SOL    HW213575   0.177   3.060   5.222
 4226SOL     OW13576   0.756   5.348   4.560
 4226SOL    HW113577   0.832   5.285   4.577
 4226SOL    HW213578   0.739   5.355   4.462
 4227SOL     OW13579   5.494   5.587   2.143
 4227SOL    HW113580   5.532   5.580   2.235
 4227SOL    HW213581   5.548   5.531   2.080
 4228SOL     OW13582   1.190   5.351   3.773
 4228SOL    HW113583   1.231   5.261   3.782
 4228SOL    HW213584   1.253   5.414   3.728
 4229SOL     OW13585   5.948   5.040   5.496
 4229SOL    HW113586   5.916   5.034   5.591
 4229SOL    HW213587   5.954   4.948   5.458
 4230SOL     OW13588   1.251   0.902   2.027
 4230SOL    HW113589   1.212   0.858   1.946
 4230SOL    HW213590   1.221   0.997   2.030
 4231SOL     OW13591   5.496   1.300   5.759
 4231SOL    HW113592   5.517   1.206   5.784
 4231SOL    HW213593   5.547   1.363   5.817
 4232SOL     OW13594   2.185   5.178   4.196
 4232SOL    HW113595   2.125   5.098   4.188
 4232SOL    HW213596   2.155   5.234   4.274
 4233SOL     OW13597   5.474   6.543   3.677
 4233SOL    HW113598   5.542   6.495   3.622
 4233SOL    HW213599   5.419   6.603   3.618
 4234SOL     OW13600   1.774   5.491   5.740
 4234SOL    HW113601   1.845   5.544   5.787
 4234SOL    HW213602   1.808   5.459   5.652
 4235SOL     OW13603   0.030   5.065   6.151
 4235SOL    HW113604   6.983   5.119   6.197
 4235SOL    HW213605   0.065   5.116   6.072
 4236SOL     OW13606   0.700   5.010   1.622
 4236SOL    HW113607   0.606   4.990   1.647
 4236SOL    HW213608   0.751   5.039   1.703
 4237SOL     OW13609   6.302   4.137   3.444
 4237SOL    HW113610   6.379   4.116   3.384
 4237SOL    HW213611   6.259   4.222   3.414
 4238SOL     OW13612   2.508   0.509   3.270
 4238SOL    HW113613   2.571   0.491   3.195
 4238SOL    HW213614   2.519   0.603   3.302
 4239SOL     OW13615   3.866   1.014   2.765
 4239SOL    HW113616   3.881   1.103   2.808
 4239SOL    HW213617   3.891   0.942   2.830
 4240SOL     OW13618   0.971   5.562   0.711
 4240SOL    HW113619   1.016   5.586   0.625
 4240SOL    HW213620   1.014   5.612   0.786
 4241SOL     OW13621   6.492   1.896   6.918
 4241SOL    HW113622   6.478   1.805   6.877
 4241SOL    HW213623   6.495   1.964   6.845
 4242SOL     OW13624   2.350   2.374   4.170
 4242SOL    HW113625   2.263   2.367   4.121
 4242SOL    HW213626   2.369   2.470   4.191
 4243SOL     OW13627   5.638   1.150   2.840
 4243SOL    HW113628   5.567   1.218   2.822
 4243SOL    HW213629   5.604   1.059   2.817
 4244SOL     OW13630   3.791   3.527   2.456
 4244SOL    HW113631   3.884   3.492   2.467
 4244SOL    HW213632   3.766   3.581   2.536
 4245SOL     OW13633   5.870   2.727   5.841
 4245SOL    HW113634   5.770   2.723   5.845
 4245SOL    HW213635   5.907   2.635   5.839
 4246SOL     OW13636   0.312   4.109   1.955
 4246SOL    HW113637   0.324   4.021   2.000
 4246SOL    HW213638   0.300   4.181   2.024
 4247SOL     OW13639   6.811   5.773   5.173
 4247SOL    HW113640   6.737   5.745   5.113
 4247SOL    HW213641   6.862   5.849   5.131
 4248SOL     OW13642   1.403   2.821   5.492
 4248SOL    HW113643   1.357   2.874   5.563
 4248SOL    HW213644   1.335   2.770   5.439
 4249SOL     OW13645   5.586   2.925   5.601
 4249SOL    HW113646   5.629   2.948   5.514
 4249SOL    HW213647   5.591   3.004   5.663
 4250SOL     OW13648   6.537   5.208   3.534
 4250SOL    HW113649   6.526   5.307   3.522
 4250SOL    HW213650   6.614   5.191   3.595
 4251SOL     OW13651   5.741   4.252   0.608
 4251SOL    HW113652   5.831   4.211   0.619
 4251SOL    HW213653   5.705   4.230   0.517
 4252SOL     OW13654   0.188   5.595   5.512
 4252SOL    HW113655   0.178   5.501   5.478
 4252SOL    HW213656   0.187   5.595   5.612
 4253SOL     OW13657   4.295   0.935   1.767
 4253SOL    HW113658   4.312   1.011   1.703
 4253SOL    HW213659   4.382   0.891   1.791
 4254SOL     OW13660   2.074   3.690   1.314
 4254SOL    HW113661   2.049   3.617   1.249
 4254SOL    HW213662   2.057   3.779   1.272
 4255SOL     OW13663   6.246   3.009   4.117
 4255SOL    HW113664   6.268   2.980   4.024
 4255SOL    HW213665   6.314   3.075   4.149
 4256SOL     OW13666   2.023   7.009   1.342
 4256SOL    HW113667   2.038   6.913   1.364
 4256SOL    HW213668   2.054   0.003   1.249
 4257SOL     OW13669   3.330   1.782   4.909
 4257SOL    HW113670   3.310   1.707   4.972
 4257SOL    HW213671   3.306   1.869   4.951
 4258SOL     OW13672   5.816   6.572   1.903
 4258SOL    HW113673   5.818   6.671   1.914
 4258SOL    HW213674   5.808   6.529   1.993
 4259SOL     OW13675   2.628   2.125   6.922
 4259SOL    HW113676   2.559   2.160   6.985
 4259SOL    HW213677   2.584   2.068   6.852
 4260SOL     OW13678   4.875   5.816   3.472
 4260SOL    HW113679   4.841   5.722   3.475
 4260SOL    HW213680   4.884   5.846   3.377
 4261SOL     OW13681   2.507   6.453   1.932
 4261SOL    HW113682   2.535   6.475   1.838
 4261SOL    HW213683   2.445   6.375   1.930
 4262SOL     OW13684   1.616   4.903   6.528
 4262SOL    HW113685   1.671   4.960   6.467
 4262SOL    HW213686   1.626   4.936   6.622
 4263SOL     OW13687   2.441   4.819   5.435
 4263SOL    HW113688   2.505   4.894   5.419
 4263SOL    HW213689   2.403   4.826   5.528
 4264SOL     OW13690   0.361   1.351   0.185
 4264SOL    HW113691   0.406   1.361   0.097
 4264SOL    HW213692   0.424   1.377   0.258
 4265SOL     OW13693   6.893   1.925   0.388
 4265SOL    HW113694   6.903   1.828   0.364
 4265SOL    HW213695   6.956   1.980   0.334
 4266SOL     OW13696   2.482   5.373   0.116
 4266SOL    HW113697   2.542   5.316   0.059
 4266SOL    HW213698   2.503   5.357   0.213
 4267SOL     OW13699   1.936   3.719   5.024
 4267SOL    HW113700   1.929   3.765   5.113
 4267SOL    HW213701   1.848   3.678   5.000
 4268SOL     OW13702   2.011   1.021   0.605
 4268SOL    HW113703   1.968   0.965   0.675
 4268SOL    HW213704   1.948   1.093   0.576
 4269SOL     OW13705   3.245   3.186   0.432
 4269SOL    HW113706   3.283   3.096   0.452
 4269SOL    HW213707   3.226   3.233   0.519
 4270SOL     OW13708   3.428   2.991   4.930
 4270SOL    HW113709   3.371   2.976   5.011
 4270SOL    HW213710   3.514   2.940   4.940
 4271SOL     OW13711   0.609   6.760   5.872
 4271SOL    HW113712   0.696   6.793   5.907
 4271SOL    HW213713   0.605   6.775   5.773
 4272SOL     OW13714   6.459   4.713   5.192
 4272SOL    HW113715   6.412   4.792   5.232
 4272SOL    HW213716   6.441   4.632   5.247
 4273SOL     OW13717   4.626   6.695   5.150
 4273SOL    HW113718   4.681   6.633   5.205
 4273SOL    HW213719   4.601   6.775   5.204
 4274SOL     OW13720   1.871   6.709   3.825
 4274SOL    HW113721   1.861   6.621   3.779
 4274SOL    HW213722   1.785   6.759   3.819
 4275SOL     OW13723   0.201   0.556   5.434
 4275SOL    HW113724   0.261   0.506   5.371
 4275SOL    HW213725   0.220   0.528   5.528
 4276SOL     OW13726   2.175   4.658   3.180
 4276SOL    HW113727   2.137   4.576   3.138
 4276SOL    HW213728   2.211   4.718   3.109
 4277SOL     OW13729   6.991   5.164   3.554
 4277SOL    HW113730   0.059   5.172   3.592
 4277SOL    HW213731   6.989   5.201   3.461
 4278SOL     OW13732   6.680   5.917   4.806
 4278SOL    HW113733   6.712   5.921   4.900
 4278SOL    HW213734   6.580   5.929   4.804
 4279SOL     OW13735   2.979   6.297   5.177
 4279SOL    HW113736   2.896   6.282   5.124
 4279SOL    HW213737   3.055   6.315   5.114
 4280SOL     OW13738   6.399   2.220   5.431
 4280SOL    HW113739   6.432   2.308   5.465
 4280SOL    HW213740   6.379   2.159   5.508
 4281SOL     OW13741   1.730   4.812   5.195
 4281SOL    HW113742   1.805   4.864   5.238
 4281SOL    HW213743   1.704   4.856   5.109
 4282SOL     OW13744   2.363   2.960   0.808
 4282SOL    HW113745   2.355   3.049   0.851
 4282SOL    HW213746   2.368   2.971   0.709
 4283SOL     OW13747   1.860   0.491   4.136
 4283SOL    HW113748   1.761   0.495   4.131
 4283SOL    HW213749   1.887   0.446   4.222
 4284SOL     OW13750   5.511   1.302   2.044
 4284SOL    HW113751   5.610   1.283   2.048
 4284SOL    HW213752   5.465   1.253   2.118
 4285SOL     OW13753   0.982   0.448   5.508
 4285SOL    HW113754   0.924   0.366   5.500
 4285SOL    HW213755   1.005   0.463   5.605
 4286SOL     OW13756   4.633   5.425   0.427
 4286SOL    HW113757   4.725   5.463   0.438
 4286SOL    HW213758   4.569   5.474   0.487
 4287SOL     OW13759   5.794   0.284   4.604
 4287SOL    HW113760   5.714   0.268   4.661
 4287SOL    HW213761   5.858   0.345   4.652
 4288SOL     OW13762   1.464   0.057   3.239
 4288SOL    HW113763   1.385   7.019   3.239
 4288SOL    HW213764   1.488   0.079   3.144
 4289SOL     OW13765   5.774   2.422   1.237
 4289SOL    HW113766   5.766   2.467   1.148
 4289SOL    HW213767   5.684   2.398   1.271
 4290SOL     OW13768   2.303   0.504   2.398
 4290SOL    HW113769   2.257   0.583   2.438
 4290SOL    HW213770   2.259   0.420   2.431
 4291SOL     OW13771   5.509   2.775   0.462
 4291SOL    HW113772   5.475   2.866   0.438
 4291SOL    HW213773   5.547   2.777   0.555
 4292SOL     OW13774   6.272   4.134   5.586
 4292SOL    HW113775   6.242   4.049   5.630
 4292SOL    HW213776   6.305   4.113   5.494
 4293SOL     OW13777   6.399   3.391   6.783
 4293SOL    HW113778   6.315   3.337   6.792
 4293SOL    HW213779   6.380   3.472   6.727
 4294SOL     OW13780   4.305   2.429   5.770
 4294SOL    HW113781   4.333   2.502   5.707
 4294SOL    HW213782   4.277   2.469   5.857
 4295SOL     OW13783   3.609   0.198   4.591
 4295SOL    HW113784   3.532   0.242   4.545
 4295SOL    HW213785   3.695   0.226   4.548
 4296SOL     OW13786   2.201   1.881   0.805
 4296SOL    HW113787   2.189   1.948   0.732
 4296SOL    HW213788   2.219   1.929   0.891
 4297SOL     OW13789   5.323   0.235   4.907
 4297SOL    HW113790   5.291   0.324   4.938
 4297SOL    HW213791   5.245   0.172   4.902
 4298SOL     OW13792   2.576   5.845   1.334
 4298SOL    HW113793   2.503   5.799   1.284
 4298SOL    HW213794   2.554   5.942   1.343
 4299SOL     OW13795   0.591   3.579   6.136
 4299SOL    HW113796   0.509   3.613   6.182
 4299SOL    HW213797   0.656   3.654   6.125
 4300SOL     OW13798   3.552   1.299   6.830
 4300SOL    HW113799   3.616   1.304   6.754
 4300SOL    HW213800   3.461   1.328   6.800
 4301SOL     OW13801   1.855   2.007   0.522
 4301SOL    HW113802   1.827   2.058   0.604
 4301SOL    HW213803   1.954   1.997   0.522
 4302SOL     OW13804   1.006   6.308   6.831
 4302SOL    HW113805   1.047   6.365   6.902
 4302SOL    HW213806   1.073   6.292   6.759
 4303SOL     OW13807   6.791   4.234   2.681
 4303SOL    HW113808   6.714   4.217   2.743
 4303SOL    HW213809   6.756   4.246   2.588
 4304SOL     OW13810   3.189   3.372   4.412
 4304SOL    HW113811   3.155   3.354   4.319
 4304SOL    HW213812   3.208   3.284   4.457
 4305SOL     OW13813   6.258   1.181   3.866
 4305SOL    HW113814   6.220   1.105   3.918
 4305SOL    HW213815   6.261   1.156   3.769
 4306SOL     OW13816   6.831   4.327   6.212
 4306SOL    HW113817   6.863   4.416   6.179
 4306SOL    HW213818   6.867   4.255   6.154
 4307SOL     OW13819   4.676   4.022   5.595
 4307SOL    HW113820   4.582   4.020   5.563
 4307SOL    HW213821   4.734   3.970   5.532
 4308SOL     OW13822   5.280   5.915   4.983
 4308SOL    HW113823   5.188   5.878   4.967
 4308SOL    HW213824   5.290   5.936   5.080
 4309SOL     OW13825   1.480   1.397   0.605
 4309SOL    HW113826   1.534   1.473   0.568
 4309SOL    HW213827   1.465   1.329   0.534
 4310SOL     OW13828   1.961   2.222   2.914
 4310SOL    HW113829   1.983   2.277   2.995
 4310SOL    HW213830   1.882   2.164   2.935
 4311SOL     OW13831   1.228   5.792   3.565
 4311SOL    HW113832   1.219   5.702   3.523
 4311SOL    HW213833   1.246   5.860   3.493
 4312SOL     OW13834   2.388   5.886   2.176
 4312SOL    HW113835   2.437   5.960   2.130
 4312SOL    HW213836   2.422   5.798   2.143
 4313SOL     OW13837   5.212   1.289   1.654
 4313SOL    HW113838   5.166   1.377   1.660
 4313SOL    HW213839   5.302   1.300   1.612
 4314SOL     OW13840   4.915   2.713   3.210
 4314SOL    HW113841   4.964   2.645   3.156
 4314SOL    HW213842   4.844   2.668   3.264
 4315SOL     OW13843   2.523   0.729   1.890
 4315SOL    HW113844   2.425   0.719   1.910
 4315SOL    HW213845   2.572   0.753   1.974
 4316SOL     OW13846   5.394   0.567   1.006
 4316SOL    HW113847   5.451   0.638   1.047
 4316SOL    HW213848   5.408   0.567   0.907
 4317SOL     OW13849   3.239   1.346   4.258
 4317SOL    HW113850   3.168   1.346   4.188
 4317SOL    HW213851   3.261   1.441   4.283
 4318SOL     OW13852   0.813   3.719   3.541
 4318SOL    HW113853   0.881   3.731   3.469
 4318SOL    HW213854   0.850   3.754   3.627
 4319SOL     OW13855   2.529   3.130   6.628
 4319SOL    HW113856   2.626   3.134   6.604
 4319SOL    HW213857   2.521   3.130   6.728
 4320SOL     OW13858   1.336   6.735   2.643
 4320SOL    HW113859   1.312   6.830   2.622
 4320SOL    HW213860   1.399   6.733   2.720
 4321SOL     OW13861   6.660   0.521   5.299
 4321SOL    HW113862   6.743   0.464   5.307
 4321SOL    HW213863   6.628   0.520   5.204
 4322SOL     OW13864   6.501   1.252   6.658
 4322SOL    HW113865   6.584   1.306   6.674
 4322SOL    HW213866   6.487   1.191   6.736
 4323SOL     OW13867   5.773   2.716   2.551
 4323SOL    HW113868   5.674   2.704   2.543
 4323SOL    HW213869   5.793   2.790   2.615
 4324SOL     OW13870   5.545   3.905   6.655
 4324SOL    HW113871   5.643   3.925   6.649
 4324SOL    HW213872   5.530   3.833   6.723
 4325SOL     OW13873   2.231   0.826   6.774
 4325SOL    HW113874   2.300   0.852   6.706
 4325SOL    HW213875   2.144   0.809   6.727
 4326SOL     OW13876   6.371   3.327   5.220
 4326SOL    HW113877   6.396   3.351   5.126
 4326SOL    HW213878   6.271   3.317   5.226
 4327SOL     OW13879   5.758   5.349   2.523
 4327SOL    HW113880   5.666   5.315   2.502
 4327SOL    HW213881   5.823   5.273   2.520
 4328SOL     OW13882   4.718   4.606   6.149
 4328SOL    HW113883   4.770   4.636   6.069
 4328SOL    HW213884   4.623   4.588   6.122
 4329SOL     OW13885   4.006   1.622   5.133
 4329SOL    HW113886   3.977   1.696   5.193
 4329SOL    HW213887   4.096   1.589   5.163
 4330SOL     OW13888   1.850   0.217   5.777
 4330SOL    HW113889   1.878   0.312   5.761
 4330SOL    HW213890   1.779   0.192   5.711
 4331SOL     OW13891   5.310   2.698   0.305
 4331SOL    HW113892   5.324   2.739   0.216
 4331SOL    HW213893   5.396   2.700   0.357
 4332SOL     OW13894   4.858   3.160   2.232
 4332SOL    HW113895   4.829   3.087   2.170
 4332SOL    HW213896   4.872   3.244   2.179
 4333SOL     OW13897   5.684   1.630   4.605
 4333SOL    HW113898   5.668   1.596   4.697
 4333SOL    HW213899   5.767   1.589   4.567
 4334SOL     OW13900   3.057   1.947   1.910
 4334SOL    HW113901   3.033   1.902   1.824
 4334SOL    HW213902   2.976   1.950   1.969
 4335SOL     OW13903   3.078   3.979   4.487
 4335SOL    HW113904   3.119   3.905   4.540
 4335SOL    HW213905   3.052   4.053   4.548
 4336SOL     OW13906   1.490   6.380   5.306
 4336SOL    HW113907   1.409   6.346   5.258
 4336SOL    HW213908   1.519   6.313   5.374
 4337SOL     OW13909   0.450   5.058   6.972
 4337SOL    HW113910   0.368   5.026   6.924
 4337SOL    HW213911   0.425   5.131   0.012
 4338SOL     OW13912   5.721   6.187   4.381
 4338SOL    HW113913   5.742   6.099   4.338
 4338SOL    HW213914   5.681   6.248   4.312
 4339SOL     OW13915   6.614   2.232   5.250
 4339SOL    HW113916   6.525   2.202   5.282
 4339SOL    HW213917   6.603   2.309   5.187
 4340SOL     OW13918   5.599   3.758   1.909
 4340SOL    HW113919   5.573   3.803   1.995
 4340SOL    HW213920   5.543   3.792   1.834
 4341SOL     OW13921   1.714   3.833   2.058
 4341SOL    HW113922   1.754   3.746   2.087
 4341SOL    HW213923   1.772   3.875   1.987
 4342SOL     OW13924   0.354   2.729   2.729
 4342SOL    HW113925   0.259   2.697   2.736
 4342SOL    HW213926   0.415   2.659   2.766
 4343SOL     OW13927   2.940   1.187   0.596
 4343SOL    HW113928   2.975   1.094   0.604
 4343SOL    HW213929   2.853   1.195   0.645
 4344SOL     OW13930   1.467   3.829   3.129
 4344SOL    HW113931   1.389   3.890   3.145
 4344SOL    HW213932   1.551   3.882   3.119
 4345SOL     OW13933   2.050   2.647   5.560
 4345SOL    HW113934   2.118   2.720   5.568
 4345SOL    HW213935   1.959   2.686   5.556
 4346SOL     OW13936   2.051   3.097   2.006
 4346SOL    HW113937   2.096   3.097   2.095
 4346SOL    HW213938   1.986   3.021   2.002
 4347SOL     OW13939   6.472   0.245   2.155
 4347SOL    HW113940   6.390   0.198   2.190
 4347SOL    HW213941   6.512   0.191   2.080
 4348SOL     OW13942   1.051   3.887   1.498
 4348SOL    HW113943   1.089   3.979   1.509
 4348SOL    HW213944   0.958   3.884   1.533
 4349SOL     OW13945   0.186   1.187   3.866
 4349SOL    HW113946   0.088   1.207   3.868
 4349SOL    HW213947   0.236   1.269   3.840
 4350SOL     OW13948   5.170   2.409   4.642
 4350SOL    HW113949   5.184   2.481   4.710
 4350SOL    HW213950   5.076   2.413   4.609
 4351SOL     OW13951   3.089   5.679   2.733
 4351SOL    HW113952   3.141   5.601   2.767
 4351SOL    HW213953   3.074   5.670   2.635
 4352SOL     OW13954   0.554   2.198   1.995
 4352SOL    HW113955   0.545   2.165   2.089
 4352SOL    HW213956   0.527   2.126   1.931
 4353SOL     OW13957   2.217   5.822   6.671
 4353SOL    HW113958   2.193   5.893   6.605
 4353SOL    HW213959   2.309   5.839   6.706
 4354SOL     OW13960   2.207   0.034   6.992
 4354SOL    HW113961   2.187   0.016   6.896
 4354SOL    HW213962   2.196   0.132   7.011
 4355SOL     OW13963   3.987   0.408   1.089
 4355SOL    HW113964   3.975   0.497   1.044
 4355SOL    HW213965   3.954   0.414   1.183
 4356SOL     OW13966   4.460   4.162   0.836
 4356SOL    HW113967   4.374   4.112   0.837
 4356SOL    HW213968   4.443   4.257   0.809
 4357SOL     OW13969   6.254   0.185   0.586
 4357SOL    HW113970   6.159   0.175   0.556
 4357SOL    HW213971   6.285   0.278   0.569
 4358SOL     OW13972   0.939   6.006   1.495
 4358SOL    HW113973   0.918   6.052   1.409
 4358SOL    HW213974   0.912   5.910   1.488
 4359SOL     OW13975   0.654   1.854   4.022
 4359SOL    HW113976   0.738   1.902   4.047
 4359SOL    HW213977   0.676   1.771   3.971
 4360SOL     OW13978   0.750   3.464   1.496
 4360SOL    HW113979   0.653   3.485   1.480
 4360SOL    HW213980   0.767   3.367   1.478
 4361SOL     OW13981   4.788   2.428   2.139
 4361SOL    HW113982   4.829   2.486   2.210
 4361SOL    HW213983   4.701   2.468   2.109
 4362SOL     OW13984   6.502   4.172   5.320
 4362SOL    HW113985   6.483   4.268   5.299
 4362SOL    HW213986   6.601   4.156   5.320
 4363SOL     OW13987   5.085   3.053   5.427
 4363SOL    HW113988   5.154   3.072   5.357
 4363SOL    HW213989   5.131   3.024   5.512
 4364SOL     OW13990   3.507   3.831   4.448
 4364SOL    HW113991   3.421   3.861   4.405
 4364SOL    HW213992   3.523   3.735   4.426
 4365SOL     OW13993   4.224   2.254   2.708
 4365SOL    HW113994   4.129   2.281   2.692
 4365SOL    HW213995   4.284   2.298   2.641
 4366SOL     OW13996   6.525   6.281   1.545
 4366SOL    HW113997   6.505   6.329   1.631
 4366SOL    HW213998   6.484   6.191   1.546
 4367SOL     OW13999   1.123   5.384   5.680
 4367SOL    HW114000   1.086   5.431   5.600
 4367SOL    HW214001   1.186   5.446   5.728
 4368SOL     OW14002   5.431   4.615   1.833
 4368SOL    HW114003   5.405   4.624   1.929
 4368SOL    HW214004   5.396   4.528   1.797
 4369SOL     OW14005   4.803   4.609   2.253
 4369SOL    HW114006   4.860   4.684   2.285
 4369SOL    HW214007   4.799   4.610   2.153
 4370SOL     OW14008   5.864   4.159   4.100
 4370SOL    HW114009   5.909   4.229   4.044
 4370SOL    HW214010   5.765   4.168   4.092
 4371SOL     OW14011   6.337   0.608   1.705
 4371SOL    HW114012   6.264   0.617   1.773
 4371SOL    HW214013   6.412   0.670   1.730
 4372SOL     OW14014   4.790   1.625   3.012
 4372SOL    HW114015   4.805   1.529   2.989
 4372SOL    HW214016   4.723   1.631   3.087
 4373SOL     OW14017   6.738   1.987   6.550
 4373SOL    HW114018   6.723   1.888   6.555
 4373SOL    HW214019   6.788   2.017   6.631
 4374SOL     OW14020   1.726   2.013   2.480
 4374SOL    HW114021   1.654   2.075   2.511
 4374SOL    HW214022   1.750   2.034   2.386
 4375SOL     OW14023   2.658   6.242   4.412
 4375SOL    HW114024   2.697   6.223   4.322
 4375SOL    HW214025   2.681   6.335   4.440
 4376SOL     OW14026   6.610   0.611   2.478
 4376SOL    HW114027   6.572   0.526   2.441
 4376SOL    HW214028   6.705   0.620   2.450
 4377SOL     OW14029   5.920   3.909   0.004
 4377SOL    HW114030   6.015   3.939   7.020
 4377SOL    HW214031   5.903   3.875   0.096
 4378SOL     OW14032   2.235   0.261   3.963
 4378SOL    HW114033   2.302   0.201   3.920
 4378SOL    HW214034   2.145   0.219   3.958
 4379SOL     OW14035   2.631   1.375   4.888
 4379SOL    HW114036   2.642   1.362   4.790
 4379SOL    HW214037   2.579   1.298   4.926
 4380SOL     OW14038   1.276   1.709   1.631
 4380SOL    HW114039   1.319   1.633   1.582
 4380SOL    HW214040   1.261   1.785   1.568
 4381SOL     OW14041   1.656   5.936   5.163
 4381SOL    HW114042   1.705   5.953   5.248
 4381SOL    HW214043   1.571   5.888   5.182
 4382SOL     OW14044   6.743   3.841   4.853
 4382SOL    HW114045   6.752   3.808   4.759
 4382SOL    HW214046   6.711   3.765   4.911
 4383SOL     OW14047   5.484   2.676   6.068
 4383SOL    HW114048   5.509   2.633   5.981
 4383SOL    HW214049   5.567   2.705   6.116
 4384SOL     OW14050   0.191   6.586   3.133
 4384SOL    HW114051   0.092   6.582   3.146
 4384SOL    HW214052   0.232   6.635   3.209
 4385SOL     OW14053   5.740   1.885   4.401
 4385SOL    HW114054   5.726   1.984   4.393
 4385SOL    HW214055   5.651   1.840   4.405
 4386SOL     OW14056   1.334   3.451   5.559
 4386SOL    HW114057   1.414   3.492   5.515
 4386SOL    HW214058   1.357   3.422   5.651
 4387SOL     OW14059   0.230   2.596   0.731
 4387SOL    HW114060   0.178   2.526   0.782
 4387SOL    HW214061   0.298   2.551   0.674
 4388SOL     OW14062   4.919   1.972   6.247
 4388SOL    HW114063   4.899   2.007   6.155
 4388SOL    HW214064   5.007   2.008   6.277
 4389SOL     OW14065   0.216   3.478   1.529
 4389SOL    HW114066   0.187   3.438   1.617
 4389SOL    HW214067   0.171   3.566   1.517
 4390SOL     OW14068   5.778   0.844   1.002
 4390SOL    HW114069   5.844   0.908   1.041
 4390SOL    HW214070   5.823   0.758   0.980
 4391SOL     OW14071   1.886   5.731   6.144
 4391SOL    HW114072   1.915   5.718   6.239
 4391SOL    HW214073   1.795   5.772   6.143
 4392SOL     OW14074   1.205   1.430   4.067
 4392SOL    HW114075   1.272   1.497   4.036
 4392SOL    HW214076   1.159   1.463   4.149
 4393SOL     OW14077   5.236   0.117   1.508
 4393SOL    HW114078   5.249   0.145   1.413
 4393SOL    HW214079   5.325   0.113   1.554
 4394SOL     OW14080   1.714   0.149   1.267
 4394SOL    HW114081   1.761   0.069   1.230
 4394SOL    HW214082   1.722   0.149   1.367
 4395SOL     OW14083   2.710   6.217   1.394
 4395SOL    HW114084   2.630   6.172   1.433
 4395SOL    HW214085   2.793   6.167   1.421
 4396SOL     OW14086   1.907   0.734   3.352
 4396SOL    HW114087   1.886   0.756   3.447
 4396SOL    HW214088   1.823   0.735   3.298
 4397SOL     OW14089   2.954   1.891   3.937
 4397SOL    HW114090   2.878   1.880   3.873
 4397SOL    HW214091   2.956   1.814   4.000
 4398SOL     OW14092   1.967   3.249   6.138
 4398SOL    HW114093   1.965   3.347   6.158
 4398SOL    HW214094   2.044   3.207   6.185
 4399SOL     OW14095   2.898   6.230   2.367
 4399SOL    HW114096   2.894   6.180   2.454
 4399SOL    HW214097   2.952   6.177   2.301
 4400SOL     OW14098   1.945   6.487   4.311
 4400SOL    HW114099   1.969   6.513   4.404
 4400SOL    HW214100   1.935   6.570   4.255
 4401SOL     OW14101   3.269   6.425   5.468
 4401SOL    HW114102   3.220   6.416   5.555
 4401SOL    HW214103   3.288   6.334   5.432
 4402SOL     OW14104   1.172   0.242   3.089
 4402SOL    HW114105   1.090   0.289   3.122
 4402SOL    HW214106   1.157   0.143   3.093
 4403SOL     OW14107   1.368   5.459   1.143
 4403SOL    HW114108   1.467   5.447   1.153
 4403SOL    HW214109   1.331   5.498   1.228
 4404SOL     OW14110   0.956   5.567   6.238
 4404SOL    HW114111   0.983   5.609   6.325
 4404SOL    HW214112   0.861   5.536   6.245
 4405SOL     OW14113   2.108   4.529   3.612
 4405SOL    HW114114   2.199   4.509   3.649
 4405SOL    HW214115   2.067   4.445   3.576
 4406SOL     OW14116   6.166   3.510   2.254
 4406SOL    HW114117   6.082   3.540   2.207
 4406SOL    HW214118   6.218   3.590   2.283
 4407SOL     OW14119   0.286   6.412   2.390
 4407SOL    HW114120   0.253   6.346   2.323
 4407SOL    HW214121   0.278   6.504   2.352
 4408SOL     OW14122   3.977   0.244   0.734
 4408SOL    HW114123   3.953   0.151   0.704
 4408SOL    HW214124   3.951   0.255   0.830
 4409SOL     OW14125   3.933   0.860   2.306
 4409SOL    HW114126   3.874   0.808   2.367
 4409SOL    HW214127   3.876   0.910   2.240
 4410SOL     OW14128   1.156   6.040   1.099
 4410SOL    HW114129   1.138   6.049   1.197
 4410SOL    HW214130   1.170   5.944   1.076
 4411SOL     OW14131   3.194   4.748   5.407
 4411SOL    HW114132   3.215   4.778   5.314
 4411SOL    HW214133   3.149   4.659   5.404
 4412SOL     OW14134   4.491   6.735   3.184
 4412SOL    HW114135   4.481   6.643   3.223
 4412SOL    HW214136   4.476   6.804   3.255
 4413SOL     OW14137   3.759   0.223   4.098
 4413SOL    HW114138   3.729   0.311   4.135
 4413SOL    HW214139   3.682   0.159   4.097
 4414SOL     OW14140   4.681   4.502   1.678
 4414SOL    HW114141   4.659   4.533   1.770
 4414SOL    HW214142   4.757   4.556   1.642
 4415SOL     OW14143   3.209   3.417   1.676
 4415SOL    HW114144   3.173   3.468   1.754
 4415SOL    HW214145   3.155   3.439   1.595
 4416SOL     OW14146   4.259   2.148   4.077
 4416SOL    HW114147   4.170   2.131   4.119
 4416SOL    HW214148   4.271   2.086   4.000
 4417SOL     OW14149   0.447   3.577   3.762
 4417SOL    HW114150   0.411   3.489   3.732
 4417SOL    HW214151   0.483   3.627   3.683
 4418SOL     OW14152   6.375   0.442   0.562
 4418SOL    HW114153   6.395   0.478   0.653
 4418SOL    HW214154   6.456   0.448   0.505
 4419SOL     OW14155   6.237   5.631   6.220
 4419SOL    HW114156   6.244   5.672   6.129
 4419SOL    HW214157   6.323   5.644   6.269
 4420SOL     OW14158   3.893   2.187   0.818
 4420SOL    HW114159   3.949   2.129   0.760
 4420SOL    HW214160   3.923   2.179   0.913
 4421SOL     OW14161   1.380   2.625   4.589
 4421SOL    HW114162   1.406   2.549   4.530
 4421SOL    HW214163   1.307   2.595   4.652
 4422SOL     OW14164   0.223   4.920   6.862
 4422SOL    HW114165   0.189   4.827   6.852
 4422SOL    HW214166   0.231   4.963   6.772
 4423SOL     OW14167   5.523   3.967   5.639
 4423SOL    HW114168   5.605   3.958   5.696
 4423SOL    HW214169   5.543   3.933   5.547
 4424SOL     OW14170   5.012   6.135   4.397
 4424SOL    HW114171   4.965   6.105   4.314
 4424SOL    HW214172   4.949   6.128   4.475
 4425SOL     OW14173   1.979   5.796   1.450
 4425SOL    HW114174   1.898   5.836   1.406
 4425SOL    HW214175   2.059   5.853   1.429
 4426SOL     OW14176   1.022   0.057   3.611
 4426SOL    HW114177   0.999   0.008   3.694
 4426SOL    HW214178   1.122   0.062   3.602
 4427SOL     OW14179   3.646   5.928   3.317
 4427SOL    HW114180   3.581   5.997   3.350
 4427SOL    HW214181   3.678   5.873   3.395
 4428SOL     OW14182   5.747   0.829   3.595
 4428SOL    HW114183   5.839   0.829   3.635
 4428SOL    HW214184   5.686   0.882   3.653
 4429SOL     OW14185   3.144   5.593   3.697
 4429SOL    HW114186   3.223   5.577   3.638
 4429SOL    HW214187   3.064   5.546   3.659
 4430SOL     OW14188   5.324   4.817   4.928
 4430SOL    HW114189   5.375   4.738   4.892
 4430SOL    HW214190   5.389   4.885   4.961
 4431SOL     OW14191   3.444   0.619   3.747
 4431SOL    HW114192   3.476   0.524   3.752
 4431SOL    HW214193   3.380   0.637   3.822
 4432SOL     OW14194   1.599   3.455   5.911
 4432SOL    HW114195   1.569   3.444   6.006
 4432SOL    HW214196   1.542   3.399   5.851
 4433SOL     OW14197   1.100   1.050   4.847
 4433SOL    HW114198   1.150   1.017   4.768
 4433SOL    HW214199   1.085   1.149   4.839
 4434SOL     OW14200   0.043   1.393   1.773
 4434SOL    HW114201   0.048   1.310   1.717
 4434SOL    HW214202   6.975   1.431   1.767
 4435SOL     OW14203   2.682   4.276   0.430
 4435SOL    HW114204   2.632   4.210   0.485
 4435SOL    HW214205   2.780   4.266   0.446
 4436SOL     OW14206   4.487   2.007   1.509
 4436SOL    HW114207   4.407   2.014   1.568
 4436SOL    HW214208   4.457   1.981   1.417
 4437SOL     OW14209   0.393   3.698   1.772
 4437SOL    HW114210   0.391   3.773   1.705
 4437SOL    HW214211   0.420   3.733   1.861
 4438SOL     OW14212   3.917   0.134   6.400
 4438SOL    HW114213   3.926   0.109   6.303
 4438SOL    HW214214   3.986   0.084   6.453
 4439SOL     OW14215   2.519   6.624   2.448
 4439SOL    HW114216   2.604   6.638   2.500
 4439SOL    HW214217   2.542   6.598   2.354
 4440SOL     OW14218   1.908   4.707   0.539
 4440SOL    HW114219   1.933   4.730   0.445
 4440SOL    HW214220   1.865   4.617   0.542
 4441SOL     OW14221   0.575   1.341   0.001
 4441SOL    HW114222   0.574   1.328   6.926
 4441SOL    HW214223   0.628   1.423   0.023
 4442SOL     OW14224   1.903   4.439   6.845
 4442SOL    HW114225   1.916   4.527   6.889
 4442SOL    HW214226   1.814   4.437   6.799
 4443SOL     OW14227   0.465   5.282   6.602
 4443SOL    HW114228   0.528   5.228   6.657
 4443SOL    HW214229   0.385   5.225   6.579
 4444SOL     OW14230   5.275   4.173   0.206
 4444SOL    HW114231   5.347   4.210   0.148
 4444SOL    HW214232   5.189   4.220   0.188
 4445SOL     OW14233   0.551   6.028   0.018
 4445SOL    HW114234   0.599   5.942   0.034
 4445SOL    HW214235   0.487   6.045   0.093
 4446SOL     OW14236   5.169   1.078   0.689
 4446SOL    HW114237   5.258   1.063   0.731
 4446SOL    HW214238   5.142   1.173   0.700
 4447SOL     OW14239   5.320   4.945   5.505
 4447SOL    HW114240   5.415   4.929   5.530
 4447SOL    HW214241   5.313   5.030   5.452
 4448SOL     OW14242   3.303   6.802   2.209
 4448SOL    HW114243   3.355   6.883   2.236
 4448SOL    HW214244   3.238   6.778   2.281
 4449SOL     OW14245   3.770   1.278   6.376
 4449SOL    HW114246   3.861   1.253   6.342
 4449SOL    HW214247   3.744   1.368   6.341
 4450SOL     OW14248   3.567   0.579   0.585
 4450SOL    HW114249   3.535   0.567   0.679
 4450SOL    HW214250   3.507   0.529   0.522
 4451SOL     OW14251   4.761   4.174   3.325
 4451SOL    HW114252   4.812   4.237   3.267
 4451SOL    HW214253   4.682   4.222   3.364
 4452SOL     OW14254   4.879   6.485   4.532
 4452SOL    HW114255   4.913   6.560   4.588
 4452SOL    HW214256   4.788   6.459   4.563
 4453SOL     OW14257   0.765   3.181   1.214
 4453SOL    HW114258   0.692   3.224   1.160
 4453SOL    HW214259   0.740   3.183   1.311
 4454SOL     OW14260   0.911   2.189   0.602
 4454SOL    HW114261   0.956   2.258   0.660
 4454SOL    HW214262   0.834   2.149   0.652
 4455SOL     OW14263   6.751   6.032   5.053
 4455SOL    HW114264   6.663   6.078   5.065
 4455SOL    HW214265   6.825   6.098   5.066
 4456SOL     OW14266   1.874   0.166   4.189
 4456SOL    HW114267   1.933   0.239   4.223
 4456SOL    HW214268   1.793   0.158   4.247
 4457SOL     OW14269   1.032   2.168   5.070
 4457SOL    HW114270   0.968   2.096   5.042
 4457SOL    HW214271   1.110   2.128   5.117
 4458SOL     OW14272   2.267   3.776   0.993
 4458SOL    HW114273   2.180   3.797   0.949
 4458SOL    HW214274   2.337   3.839   0.959
 4459SOL     OW14275   1.476   2.605   3.747
 4459SOL    HW114276   1.407   2.613   3.675
 4459SOL    HW214277   1.451   2.531   3.809
 4460SOL     OW14278   6.929   3.256   4.019
 4460SOL    HW114279   6.831   3.275   4.029
 4460SOL    HW214280   6.978   3.343   4.011
 4461SOL     OW14281   2.695   0.781   1.027
 4461SOL    HW114282   2.700   0.681   1.021
 4461SOL    HW214283   2.616   0.813   0.974
 4462SOL     OW14284   5.870   4.675   1.908
 4462SOL    HW114285   5.845   4.772   1.915
 4462SOL    HW214286   5.831   4.637   1.824
 4463SOL     OW14287   6.237   2.175   1.063
 4463SOL    HW114288   6.301   2.251   1.049
 4463SOL    HW214289   6.159   2.208   1.117
 4464SOL     OW14290   0.684   5.774   0.104
 4464SOL    HW114291   0.604   5.751   0.049
 4464SOL    HW214292   0.755   5.705   0.089
 4465SOL     OW14293   1.998   5.861   0.497
 4465SOL    HW114294   1.974   5.849   0.401
 4465SOL    HW214295   2.080   5.808   0.518
 4466SOL     OW14296   1.866   2.131   3.504
 4466SOL    HW114297   1.910   2.068   3.568
 4466SOL    HW214298   1.818   2.202   3.556
 4467SOL     OW14299   3.783   5.617   3.185
 4467SOL    HW114300   3.783   5.661   3.095
 4467SOL    HW214301   3.819   5.681   3.253
 4468SOL     OW14302   1.409   3.604   1.900
 4468SOL    HW114303   1.344   3.579   1.828
 4468SOL    HW214304   1.366   3.672   1.960
 4469SOL     OW14305   2.755   6.796   1.182
 4469SOL    HW114306   2.684   6.853   1.140
 4469SOL    HW214307   2.752   6.705   1.142
 4470SOL     OW14308   1.249   0.469   2.015
 4470SOL    HW114309   1.304   0.550   2.035
 4470SOL    HW214310   1.153   0.497   2.005
 4471SOL     OW14311   1.708   1.484   6.079
 4471SOL    HW114312   1.788   1.530   6.116
 4471SOL    HW214313   1.707   1.494   5.980
 4472SOL     OW14314   1.571   3.092   0.940
 4472SOL    HW114315   1.473   3.082   0.927
 4472SOL    HW214316   1.596   3.060   1.032
 4473SOL     OW14317   0.261   3.412   4.552
 4473SOL    HW114318   0.346   3.451   4.516
 4473SOL    HW214319   0.257   3.426   4.650
 4474SOL     OW14320   2.994   0.138   1.696
 4474SOL    HW114321   3.052   0.097   1.766
 4474SOL    HW214322   2.904   0.159   1.735
 4475SOL     OW14323   0.791   3.758   1.542
 4475SOL    HW114324   0.781   3.660   1.560
 4475SOL    HW214325   0.753   3.810   1.619
 4476SOL     OW14326   4.907   1.666   4.147
 4476SOL    HW114327   4.813   1.686   4.120
 4476SOL    HW214328   4.907   1.589   4.211
 4477SOL     OW14329   2.121   0.216   6.182
 4477SOL    HW114330   2.074   0.128   6.178
 4477SOL    HW214331   2.128   0.246   6.277
 4478SOL     OW14332   1.416   0.274   0.069
 4478SOL    HW114333   1.439   0.339   7.020
 4478SOL    HW214334   1.459   0.303   0.154
 4479SOL     OW14335   1.068   2.872   0.473
 4479SOL    HW114336   1.088   2.830   0.562
 4479SOL    HW214337   1.026   2.961   0.487
 4480SOL     OW14338   0.619   6.365   4.206
 4480SOL    HW114339   0.702   6.412   4.178
 4480SOL    HW214340   0.643   6.290   4.268
 4481SOL     OW14341   2.513   4.589   6.593
 4481SOL    HW114342   2.424   4.573   6.549
 4481SOL    HW214343   2.583   4.602   6.523
 4482SOL     OW14344   2.685   5.343   6.548
 4482SOL    HW114345   2.605   5.336   6.607
 4482SOL    HW214346   2.748   5.411   6.585
 4483SOL     OW14347   0.621   2.911   1.752
 4483SOL    HW114348   0.692   2.981   1.764
 4483SOL    HW214349   0.532   2.955   1.747
 4484SOL     OW14350   2.700   2.404   6.774
 4484SOL    HW114351   2.681   2.410   6.872
 4484SOL    HW214352   2.754   2.322   6.756
 4485SOL     OW14353   5.495   3.032   4.637
 4485SOL    HW114354   5.406   3.072   4.660
 4485SOL    HW214355   5.484   2.968   4.561
 4486SOL     OW14356   4.537   4.898   5.431
 4486SOL    HW114357   4.450   4.882   5.384
 4486SOL    HW214358   4.595   4.817   5.421
 4487SOL     OW14359   1.268   2.913   0.282
 4487SOL    HW114360   1.347   2.852   0.277
 4487SOL    HW214361   1.203   2.877   0.349
 4488SOL     OW14362   0.123   3.908   4.285
 4488SOL    HW114363   0.212   3.894   4.328
 4488SOL    HW214364   0.067   3.826   4.297
 4489SOL     OW14365   3.851   5.496   5.593
 4489SOL    HW114366   3.895   5.581   5.563
 4489SOL    HW214367   3.803   5.454   5.516
 4490SOL     OW14368   5.130   1.876   0.758
 4490SOL    HW114369   5.056   1.936   0.789
 4490SOL    HW214370   5.147   1.892   0.661
 4491SOL     OW14371   1.075   2.719   3.020
 4491SOL    HW114372   1.149   2.729   2.954
 4491SOL    HW214373   0.996   2.772   2.990
 4492SOL     OW14374   5.795   0.519   1.379
 4492SOL    HW114375   5.754   0.547   1.466
 4492SOL    HW214376   5.831   0.426   1.388
 4493SOL     OW14377   4.904   0.808   5.357
 4493SOL    HW114378   4.814   0.816   5.400
 4493SOL    HW214379   4.968   0.870   5.404
 4494SOL     OW14380   0.647   0.633   0.809
 4494SOL    HW114381   0.736   0.677   0.795
 4494SOL    HW214382   0.615   0.593   0.723
 4495SOL     OW14383   4.461   6.047   2.052
 4495SOL    HW114384   4.439   6.127   1.995
 4495SOL    HW214385   4.380   6.019   2.102
 4496SOL     OW14386   3.222   5.928   6.348
 4496SOL    HW114387   3.254   5.952   6.439
 4496SOL    HW214388   3.217   6.011   6.291
 4497SOL     OW14389   4.144   1.677   6.188
 4497SOL    HW114390   4.175   1.767   6.159
 4497SOL    HW214391   4.137   1.674   6.288
 4498SOL     OW14392   0.682   5.801   5.657
 4498SOL    HW114393   0.662   5.759   5.746
 4498SOL    HW214394   0.613   5.773   5.591
 4499SOL     OW14395   5.637   2.035   2.047
 4499SOL    HW114396   5.689   1.956   2.015
 4499SOL    HW214397   5.700   2.112   2.061
 4500SOL     OW14398   3.523   6.035   6.982
 4500SOL    HW114399   3.463   6.098   0.007
 4500SOL    HW214400   3.563   5.970   0.022
 4501SOL     OW14401   5.482   1.031   2.440
 4501SOL    HW114402   5.407   1.037   2.506
 4501SOL    HW214403   5.450   1.066   2.352
 4502SOL     OW14404   0.498   3.304   6.690
 4502SOL    HW114405   0.545   3.390   6.708
 4502SOL    HW214406   0.482   3.295   6.591
 4503SOL     OW14407   3.207   0.174   2.462
 4503SOL    HW114408   3.256   0.256   2.489
 4503SOL    HW214409   3.109   0.187   2.474
 4504SOL     OW14410   0.599   2.028   3.129
 4504SOL    HW114411   0.598   2.125   3.103
 4504SOL    HW214412   0.505   1.994   3.132
 4505SOL     OW14413   5.820   3.666   2.661
 4505SOL    HW114414   5.768   3.597   2.610
 4505SOL    HW214415   5.909   3.678   2.618
 4506SOL     OW14416   5.206   3.382   4.894
 4506SOL    HW114417   5.182   3.476   4.917
 4506SOL    HW214418   5.273   3.382   4.820
 4507SOL     OW14419   6.452   2.697   3.331
 4507SOL    HW114420   6.504   2.782   3.318
 4507SOL    HW214421   6.498   2.623   3.282
 4508SOL     OW14422   0.901   5.196   0.393
 4508SOL    HW114423   0.957   5.113   0.401
 4508SOL    HW214424   0.824   5.178   0.331
 4509SOL     OW14425   4.867   2.936   2.721
 4509SOL    HW114426   4.814   2.857   2.750
 4509SOL    HW214427   4.848   2.955   2.625
 4510SOL     OW14428   4.524   1.302   4.596
 4510SOL    HW114429   4.558   1.211   4.622
 4510SOL    HW214430   4.473   1.296   4.510
 4511SOL     OW14431   0.635   4.493   0.892
 4511SOL    HW114432   0.554   4.445   0.925
 4511SOL    HW214433   0.670   4.448   0.810
 4512SOL     OW14434   3.287   2.525   5.765
 4512SOL    HW114435   3.264   2.519   5.862
 4512SOL    HW214436   3.214   2.575   5.718
 4513SOL     OW14437   1.533   6.349   0.213
 4513SOL    HW114438   1.584   6.435   0.209
 4513SOL    HW214439   1.572   6.292   0.285
 4514SOL     OW14440   3.086   3.458   6.830
 4514SOL    HW114441   3.052   3.391   6.896
 4514SOL    HW214442   3.008   3.497   6.780
 4515SOL     OW14443   4.451   6.930   6.049
 4515SOL    HW114444   4.529   6.991   6.042
 4515SOL    HW214445   4.411   6.939   6.141
 4516SOL     OW14446   3.740   1.585   5.065
 4516SOL    HW114447   3.716   1.515   4.997
 4516SOL    HW214448   3.836   1.574   5.090
 4517SOL     OW14449   4.026   0.412   5.690
 4517SOL    HW114450   3.995   0.380   5.779
 4517SOL    HW214451   3.980   0.499   5.668
 4518SOL     OW14452   1.860   0.563   0.742
 4518SOL    HW114453   1.782   0.547   0.802
 4518SOL    HW214454   1.887   0.660   0.746
 4519SOL     OW14455   5.300   6.365   6.485
 4519SOL    HW114456   5.350   6.287   6.449
 4519SOL    HW214457   5.365   6.427   6.530
 4520SOL     OW14458   4.464   6.536   4.945
 4520SOL    HW114459   4.384   6.590   4.920
 4520SOL    HW214460   4.505   6.573   5.028
 4521SOL     OW14461   4.641   2.593   4.840
 4521SOL    HW114462   4.555   2.545   4.855
 4521SOL    HW214463   4.648   2.671   4.902
 4522SOL     OW14464   5.032   4.123   3.254
 4522SOL    HW114465   4.955   4.102   3.194
 4522SOL    HW214466   5.093   4.043   3.259
 4523SOL     OW14467   0.425   3.178   6.396
 4523SOL    HW114468   0.344   3.195   6.340
 4523SOL    HW214469   0.491   3.252   6.382
 4524SOL     OW14470   0.662   3.183   3.099
 4524SOL    HW114471   0.685   3.269   3.053
 4524SOL    HW214472   0.562   3.176   3.107
 4525SOL     OW14473   2.856   1.956   5.185
 4525SOL    HW114474   2.900   2.045   5.179
 4525SOL    HW214475   2.762   1.968   5.215
 4526SOL     OW14476   0.335   0.122   5.584
 4526SOL    HW114477   0.288   0.130   5.672
 4526SOL    HW214478   0.315   0.032   5.544
 4527SOL     OW14479   6.411   0.492   3.030
 4527SOL    HW114480   6.503   0.457   3.045
 4527SOL    HW214481   6.346   0.439   3.085
 4528SOL     OW14482   3.834   0.870   5.461
 4528SOL    HW114483   3.781   0.942   5.416
 4528SOL    HW214484   3.872   0.904   5.546
 4529SOL     OW14485   2.609   1.130   5.637
 4529SOL    HW114486   2.572   1.080   5.715
 4529SOL    HW214487   2.709   1.124   5.638
 4530SOL     OW14488   2.745   6.026   5.416
 4530SOL    HW114489   2.706   6.030   5.324
 4530SOL    HW214490   2.689   6.080   5.479
 4531SOL     OW14491   0.683   5.082   5.926
 4531SOL    HW114492   0.778   5.107   5.945
 4531SOL    HW214493   0.681   4.992   5.882
 4532SOL     OW14494   5.769   0.864   2.787
 4532SOL    HW114495   5.853   0.851   2.734
 4532SOL    HW214496   5.782   0.828   2.879
 4533SOL     OW14497   2.525   0.595   2.267
 4533SOL    HW114498   2.498   0.682   2.226
 4533SOL    HW214499   2.443   0.545   2.295
 4534SOL     OW14500   4.564   1.739   4.466
 4534SOL    HW114501   4.643   1.682   4.489
 4534SOL    HW214502   4.558   1.816   4.529
 4535SOL     OW14503   2.659   1.796   0.514
 4535SOL    HW114504   2.745   1.751   0.536
 4535SOL    HW214505   2.597   1.731   0.470
 4536SOL     OW14506   2.876   1.228   5.929
 4536SOL    HW114507   2.959   1.200   5.978
 4536SOL    HW214508   2.809   1.153   5.931
 4537SOL     OW14509   3.994   3.110   3.619
 4537SOL    HW114510   3.907   3.064   3.601
 4537SOL    HW214511   4.005   3.122   3.718
 4538SOL     OW14512   0.018   2.442   0.516
 4538SOL    HW114513   0.018   2.343   0.503
 4538SOL    HW214514   0.105   2.471   0.557
 4539SOL     OW14515   0.962   5.588   5.456
 4539SOL    HW114516   0.962   5.656   5.529
 4539SOL    HW214517   0.873   5.591   5.408
 4540SOL     OW14518   0.514   0.852   6.879
 4540SOL    HW114519   0.580   0.900   6.820
 4540SOL    HW214520   0.558   0.828   6.965
 4541SOL     OW14521   4.513   2.716   5.969
 4541SOL    HW114522   4.562   2.671   6.043
 4541SOL    HW214523   4.519   2.660   5.886
 4542SOL     OW14524   6.925   2.516   1.319
 4542SOL    HW114525   6.980   2.435   1.296
 4542SOL    HW214526   6.914   2.522   1.418
 4543SOL     OW14527   3.688   2.380   6.984
 4543SOL    HW114528   3.785   2.369   7.006
 4543SOL    HW214529   3.636   2.396   0.044
 4544SOL     OW14530   5.974   5.824   0.736
 4544SOL    HW114531   5.888   5.874   0.733
 4544SOL    HW214532   5.956   5.726   0.745
 4545SOL     OW14533   1.985   3.127   5.496
 4545SOL    HW114534   2.073   3.100   5.456
 4545SOL    HW214535   1.995   3.215   5.543
 4546SOL     OW14536   3.382   1.636   6.796
 4546SOL    HW114537   3.322   1.610   6.721
 4546SOL    HW214538   3.477   1.616   6.772
 4547SOL     OW14539   6.567   0.179   0.234
 4547SOL    HW114540   6.528   0.109   0.294
 4547SOL    HW214541   6.652   0.214   0.274
 4548SOL     OW14542   2.238   2.914   2.819
 4548SOL    HW114543   2.235   2.924   2.719
 4548SOL    HW214544   2.284   2.829   2.843
 4549SOL     OW14545   5.849   3.540   3.624
 4549SOL    HW114546   5.916   3.578   3.687
 4549SOL    HW214547   5.767   3.598   3.623
 4550SOL     OW14548   0.819   4.353   2.962
 4550SOL    HW114549   0.741   4.412   2.946
 4550SOL    HW214550   0.873   4.388   3.039
 4551SOL     OW14551   1.168   3.690   4.642
 4551SOL    HW114552   1.225   3.747   4.700
 4551SOL    HW214553   1.112   3.629   4.698
 4552SOL     OW14554   5.719   0.968   1.385
 4552SOL    HW114555   5.796   0.912   1.355
 4552SOL    HW214556   5.638   0.911   1.398
 4553SOL     OW14557   5.953   4.995   6.152
 4553SOL    HW114558   5.962   5.066   6.222
 4553SOL    HW214559   5.864   4.952   6.158
 4554SOL     OW14560   0.558   6.151   2.419
 4554SOL    HW114561   0.575   6.111   2.509
 4554SOL    HW214562   0.478   6.109   2.378
 4555SOL     OW14563   1.057   0.930   6.564
 4555SOL    HW114564   0.996   0.851   6.554
 4555SOL    HW214565   1.062   0.980   6.478
 4556SOL     OW14566   5.771   3.587   6.029
 4556SOL    HW114567   5.762   3.685   6.011
 4556SOL    HW214568   5.863   3.568   6.064
 4557SOL     OW14569   6.290   5.006   2.842
 4557SOL    HW114570   6.270   5.072   2.770
 4557SOL    HW214571   6.235   4.924   2.828
 4558SOL     OW14572   6.873   3.534   5.742
 4558SOL    HW114573   6.778   3.547   5.714
 4558SOL    HW214574   6.917   3.623   5.754
 4559SOL     OW14575   0.000   2.594   2.560
 4559SOL    HW114576   6.989   2.655   2.489
 4559SOL    HW214577   0.006   2.643   2.647
 4560SOL     OW14578   6.013   4.772   2.571
 4560SOL    HW114579   6.073   4.764   2.651
 4560SOL    HW214580   6.068   4.794   2.491
 4561SOL     OW14581   3.723   2.122   4.658
 4561SOL    HW114582   3.742   2.025   4.674
 4561SOL    HW214583   3.809   2.169   4.637
 4562SOL     OW14584   2.532   1.248   1.059
 4562SOL    HW114585   2.556   1.188   1.135
 4562SOL    HW214586   2.600   1.320   1.050
 4563SOL     OW14587   0.406   3.077   1.785
 4563SOL    HW114588   0.401   3.153   1.849
 4563SOL    HW214589   0.393   3.111   1.692
 4564SOL     OW14590   0.453   4.106   1.733
 4564SOL    HW114591   0.388   4.120   1.807
 4564SOL    HW214592   0.410   4.052   1.660
 4565SOL     OW14593   1.731   6.336   4.948
 4565SOL    HW114594   1.640   6.300   4.928
 4565SOL    HW214595   1.725   6.400   5.025
 4566SOL     OW14596   6.246   4.300   2.000
 4566SOL    HW114597   6.309   4.278   1.926
 4566SOL    HW214598   6.271   4.248   2.082
 4567SOL     OW14599   0.321   0.686   6.446
 4567SOL    HW114600   0.307   0.608   6.386
 4567SOL    HW214601   0.300   0.659   6.541
 4568SOL     OW14602   0.685   5.563   3.324
 4568SOL    HW114603   0.676   5.467   3.296
 4568SOL    HW214604   0.646   5.622   3.254
 4569SOL     OW14605   2.547   0.759   3.375
 4569SOL    HW114606   2.613   0.789   3.306
 4569SOL    HW214607   2.467   0.818   3.373
 4570SOL     OW14608   5.930   5.680   1.535
 4570SOL    HW114609   5.895   5.762   1.490
 4570SOL    HW214610   5.868   5.653   1.608
 4571SOL     OW14611   3.011   3.403   6.432
 4571SOL    HW114612   3.019   3.486   6.486
 4571SOL    HW214613   3.060   3.415   6.346
 4572SOL     OW14614   2.712   2.841   1.673
 4572SOL    HW114615   2.797   2.848   1.621
 4572SOL    HW214616   2.687   2.745   1.682
 4573SOL     OW14617   1.964   6.228   1.488
 4573SOL    HW114618   1.903   6.301   1.518
 4573SOL    HW214619   1.919   6.175   1.416
 4574SOL     OW14620   5.761   1.889   0.752
 4574SOL    HW114621   5.842   1.855   0.800
 4574SOL    HW214622   5.784   1.906   0.656
 4575SOL     OW14623   6.600   6.682   4.654
 4575SOL    HW114624   6.586   6.740   4.734
 4575SOL    HW214625   6.635   6.737   4.579
 4576SOL     OW14626   2.569   4.726   5.040
 4576SOL    HW114627   2.655   4.683   5.014
 4576SOL    HW214628   2.555   4.717   5.138
 4577SOL     OW14629   2.079   1.377   2.944
 4577SOL    HW114630   2.054   1.431   2.864
 4577SOL    HW214631   2.030   1.290   2.942
 4578SOL     OW14632   1.164   1.250   1.639
 4578SOL    HW114633   1.203   1.167   1.600
 4578SOL    HW214634   1.133   1.232   1.732
 4579SOL     OW14635   3.767   1.386   2.292
 4579SOL    HW114636   3.746   1.439   2.210
 4579SOL    HW214637   3.767   1.289   2.270
 4580SOL     OW14638   0.220   2.763   0.260
 4580SOL    HW114639   0.207   2.823   0.339
 4580SOL    HW214640   0.178   2.804   0.179
 4581SOL     OW14641   3.413   6.944   1.852
 4581SOL    HW114642   3.406   6.938   1.752
 4581SOL    HW214643   3.322   6.929   1.892
 4582SOL     OW14644   6.040   1.127   3.037
 4582SOL    HW114645   6.088   1.211   3.009
 4582SOL    HW214646   5.941   1.145   3.040
 4583SOL     OW14647   1.890   6.886   6.560
 4583SOL    HW114648   1.791   6.894   6.564
 4583SOL    HW214649   1.919   6.797   6.597
 4584SOL     OW14650   1.644   0.600   5.579
 4584SOL    HW114651   1.679   0.547   5.501
 4584SOL    HW214652   1.559   0.645   5.553
 4585SOL     OW14653   1.214   3.485   3.367
 4585SOL    HW114654   1.137   3.438   3.324
 4585SOL    HW214655   1.258   3.425   3.433
 4586SOL     OW14656   5.301   4.552   6.698
 4586SOL    HW114657   5.384   4.503   6.669
 4586SOL    HW214658   5.247   4.577   6.618
 4587SOL     OW14659   3.131   3.653   4.464
 4587SOL    HW114660   3.162   3.559   4.446
 4587SOL    HW214661   3.130   3.705   4.378
 4588SOL     OW14662   2.717   4.228   5.664
 4588SOL    HW114663   2.676   4.311   5.627
 4588SOL    HW214664   2.815   4.227   5.644
 4589SOL     OW14665   5.296   6.934   2.361
 4589SOL    HW114666   5.228   6.980   2.304
 4589SOL    HW214667   5.332   6.854   2.313
 4590SOL     OW14668   3.297   5.478   1.735
 4590SOL    HW114669   3.355   5.554   1.708
 4590SOL    HW214670   3.346   5.392   1.721
 4591SOL     OW14671   1.701   0.565   5.298
 4591SOL    HW114672   1.787   0.544   5.253
 4591SOL    HW214673   1.629   0.577   5.230
 4592SOL     OW14674   2.320   1.577   4.245
 4592SOL    HW114675   2.342   1.664   4.291
 4592SOL    HW214676   2.238   1.538   4.286
 4593SOL     OW14677   1.021   6.106   4.178
 4593SOL    HW114678   1.029   6.188   4.121
 4593SOL    HW214679   0.952   6.120   4.248
 4594SOL     OW14680   1.893   0.417   2.596
 4594SOL    HW114681   1.872   0.319   2.604
 4594SOL    HW214682   1.983   0.435   2.635
 4595SOL     OW14683   4.923   1.775   6.029
 4595SOL    HW114684   4.967   1.695   6.069
 4595SOL    HW214685   4.872   1.824   6.101
 4596SOL     OW14686   0.862   0.974   2.212
 4596SOL    HW114687   0.954   1.008   2.194
 4596SOL    HW214688   0.824   1.021   2.292
 4597SOL     OW14689   2.713   6.415   6.856
 4597SOL    HW114690   2.792   6.365   6.892
 4597SOL    HW214691   2.649   6.351   6.816
 4598SOL     OW14692   2.178   5.658   0.185
 4598SOL    HW114693   2.211   5.685   0.276
 4598SOL    HW214694   2.082   5.632   0.190
 4599SOL     OW14695   2.189   5.131   3.359
 4599SOL    HW114696   2.275   5.181   3.350
 4599SOL    HW214697   2.122   5.188   3.406
 4600SOL     OW14698   6.810   6.306   6.069
 4600SOL    HW114699   6.874   6.288   5.994
 4600SOL    HW214700   6.793   6.222   6.120
 4601SOL     OW14701   1.096   1.320   4.786
 4601SOL    HW114702   1.180   1.361   4.751
 4601SOL    HW214703   1.023   1.331   4.719
 4602SOL     OW14704   2.864   2.096   0.061
 4602SOL    HW114705   2.954   2.102   0.017
 4602SOL    HW214706   2.794   2.131   7.022
 4603SOL     OW14707   5.101   6.280   1.089
 4603SOL    HW114708   5.007   6.262   1.059
 4603SOL    HW214709   5.102   6.296   1.188
 4604SOL     OW14710   5.165   0.345   5.912
 4604SOL    HW114711   5.198   0.255   5.884
 4604SOL    HW214712   5.234   0.388   5.971
 4605SOL     OW14713   3.432   7.004   2.363
 4605SOL    HW114714   3.447   6.966   2.454
 4605SOL    HW214715   3.393   0.072   2.371
 4606SOL     OW14716   6.669   6.817   3.775
 4606SOL    HW114717   6.593   6.809   3.840
 4606SOL    HW214718   6.716   6.904   3.790
 4607SOL     OW14719   1.636   2.997   2.155
 4607SOL    HW114720   1.708   3.065   2.160
 4607SOL    HW214721   1.599   2.981   2.246
 4608SOL     OW14722   6.911   3.492   4.847
 4608SOL    HW114723   6.910   3.453   4.755
 4608SOL    HW214724   6.818   3.503   4.880
 4609SOL     OW14725   4.501   6.056   6.954
 4609SOL    HW114726   4.509   6.080   0.026
 4609SOL    HW214727   4.413   6.089   6.919
 4610SOL     OW14728   5.208   2.832   0.878
 4610SOL    HW114729   5.223   2.756   0.815
 4610SOL    HW214730   5.249   2.915   0.840
 4611SOL     OW14731   1.213   0.431   6.090
 4611SOL    HW114732   1.167   0.508   6.133
 4611SOL    HW214733   1.149   0.356   6.077
 4612SOL     OW14734   1.940   6.949   1.639
 4612SOL    HW114735   1.908   6.951   1.734
 4612SOL    HW214736   2.039   6.941   1.638
 4613SOL     OW14737   1.524   5.134   1.973
 4613SOL    HW114738   1.619   5.152   1.948
 4613SOL    HW214739   1.505   5.177   2.062
 4614SOL     OW14740   6.566   3.516   4.405
 4614SOL    HW114741   6.510   3.596   4.428
 4614SOL    HW214742   6.517   3.433   4.432
 4615SOL     OW14743   0.834   2.590   0.722
 4615SOL    HW114744   0.753   2.608   0.778
 4615SOL    HW214745   0.806   2.567   0.629
 4616SOL     OW14746   5.915   3.127   4.624
 4616SOL    HW114747   5.954   3.035   4.633
 4616SOL    HW214748   5.962   3.189   4.685
 4617SOL     OW14749   0.671   2.459   2.512
 4617SOL    HW114750   0.750   2.478   2.454
 4617SOL    HW214751   0.598   2.524   2.491
 4618SOL     OW14752   2.524   4.447   5.572
 4618SOL    HW114753   2.600   4.502   5.536
 4618SOL    HW214754   2.501   4.479   5.664
 4619SOL     OW14755   3.813   6.244   5.374
 4619SOL    HW114756   3.750   6.284   5.307
 4619SOL    HW214757   3.852   6.315   5.431
 4620SOL     OW14758   1.472   5.418   2.766
 4620SOL    HW114759   1.479   5.505   2.816
 4620SOL    HW214760   1.557   5.402   2.717
 4621SOL     OW14761   4.756   0.601   2.075
 4621SOL    HW114762   4.785   0.659   2.151
 4621SOL    HW214763   4.739   0.508   2.108
 4622SOL     OW14764   4.602   5.609   1.359
 4622SOL    HW114765   4.568   5.578   1.270
 4622SOL    HW214766   4.631   5.531   1.413
 4623SOL     OW14767   2.909   5.111   1.230
 4623SOL    HW114768   2.896   5.041   1.300
 4623SOL    HW214769   2.868   5.079   1.144
 4624SOL     OW14770   4.250   1.314   2.548
 4624SOL    HW114771   4.176   1.266   2.500
 4624SOL    HW214772   4.329   1.322   2.487
 4625SOL     OW14773   2.114   5.567   1.359
 4625SOL    HW114774   2.089   5.478   1.397
 4625SOL    HW214775   2.058   5.638   1.402
 4626SOL     OW14776   4.007   3.922   1.953
 4626SOL    HW114777   3.968   3.954   2.040
 4626SOL    HW214778   4.064   3.994   1.914
 4627SOL     OW14779   5.956   6.774   5.074
 4627SOL    HW114780   6.050   6.784   5.109
 4627SOL    HW214781   5.930   6.856   5.024
 4628SOL     OW14782   5.504   5.156   4.006
 4628SOL    HW114783   5.512   5.057   4.019
 4628SOL    HW214784   5.449   5.194   4.080
 4629SOL     OW14785   2.164   6.335   6.484
 4629SOL    HW114786   2.104   6.352   6.405
 4629SOL    HW214787   2.133   6.390   6.561
 4630SOL     OW14788   1.623   3.976   2.259
 4630SOL    HW114789   1.651   3.919   2.182
 4630SOL    HW214790   1.533   4.015   2.240
 4631SOL     OW14791   0.305   0.460   3.572
 4631SOL    HW114792   0.340   0.428   3.483
 4631SOL    HW214793   0.365   0.425   3.645
 4632SOL     OW14794   3.448   4.928   2.746
 4632SOL    HW114795   3.402   5.009   2.710
 4632SOL    HW214796   3.502   4.885   2.673
 4633SOL     OW14797   5.009   1.342   4.452
 4633SOL    HW114798   5.048   1.261   4.496
 4633SOL    HW214799   5.079   1.386   4.396
 4634SOL     OW14800   3.277   3.671   4.864
 4634SOL    HW114801   3.207   3.686   4.933
 4634SOL    HW214802   3.258   3.729   4.784
 4635SOL     OW14803   5.196   5.781   0.550
 4635SOL    HW114804   5.183   5.682   0.545
 4635SOL    HW214805   5.234   5.814   0.464
 4636SOL     OW14806   1.936   5.857   0.225
 4636SOL    HW114807   1.888   5.909   0.154
 4636SOL    HW214808   1.907   5.761   0.221
 4637SOL     OW14809   1.977   0.408   1.944
 4637SOL    HW114810   2.012   0.383   1.853
 4637SOL    HW214811   2.033   0.363   2.014
 4638SOL     OW14812   3.393   5.309   6.778
 4638SOL    HW114813   3.302   5.298   6.738
 4638SOL    HW214814   3.387   5.368   6.858
 4639SOL     OW14815   2.058   2.327   1.001
 4639SOL    HW114816   2.128   2.398   1.013
 4639SOL    HW214817   2.024   2.329   0.907
 4640SOL     OW14818   6.541   2.972   5.886
 4640SOL    HW114819   6.629   2.991   5.842
 4640SOL    HW214820   6.486   3.055   5.888
 4641SOL     OW14821   0.663   5.600   4.086
 4641SOL    HW114822   0.742   5.554   4.044
 4641SOL    HW214823   0.664   5.584   4.185
 4642SOL     OW14824   0.620   1.672   3.263
 4642SOL    HW114825   0.644   1.721   3.348
 4642SOL    HW214826   0.560   1.595   3.285
 4643SOL     OW14827   0.445   2.104   0.027
 4643SOL    HW114828   0.492   2.036   0.083
 4643SOL    HW214829   0.512   2.151   6.993
 4644SOL     OW14830   1.422   1.045   0.846
 4644SOL    HW114831   1.457   0.952   0.848
 4644SOL    HW214832   1.488   1.107   0.891
 4645SOL     OW14833   1.444   1.453   3.746
 4645SOL    HW114834   1.388   1.449   3.663
 4645SOL    HW214835   1.427   1.372   3.801
 4646SOL     OW14836   1.909   4.785   3.403
 4646SOL    HW114837   1.971   4.841   3.348
 4646SOL    HW214838   1.816   4.820   3.395
 4647SOL     OW14839   1.561   6.727   2.831
 4647SOL    HW114840   1.652   6.747   2.796
 4647SOL    HW214841   1.564   6.725   2.931
 4648SOL     OW14842   2.511   1.823   4.548
 4648SOL    HW114843   2.432   1.822   4.487
 4648SOL    HW214844   2.595   1.829   4.494
 4649SOL     OW14845   5.700   0.434   0.555
 4649SOL    HW114846   5.791   0.467   0.579
 4649SOL    HW214847   5.672   0.475   0.468
 4650SOL     OW14848   5.506   5.937   1.193
 4650SOL    HW114849   5.463   5.889   1.117
 4650SOL    HW214850   5.604   5.947   1.174
 4651SOL     OW14851   5.961   3.223   6.152
 4651SOL    HW114852   5.923   3.284   6.222
 4651SOL    HW214853   5.974   3.132   6.191
 4652SOL     OW14854   0.361   6.384   4.077
 4652SOL    HW114855   0.333   6.297   4.037
 4652SOL    HW214856   0.449   6.373   4.124
 4653SOL     OW14857   5.476   5.563   0.637
 4653SOL    HW114858   5.502   5.656   0.611
 4653SOL    HW214859   5.398   5.566   0.700
 4654SOL     OW14860   0.236   6.614   4.960
 4654SOL    HW114861   0.280   6.524   4.967
 4654SOL    HW214862   0.306   6.684   4.946
 4655SOL     OW14863   4.428   2.675   1.343
 4655SOL    HW114864   4.526   2.695   1.331
 4655SOL    HW214865   4.381   2.759   1.371
 4656SOL     OW14866   0.957   0.947   1.180
 4656SOL    HW114867   0.946   0.864   1.126
 4656SOL    HW214868   0.985   1.022   1.121
 4657SOL     OW14869   5.260   6.692   1.559
 4657SOL    HW114870   5.340   6.748   1.539
 4657SOL    HW214871   5.289   6.606   1.599
 4658SOL     OW14872   2.688   2.638   6.082
 4658SOL    HW114873   2.786   2.657   6.087
 4658SOL    HW214874   2.673   2.539   6.083
 4659SOL     OW14875   3.496   5.205   0.405
 4659SOL    HW114876   3.483   5.107   0.392
 4659SOL    HW214877   3.411   5.253   0.382
 4660SOL     OW14878   1.376   6.626   4.076
 4660SOL    HW114879   1.333   6.703   4.029
 4660SOL    HW214880   1.344   6.621   4.170
 4661SOL     OW14881   1.081   3.108   5.379
 4661SOL    HW114882   1.173   3.147   5.375
 4661SOL    HW214883   1.058   3.068   5.290
 4662SOL     OW14884   2.652   6.266   4.723
 4662SOL    HW114885   2.621   6.193   4.663
 4662SOL    HW214886   2.574   6.322   4.751
 4663SOL     OW14887   1.724   6.818   0.133
 4663SOL    HW114888   1.737   6.866   0.046
 4663SOL    HW214889   1.670   6.875   0.195
 4664SOL     OW14890   6.505   5.989   6.866
 4664SOL    HW114891   6.480   6.059   6.800
 4664SOL    HW214892   6.546   5.911   6.819
 4665SOL     OW14893   2.372   0.685   4.616
 4665SOL    HW114894   2.420   0.749   4.675
 4665SOL    HW214895   2.295   0.731   4.572
 4666SOL     OW14896   2.313   2.022   5.619
 4666SOL    HW114897   2.337   1.935   5.664
 4666SOL    HW214898   2.292   2.091   5.689
 4667SOL     OW14899   6.669   3.550   1.460
 4667SOL    HW114900   6.659   3.450   1.460
 4667SOL    HW214901   6.584   3.592   1.491
 4668SOL     OW14902   4.267   2.333   4.593
 4668SOL    HW114903   4.344   2.376   4.548
 4668SOL    HW214904   4.218   2.275   4.528
 4669SOL     OW14905   5.500   6.704   6.772
 4669SOL    HW114906   5.456   6.645   6.840
 4669SOL    HW214907   5.429   6.751   6.719
 4670SOL     OW14908   0.832   3.261   0.748
 4670SOL    HW114909   0.844   3.358   0.768
 4670SOL    HW214910   0.910   3.210   0.783
 4671SOL     OW14911   0.024   3.836   0.128
 4671SOL    HW114912   6.972   3.853   0.191
 4671SOL    HW214913   0.057   3.923   0.092
 4672SOL     OW14914   3.136   4.044   5.856
 4672SOL    HW114915   3.159   4.018   5.762
 4672SOL    HW214916   3.163   3.970   5.918
 4673SOL     OW14917   5.848   0.236   6.944
 4673SOL    HW114918   5.790   0.168   6.990
 4673SOL    HW214919   5.894   0.293   7.012
 4674SOL     OW14920   1.002   1.932   0.546
 4674SOL    HW114921   0.973   1.882   0.627
 4674SOL    HW214922   0.975   2.028   0.554
 4675SOL     OW14923   2.499   6.342   0.154
 4675SOL    HW114924   2.518   6.440   0.164
 4675SOL    HW214925   2.547   6.291   0.225
 4676SOL     OW14926   0.789   5.931   3.657
 4676SOL    HW114927   0.695   5.909   3.681
 4676SOL    HW214928   0.802   5.919   3.559
 4677SOL     OW14929   4.432   0.766   6.537
 4677SOL    HW114930   4.443   0.764   6.438
 4677SOL    HW214931   4.522   0.770   6.581
 4678SOL     OW14932   2.199   4.949   0.430
 4678SOL    HW114933   2.171   5.003   0.509
 4678SOL    HW214934   2.242   5.008   0.362
 4679SOL     OW14935   3.028   0.583   6.315
 4679SOL    HW114936   3.026   0.682   6.309
 4679SOL    HW214937   2.944   0.550   6.357
 4680SOL     OW14938   1.853   4.956   0.903
 4680SOL    HW114939   1.795   5.010   0.964
 4680SOL    HW214940   1.946   4.953   0.939
 4681SOL     OW14941   0.062   5.819   5.217
 4681SOL    HW114942   6.992   5.788   5.236
 4681SOL    HW214943   0.113   5.744   5.175
 4682SOL     OW14944   4.231   6.243   0.783
 4682SOL    HW114945   4.196   6.325   0.737
 4682SOL    HW214946   4.292   6.271   0.857
 4683SOL     OW14947   6.051   3.930   2.346
 4683SOL    HW114948   6.029   3.955   2.440
 4683SOL    HW214949   5.982   3.969   2.284
 4684SOL     OW14950   1.512   1.969   4.754
 4684SOL    HW114951   1.515   2.068   4.767
 4684SOL    HW214952   1.605   1.932   4.753
 4685SOL     OW14953   4.971   5.265   4.928
 4685SOL    HW114954   4.921   5.208   4.992
 4685SOL    HW214955   5.068   5.241   4.931
 4686SOL     OW14956   4.610   5.594   6.342
 4686SOL    HW114957   4.608   5.692   6.358
 4686SOL    HW214958   4.550   5.571   6.265
 4687SOL     OW14959   6.457   5.355   4.891
 4687SOL    HW114960   6.524   5.429   4.876
 4687SOL    HW214961   6.479   5.278   4.830
 4688SOL     OW14962   0.152   2.825   6.513
 4688SOL    HW114963   0.248   2.855   6.513
 4688SOL    HW214964   0.109   2.851   6.427
 4689SOL     OW14965   0.137   6.174   4.962
 4689SOL    HW114966   0.070   6.210   5.027
 4689SOL    HW214967   0.213   6.239   4.952
 4690SOL     OW14968   1.619   1.760   6.970
 4690SOL    HW114969   1.645   1.707   6.890
 4690SOL    HW214970   1.613   1.857   6.946
 4691SOL     OW14971   2.625   5.241   0.955
 4691SOL    HW114972   2.580   5.260   1.042
 4691SOL    HW214973   2.556   5.212   0.888
 4692SOL     OW14974   0.413   5.422   3.263
 4692SOL    HW114975   0.331   5.393   3.215
 4692SOL    HW214976   0.388   5.483   3.339
 4693SOL     OW14977   0.717   1.065   4.173
 4693SOL    HW114978   0.624   1.090   4.146
 4693SOL    HW214979   0.713   0.990   4.240
 4694SOL     OW14980   1.754   1.663   0.188
 4694SOL    HW114981   1.713   1.704   0.106
 4694SOL    HW214982   1.838   1.614   0.162
 4695SOL     OW14983   3.623   3.045   2.389
 4695SOL    HW114984   3.713   3.013   2.416
 4695SOL    HW214985   3.597   3.003   2.302
 4696SOL     OW14986   6.821   3.391   6.406
 4696SOL    HW114987   6.876   3.312   6.433
 4696SOL    HW214988   6.824   3.459   6.479
 4697SOL     OW14989   0.766   4.896   0.056
 4697SOL    HW114990   0.789   4.800   0.042
 4697SOL    HW214991   0.684   4.919   0.003
 4698SOL     OW14992   5.348   3.743   0.961
 4698SOL    HW114993   5.270   3.686   0.935
 4698SOL    HW214994   5.426   3.722   0.902
 4699SOL     OW14995   0.057   0.488   2.341
 4699SOL    HW114996   0.076   0.485   2.242
 4699SOL    HW214997   0.089   0.404   2.384
 4700SOL     OW14998   4.989   1.563   1.004
 4700SOL    HW114999   5.087   1.578   0.995
 4700SOL    HW215000   4.963   1.480   0.954
 4701SOL     OW15001   0.871   1.177   0.471
 4701SOL    HW115002   0.801   1.241   0.438
 4701SOL    HW215003   0.935   1.225   0.529
 4702SOL     OW15004   3.527   3.792   0.550
 4702SOL    HW115005   3.495   3.752   0.637
 4702SOL    HW215006   3.579   3.876   0.569
 4703SOL     OW15007   1.862   0.726   2.426
 4703SOL    HW115008   1.775   0.773   2.414
 4703SOL    HW215009   1.881   0.717   2.524
 4704SOL     OW15010   6.404   6.560   0.746
 4704SOL    HW115011   6.420   6.463   0.730
 4704SOL    HW215012   6.468   6.593   0.815
 4705SOL     OW15013   3.482   3.533   3.844
 4705SOL    HW115014   3.509   3.616   3.796
 4705SOL    HW215015   3.516   3.537   3.938
 4706SOL     OW15016   4.253   6.045   6.891
 4706SOL    HW115017   4.262   5.987   6.809
 4706SOL    HW215018   4.170   6.100   6.883
 4707SOL     OW15019   2.303   5.353   0.801
 4707SOL    HW115020   2.271   5.421   0.735
 4707SOL    HW215021   2.334   5.398   0.884
 4708SOL     OW15022   2.398   2.726   1.520
 4708SOL    HW115023   2.453   2.647   1.545
 4708SOL    HW215024   2.390   2.788   1.599
 4709SOL     OW15025   4.284   5.231   5.349
 4709SOL    HW115026   4.212   5.289   5.387
 4709SOL    HW215027   4.244   5.143   5.323
 4710SOL     OW15028   4.468   1.400   0.341
 4710SOL    HW115029   4.381   1.435   0.378
 4710SOL    HW215030   4.453   1.309   0.303
 4711SOL     OW15031   3.651   0.134   2.544
 4711SOL    HW115032   3.565   0.132   2.594
 4711SOL    HW215033   3.702   0.218   2.567
 4712SOL     OW15034   2.247   4.622   0.566
 4712SOL    HW115035   2.223   4.691   0.497
 4712SOL    HW215036   2.227   4.658   0.657
 4713SOL     OW15037   1.631   5.723   0.886
 4713SOL    HW115038   1.552   5.782   0.868
 4713SOL    HW215039   1.704   5.743   0.822
 4714SOL     OW15040   2.946   2.497   1.024
 4714SOL    HW115041   2.996   2.519   1.107
 4714SOL    HW215042   2.970   2.563   0.952
 4715SOL     OW15043   6.940   2.595   3.650
 4715SOL    HW115044   6.931   2.505   3.693
 4715SOL    HW215045   6.852   2.642   3.653
 4716SOL     OW15046   3.472   5.905   0.354
 4716SOL    HW115047   3.424   5.993   0.350
 4716SOL    HW215048   3.539   5.901   0.280
 4717SOL     OW15049   1.238   5.960   3.339
 4717SOL    HW115050   1.298   5.905   3.280
 4717SOL    HW215051   1.166   6.002   3.283
 4718SOL     OW15052   5.855   0.863   6.119
 4718SOL    HW115053   5.896   0.906   6.199
 4718SOL    HW215054   5.765   0.903   6.100
 4719SOL     OW15055   4.215   3.504   1.541
 4719SOL    HW115056   4.152   3.484   1.616
 4719SOL    HW215057   4.188   3.590   1.497
 4720SOL     OW15058   2.278   0.400   5.721
 4720SOL    HW115059   2.235   0.447   5.644
 4720SOL    HW215060   2.225   0.318   5.744
 4721SOL     OW15061   1.837   1.999   1.458
 4721SOL    HW115062   1.748   2.010   1.413
 4721SOL    HW215063   1.871   2.089   1.484
 4722SOL     OW15064   2.090   6.644   0.590
 4722SOL    HW115065   2.108   6.568   0.528
 4722SOL    HW215066   2.043   6.717   0.540
 4723SOL     OW15067   3.066   6.787   0.020
 4723SOL    HW115068   3.084   6.882   0.042
 4723SOL    HW215069   2.970   6.776   7.018
 4724SOL     OW15070   4.166   6.594   1.828
 4724SOL    HW115071   4.255   6.637   1.840
 4724SOL    HW215072   4.158   6.517   1.891
 4725SOL     OW15073   5.099   6.606   3.700
 4725SOL    HW115074   5.000   6.615   3.690
 4725SOL    HW215075   5.126   6.513   3.676
 4726SOL     OW15076   0.518   4.369   6.596
 4726SOL    HW115077   0.516   4.291   6.533
 4726SOL    HW215078   0.541   4.337   6.688
 4727SOL     OW15079   6.820   5.704   0.026
 4727SOL    HW115080   6.730   5.745   0.041
 4727SOL    HW215081   6.824   5.615   0.072
 4728SOL     OW15082   0.329   0.956   6.576
 4728SOL    HW115083   0.259   0.921   6.638
 4728SOL    HW215084   0.381   0.879   6.538
 4729SOL     OW15085   3.399   0.372   1.942
 4729SOL    HW115086   3.313   0.348   1.896
 4729SOL    HW215087   3.399   0.332   2.034
 4730SOL     OW15088   2.071   6.504   5.103
 4730SOL    HW115089   2.039   6.463   5.017
 4730SOL    HW215090   2.058   6.439   5.177
 4731SOL     OW15091   5.784   1.598   5.127
 4731SOL    HW115092   5.830   1.664   5.068
 4731SOL    HW215093   5.843   1.518   5.138
 4732SOL     OW15094   0.265   3.058   0.274
 4732SOL    HW115095   0.299   3.037   0.366
 4732SOL    HW215096   0.188   3.121   0.281
 4733SOL     OW15097   6.878   3.934   2.982
 4733SOL    HW115098   6.965   3.912   3.025
 4733SOL    HW215099   6.889   3.937   2.883
 4734SOL     OW15100   4.018   4.252   6.263
 4734SOL    HW115101   3.973   4.329   6.217
 4734SOL    HW215102   4.027   4.272   6.360
 4735SOL     OW15103   1.349   4.580   3.816
 4735SOL    HW115104   1.262   4.607   3.776
 4735SOL    HW215105   1.375   4.489   3.781
 4736SOL     OW15106   0.945   0.739   0.343
 4736SOL    HW115107   0.950   0.764   0.246
 4736SOL    HW215108   0.866   0.783   0.385
 4737SOL     OW15109   2.308   5.471   1.685
 4737SOL    HW115110   2.220   5.481   1.640
 4737SOL    HW215111   2.375   5.437   1.620
 4738SOL     OW15112   0.514   6.444   2.559
 4738SOL    HW115113   0.452   6.509   2.515
 4738SOL    HW215114   0.498   6.352   2.523
 4739SOL     OW15115   4.610   0.707   1.531
 4739SOL    HW115116   4.709   0.694   1.533
 4739SOL    HW215117   4.564   0.618   1.526
 4740SOL     OW15118   1.320   1.637   2.645
 4740SOL    HW115119   1.298   1.551   2.690
 4740SOL    HW215120   1.404   1.626   2.592
 4741SOL     OW15121   4.163   3.764   1.481
 4741SOL    HW115122   4.231   3.801   1.419
 4741SOL    HW215123   4.192   3.780   1.576
 4742SOL     OW15124   3.156   7.014   0.691
 4742SOL    HW115125   3.162   6.938   0.755
 4742SOL    HW215126   3.061   0.020   0.683
 4743SOL     OW15127   2.546   4.774   1.646
 4743SOL    HW115128   2.552   4.692   1.589
 4743SOL    HW215129   2.633   4.788   1.694
 4744SOL     OW15130   2.263   6.253   0.802
 4744SOL    HW115131   2.283   6.249   0.900
 4744SOL    HW215132   2.165   6.242   0.788
 4745SOL     OW15133   1.420   4.223   0.200
 4745SOL    HW115134   1.321   4.234   0.207
 4745SOL    HW215135   1.445   4.128   0.215
 4746SOL     OW15136   4.835   6.074   4.593
 4746SOL    HW115137   4.740   6.041   4.592
 4746SOL    HW215138   4.877   6.053   4.681
 4747SOL     OW15139   1.571   2.303   1.304
 4747SOL    HW115140   1.481   2.267   1.329
 4747SOL    HW215141   1.621   2.327   1.388
 4748SOL     OW15142   1.697   7.010   3.375
 4748SOL    HW115143   1.622   6.998   3.309
 4748SOL    HW215144   1.660   7.004   3.468
 4749SOL     OW15145   1.881   0.408   0.105
 4749SOL    HW115146   1.914   0.316   0.083
 4749SOL    HW215147   1.799   0.401   0.162
 4750SOL     OW15148   5.633   3.507   5.529
 4750SOL    HW115149   5.686   3.525   5.612
 4750SOL    HW215150   5.688   3.529   5.449
 4751SOL     OW15151   4.622   0.473   3.419
 4751SOL    HW115152   4.600   0.431   3.507
 4751SOL    HW215153   4.675   0.410   3.363
 4752SOL     OW15154   4.463   1.994   7.011
 4752SOL    HW115155   4.500   2.030   6.925
 4752SOL    HW215156   4.528   2.013   0.061
 4753SOL     OW15157   3.150   5.949   5.245
 4753SOL    HW115158   3.084   5.892   5.197
 4753SOL    HW215159   3.102   6.019   5.298
 4754SOL     OW15160   4.849   4.863   5.978
 4754SOL    HW115161   4.768   4.832   5.929
 4754SOL    HW215162   4.926   4.870   5.914
 4755SOL     OW15163   1.628   0.915   1.699
 4755SOL    HW115164   1.682   0.843   1.743
 4755SOL    HW215165   1.647   1.002   1.744
 4756SOL     OW15166   6.032   4.050   6.635
 4756SOL    HW115167   6.040   4.137   6.683
 4756SOL    HW215168   5.944   4.008   6.656
 4757SOL     OW15169   2.039   3.870   1.576
 4757SOL    HW115170   2.093   3.871   1.661
 4757SOL    HW215171   2.007   3.963   1.556
 4758SOL     OW15172   2.459   6.867   3.135
 4758SOL    HW115173   2.544   6.901   3.095
 4758SOL    HW215174   2.398   6.835   3.062
 4759SOL     OW15175   1.098   4.815   1.210
 4759SOL    HW115176   1.139   4.758   1.281
 4759SOL    HW215177   1.122   4.779   1.120
 4760SOL     OW15178   2.011   6.136   0.788
 4760SOL    HW115179   1.964   6.073   0.726
 4760SOL    HW215180   1.944   6.184   0.844
 4761SOL     OW15181   6.802   6.206   1.538
 4761SOL    HW115182   6.722   6.259   1.564
 4761SOL    HW215183   6.842   6.244   1.454
 4762SOL     OW15184   2.243   6.544   2.083
 4762SOL    HW115185   2.176   6.576   2.016
 4762SOL    HW215186   2.296   6.469   2.043
 4763SOL     OW15187   5.155   5.070   1.601
 4763SOL    HW115188   5.142   4.974   1.626
 4763SOL    HW215189   5.163   5.125   1.684
 4764SOL     OW15190   3.946   3.988   6.189
 4764SOL    HW115191   4.022   3.955   6.133
 4764SOL    HW215192   3.958   4.085   6.209
 4765SOL     OW15193   3.210   1.544   4.662
 4765SOL    HW115194   3.128   1.493   4.686
 4765SOL    HW215195   3.194   1.642   4.676
 4766SOL     OW15196   0.572   6.932   3.960
 4766SOL    HW115197   0.587   7.005   4.027
 4766SOL    HW215198   0.603   6.845   3.997
 4767SOL     OW15199   1.643   4.233   4.803
 4767SOL    HW115200   1.695   4.213   4.886
 4767SOL    HW215201   1.693   4.199   4.723
 4768SOL     OW15202   3.797   2.879   6.852
 4768SOL    HW115203   3.892   2.908   6.859
 4768SOL    HW215204   3.759   2.911   6.765
 4769SOL     OW15205   3.154   5.447   1.489
 4769SOL    HW115206   3.188   5.474   1.579
 4769SOL    HW215207   3.086   5.375   1.499
 4770SOL     OW15208   0.395   1.218   5.775
 4770SOL    HW115209   0.324   1.194   5.841
 4770SOL    HW215210   0.463   1.276   5.820
 4771SOL     OW15211   2.093   6.846   4.732
 4771SOL    HW115212   2.135   6.936   4.730
 4771SOL    HW215213   2.063   6.825   4.826
 4772SOL     OW15214   2.817   5.964   2.219
 4772SOL    HW115215   2.786   5.921   2.305
 4772SOL    HW215216   2.845   5.893   2.155
 4773SOL     OW15217   2.155   4.999   5.002
 4773SOL    HW115218   2.154   4.929   5.074
 4773SOL    HW215219   2.078   4.983   4.940
 4774SOL     OW15220   1.511   4.008   6.954
 4774SOL    HW115221   1.412   3.998   6.955
 4774SOL    HW215222   1.542   4.034   0.022
 4775SOL     OW15223   5.915   6.577   4.896
 4775SOL    HW115224   5.929   6.491   4.945
 4775SOL    HW215225   5.911   6.653   4.961
 4776SOL     OW15226   0.769   0.825   5.916
 4776SOL    HW115227   0.801   0.824   6.010
 4776SOL    HW215228   0.698   0.895   5.905
 4777SOL     OW15229   0.934   6.383   1.566
 4777SOL    HW115230   0.960   6.303   1.620
 4777SOL    HW215231   0.856   6.428   1.609
 4778SOL     OW15232   1.571   2.619   5.555
 4778SOL    HW115233   1.499   2.683   5.529
 4778SOL    HW215234   1.660   2.660   5.538
 4779SOL     OW15235   4.995   1.329   3.338
 4779SOL    HW115236   4.933   1.259   3.374
 4779SOL    HW215237   4.988   1.412   3.394
 4780SOL     OW15238   6.307   3.283   4.742
 4780SOL    HW115239   6.262   3.194   4.738
 4780SOL    HW215240   6.262   3.346   4.679
 4781SOL     OW15241   2.491   6.383   3.058
 4781SOL    HW115242   2.454   6.359   2.968
 4781SOL    HW215243   2.427   6.442   3.106
 4782SOL     OW15244   6.721   5.776   4.092
 4782SOL    HW115245   6.622   5.771   4.085
 4782SOL    HW215246   6.747   5.810   4.182
 4783SOL     OW15247   6.417   3.512   1.111
 4783SOL    HW115248   6.374   3.478   1.028
 4783SOL    HW215249   6.348   3.552   1.171
 4784SOL     OW15250   5.143   2.704   6.591
 4784SOL    HW115251   5.218   2.638   6.601
 4784SOL    HW215252   5.180   2.797   6.590
 4785SOL     OW15253   0.923   5.569   3.928
 4785SOL    HW115254   0.894   5.475   3.910
 4785SOL    HW215255   0.924   5.620   3.842
 4786SOL     OW15256   1.918   6.338   0.012
 4786SOL    HW115257   1.892   6.283   0.092
 4786SOL    HW215258   2.016   6.326   7.018
 4787SOL     OW15259   3.438   1.179   4.332
 4787SOL    HW115260   3.351   1.226   4.315
 4787SOL    HW215261   3.459   1.119   4.255
 4788SOL     OW15262   5.630   6.121   6.875
 4788SOL    HW115263   5.583   6.045   6.919
 4788SOL    HW215264   5.701   6.086   6.814
 4789SOL     OW15265   5.239   1.020   2.645
 4789SOL    HW115266   5.215   1.117   2.643
 4789SOL    HW215267   5.155   0.965   2.649
 4790SOL     OW15268   6.520   2.451   5.107
 4790SOL    HW115269   6.560   2.419   5.021
 4790SOL    HW215270   6.438   2.397   5.128
 4791SOL     OW15271   0.114   1.593   7.022
 4791SOL    HW115272   0.157   1.672   6.978
 4791SOL    HW215273   0.136   1.594   0.095
 4792SOL     OW15274   2.071   2.663   3.236
 4792SOL    HW115275   1.980   2.650   3.276
 4792SOL    HW215276   2.135   2.689   3.307
 4793SOL     OW15277   0.443   4.147   5.509
 4793SOL    HW115278   0.487   4.092   5.439
 4793SOL    HW215279   0.512   4.194   5.564
 4794SOL     OW15280   4.251   0.842   4.254
 4794SOL    HW115281   4.329   0.877   4.203
 4794SOL    HW215282   4.177   0.819   4.191
 4795SOL     OW15283   0.811   0.747   5.375
 4795SOL    HW115284   0.836   0.775   5.467
 4795SOL    HW215285   0.723   0.788   5.350
 4796SOL     OW15286   3.630   1.434   4.862
 4796SOL    HW115287   3.653   1.345   4.823
 4796SOL    HW215288   3.584   1.490   4.792
 4797SOL     OW15289   0.967   6.106   4.661
 4797SOL    HW115290   1.015   6.065   4.584
 4797SOL    HW215291   1.019   6.088   4.745
 4798SOL     OW15292   4.393   4.656   6.153
 4798SOL    HW115293   4.315   4.622   6.205
 4798SOL    HW215294   4.398   4.756   6.161
 4799SOL     OW15295   3.476   3.168   6.328
 4799SOL    HW115296   3.548   3.209   6.385
 4799SOL    HW215297   3.414   3.115   6.386
 4800SOL     OW15298   1.023   4.943   0.381
 4800SOL    HW115299   1.047   4.861   0.328
 4800SOL    HW215300   0.975   4.916   0.464
 4801SOL     OW15301   4.849   2.623   1.682
 4801SOL    HW115302   4.909   2.592   1.609
 4801SOL    HW215303   4.904   2.643   1.763
 4802SOL     OW15304   6.919   6.982   3.399
 4802SOL    HW115305   6.824   6.960   3.419
 4802SOL    HW215306   6.961   0.000   3.479
 4803SOL     OW15307   5.185   3.658   6.341
 4803SOL    HW115308   5.156   3.696   6.429
 4803SOL    HW215309   5.104   3.640   6.285
 4804SOL     OW15310   4.930   1.668   0.624
 4804SOL    HW115311   4.998   1.730   0.663
 4804SOL    HW215312   4.853   1.657   0.688
 4805SOL     OW15313   5.955   1.754   0.876
 4805SOL    HW115314   6.007   1.718   0.798
 4805SOL    HW215315   6.013   1.757   0.957
 4806SOL     OW15316   0.796   0.864   2.712
 4806SOL    HW115317   0.774   0.944   2.657
 4806SOL    HW215318   0.889   0.834   2.691
 4807SOL     OW15319   1.128   3.192   5.982
 4807SOL    HW115320   1.110   3.275   5.929
 4807SOL    HW215321   1.164   3.217   6.072
 4808SOL     OW15322   3.986   5.847   0.185
 4808SOL    HW115323   3.943   5.935   0.207
 4808SOL    HW215324   4.086   5.858   0.187
 4809SOL     OW15325   3.759   4.860   1.414
 4809SOL    HW115326   3.728   4.939   1.361
 4809SOL    HW215327   3.796   4.791   1.353
 4810SOL     OW15328   0.568   4.287   3.388
 4810SOL    HW115329   0.621   4.204   3.374
 4810SOL    HW215330   0.488   4.286   3.328
 4811SOL     OW15331   3.283   3.942   4.346
 4811SOL    HW115332   3.199   3.970   4.393
 4811SOL    HW215333   3.328   4.023   4.307
 4812SOL     OW15334   0.263   0.273   2.322
 4812SOL    HW115335   0.322   0.215   2.265
 4812SOL    HW215336   0.248   0.228   2.410
 4813SOL     OW15337   6.201   1.365   5.977
 4813SOL    HW115338   6.224   1.345   5.881
 4813SOL    HW215339   6.274   1.332   6.036
 4814SOL     OW15340   6.754   4.321   1.797
 4814SOL    HW115341   6.795   4.237   1.833
 4814SOL    HW215342   6.769   4.325   1.698
 4815SOL     OW15343   5.059   5.009   2.837
 4815SOL    HW115344   5.082   4.945   2.764
 4815SOL    HW215345   4.979   4.977   2.886
 4816SOL     OW15346   1.417   0.684   2.074
 4816SOL    HW115347   1.378   0.776   2.070
 4816SOL    HW215348   1.417   0.652   2.169
 4817SOL     OW15349   4.384   1.970   1.217
 4817SOL    HW115350   4.303   2.013   1.257
 4817SOL    HW215351   4.384   1.984   1.118
 4818SOL     OW15352   3.661   0.126   5.079
 4818SOL    HW115353   3.573   0.104   5.120
 4818SOL    HW215354   3.670   0.226   5.071
 4819SOL     OW15355   2.378   0.177   0.653
 4819SOL    HW115356   2.319   0.138   0.723
 4819SOL    HW215357   2.374   0.121   0.570
 4820SOL     OW15358   6.307   3.824   2.017
 4820SOL    HW115359   6.289   3.822   2.115
 4820SOL    HW215360   6.236   3.878   1.971
 4821SOL     OW15361   6.590   4.691   1.525
 4821SOL    HW115362   6.550   4.733   1.443
 4821SOL    HW215363   6.596   4.592   1.512
 4822SOL     OW15364   2.099   3.769   3.103
 4822SOL    HW115365   2.106   3.679   3.060
 4822SOL    HW215366   2.160   3.833   3.057
 4823SOL     OW15367   1.092   0.866   4.200
 4823SOL    HW115368   1.140   0.793   4.151
 4823SOL    HW215369   1.084   0.946   4.140
 4824SOL     OW15370   5.517   2.645   2.512
 4824SOL    HW115371   5.444   2.712   2.517
 4824SOL    HW215372   5.512   2.596   2.425
 4825SOL     OW15373   0.853   3.458   2.791
 4825SOL    HW115374   0.839   3.360   2.777
 4825SOL    HW215375   0.911   3.495   2.718
 4826SOL     OW15376   6.803   6.050   0.227
 4826SOL    HW115377   6.736   6.082   0.294
 4826SOL    HW215378   6.774   6.076   0.135
 4827SOL     OW15379   4.783   0.956   1.105
 4827SOL    HW115380   4.786   1.012   1.188
 4827SOL    HW215381   4.803   0.861   1.129
 4828SOL     OW15382   5.116   3.914   0.889
 4828SOL    HW115383   5.185   3.864   0.942
 4828SOL    HW215384   5.161   3.981   0.830
 4829SOL     OW15385   3.167   0.907   6.439
 4829SOL    HW115386   3.258   0.880   6.470
 4829SOL    HW215387   3.157   0.885   6.342
 4830SOL     OW15388   4.411   0.133   4.865
 4830SOL    HW115389   4.346   0.073   4.912
 4830SOL    HW215390   4.503   0.095   4.873
 4831SOL     OW15391   6.077   3.953   5.741
 4831SOL    HW115392   6.025   4.033   5.713
 4831SOL    HW215393   6.028   3.870   5.715
 4832SOL     OW15394   2.657   3.633   5.916
 4832SOL    HW115395   2.742   3.636   5.863
 4832SOL    HW215396   2.586   3.588   5.861
 4833SOL     OW15397   4.066   1.260   2.804
 4833SOL    HW115398   4.152   1.259   2.752
 4833SOL    HW215399   4.079   1.313   2.888
 4834SOL     OW15400   4.678   1.838   2.133
 4834SOL    HW115401   4.618   1.838   2.053
 4834SOL    HW215402   4.686   1.744   2.168
 4835SOL     OW15403   1.956   0.131   6.842
 4835SOL    HW115404   2.036   0.178   6.805
 4835SOL    HW215405   1.965   0.121   6.941
 4836SOL     OW15406   5.409   1.956   4.160
 4836SOL    HW115407   5.349   1.999   4.092
 4836SOL    HW215408   5.504   1.967   4.133
 4837SOL     OW15409   2.177   3.270   6.862
 4837SOL    HW115410   2.239   3.235   6.932
 4837SOL    HW215411   2.127   3.349   6.898
 4838SOL     OW15412   3.700   5.289   2.352
 4838SOL    HW115413   3.671   5.238   2.433
 4838SOL    HW215414   3.664   5.244   2.270
 4839SOL     OW15415   0.362   5.612   6.074
 4839SOL    HW115416   0.438   5.675   6.084
 4839SOL    HW215417   0.346   5.564   6.161
 4840SOL     OW15418   6.848   6.425   0.013
 4840SOL    HW115419   6.892   6.335   0.015
 4840SOL    HW215420   6.888   6.483   0.084
 4841SOL     OW15421   2.736   5.095   2.581
 4841SOL    HW115422   2.647   5.056   2.558
 4841SOL    HW215423   2.753   5.084   2.679
 4842SOL     OW15424   5.367   6.178   1.232
 4842SOL    HW115425   5.438   6.108   1.222
 4842SOL    HW215426   5.290   6.139   1.282
 4843SOL     OW15427   6.679   3.521   0.205
 4843SOL    HW115428   6.652   3.591   0.271
 4843SOL    HW215429   6.773   3.537   0.176
 4844SOL     OW15430   5.700   2.054   6.392
 4844SOL    HW115431   5.757   1.973   6.383
 4844SOL    HW215432   5.612   2.038   6.347
 4845SOL     OW15433   5.653   5.716   3.524
 4845SOL    HW115434   5.584   5.693   3.456
 4845SOL    HW215435   5.686   5.632   3.567
 4846SOL     OW15436   1.640   3.556   0.622
 4846SOL    HW115437   1.663   3.511   0.536
 4846SOL    HW215438   1.557   3.611   0.610
 4847SOL     OW15439   3.585   1.819   5.020
 4847SOL    HW115440   3.615   1.726   5.040
 4847SOL    HW215441   3.506   1.816   4.959
 4848SOL     OW15442   2.602   2.100   2.285
 4848SOL    HW115443   2.609   2.194   2.250
 4848SOL    HW215444   2.679   2.081   2.345
 4849SOL     OW15445   0.754   6.646   0.709
 4849SOL    HW115446   0.781   6.729   0.758
 4849SOL    HW215447   0.835   6.597   0.677
 4850SOL     OW15448   4.434   0.932   2.110
 4850SOL    HW115449   4.355   0.896   2.161
 4850SOL    HW215450   4.464   0.864   2.043
 4851SOL     OW15451   4.909   6.073   4.893
 4851SOL    HW115452   4.912   6.173   4.890
 4851SOL    HW215453   4.821   6.043   4.929
 4852SOL     OW15454   1.882   0.681   6.841
 4852SOL    HW115455   1.826   0.677   6.759
 4852SOL    HW215456   1.854   0.760   6.897
 4853SOL     OW15457   3.471   1.519   2.227
 4853SOL    HW115458   3.429   1.511   2.136
 4853SOL    HW215459   3.551   1.579   2.221
 4854SOL     OW15460   5.323   6.717   2.220
 4854SOL    HW115461   5.391   6.660   2.174
 4854SOL    HW215462   5.244   6.729   2.160
 4855SOL     OW15463   6.300   1.762   2.575
 4855SOL    HW115464   6.255   1.695   2.634
 4855SOL    HW215465   6.295   1.732   2.480
 4856SOL     OW15466   2.736   4.968   3.515
 4856SOL    HW115467   2.659   5.005   3.567
 4856SOL    HW215468   2.800   4.923   3.577
 4857SOL     OW15469   0.152   2.409   5.843
 4857SOL    HW115470   0.173   2.473   5.769
 4857SOL    HW215471   0.183   2.317   5.818
 4858SOL     OW15472   1.682   2.298   4.562
 4858SOL    HW115473   1.774   2.333   4.545
 4858SOL    HW215474   1.678   2.202   4.535
 4859SOL     OW15475   2.011   6.230   4.645
 4859SOL    HW115476   1.940   6.215   4.576
 4859SOL    HW215477   2.087   6.281   4.604
 4860SOL     OW15478   4.868   4.667   1.522
 4860SOL    HW115479   4.833   4.760   1.509
 4860SOL    HW215480   4.866   4.618   1.434
 4861SOL     OW15481   4.983   4.220   5.274
 4861SOL    HW115482   5.026   4.306   5.245
 4861SOL    HW215483   5.014   4.197   5.367
 4862SOL     OW15484   2.209   6.171   2.282
 4862SOL    HW115485   2.244   6.145   2.371
 4862SOL    HW215486   2.273   6.142   2.211
 4863SOL     OW15487   5.676   3.959   0.319
 4863SOL    HW115488   5.607   3.936   0.251
 4863SOL    HW215489   5.688   4.058   0.322
 4864SOL     OW15490   3.173   1.150   3.553
 4864SOL    HW115491   3.214   1.227   3.505
 4864SOL    HW215492   3.128   1.090   3.486
 4865SOL     OW15493   2.726   5.735   4.392
 4865SOL    HW115494   2.808   5.693   4.354
 4865SOL    HW215495   2.654   5.667   4.399
 4866SOL     OW15496   6.678   3.857   1.218
 4866SOL    HW115497   6.603   3.923   1.214
 4866SOL    HW215498   6.641   3.765   1.229
 4867SOL     OW15499   4.818   6.541   3.096
 4867SOL    HW115500   4.723   6.510   3.101
 4867SOL    HW215501   4.831   6.595   3.013
 4868SOL     OW15502   6.521   4.861   1.739
 4868SOL    HW115503   6.566   4.862   1.829
 4868SOL    HW215504   6.548   4.778   1.690
 4869SOL     OW15505   0.783   1.499   6.384
 4869SOL    HW115506   0.718   1.429   6.356
 4869SOL    HW215507   0.733   1.578   6.421
 4870SOL     OW15508   0.861   6.033   2.001
 4870SOL    HW115509   0.816   6.121   1.984
 4870SOL    HW215510   0.791   5.962   2.011
 4871SOL     OW15511   1.352   1.003   4.003
 4871SOL    HW115512   1.380   1.032   4.095
 4871SOL    HW215513   1.340   0.904   4.001
 4872SOL     OW15514   6.213   7.023   3.332
 4872SOL    HW115515   6.270   6.983   3.405
 4872SOL    HW215516   6.127   0.030   3.371
 4873SOL     OW15517   6.737   6.391   5.306
 4873SOL    HW115518   6.812   6.371   5.370
 4873SOL    HW215519   6.650   6.382   5.353
 4874SOL     OW15520   4.832   2.987   3.299
 4874SOL    HW115521   4.875   3.070   3.266
 4874SOL    HW215522   4.862   2.909   3.242
 4875SOL     OW15523   5.490   6.147   6.361
 4875SOL    HW115524   5.554   6.161   6.285
 4875SOL    HW215525   5.418   6.085   6.332
 4876SOL     OW15526   1.694   1.408   2.915
 4876SOL    HW115527   1.693   1.454   2.826
 4876SOL    HW215528   1.752   1.459   2.978
 4877SOL     OW15529   1.106   1.202   4.160
 4877SOL    HW115530   1.155   1.281   4.124
 4877SOL    HW215531   1.045   1.166   4.089
 4878SOL     OW15532   6.671   1.615   3.009
 4878SOL    HW115533   6.770   1.610   2.995
 4878SOL    HW215534   6.644   1.709   3.028
 4879SOL     OW15535   4.518   1.872   2.997
 4879SOL    HW115536   4.553   1.799   3.055
 4879SOL    HW215537   4.465   1.936   3.052
 4880SOL     OW15538   6.149   2.683   6.527
 4880SOL    HW115539   6.204   2.624   6.468
 4880SOL    HW215540   6.207   2.722   6.598
 4881SOL     OW15541   1.405   2.981   1.974
 4881SOL    HW115542   1.371   3.075   1.973
 4881SOL    HW215543   1.492   2.977   2.024
 4882SOL     OW15544   4.408   2.465   4.904
 4882SOL    HW115545   4.355   2.387   4.872
 4882SOL    HW215546   4.379   2.489   4.997
 4883SOL     OW15547   5.422   3.709   1.228
 4883SOL    HW115548   5.346   3.684   1.288
 4883SOL    HW215549   5.386   3.742   1.141
 4884SOL     OW15550   2.235   6.198   1.589
 4884SOL    HW115551   2.211   6.135   1.663
 4884SOL    HW215552   2.161   6.199   1.521
 4885SOL     OW15553   1.650   5.055   1.072
 4885SOL    HW115554   1.570   4.995   1.076
 4885SOL    HW215555   1.625   5.140   1.026
 4886SOL     OW15556   3.578   1.174   2.170
 4886SOL    HW115557   3.598   1.202   2.075
 4886SOL    HW215558   3.479   1.170   2.184
 4887SOL     OW15559   0.881   6.622   2.044
 4887SOL    HW115560   0.968   6.633   1.997
 4887SOL    HW215561   0.896   6.578   2.132
 4888SOL     OW15562   3.367   6.580   2.751
 4888SOL    HW115563   3.344   6.586   2.654
 4888SOL    HW215564   3.454   6.625   2.768
 4889SOL     OW15565   6.380   1.943   3.678
 4889SOL    HW115566   6.479   1.932   3.668
 4889SOL    HW215567   6.361   2.025   3.733
 4890SOL     OW15568   0.487   0.611   4.785
 4890SOL    HW115569   0.502   0.710   4.781
 4890SOL    HW215570   0.462   0.585   4.878
 4891SOL     OW15571   2.343   5.109   5.901
 4891SOL    HW115572   2.434   5.124   5.939
 4891SOL    HW215573   2.321   5.184   5.838
 4892SOL     OW15574   5.729   6.714   2.752
 4892SOL    HW115575   5.791   6.635   2.760
 4892SOL    HW215576   5.741   6.756   2.662
 4893SOL     OW15577   0.168   3.590   1.876
 4893SOL    HW115578   0.144   3.620   1.969
 4893SOL    HW215579   0.256   3.628   1.850
 4894SOL     OW15580   4.375   6.479   2.234
 4894SOL    HW115581   4.454   6.453   2.291
 4894SOL    HW215582   4.387   6.573   2.203
 4895SOL     OW15583   6.923   4.903   3.490
 4895SOL    HW115584   6.947   4.995   3.521
 4895SOL    HW215585   7.003   4.860   3.449
 4896SOL     OW15586   1.726   4.746   3.652
 4896SOL    HW115587   1.689   4.806   3.723
 4896SOL    HW215588   1.739   4.799   3.568
 4897SOL     OW15589   1.541   6.089   4.945
 4897SOL    HW115590   1.608   6.071   4.873
 4897SOL    HW215591   1.582   6.070   5.034
 4898SOL     OW15592   3.678   2.128   4.254
 4898SOL    HW115593   3.612   2.126   4.180
 4898SOL    HW215594   3.631   2.124   4.342
 4899SOL     OW15595   0.366   5.412   1.713
 4899SOL    HW115596   0.399   5.397   1.807
 4899SOL    HW215597   0.377   5.508   1.688
 4900SOL     OW15598   4.002   6.015   5.690
 4900SOL    HW115599   4.017   6.083   5.762
 4900SOL    HW215600   4.081   6.013   5.629
 4901SOL     OW15601   0.569   1.395   5.912
 4901SOL    HW115602   0.523   1.432   5.992
 4901SOL    HW215603   0.588   1.469   5.847
 4902SOL     OW15604   2.087   0.499   6.222
 4902SOL    HW115605   2.039   0.497   6.309
 4902SOL    HW215606   2.047   0.432   6.160
 4903SOL     OW15607   5.601   5.079   1.404
 4903SOL    HW115608   5.656   4.997   1.420
 4903SOL    HW215609   5.663   5.157   1.392
 4904SOL     OW15610   1.158   0.411   0.154
 4904SOL    HW115611   1.197   0.393   0.244
 4904SOL    HW215612   1.184   0.337   0.092
 4905SOL     OW15613   3.357   6.344   2.891
 4905SOL    HW115614   3.367   6.429   2.838
 4905SOL    HW215615   3.378   6.362   2.987
 4906SOL     OW15616   5.636   2.938   4.865
 4906SOL    HW115617   5.695   2.858   4.850
 4906SOL    HW215618   5.573   2.947   4.788
 4907SOL     OW15619   4.548   1.357   6.905
 4907SOL    HW115620   4.579   1.396   6.992
 4907SOL    HW215621   4.484   1.421   6.861
 4908SOL     OW15622   4.847   0.242   0.299
 4908SOL    HW115623   4.867   0.265   0.204
 4908SOL    HW215624   4.821   0.146   0.306
 4909SOL     OW15625   5.872   3.941   3.589
 4909SOL    HW115626   5.835   3.852   3.561
 4909SOL    HW215627   5.840   3.962   3.682
 4910SOL     OW15628   4.758   0.975   6.091
 4910SOL    HW115629   4.803   1.030   6.162
 4910SOL    HW215630   4.779   1.013   6.001
 4911SOL     OW15631   1.050   2.489   1.847
 4911SOL    HW115632   1.142   2.522   1.825
 4911SOL    HW215633   1.007   2.553   1.910
 4912SOL     OW15634   6.398   2.656   5.217
 4912SOL    HW115635   6.455   2.607   5.151
 4912SOL    HW215636   6.441   2.653   5.307
 4913SOL     OW15637   6.684   2.916   4.856
 4913SOL    HW115638   6.747   2.947   4.785
 4913SOL    HW215639   6.712   2.954   4.945
 4914SOL     OW15640   4.443   1.059   4.229
 4914SOL    HW115641   4.444   1.112   4.144
 4914SOL    HW215642   4.533   1.018   4.244
 4915SOL     OW15643   3.369   5.774   5.465
 4915SOL    HW115644   3.445   5.820   5.421
 4915SOL    HW215645   3.311   5.841   5.511
 4916SOL     OW15646   6.399   1.370   4.042
 4916SOL    HW115647   6.369   1.465   4.033
 4916SOL    HW215648   6.360   1.316   3.968
 4917SOL     OW15649   4.590   6.249   0.500
 4917SOL    HW115650   4.591   6.325   0.565
 4917SOL    HW215651   4.495   6.231   0.472
 4918SOL     OW15652   6.755   5.690   2.012
 4918SOL    HW115653   6.687   5.669   1.942
 4918SOL    HW215654   6.837   5.729   1.969
 4919SOL     OW15655   4.058   3.714   2.102
 4919SOL    HW115656   4.057   3.794   2.042
 4919SOL    HW215657   3.972   3.710   2.153
 4920SOL     OW15658   6.067   0.981   4.694
 4920SOL    HW115659   6.055   0.994   4.595
 4920SOL    HW215660   6.005   1.042   4.743
 4921SOL     OW15661   0.423   0.153   1.874
 4921SOL    HW115662   0.326   0.130   1.862
 4921SOL    HW215663   0.458   0.112   1.958
 4922SOL     OW15664   4.101   2.243   5.829
 4922SOL    HW115665   4.021   2.250   5.769
 4922SOL    HW215666   4.165   2.317   5.807
 4923SOL     OW15667   3.726   1.856   3.032
 4923SOL    HW115668   3.736   1.845   2.933
 4923SOL    HW215669   3.629   1.853   3.055
 4924SOL     OW15670   2.747   1.493   5.965
 4924SOL    HW115671   2.759   1.511   5.868
 4924SOL    HW215672   2.769   1.398   5.985
 4925SOL     OW15673   4.405   6.904   3.366
 4925SOL    HW115674   4.403   6.982   3.302
 4925SOL    HW215675   4.441   6.934   3.454
 4926SOL     OW15676   5.547   2.226   1.529
 4926SOL    HW115677   5.642   2.245   1.554
 4926SOL    HW215678   5.485   2.276   1.590
 4927SOL     OW15679   3.634   1.558   6.705
 4927SOL    HW115680   3.603   1.515   6.621
 4927SOL    HW215681   3.717   1.610   6.687
 4928SOL     OW15682   0.849   2.148   1.003
 4928SOL    HW115683   0.805   2.103   1.081
 4928SOL    HW215684   0.945   2.166   1.025
 4929SOL     OW15685   6.730   6.656   4.095
 4929SOL    HW115686   6.646   6.661   4.149
 4929SOL    HW215687   6.711   6.612   4.007
 4930SOL     OW15688   5.727   6.794   1.641
 4930SOL    HW115689   5.665   6.725   1.678
 4930SOL    HW215690   5.744   6.774   1.544
 4931SOL     OW15691   6.307   6.274   1.840
 4931SOL    HW115692   6.219   6.321   1.831
 4931SOL    HW215693   6.297   6.197   1.903
 4932SOL     OW15694   2.918   3.584   2.307
 4932SOL    HW115695   2.901   3.660   2.244
 4932SOL    HW215696   2.955   3.620   2.393
 4933SOL     OW15697   3.246   5.982   4.769
 4933SOL    HW115698   3.316   5.980   4.840
 4933SOL    HW215699   3.158   5.953   4.807
 4934SOL     OW15700   3.686   5.289   3.451
 4934SOL    HW115701   3.762   5.355   3.449
 4934SOL    HW215702   3.640   5.295   3.540
 4935SOL     OW15703   0.785   2.114   6.192
 4935SOL    HW115704   0.700   2.071   6.163
 4935SOL    HW215705   0.849   2.043   6.223
 4936SOL     OW15706   2.833   3.827   1.155
 4936SOL    HW115707   2.924   3.788   1.167
 4936SOL    HW215708   2.838   3.904   1.092
 4937SOL     OW15709   5.377   3.365   5.162
 4937SOL    HW115710   5.380   3.456   5.205
 4937SOL    HW215711   5.374   3.376   5.062
 4938SOL     OW15712   3.504   5.897   6.278
 4938SOL    HW115713   3.406   5.915   6.262
 4938SOL    HW215714   3.528   5.808   6.240
 4939SOL     OW15715   4.734   3.133   5.645
 4939SOL    HW115716   4.650   3.126   5.699
 4939SOL    HW215717   4.808   3.086   5.693
 4940SOL     OW15718   2.383   6.148   4.665
 4940SOL    HW115719   2.380   6.112   4.572
 4940SOL    HW215720   2.301   6.118   4.714
 4941SOL     OW15721   4.894   1.109   0.386
 4941SOL    HW115722   4.849   1.188   0.426
 4941SOL    HW215723   4.935   1.053   0.458
 4942SOL     OW15724   4.954   3.515   5.222
 4942SOL    HW115725   5.032   3.516   5.160
 4942SOL    HW215726   4.871   3.543   5.172
 4943SOL     OW15727   3.994   2.536   1.133
 4943SOL    HW115728   4.093   2.520   1.140
 4943SOL    HW215729   3.978   2.631   1.107
 4944SOL     OW15730   2.167   4.827   2.090
 4944SOL    HW115731   2.139   4.823   2.186
 4944SOL    HW215732   2.122   4.753   2.040
 4945SOL     OW15733   0.312   6.534   3.833
 4945SOL    HW115734   0.338   6.629   3.844
 4945SOL    HW215735   0.295   6.493   3.923
 4946SOL     OW15736   1.314   3.449   2.579
 4946SOL    HW115737   1.378   3.492   2.516
 4946SOL    HW215738   1.358   3.439   2.669
 4947SOL     OW15739   0.852   6.419   0.901
 4947SOL    HW115740   0.906   6.442   0.982
 4947SOL    HW215741   0.862   6.322   0.880
 4948SOL     OW15742   2.316   1.169   2.002
 4948SOL    HW115743   2.415   1.160   2.007
 4948SOL    HW215744   2.276   1.086   1.963
 4949SOL     OW15745   5.623   1.515   4.858
 4949SOL    HW115746   5.535   1.563   4.857
 4949SOL    HW215747   5.662   1.519   4.950
 4950SOL     OW15748   3.034   5.459   4.692
 4950SOL    HW115749   3.023   5.362   4.712
 4950SOL    HW215750   2.968   5.513   4.744
 4951SOL     OW15751   4.611   2.208   4.807
 4951SOL    HW115752   4.601   2.244   4.900
 4951SOL    HW215753   4.526   2.164   4.779
 4952SOL     OW15754   0.212   6.365   5.588
 4952SOL    HW115755   0.147   6.440   5.580
 4952SOL    HW215756   0.249   6.363   5.681
 4953SOL     OW15757   2.137   5.388   1.967
 4953SOL    HW115758   2.147   5.293   1.937
 4953SOL    HW215759   2.223   5.436   1.953
 4954SOL     OW15760   5.518   5.486   6.439
 4954SOL    HW115761   5.609   5.480   6.399
 4954SOL    HW215762   5.514   5.563   6.502
 4955SOL     OW15763   1.492   6.956   1.495
 4955SOL    HW115764   1.577   7.008   1.504
 4955SOL    HW215765   1.437   6.969   1.577
 4956SOL     OW15766   4.454   6.816   4.816
 4956SOL    HW115767   4.552   6.830   4.800
 4956SOL    HW215768   4.421   6.882   4.883
 4957SOL     OW15769   0.628   0.190   3.403
 4957SOL    HW115770   0.622   0.281   3.362
 4957SOL    HW215771   0.723   0.161   3.406
 4958SOL     OW15772   0.879   5.767   6.848
 4958SOL    HW115773   0.817   5.781   6.770
 4958SOL    HW215774   0.951   5.836   6.846
 4959SOL     OW15775   1.132   1.425   1.436
 4959SOL    HW115776   1.145   1.383   1.526
 4959SOL    HW215777   1.057   1.378   1.388
 4960SOL     OW15778   4.048   6.781   4.728
 4960SOL    HW115779   4.127   6.730   4.692
 4960SOL    HW215780   4.051   6.875   4.695
 4961SOL     OW15781   4.975   0.961   4.758
 4961SOL    HW115782   4.878   0.953   4.737
 4961SOL    HW215783   5.014   0.870   4.772
 4962SOL     OW15784   6.964   2.173   0.523
 4962SOL    HW115785   6.978   2.161   0.425
 4962SOL    HW215786   6.980   2.086   0.570
 4963SOL     OW15787   0.483   4.959   1.782
 4963SOL    HW115788   0.415   5.030   1.763
 4963SOL    HW215789   0.457   4.875   1.734
 4964SOL     OW15790   3.221   6.645   3.327
 4964SOL    HW115791   3.296   6.580   3.339
 4964SOL    HW215792   3.137   6.594   3.307
 4965SOL     OW15793   6.210   0.352   4.375
 4965SOL    HW115794   6.190   0.255   4.363
 4965SOL    HW215795   6.309   0.365   4.388
 4966SOL     OW15796   3.027   5.008   4.263
 4966SOL    HW115797   3.022   5.108   4.264
 4966SOL    HW215798   3.116   4.979   4.297
 4967SOL     OW15799   3.995   2.699   5.566
 4967SOL    HW115800   4.087   2.717   5.532
 4967SOL    HW215801   3.945   2.643   5.500
 4968SOL     OW15802   6.086   3.360   5.243
 4968SOL    HW115803   6.055   3.269   5.273
 4968SOL    HW215804   6.110   3.356   5.146
 4969SOL     OW15805   1.460   1.078   2.307
 4969SOL    HW115806   1.518   1.152   2.272
 4969SOL    HW215807   1.403   1.113   2.381
 4970SOL     OW15808   0.690   2.101   5.202
 4970SOL    HW115809   0.681   2.003   5.181
 4970SOL    HW215810   0.771   2.115   5.260
 4971SOL     OW15811   5.284   6.636   3.505
 4971SOL    HW115812   5.221   6.629   3.582
 4971SOL    HW215813   5.258   6.714   3.448
 4972SOL     OW15814   1.562   3.350   6.764
 4972SOL    HW115815   1.618   3.399   6.698
 4972SOL    HW215816   1.608   3.265   6.790
 4973SOL     OW15817   5.528   6.338   2.689
 4973SOL    HW115818   5.560   6.399   2.761
 4973SOL    HW215819   5.502   6.392   2.608
 4974SOL     OW15820   5.639   6.572   2.429
 4974SOL    HW115821   5.554   6.542   2.473
 4974SOL    HW215822   5.663   6.663   2.462
 4975SOL     OW15823   5.995   5.825   0.404
 4975SOL    HW115824   5.898   5.847   0.403
 4975SOL    HW215825   6.008   5.732   0.437
 4976SOL     OW15826   3.799   0.385   5.500
 4976SOL    HW115827   3.840   0.304   5.542
 4976SOL    HW215828   3.868   0.432   5.444
 4977SOL     OW15829   3.341   3.088   0.972
 4977SOL    HW115830   3.350   3.002   0.922
 4977SOL    HW215831   3.255   3.132   0.947
 4978SOL     OW15832   5.455   2.713   6.408
 4978SOL    HW115833   5.459   2.731   6.506
 4978SOL    HW215834   5.526   2.766   6.362
 4979SOL     OW15835   1.274   0.473   5.598
 4979SOL    HW115836   1.289   0.443   5.504
 4979SOL    HW215837   1.275   0.573   5.602
 4980SOL     OW15838   3.307   5.214   1.992
 4980SOL    HW115839   3.286   5.221   2.089
 4980SOL    HW215840   3.229   5.244   1.938
 4981SOL     OW15841   3.870   6.440   5.538
 4981SOL    HW115842   3.914   6.528   5.552
 4981SOL    HW215843   3.775   6.445   5.567
 4982SOL     OW15844   2.533   3.301   0.468
 4982SOL    HW115845   2.510   3.208   0.497
 4982SOL    HW215846   2.489   3.366   0.530
 4983SOL     OW15847   5.168   3.289   4.222
 4983SOL    HW115848   5.183   3.256   4.315
 4983SOL    HW215849   5.251   3.272   4.167
 4984SOL     OW15850   4.878   3.800   3.333
 4984SOL    HW115851   4.826   3.864   3.276
 4984SOL    HW215852   4.816   3.744   3.387
 4985SOL     OW15853   5.434   4.832   2.557
 4985SOL    HW115854   5.408   4.739   2.533
 4985SOL    HW215855   5.430   4.844   2.656
 4986SOL     OW15856   5.248   4.659   2.702
 4986SOL    HW115857   5.192   4.613   2.771
 4986SOL    HW215858   5.210   4.750   2.683
 4987SOL     OW15859   6.948   3.001   1.472
 4987SOL    HW115860   6.913   3.033   1.384
 4987SOL    HW215861   0.005   2.944   1.457
 4988SOL     OW15862   0.855   1.404   4.179
 4988SOL    HW115863   0.948   1.423   4.209
 4988SOL    HW215864   0.794   1.402   4.259
 4989SOL     OW15865   0.469   1.225   0.449
 4989SOL    HW115866   0.537   1.191   0.514
 4989SOL    HW215867   0.470   1.167   0.367
 4990SOL     OW15868   1.585   1.862   5.384
 4990SOL    HW115869   1.674   1.907   5.376
 4990SOL    HW215870   1.564   1.815   5.299
 4991SOL     OW15871   0.889   2.965   4.084
 4991SOL    HW115872   0.792   2.948   4.099
 4991SOL    HW215873   0.943   2.895   4.132
 4992SOL     OW15874   3.598   0.585   5.599
 4992SOL    HW115875   3.675   0.522   5.603
 4992SOL    HW215876   3.598   0.634   5.512
 4993SOL     OW15877   3.015   5.856   3.705
 4993SOL    HW115878   3.051   5.950   3.708
 4993SOL    HW215879   3.089   5.792   3.683
 4994SOL     OW15880   0.255   0.115   2.558
 4994SOL    HW115881   0.199   0.032   2.561
 4994SOL    HW215882   0.338   0.101   2.612
 4995SOL     OW15883   5.695   2.288   6.520
 4995SOL    HW115884   5.779   2.332   6.551
 4995SOL    HW215885   5.717   2.198   6.482
 4996SOL     OW15886   1.068   1.272   3.246
 4996SOL    HW115887   0.971   1.288   3.232
 4996SOL    HW215888   1.112   1.357   3.275
 4997SOL     OW15889   0.489   2.930   3.330
 4997SOL    HW115890   0.489   2.988   3.411
 4997SOL    HW215891   0.439   2.845   3.349
 4998SOL     OW15892   1.596   5.632   4.568
 4998SOL    HW115893   1.612   5.545   4.523
 4998SOL    HW215894   1.527   5.621   4.640
 4999SOL     OW15895   5.730   5.334   1.039
 4999SOL    HW115896   5.791   5.314   1.116
 4999SOL    HW215897   5.722   5.252   0.982
 5000SOL     OW15898   0.340   6.397   4.457
 5000SOL    HW115899   0.276   6.327   4.426
 5000SOL    HW215900   0.335   6.476   4.396
 5001SOL     OW15901   3.410   4.527   5.321
 5001SOL    HW115902   3.335   4.462   5.309
 5001SOL    HW215903   3.425   4.543   5.419
 5002SOL     OW15904   2.333   1.037   2.261
 5002SOL    HW115905   2.283   1.117   2.229
 5002SOL    HW215906   2.282   0.954   2.239
 5003SOL     OW15907   6.415   5.576   2.993
 5003SOL    HW115908   6.429   5.629   2.910
 5003SOL    HW215909   6.446   5.628   3.072
 5004SOL     OW15910   3.363   6.246   0.135
 5004SOL    HW115911   3.324   6.215   0.221
 5004SOL    HW215912   3.430   6.319   0.152
 5005SOL     OW15913   5.016   2.719   0.123
 5005SOL    HW115914   5.008   2.698   0.026
 5005SOL    HW215915   5.103   2.765   0.141
 5006SOL     OW15916   5.204   5.739   4.552
 5006SOL    HW115917   5.231   5.835   4.548
 5006SOL    HW215918   5.215   5.706   4.646
 5007SOL     OW15919   3.689   1.275   5.189
 5007SOL    HW115920   3.737   1.324   5.261
 5007SOL    HW215921   3.750   1.264   5.110
 5008SOL     OW15922   5.867   1.048   3.752
 5008SOL    HW115923   5.940   0.990   3.790
 5008SOL    HW215924   5.845   1.120   3.818
 5009SOL     OW15925   1.391   6.342   3.072
 5009SOL    HW115926   1.486   6.311   3.059
 5009SOL    HW215927   1.354   6.302   3.155
 5010SOL     OW15928   4.013   3.842   4.191
 5010SOL    HW115929   4.052   3.751   4.183
 5010SOL    HW215930   4.019   3.889   4.103
 5011SOL     OW15931   0.885   2.873   2.919
 5011SOL    HW115932   0.817   2.868   2.992
 5011SOL    HW215933   0.843   2.850   2.832
 5012SOL     OW15934   6.737   2.268   6.514
 5012SOL    HW115935   6.764   2.172   6.511
 5012SOL    HW215936   6.747   2.303   6.607
 5013SOL     OW15937   4.160   1.709   6.440
 5013SOL    HW115938   4.201   1.663   6.519
 5013SOL    HW215939   4.145   1.806   6.462
 5014SOL     OW15940   6.077   6.502   0.145
 5014SOL    HW115941   6.086   6.412   0.105
 5014SOL    HW215942   6.031   6.564   0.081
 5015SOL     OW15943   4.653   2.613   3.836
 5015SOL    HW115944   4.657   2.648   3.743
 5015SOL    HW215945   4.722   2.658   3.892
 5016SOL     OW15946   2.429   0.176   2.968
 5016SOL    HW115947   2.417   0.115   2.890
 5016SOL    HW215948   2.431   0.271   2.937
 5017SOL     OW15949   2.456   2.829   1.243
 5017SOL    HW115950   2.383   2.817   1.176
 5017SOL    HW215951   2.417   2.823   1.335
 5018SOL     OW15952   5.978   5.344   3.750
 5018SOL    HW115953   5.958   5.414   3.818
 5018SOL    HW215954   5.968   5.254   3.791
 5019SOL     OW15955   1.897   4.657   6.996
 5019SOL    HW115956   1.837   4.676   0.050
 5019SOL    HW215957   1.986   4.700   7.012
 5020SOL     OW15958   5.424   4.954   6.517
 5020SOL    HW115959   5.419   4.924   6.612
 5020SOL    HW215960   5.334   4.989   6.488
 5021SOL     OW15961   1.680   4.281   6.016
 5021SOL    HW115962   1.632   4.293   5.929
 5021SOL    HW215963   1.626   4.323   6.089
 5022SOL     OW15964   1.437   5.449   0.324
 5022SOL    HW115965   1.470   5.436   0.418
 5022SOL    HW215966   1.469   5.536   0.289
 5023SOL     OW15967   6.391   3.041   2.458
 5023SOL    HW115968   6.452   3.078   2.528
 5023SOL    HW215969   6.312   2.999   2.503
 5024SOL     OW15970   6.229   3.946   4.362
 5024SOL    HW115971   6.260   3.929   4.269
 5024SOL    HW215972   6.159   4.018   4.361
 5025SOL     OW15973   5.349   1.132   3.094
 5025SOL    HW115974   5.297   1.120   3.179
 5025SOL    HW215975   5.331   1.223   3.057
 5026SOL     OW15976   0.167   6.641   4.099
 5026SOL    HW115977   0.191   6.551   4.137
 5026SOL    HW215978   0.081   6.633   4.048
 5027SOL     OW15979   1.225   6.774   3.506
 5027SOL    HW115980   1.182   6.822   3.429
 5027SOL    HW215981   1.320   6.755   3.484
 5028SOL     OW15982   0.144   0.629   2.995
 5028SOL    HW115983   0.142   0.676   2.907
 5028SOL    HW215984   0.095   0.542   2.988
 5029SOL     OW15985   6.887   1.451   1.183
 5029SOL    HW115986   6.863   1.545   1.206
 5029SOL    HW215987   6.968   1.424   1.235
 5030SOL     OW15988   1.055   6.351   0.265
 5030SOL    HW115989   1.111   6.276   0.231
 5030SOL    HW215990   1.090   6.382   0.353
 5031SOL     OW15991   5.441   0.591   4.245
 5031SOL    HW115992   5.448   0.653   4.168
 5031SOL    HW215993   5.510   0.520   4.237
 5032SOL     OW15994   2.013   5.678   1.078
 5032SOL    HW115995   2.039   5.673   1.174
 5032SOL    HW215996   2.003   5.774   1.051
 5033SOL     OW15997   1.945   4.177   5.367
 5033SOL    HW115998   1.900   4.088   5.375
 5033SOL    HW215999   1.970   4.211   5.457
 5034SOL     OW16000   6.479   3.166   0.914
 5034SOL    HW116001   6.566   3.124   0.939
 5034SOL    HW216002   6.425   3.102   0.859
 5035SOL     OW16003   5.094   4.497   0.360
 5035SOL    HW116004   5.190   4.516   0.382
 5035SOL    HW216005   5.088   4.458   0.269
 5036SOL     OW16006   1.208   0.153   1.309
 5036SOL    HW116007   1.161   0.066   1.292
 5036SOL    HW216008   1.141   0.227   1.313
 5037SOL     OW16009   4.401   2.300   4.286
 5037SOL    HW116010   4.378   2.255   4.200
 5037SOL    HW216011   4.483   2.258   4.324
 5038SOL     OW16012   1.938   6.574   5.343
 5038SOL    HW116013   2.018   6.633   5.336
 5038SOL    HW216014   1.964   6.480   5.320
 5039SOL     OW16015   2.140   2.127   5.084
 5039SOL    HW116016   2.183   2.061   5.023
 5039SOL    HW216017   2.166   2.108   5.178
 5040SOL     OW16018   3.202   3.926   5.600
 5040SOL    HW116019   3.130   3.901   5.536
 5040SOL    HW216020   3.277   3.969   5.551
 5041SOL     OW16021   1.443   4.340   0.983
 5041SOL    HW116022   1.542   4.348   0.995
 5041SOL    HW216023   1.422   4.263   0.922
 5042SOL     OW16024   5.239   2.572   6.088
 5042SOL    HW116025   5.325   2.623   6.086
 5042SOL    HW216026   5.258   2.476   6.112
 5043SOL     OW16027   3.861   0.954   3.591
 5043SOL    HW116028   3.911   1.036   3.617
 5043SOL    HW216029   3.781   0.944   3.651
 5044SOL     OW16030   6.357   4.929   3.572
 5044SOL    HW116031   6.273   4.942   3.520
 5044SOL    HW216032   6.401   5.018   3.588
 5045SOL     OW16033   6.047   2.217   6.924
 5045SOL    HW116034   6.042   2.134   6.868
 5045SOL    HW216035   5.966   2.224   6.981
 5046SOL     OW16036   3.690   2.835   4.988
 5046SOL    HW116037   3.672   2.739   4.968
 5046SOL    HW216038   3.734   2.843   5.078
 5047SOL     OW16039   0.946   0.699   2.252
 5047SOL    HW116040   0.895   0.783   2.231
 5047SOL    HW216041   1.041   0.722   2.272
 5048SOL     OW16042   6.360   2.904   1.192
 5048SOL    HW116043   6.304   2.822   1.179
 5048SOL    HW216044   6.390   2.910   1.287
 5049SOL     OW16045   1.007   2.413   2.453
 5049SOL    HW116046   1.015   2.314   2.441
 5049SOL    HW216047   0.988   2.456   2.365
 5050SOL     OW16048   1.048   3.193   2.160
 5050SOL    HW116049   1.104   3.248   2.223
 5050SOL    HW216050   0.952   3.216   2.172
 5051SOL     OW16051   3.057   5.532   0.582
 5051SOL    HW116052   3.153   5.517   0.606
 5051SOL    HW216053   3.003   5.451   0.605
 5052SOL     OW16054   5.590   4.722   1.088
 5052SOL    HW116055   5.650   4.678   1.021
 5052SOL    HW216056   5.533   4.653   1.132
 5053SOL     OW16057   2.480   4.513   0.447
 5053SOL    HW116058   2.425   4.556   0.519
 5053SOL    HW216059   2.502   4.419   0.474
 5054SOL     OW16060   3.979   5.832   4.723
 5054SOL    HW116061   3.999   5.813   4.819
 5054SOL    HW216062   3.925   5.916   4.716
 5055SOL     OW16063   0.973   1.622   5.068
 5055SOL    HW116064   0.913   1.702   5.072
 5055SOL    HW216065   1.064   1.647   5.100
 5056SOL     OW16066   1.033   2.687   5.102
 5056SOL    HW116067   0.947   2.642   5.128
 5056SOL    HW216068   1.084   2.627   5.041
 5057SOL     OW16069   0.075   5.198   2.642
 5057SOL    HW116070   7.018   5.143   2.662
 5057SOL    HW216071   0.150   5.138   2.615
 5058SOL     OW16072   4.143   4.972   6.549
 5058SOL    HW116073   4.073   5.031   6.509
 5058SOL    HW216074   4.220   4.964   6.486
 5059SOL     OW16075   3.625   1.852   3.793
 5059SOL    HW116076   3.577   1.930   3.753
 5059SOL    HW216077   3.720   1.852   3.762
 5060SOL     OW16078   0.560   3.413   5.303
 5060SOL    HW116079   0.632   3.362   5.350
 5060SOL    HW216080   0.568   3.399   5.204
 5061SOL     OW16081   3.549   2.908   5.362
 5061SOL    HW116082   3.625   2.866   5.314
 5061SOL    HW216083   3.582   2.951   5.446
 5062SOL     OW16084   5.131   1.268   2.531
 5062SOL    HW116085   5.129   1.368   2.523
 5062SOL    HW216086   5.040   1.234   2.551
 5063SOL     OW16087   1.179   0.289   2.814
 5063SOL    HW116088   1.123   0.216   2.776
 5063SOL    HW216089   1.207   0.264   2.907
 5064SOL     OW16090   4.674   5.778   0.927
 5064SOL    HW116091   4.576   5.794   0.930
 5064SOL    HW216092   4.712   5.791   1.019
 5065SOL     OW16093   2.269   6.822   2.949
 5065SOL    HW116094   2.274   6.881   2.868
 5065SOL    HW216095   2.175   6.787   2.958
 5066SOL     OW16096   2.363   4.506   1.860
 5066SOL    HW116097   2.456   4.529   1.889
 5066SOL    HW216098   2.318   4.588   1.824
 5067SOL     OW16099   4.271   3.141   1.472
 5067SOL    HW116100   4.176   3.128   1.501
 5067SOL    HW216101   4.317   3.203   1.535
 5068SOL     OW16102   3.257   6.115   0.348
 5068SOL    HW116103   3.262   6.135   0.446
 5068SOL    HW216104   3.177   6.060   0.329
 5069SOL     OW16105   3.272   5.168   5.734
 5069SOL    HW116106   3.269   5.069   5.724
 5069SOL    HW216107   3.184   5.207   5.708
 5070SOL     OW16108   6.189   2.795   3.705
 5070SOL    HW116109   6.181   2.723   3.636
 5070SOL    HW216110   6.123   2.867   3.686
 5071SOL     OW16111   3.057   0.614   4.264
 5071SOL    HW116112   3.023   0.534   4.313
 5071SOL    HW216113   3.075   0.591   4.169
 5072SOL     OW16114   1.167   1.367   0.324
 5072SOL    HW116115   1.134   1.324   0.408
 5072SOL    HW216116   1.212   1.454   0.347
 5073SOL     OW16117   2.438   0.075   2.289
 5073SOL    HW116118   2.431   0.054   2.192
 5073SOL    HW216119   2.455   7.015   2.340
 5074SOL     OW16120   3.460   2.094   1.885
 5074SOL    HW116121   3.397   2.133   1.952
 5074SOL    HW216122   3.535   2.159   1.868
 5075SOL     OW16123   1.124   3.194   7.020
 5075SOL    HW116124   1.217   3.159   7.011
 5075SOL    HW216125   1.108   3.223   0.090
 5076SOL     OW16126   5.738   6.742   6.628
 5076SOL    HW116127   5.761   6.647   6.607
 5076SOL    HW216128   5.653   6.745   6.680
 5077SOL     OW16129   0.840   4.519   3.841
 5077SOL    HW116130   0.799   4.594   3.789
 5077SOL    HW216131   0.886   4.457   3.778
 5078SOL     OW16132   0.464   1.364   4.126
 5078SOL    HW116133   0.544   1.387   4.181
 5078SOL    HW216134   0.475   1.271   4.089
 5079SOL     OW16135   1.706   2.509   6.025
 5079SOL    HW116136   1.638   2.512   5.952
 5079SOL    HW216137   1.774   2.439   6.003
 5080SOL     OW16138   5.819   5.325   6.339
 5080SOL    HW116139   5.913   5.297   6.323
 5080SOL    HW216140   5.771   5.254   6.390
 5081SOL     OW16141   3.030   5.443   5.439
 5081SOL    HW116142   3.087   5.481   5.367
 5081SOL    HW216143   3.043   5.496   5.523
 5082SOL     OW16144   5.961   6.065   2.010
 5082SOL    HW116145   5.899   6.056   2.088
 5082SOL    HW216146   5.926   6.135   1.948
 5083SOL     OW16147   2.378   6.911   3.394
 5083SOL    HW116148   2.415   6.904   3.301
 5083SOL    HW216149   2.433   6.854   3.455
 5084SOL     OW16150   1.476   4.708   5.502
 5084SOL    HW116151   1.528   4.624   5.514
 5084SOL    HW216152   1.538   4.785   5.489
 5085SOL     OW16153   0.156   3.947   6.457
 5085SOL    HW116154   0.216   3.869   6.476
 5085SOL    HW216155   0.199   4.007   6.390
 5086SOL     OW16156   2.427   4.832   2.381
 5086SOL    HW116157   2.364   4.769   2.427
 5086SOL    HW216158   2.507   4.847   2.439
 5087SOL     OW16159   6.566   5.135   2.024
 5087SOL    HW116160   6.599   5.043   2.005
 5087SOL    HW216161   6.467   5.134   2.038
 5088SOL     OW16162   4.841   5.875   1.917
 5088SOL    HW116163   4.768   5.839   1.976
 5088SOL    HW216164   4.930   5.845   1.952
 5089SOL     OW16165   5.749   5.102   4.889
 5089SOL    HW116166   5.772   5.110   4.792
 5089SOL    HW216167   5.828   5.130   4.944
 5090SOL     OW16168   3.164   0.191   5.019
 5090SOL    HW116169   3.238   0.258   5.031
 5090SOL    HW216170   3.147   0.146   5.107
 5091SOL     OW16171   6.424   0.038   0.440
 5091SOL    HW116172   6.371   0.092   0.505
 5091SOL    HW216173   6.361   7.013   0.379
 5092SOL     OW16174   2.887   3.623   4.692
 5092SOL    HW116175   2.964   3.662   4.643
 5092SOL    HW216176   2.806   3.681   4.679
 5093SOL     OW16177   2.126   1.951   2.341
 5093SOL    HW116178   2.085   1.990   2.259
 5093SOL    HW216179   2.091   1.998   2.422
 5094SOL     OW16180   2.443   5.776   5.927
 5094SOL    HW116181   2.467   5.814   6.016
 5094SOL    HW216182   2.444   5.676   5.931
 5095SOL     OW16183   6.766   0.562   2.903
 5095SOL    HW116184   6.753   0.529   2.810
 5095SOL    HW216185   6.798   0.657   2.900
 5096SOL     OW16186   5.183   2.562   5.806
 5096SOL    HW116187   5.195   2.634   5.737
 5096SOL    HW216188   5.201   2.600   5.896
 5097SOL     OW16189   0.885   6.486   6.659
 5097SOL    HW116190   0.898   6.403   6.713
 5097SOL    HW216191   0.970   6.538   6.657
 5098SOL     OW16192   3.790   2.154   1.681
 5098SOL    HW116193   3.835   2.212   1.613
 5098SOL    HW216194   3.741   2.211   1.746
 5099SOL     OW16195   1.160   6.771   1.686
 5099SOL    HW116196   1.176   6.870   1.683
 5099SOL    HW216197   1.209   6.727   1.612
 5100SOL     OW16198   5.218   3.711   2.684
 5100SOL    HW116199   5.231   3.677   2.591
 5100SOL    HW216200   5.255   3.645   2.750
 5101SOL     OW16201   3.909   6.958   5.940
 5101SOL    HW116202   3.997   6.999   5.914
 5101SOL    HW216203   3.870   7.009   6.016
 5102SOL     OW16204   5.038   4.794   4.623
 5102SOL    HW116205   5.079   4.866   4.678
 5102SOL    HW216206   4.994   4.726   4.682
 5103SOL     OW16207   1.430   0.438   5.873
 5103SOL    HW116208   1.388   0.456   5.784
 5103SOL    HW216209   1.362   0.451   5.945
 5104SOL     OW16210   3.726   4.566   1.585
 5104SOL    HW116211   3.772   4.478   1.598
 5104SOL    HW216212   3.675   4.589   1.668
 5105SOL     OW16213   3.692   2.877   6.413
 5105SOL    HW116214   3.682   2.949   6.481
 5105SOL    HW216215   3.712   2.790   6.460
 5106SOL     OW16216   4.478   3.074   1.157
 5106SOL    HW116217   4.466   3.059   1.059
 5106SOL    HW216218   4.558   3.023   1.189
 5107SOL     OW16219   4.907   3.369   0.629
 5107SOL    HW116220   4.938   3.396   0.537
 5107SOL    HW216221   4.974   3.307   0.670
 5108SOL     OW16222   4.499   4.736   6.578
 5108SOL    HW116223   4.425   4.766   6.639
 5108SOL    HW216224   4.510   4.636   6.586
 5109SOL     OW16225   1.597   2.742   1.422
 5109SOL    HW116226   1.631   2.709   1.511
 5109SOL    HW216227   1.578   2.664   1.363
 5110SOL     OW16228   5.245   0.436   6.499
 5110SOL    HW116229   5.240   0.405   6.594
 5110SOL    HW216230   5.235   0.357   6.438
 5111SOL     OW16231   0.868   6.459   5.239
 5111SOL    HW116232   0.787   6.513   5.260
 5111SOL    HW216233   0.893   6.403   5.319
 5112SOL     OW16234   0.361   0.417   2.666
 5112SOL    HW116235   0.308   0.492   2.628
 5112SOL    HW216236   0.313   0.330   2.651
 5113SOL     OW16237   2.155   4.545   0.229
 5113SOL    HW116238   2.206   4.480   0.174
 5113SOL    HW216239   2.115   4.499   0.308
 5114SOL     OW16240   4.528   6.069   1.073
 5114SOL    HW116241   4.527   6.089   1.171
 5114SOL    HW216242   4.485   5.980   1.057
 5115SOL     OW16243   1.555   3.997   0.896
 5115SOL    HW116244   1.507   3.953   0.821
 5115SOL    HW216245   1.604   4.078   0.862
 5116SOL     OW16246   1.949   6.677   6.722
 5116SOL    HW116247   2.001   6.593   6.706
 5116SOL    HW216248   1.885   6.662   6.798
 5117SOL     OW16249   1.507   2.162   3.992
 5117SOL    HW116250   1.581   2.098   3.972
 5117SOL    HW216251   1.444   2.120   4.057
 5118SOL     OW16252   5.480   5.652   6.668
 5118SOL    HW116253   5.394   5.600   6.661
 5118SOL    HW216254   5.459   5.750   6.663
 5119SOL     OW16255   4.985   1.424   0.476
 5119SOL    HW116256   4.974   1.523   0.487
 5119SOL    HW216257   4.898   1.379   0.495
 5120SOL     OW16258   5.032   0.185   5.372
 5120SOL    HW116259   5.123   0.155   5.343
 5120SOL    HW216260   5.026   0.183   5.471
 5121SOL     OW16261   2.177   4.010   6.657
 5121SOL    HW116262   2.120   4.093   6.653
 5121SOL    HW216263   2.273   4.036   6.666
 5122SOL     OW16264   5.291   5.445   3.644
 5122SOL    HW116265   5.271   5.427   3.740
 5122SOL    HW216266   5.219   5.406   3.586
 5123SOL     OW16267   4.899   2.635   2.267
 5123SOL    HW116268   4.956   2.702   2.315
 5123SOL    HW216269   4.837   2.683   2.205
 5124SOL     OW16270   2.139   6.455   3.501
 5124SOL    HW116271   2.173   6.538   3.456
 5124SOL    HW216272   2.121   6.475   3.598
 5125SOL     OW16273   0.267   1.463   3.915
 5125SOL    HW116274   0.359   1.460   3.953
 5125SOL    HW216275   0.249   1.554   3.878
 5126SOL     OW16276   2.455   6.661   0.486
 5126SOL    HW116277   2.465   6.633   0.581
 5126SOL    HW216278   2.544   6.659   0.441
 5127SOL     OW16279   1.916   5.576   0.252
 5127SOL    HW116280   1.821   5.549   0.235
 5127SOL    HW216281   1.965   5.500   0.294
 5128SOL     OW16282   6.557   5.900   1.804
 5128SOL    HW116283   6.631   5.956   1.841
 5128SOL    HW216284   6.498   5.869   1.879
 5129SOL     OW16285   5.994   6.917   1.137
 5129SOL    HW116286   6.020   7.000   1.087
 5129SOL    HW216287   5.974   6.844   1.072
 5130SOL     OW16288   6.058   5.036   3.398
 5130SOL    HW116289   6.027   5.095   3.473
 5130SOL    HW216290   6.114   5.089   3.335
 5131SOL     OW16291   2.250   2.518   3.779
 5131SOL    HW116292   2.155   2.524   3.749
 5131SOL    HW216293   2.293   2.607   3.771
 5132SOL     OW16294   2.864   5.026   5.629
 5132SOL    HW116295   2.900   5.111   5.667
 5132SOL    HW216296   2.939   4.962   5.613
 5133SOL     OW16297   3.771   6.523   6.361
 5133SOL    HW116298   3.722   6.448   6.404
 5133SOL    HW216299   3.831   6.488   6.290
 5134SOL     OW16300   0.493   3.895   1.236
 5134SOL    HW116301   0.568   3.865   1.294
 5134SOL    HW216302   0.414   3.835   1.250
 5135SOL     OW16303   6.594   1.556   4.995
 5135SOL    HW116304   6.581   1.642   5.045
 5135SOL    HW216305   6.541   1.559   4.910
 5136SOL     OW16306   4.461   1.350   4.275
 5136SOL    HW116307   4.403   1.429   4.293
 5136SOL    HW216308   4.444   1.317   4.182
 5137SOL     OW16309   3.942   4.477   6.101
 5137SOL    HW116310   3.972   4.451   6.009
 5137SOL    HW216311   3.876   4.551   6.095
 5138SOL     OW16312   2.643   4.010   5.502
 5138SOL    HW116313   2.648   3.919   5.543
 5138SOL    HW216314   2.665   4.080   5.570
 5139SOL     OW16315   1.313   6.814   3.763
 5139SOL    HW116316   1.343   6.721   3.783
 5139SOL    HW216317   1.270   6.817   3.673
 5140SOL     OW16318   3.572   2.716   1.210
 5140SOL    HW116319   3.541   2.625   1.237
 5140SOL    HW216320   3.493   2.778   1.207
 5141SOL     OW16321   5.588   3.115   6.901
 5141SOL    HW116322   5.683   3.132   6.875
 5141SOL    HW216323   5.585   3.052   6.978
 5142SOL     OW16324   5.387   4.047   4.612
 5142SOL    HW116325   5.410   4.010   4.702
 5142SOL    HW216326   5.290   4.029   4.593
 5143SOL     OW16327   6.682   5.511   4.325
 5143SOL    HW116328   6.778   5.537   4.339
 5143SOL    HW216329   6.623   5.591   4.336
 5144SOL     OW16330   1.281   1.064   5.572
 5144SOL    HW116331   1.322   1.143   5.527
 5144SOL    HW216332   1.235   1.006   5.504
 5145SOL     OW16333   2.161   5.447   5.952
 5145SOL    HW116334   2.229   5.456   5.879
 5145SOL    HW216335   2.108   5.532   5.958
 5146SOL     OW16336   2.853   4.622   6.878
 5146SOL    HW116337   2.866   4.578   6.966
 5146SOL    HW216338   2.796   4.564   6.820
 5147SOL     OW16339   6.014   4.319   6.745
 5147SOL    HW116340   5.955   4.387   6.702
 5147SOL    HW216341   6.104   4.360   6.763
 5148SOL     OW16342   0.181   6.119   1.368
 5148SOL    HW116343   0.281   6.107   1.372
 5148SOL    HW216344   0.138   6.030   1.355
 5149SOL     OW16345   6.328   1.611   4.270
 5149SOL    HW116346   6.298   1.518   4.289
 5149SOL    HW216347   6.285   1.674   4.335
 5150SOL     OW16348   1.735   5.486   4.123
 5150SOL    HW116349   1.648   5.460   4.167
 5150SOL    HW216350   1.718   5.505   4.026
 5151SOL     OW16351   4.979   0.878   6.481
 5151SOL    HW116352   4.901   0.817   6.491
 5151SOL    HW216353   5.064   0.826   6.491
 5152SOL     OW16354   0.830   4.354   0.160
 5152SOL    HW116355   0.881   4.298   0.094
 5152SOL    HW216356   0.734   4.325   0.160
 5153SOL     OW16357   1.406   1.944   0.720
 5153SOL    HW116358   1.436   1.861   0.767
 5153SOL    HW216359   1.335   1.921   0.653
 5154SOL     OW16360   1.828   2.802   5.547
 5154SOL    HW116361   1.841   2.822   5.450
 5154SOL    HW216362   1.780   2.878   5.591
 5155SOL     OW16363   3.757   0.003   2.161
 5155SOL    HW116364   3.755   6.999   2.257
 5155SOL    HW216365   3.722   0.096   2.153
 5156SOL     OW16366   6.156   2.503   5.374
 5156SOL    HW116367   6.113   2.563   5.441
 5156SOL    HW216368   6.255   2.518   5.375
 5157SOL     OW16369   4.990   2.743   3.654
 5157SOL    HW116370   5.049   2.793   3.718
 5157SOL    HW216371   4.916   2.802   3.623
 5158SOL     OW16372   3.682   1.566   1.229
 5158SOL    HW116373   3.774   1.551   1.265
 5158SOL    HW216374   3.683   1.562   1.129
 5159SOL     OW16375   1.289   3.053   4.215
 5159SOL    HW116376   1.354   3.129   4.216
 5159SOL    HW216377   1.326   2.977   4.268
 5160SOL     OW16378   1.897   3.712   4.658
 5160SOL    HW116379   1.991   3.677   4.651
 5160SOL    HW216380   1.854   3.675   4.741
 5161SOL     OW16381   1.130   3.093   4.886
 5161SOL    HW116382   1.055   3.119   4.825
 5161SOL    HW216383   1.204   3.053   4.832
 5162SOL     OW16384   6.460   6.347   3.738
 5162SOL    HW116385   6.439   6.442   3.714
 5162SOL    HW216386   6.421   6.325   3.827
 5163SOL     OW16387   5.427   4.670   1.524
 5163SOL    HW116388   5.423   4.669   1.624
 5163SOL    HW216389   5.406   4.761   1.491
 5164SOL     OW16390   5.748   3.724   5.713
 5164SOL    HW116391   5.818   3.688   5.775
 5164SOL    HW216392   5.657   3.707   5.752
 5165SOL     OW16393   6.238   4.482   3.856
 5165SOL    HW116394   6.271   4.466   3.949
 5165SOL    HW216395   6.273   4.570   3.823
 5166SOL     OW16396   1.929   5.486   2.180
 5166SOL    HW116397   2.014   5.474   2.129
 5166SOL    HW216398   1.925   5.580   2.215
 5167SOL     OW16399   0.333   6.400   5.853
 5167SOL    HW116400   0.291   6.361   5.935
 5167SOL    HW216401   0.387   6.480   5.878
 5168SOL     OW16402   4.311   2.272   3.170
 5168SOL    HW116403   4.309   2.308   3.077
 5168SOL    HW216404   4.371   2.328   3.227
 5169SOL     OW16405   3.524   3.878   6.068
 5169SOL    HW116406   3.427   3.873   6.046
 5169SOL    HW216407   3.557   3.787   6.093
 5170SOL     OW16408   5.729   4.479   4.802
 5170SOL    HW116409   5.814   4.530   4.786
 5170SOL    HW216410   5.750   4.394   4.850
 5171SOL     OW16411   2.131   5.299   4.416
 5171SOL    HW116412   2.112   5.235   4.491
 5171SOL    HW216413   2.056   5.365   4.409
 5172SOL     OW16414   1.054   4.662   2.472
 5172SOL    HW116415   1.041   4.605   2.553
 5172SOL    HW216416   1.070   4.604   2.392
 5173SOL     OW16417   5.444   2.728   6.678
 5173SOL    HW116418   5.532   2.688   6.705
 5173SOL    HW216419   5.390   2.747   6.761
 5174SOL     OW16420   1.191   4.780   6.055
 5174SOL    HW116421   1.230   4.739   6.138
 5174SOL    HW216422   1.226   4.731   5.975
 5175SOL     OW16423   0.831   4.633   0.110
 5175SOL    HW116424   0.906   4.645   0.175
 5175SOL    HW216425   0.817   4.536   0.091
 5176SOL     OW16426   4.637   3.541   0.459
 5176SOL    HW116427   4.609   3.628   0.499
 5176SOL    HW216428   4.736   3.541   0.444
 5177SOL     OW16429   5.218   6.673   6.279
 5177SOL    HW116430   5.146   6.634   6.337
 5177SOL    HW216431   5.238   6.610   6.204
 5178SOL     OW16432   2.432   2.599   1.875
 5178SOL    HW116433   2.375   2.520   1.898
 5178SOL    HW216434   2.380   2.683   1.887
 5179SOL     OW16435   3.595   6.419   5.669
 5179SOL    HW116436   3.609   6.488   5.740
 5179SOL    HW216437   3.540   6.344   5.706
 5180SOL     OW16438   2.921   2.455   1.359
 5180SOL    HW116439   2.854   2.383   1.341
 5180SOL    HW216440   2.992   2.421   1.420
 5181SOL     OW16441   4.175   6.592   3.014
 5181SOL    HW116442   4.189   6.553   3.105
 5181SOL    HW216443   4.077   6.604   2.998
 5182SOL     OW16444   5.737   4.583   1.646
 5182SOL    HW116445   5.679   4.660   1.673
 5182SOL    HW216446   5.679   4.509   1.611
 5183SOL     OW16447   4.628   0.175   1.835
 5183SOL    HW116448   4.551   0.147   1.893
 5183SOL    HW216449   4.594   0.207   1.747
 5184SOL     OW16450   0.768   0.619   2.824
 5184SOL    HW116451   0.755   0.704   2.773
 5184SOL    HW216452   0.862   0.613   2.857
 5185SOL     OW16453   3.413   0.226   2.157
 5185SOL    HW116454   3.422   0.131   2.128
 5185SOL    HW216455   3.504   0.263   2.177
 5186SOL     OW16456   6.591   4.245   0.302
 5186SOL    HW116457   6.580   4.343   0.318
 5186SOL    HW216458   6.652   4.231   0.224
 5187SOL     OW16459   5.733   1.755   3.629
 5187SOL    HW116460   5.781   1.840   3.653
 5187SOL    HW216461   5.680   1.769   3.545
 5188SOL     OW16462   1.033   3.876   6.023
 5188SOL    HW116463   1.084   3.879   5.937
 5188SOL    HW216464   1.042   3.786   6.064
 5189SOL     OW16465   4.449   5.336   6.382
 5189SOL    HW116466   4.511   5.410   6.407
 5189SOL    HW216467   4.488   5.285   6.305
 5190SOL     OW16468   1.386   2.377   3.872
 5190SOL    HW116469   1.433   2.308   3.928
 5190SOL    HW216470   1.396   2.353   3.775
 5191SOL     OW16471   3.327   0.708   1.424
 5191SOL    HW116472   3.420   0.718   1.389
 5191SOL    HW216473   3.272   0.787   1.396
 5192SOL     OW16474   6.263   5.465   2.689
 5192SOL    HW116475   6.207   5.419   2.757
 5192SOL    HW216476   6.284   5.558   2.720
 5193SOL     OW16477   4.995   3.850   3.578
 5193SOL    HW116478   4.977   3.819   3.485
 5193SOL    HW216479   4.928   3.920   3.603
 5194SOL     OW16480   5.505   0.710   5.274
 5194SOL    HW116481   5.417   0.715   5.321
 5194SOL    HW216482   5.576   0.748   5.333
 5195SOL     OW16483   6.093   6.583   5.436
 5195SOL    HW116484   6.093   6.514   5.364
 5195SOL    HW216485   6.172   6.570   5.496
 5196SOL     OW16486   0.392   3.916   1.554
 5196SOL    HW116487   0.387   3.876   1.462
 5196SOL    HW216488   0.306   3.900   1.602
 5197SOL     OW16489   2.801   5.591   5.184
 5197SOL    HW116490   2.847   5.504   5.165
 5197SOL    HW216491   2.774   5.594   5.280
 5198SOL     OW16492   4.034   6.547   5.145
 5198SOL    HW116493   3.954   6.603   5.166
 5198SOL    HW216494   4.074   6.513   5.230
 5199SOL     OW16495   2.102   5.341   1.522
 5199SOL    HW116496   2.033   5.308   1.457
 5199SOL    HW216497   2.056   5.383   1.601
 5200SOL     OW16498   0.328   1.232   5.046
 5200SOL    HW116499   0.252   1.297   5.037
 5200SOL    HW216500   0.313   1.175   5.126
 5201SOL     OW16501   6.249   5.190   3.890
 5201SOL    HW116502   6.259   5.169   3.793
 5201SOL    HW216503   6.153   5.186   3.915
 5202SOL     OW16504   3.699   2.755   5.834
 5202SOL    HW116505   3.768   2.683   5.831
 5202SOL    HW216506   3.623   2.731   5.773
 5203SOL     OW16507   1.642   0.449   0.601
 5203SOL    HW116508   1.589   0.429   0.683
 5203SOL    HW216509   1.733   0.481   0.627
 5204SOL     OW16510   3.055   0.781   0.310
 5204SOL    HW116511   3.133   0.838   0.285
 5204SOL    HW216512   3.080   0.723   0.387
 5205SOL     OW16513   0.344   5.784   0.640
 5205SOL    HW116514   0.321   5.812   0.547
 5205SOL    HW216515   0.290   5.704   0.665
 5206SOL     OW16516   1.057   4.522   4.455
 5206SOL    HW116517   0.990   4.448   4.456
 5206SOL    HW216518   1.105   4.522   4.367
 5207SOL     OW16519   0.363   0.539   4.062
 5207SOL    HW116520   0.310   0.590   3.994
 5207SOL    HW216521   0.328   0.446   4.068
 5208SOL     OW16522   4.601   2.023   0.226
 5208SOL    HW116523   4.600   2.090   0.300
 5208SOL    HW216524   4.586   1.932   0.264
 5209SOL     OW16525   5.417   5.742   2.761
 5209SOL    HW116526   5.366   5.790   2.689
 5209SOL    HW216527   5.365   5.661   2.790
 5210SOL     OW16528   5.349   4.595   0.357
 5210SOL    HW116529   5.309   4.614   0.267
 5210SOL    HW216530   5.429   4.653   0.371
 5211SOL     OW16531   4.911   3.288   4.652
 5211SOL    HW116532   4.879   3.241   4.734
 5211SOL    HW216533   4.890   3.233   4.571
 5212SOL     OW16534   1.022   3.509   1.092
 5212SOL    HW116535   0.971   3.492   1.007
 5212SOL    HW216536   1.092   3.579   1.076
 5213SOL     OW16537   4.105   3.184   2.876
 5213SOL    HW116538   4.197   3.166   2.911
 5213SOL    HW216539   4.049   3.225   2.949
 5214SOL     OW16540   5.312   3.785   5.633
 5214SOL    HW116541   5.348   3.711   5.690
 5214SOL    HW216542   5.375   3.862   5.636
 5215SOL     OW16543   6.716   3.723   4.596
 5215SOL    HW116544   6.725   3.636   4.546
 5215SOL    HW216545   6.619   3.748   4.601
 5216SOL     OW16546   5.016   5.710   1.038
 5216SOL    HW116547   4.985   5.767   1.114
 5216SOL    HW216548   5.025   5.766   0.955
 5217SOL     OW16549   4.232   6.295   4.184
 5217SOL    HW116550   4.297   6.221   4.201
 5217SOL    HW216551   4.180   6.275   4.101
 5218SOL     OW16552   0.454   6.666   0.764
 5218SOL    HW116553   0.538   6.636   0.718
 5218SOL    HW216554   0.458   6.765   0.778
 5219SOL     OW16555   3.013   1.634   4.941
 5219SOL    HW116556   3.028   1.693   4.862
 5219SOL    HW216557   2.920   1.600   4.940
 5220SOL     OW16558   1.941   4.299   4.053
 5220SOL    HW116559   1.910   4.330   3.962
 5220SOL    HW216560   2.004   4.367   4.091
 5221SOL     OW16561   6.706   6.476   1.133
 5221SOL    HW116562   6.784   6.467   1.071
 5221SOL    HW216563   6.621   6.477   1.080
 5222SOL     OW16564   4.919   4.255   0.731
 5222SOL    HW116565   5.008   4.217   0.757
 5222SOL    HW216566   4.852   4.232   0.802
 5223SOL     OW16567   0.407   2.642   1.054
 5223SOL    HW116568   0.487   2.583   1.044
 5223SOL    HW216569   0.396   2.697   0.971
 5224SOL     OW16570   0.422   2.891   5.137
 5224SOL    HW116571   0.359   2.966   5.161
 5224SOL    HW216572   0.484   2.874   5.213
 5225SOL     OW16573   0.287   1.562   4.901
 5225SOL    HW116574   0.354   1.606   4.960
 5225SOL    HW216575   0.195   1.584   4.934
 5226SOL     OW16576   0.707   6.633   3.729
 5226SOL    HW116577   0.725   6.606   3.634
 5226SOL    HW216578   0.660   6.559   3.776
 5227SOL     OW16579   0.013   2.898   5.485
 5227SOL    HW116580   0.018   2.802   5.458
 5227SOL    HW216581   6.972   2.908   5.560
 5228SOL     OW16582   1.592   2.198   5.718
 5228SOL    HW116583   1.677   2.150   5.744
 5228SOL    HW216584   1.593   2.217   5.620
 5229SOL     OW16585   4.072   0.743   5.986
 5229SOL    HW116586   4.045   0.816   6.049
 5229SOL    HW216587   4.124   0.781   5.910
 5230SOL     OW16588   6.807   6.750   2.065
 5230SOL    HW116589   6.894   6.796   2.048
 5230SOL    HW216590   6.755   6.743   1.979
 5231SOL     OW16591   6.843   2.048   2.059
 5231SOL    HW116592   6.789   2.051   2.143
 5231SOL    HW216593   6.818   1.968   2.006
 5232SOL     OW16594   2.275   2.852   5.594
 5232SOL    HW116595   2.256   2.934   5.540
 5232SOL    HW216596   2.369   2.822   5.577
 5233SOL     OW16597   2.992   7.012   2.793
 5233SOL    HW116598   3.013   6.997   2.696
 5233SOL    HW216599   3.004   6.926   2.843
 5234SOL     OW16600   2.454   1.877   0.140
 5234SOL    HW116601   2.515   1.887   0.061
 5234SOL    HW216602   2.361   1.859   0.108
 5235SOL     OW16603   2.529   2.072   1.458
 5235SOL    HW116604   2.495   2.079   1.364
 5235SOL    HW216605   2.597   2.144   1.473
 5236SOL     OW16606   4.079   5.782   1.735
 5236SOL    HW116607   4.090   5.684   1.721
 5236SOL    HW216608   4.158   5.830   1.695
 5237SOL     OW16609   2.029   1.880   3.642
 5237SOL    HW116610   2.062   1.810   3.705
 5237SOL    HW216611   2.098   1.952   3.633
 5238SOL     OW16612   1.188   6.501   2.966
 5238SOL    HW116613   1.178   6.482   2.869
 5238SOL    HW216614   1.267   6.451   3.002
 5239SOL     OW16615   2.366   3.546   1.449
 5239SOL    HW116616   2.399   3.452   1.456
 5239SOL    HW216617   2.329   3.562   1.357
 5240SOL     OW16618   2.245   3.808   5.609
 5240SOL    HW116619   2.149   3.830   5.622
 5240SOL    HW216620   2.263   3.791   5.512
 5241SOL     OW16621   1.151   5.676   2.469
 5241SOL    HW116622   1.152   5.775   2.485
 5241SOL    HW216623   1.244   5.640   2.477
 5242SOL     OW16624   4.770   0.289   6.513
 5242SOL    HW116625   4.711   0.213   6.486
 5242SOL    HW216626   4.804   0.335   6.431
 5243SOL     OW16627   2.788   6.886   2.637
 5243SOL    HW116628   2.766   6.859   2.730
 5243SOL    HW216629   2.785   6.986   2.629
 5244SOL     OW16630   4.909   2.997   0.607
 5244SOL    HW116631   4.828   3.041   0.646
 5244SOL    HW216632   4.885   2.906   0.574
 5245SOL     OW16633   4.321   3.809   1.745
 5245SOL    HW116634   4.255   3.736   1.765
 5245SOL    HW216635   4.283   3.897   1.772
 5246SOL     OW16636   5.966   3.119   1.327
 5246SOL    HW116637   6.052   3.135   1.376
 5246SOL    HW216638   5.975   3.151   1.232
 5247SOL     OW16639   3.705   1.984   6.198
 5247SOL    HW116640   3.608   2.007   6.199
 5247SOL    HW216641   3.721   1.906   6.258
 5248SOL     OW16642   6.678   1.205   3.898
 5248SOL    HW116643   6.753   1.138   3.902
 5248SOL    HW216644   6.591   1.157   3.904
 5249SOL     OW16645   0.376   4.810   6.627
 5249SOL    HW116646   0.438   4.885   6.651
 5249SOL    HW216647   0.405   4.769   6.540
 5250SOL     OW16648   2.266   5.905   1.097
 5250SOL    HW116649   2.320   5.983   1.065
 5250SOL    HW216650   2.171   5.934   1.108
 5251SOL     OW16651   0.707   4.803   0.516
 5251SOL    HW116652   0.666   4.843   0.599
 5251SOL    HW216653   0.802   4.779   0.534
 5252SOL     OW16654   3.689   0.304   2.222
 5252SOL    HW116655   3.676   0.346   2.312
 5252SOL    HW216656   3.751   0.360   2.167
 5253SOL     OW16657   6.475   5.597   4.596
 5253SOL    HW116658   6.457   5.498   4.595
 5253SOL    HW216659   6.485   5.630   4.502
 5254SOL     OW16660   6.062   0.247   3.048
 5254SOL    HW116661   6.130   0.288   3.109
 5254SOL    HW216662   6.039   0.312   2.975
 5255SOL     OW16663   6.078   1.975   4.932
 5255SOL    HW116664   6.086   1.980   4.832
 5255SOL    HW216665   6.163   1.938   4.970
 5256SOL     OW16666   6.481   1.528   2.504
 5256SOL    HW116667   6.511   1.611   2.551
 5256SOL    HW216668   6.549   1.456   2.514
 5257SOL     OW16669   3.793   0.945   6.133
 5257SOL    HW116670   3.836   1.024   6.176
 5257SOL    HW216671   3.810   0.863   6.189
 5258SOL     OW16672   4.286   1.542   3.201
 5258SOL    HW116673   4.285   1.514   3.105
 5258SOL    HW216674   4.279   1.461   3.260
 5259SOL     OW16675   6.277   5.330   2.943
 5259SOL    HW116676   6.320   5.246   2.911
 5259SOL    HW216677   6.346   5.394   2.975
 5260SOL     OW16678   2.087   1.265   0.895
 5260SOL    HW116679   2.174   1.313   0.885
 5260SOL    HW216680   2.015   1.315   0.846
 5261SOL     OW16681   6.058   4.319   0.539
 5261SOL    HW116682   6.052   4.260   0.619
 5261SOL    HW216683   6.054   4.264   0.456
 5262SOL     OW16684   2.145   0.939   2.855
 5262SOL    HW116685   2.093   0.853   2.852
 5262SOL    HW216686   2.124   0.993   2.773
 5263SOL     OW16687   2.087   0.062   2.625
 5263SOL    HW116688   2.033   0.099   2.700
 5263SOL    HW216689   2.145   7.012   2.658
 5264SOL     OW16690   6.710   2.076   1.745
 5264SOL    HW116691   6.680   2.160   1.792
 5264SOL    HW216692   6.648   2.001   1.768
 5265SOL     OW16693   6.394   4.631   4.244
 5265SOL    HW116694   6.415   4.561   4.175
 5265SOL    HW216695   6.296   4.630   4.264
 5266SOL     OW16696   2.156   0.741   0.776
 5266SOL    HW116697   2.077   0.767   0.719
 5266SOL    HW216698   2.191   0.652   0.746
 5267SOL     OW16699   5.135   2.896   4.225
 5267SOL    HW116700   5.079   2.951   4.162
 5267SOL    HW216701   5.223   2.876   4.183
 5268SOL     OW16702   5.491   0.712   5.952
 5268SOL    HW116703   5.488   0.801   5.908
 5268SOL    HW216704   5.515   0.723   6.049
 5269SOL     OW16705   0.470   6.231   3.574
 5269SOL    HW116706   0.372   6.249   3.588
 5269SOL    HW216707   0.487   6.133   3.582
 5270SOL     OW16708   0.655   2.331   6.300
 5270SOL    HW116709   0.720   2.268   6.257
 5270SOL    HW216710   0.701   2.418   6.318
 5271SOL     OW16711   6.986   5.243   3.304
 5271SOL    HW116712   0.025   5.316   3.279
 5271SOL    HW216713   6.896   5.262   3.264
 5272SOL     OW16714   4.658   0.694   0.403
 5272SOL    HW116715   4.597   0.623   0.369
 5272SOL    HW216716   4.638   0.780   0.355
 5273SOL     OW16717   0.755   2.747   3.506
 5273SOL    HW116718   0.822   2.798   3.452
 5273SOL    HW216719   0.681   2.715   3.447
 5274SOL     OW16720   4.559   5.251   2.168
 5274SOL    HW116721   4.565   5.177   2.235
 5274SOL    HW216722   4.651   5.286   2.149
 5275SOL     OW16723   4.447   1.507   6.506
 5275SOL    HW116724   4.370   1.538   6.562
 5275SOL    HW216725   4.486   1.586   6.458
 5276SOL     OW16726   4.227   6.092   2.783
 5276SOL    HW116727   4.204   6.012   2.728
 5276SOL    HW216728   4.144   6.130   2.824
 5277SOL     OW16729   1.899   2.264   1.666
 5277SOL    HW116730   1.800   2.249   1.671
 5277SOL    HW216731   1.917   2.363   1.666
 5278SOL     OW16732   4.530   4.926   0.776
 5278SOL    HW116733   4.449   4.876   0.746
 5278SOL    HW216734   4.517   4.957   0.870
 5279SOL     OW16735   3.035   5.409   2.158
 5279SOL    HW116736   3.014   5.475   2.085
 5279SOL    HW216737   2.951   5.384   2.205
 5280SOL     OW16738   4.623   6.698   4.508
 5280SOL    HW116739   4.703   6.675   4.453
 5280SOL    HW216740   4.541   6.694   4.451
 5281SOL     OW16741   0.251   1.744   1.405
 5281SOL    HW116742   0.268   1.836   1.441
 5281SOL    HW216743   0.229   1.682   1.480
 5282SOL     OW16744   4.144   1.853   2.520
 5282SOL    HW116745   4.187   1.927   2.467
 5282SOL    HW216746   4.172   1.859   2.615
 5283SOL     OW16747   5.074   4.564   5.828
 5283SOL    HW116748   5.118   4.604   5.908
 5283SOL    HW216749   5.143   4.541   5.759
 5284SOL     OW16750   5.512   3.107   3.348
 5284SOL    HW116751   5.492   3.168   3.271
 5284SOL    HW216752   5.427   3.066   3.381
 5285SOL     OW16753   3.355   5.564   3.522
 5285SOL    HW116754   3.276   5.518   3.481
 5285SOL    HW216755   3.432   5.560   3.458
 5286SOL     OW16756   2.284   4.567   1.543
 5286SOL    HW116757   2.278   4.479   1.590
 5286SOL    HW216758   2.274   4.641   1.610
 5287SOL     OW16759   1.624   2.019   1.292
 5287SOL    HW116760   1.577   1.969   1.219
 5287SOL    HW216761   1.604   2.117   1.284
 5288SOL     OW16762   3.790   6.791   1.302
 5288SOL    HW116763   3.876   6.841   1.289
 5288SOL    HW216764   3.809   6.704   1.347
 5289SOL     OW16765   1.953   5.252   1.307
 5289SOL    HW116766   1.999   5.166   1.285
 5289SOL    HW216767   1.863   5.232   1.346
 5290SOL     OW16768   4.999   6.123   0.730
 5290SOL    HW116769   4.991   6.191   0.657
 5290SOL    HW216770   4.912   6.074   0.739
 5291SOL     OW16771   1.788   5.244   5.982
 5291SOL    HW116772   1.828   5.305   6.050
 5291SOL    HW216773   1.859   5.213   5.919
 5292SOL     OW16774   4.631   2.567   6.274
 5292SOL    HW116775   4.564   2.635   6.300
 5292SOL    HW216776   4.722   2.597   6.303
 5293SOL     OW16777   0.651   0.226   4.020
 5293SOL    HW116778   0.612   0.241   4.111
 5293SOL    HW216779   0.614   0.295   3.957
 5294SOL     OW16780   5.210   1.850   5.476
 5294SOL    HW116781   5.156   1.931   5.452
 5294SOL    HW216782   5.170   1.806   5.556
 5295SOL     OW16783   6.094   1.191   1.581
 5295SOL    HW116784   6.165   1.137   1.625
 5295SOL    HW216785   6.121   1.287   1.577
 5296SOL     OW16786   1.021   4.448   0.591
 5296SOL    HW116787   0.989   4.365   0.544
 5296SOL    HW216788   1.113   4.432   0.627
 5297SOL     OW16789   1.902   3.091   1.366
 5297SOL    HW116790   1.859   3.003   1.346
 5297SOL    HW216791   1.910   3.102   1.465
 5298SOL     OW16792   1.081   5.073   1.085
 5298SOL    HW116793   0.985   5.097   1.070
 5298SOL    HW216794   1.087   4.995   1.147
 5299SOL     OW16795   3.175   0.680   2.486
 5299SOL    HW116796   3.157   0.774   2.456
 5299SOL    HW216797   3.271   0.672   2.513
 5300SOL     OW16798   6.721   5.270   3.236
 5300SOL    HW116799   6.715   5.356   3.287
 5300SOL    HW216800   6.667   5.200   3.282
 5301SOL     OW16801   4.045   1.617   0.414
 5301SOL    HW116802   4.079   1.535   0.369
 5301SOL    HW216803   4.039   1.692   0.348
 5302SOL     OW16804   6.610   4.607   2.934
 5302SOL    HW116805   6.662   4.684   2.972
 5302SOL    HW216806   6.579   4.548   3.009
 5303SOL     OW16807   0.852   4.920   3.381
 5303SOL    HW116808   0.858   5.019   3.384
 5303SOL    HW216809   0.772   4.889   3.433
 5304SOL     OW16810   5.433   1.891   5.981
 5304SOL    HW116811   5.438   1.794   5.957
 5304SOL    HW216812   5.338   1.922   5.977
 5305SOL     OW16813   2.862   1.090   3.218
 5305SOL    HW116814   2.773   1.101   3.174
 5305SOL    HW216815   2.920   1.169   3.198
 5306SOL     OW16816   2.466   0.373   5.530
 5306SOL    HW116817   2.415   0.378   5.615
 5306SOL    HW216818   2.431   0.441   5.466
 5307SOL     OW16819   5.206   6.806   6.712
 5307SOL    HW116820   5.228   6.879   6.777
 5307SOL    HW216821   5.214   6.842   6.619
 5308SOL     OW16822   6.858   0.828   2.927
 5308SOL    HW116823   6.819   0.915   2.957
 5308SOL    HW216824   6.952   0.843   2.897
 5309SOL     OW16825   3.574   3.748   3.732
 5309SOL    HW116826   3.559   3.786   3.641
 5309SOL    HW216827   3.528   3.805   3.800
 5310SOL     OW16828   4.899   1.983   0.835
 5310SOL    HW116829   4.858   1.988   0.926
 5310SOL    HW216830   4.831   2.008   0.766
 5311SOL     OW16831   1.284   6.236   0.179
 5311SOL    HW116832   1.369   6.284   0.200
 5311SOL    HW216833   1.282   6.211   0.082
 5312SOL     OW16834   0.638   3.589   2.194
 5312SOL    HW116835   0.581   3.653   2.246
 5312SOL    HW216836   0.608   3.495   2.213
 5313SOL     OW16837   1.430   5.899   0.850
 5313SOL    HW116838   1.339   5.858   0.846
 5313SOL    HW216839   1.443   5.960   0.772
 5314SOL     OW16840   3.761   5.225   0.532
 5314SOL    HW116841   3.752   5.188   0.625
 5314SOL    HW216842   3.670   5.238   0.493
 5315SOL     OW16843   4.836   2.592   2.632
 5315SOL    HW116844   4.863   2.497   2.619
 5315SOL    HW216845   4.767   2.617   2.563
 5316SOL     OW16846   6.435   5.173   4.084
 5316SOL    HW116847   6.355   5.185   4.026
 5316SOL    HW216848   6.439   5.078   4.116
 5317SOL     OW16849   5.605   5.986   2.672
 5317SOL    HW116850   5.569   5.958   2.761
 5317SOL    HW216851   5.703   6.004   2.680
 5318SOL     OW16852   6.974   2.664   5.066
 5318SOL    HW116853   0.047   2.675   5.045
 5318SOL    HW216854   6.962   2.647   5.164
 5319SOL     OW16855   4.128   6.869   0.897
 5319SOL    HW116856   4.128   6.931   0.818
 5319SOL    HW216857   4.111   6.776   0.866
 5320SOL     OW16858   5.303   3.120   5.858
 5320SOL    HW116859   5.360   3.183   5.911
 5320SOL    HW216860   5.288   3.157   5.767
 5321SOL     OW16861   1.431   5.282   5.952
 5321SOL    HW116862   1.454   5.248   6.044
 5321SOL    HW216863   1.495   5.243   5.886
 5322SOL     OW16864   3.522   6.453   0.213
 5322SOL    HW116865   3.609   6.423   0.253
 5322SOL    HW216866   3.448   6.435   0.278
 5323SOL     OW16867   5.654   3.128   0.482
 5323SOL    HW116868   5.585   3.171   0.540
 5323SOL    HW216869   5.615   3.046   0.440
 5324SOL     OW16870   3.603   3.610   1.827
 5324SOL    HW116871   3.538   3.534   1.820
 5324SOL    HW216872   3.601   3.648   1.919
 5325SOL     OW16873   4.780   6.065   3.633
 5325SOL    HW116874   4.854   6.122   3.667
 5325SOL    HW216875   4.818   5.990   3.579
 5326SOL     OW16876   6.487   6.875   2.166
 5326SOL    HW116877   6.556   6.855   2.236
 5326SOL    HW216878   6.461   6.790   2.120
 5327SOL     OW16879   6.762   0.918   4.357
 5327SOL    HW116880   6.673   0.964   4.366
 5327SOL    HW216881   6.834   0.979   4.390
 5328SOL     OW16882   3.739   5.077   1.145
 5328SOL    HW116883   3.665   5.136   1.176
 5328SOL    HW216884   3.707   5.018   1.070
 5329SOL     OW16885   6.892   4.744   6.921
 5329SOL    HW116886   6.805   4.767   6.964
 5329SOL    HW216887   6.947   4.828   6.911
 5330SOL     OW16888   4.488   4.331   6.950
 5330SOL    HW116889   4.468   4.429   6.955
 5330SOL    HW216890   4.576   4.313   6.994
 5331SOL     OW16891   4.897   2.859   6.614
 5331SOL    HW116892   4.871   2.870   6.518
 5331SOL    HW216893   4.962   2.783   6.623
 5332SOL     OW16894   6.011   2.559   0.220
 5332SOL    HW116895   6.052   2.473   0.250
 5332SOL    HW216896   6.081   2.630   0.218
 5333SOL     OW16897   1.760   2.040   3.944
 5333SOL    HW116898   1.747   1.995   3.856
 5333SOL    HW216899   1.838   2.000   3.992
 5334SOL     OW16900   4.024   5.385   1.702
 5334SOL    HW116901   3.998   5.440   1.781
 5334SOL    HW216902   3.943   5.339   1.666
 5335SOL     OW16903   6.818   4.282   1.209
 5335SOL    HW116904   6.750   4.322   1.147
 5335SOL    HW216905   6.887   4.351   1.232
 5336SOL     OW16906   1.785   3.152   4.499
 5336SOL    HW116907   1.833   3.232   4.534
 5336SOL    HW216908   1.688   3.160   4.519
 5337SOL     OW16909   6.007   5.551   0.473
 5337SOL    HW116910   5.921   5.546   0.421
 5337SOL    HW216911   6.076   5.495   0.428
 5338SOL     OW16912   6.132   3.431   1.198
 5338SOL    HW116913   6.042   3.389   1.210
 5338SOL    HW216914   6.181   3.384   1.125
 5339SOL     OW16915   5.222   3.841   2.920
 5339SOL    HW116916   5.222   3.825   2.821
 5339SOL    HW216917   5.128   3.833   2.954
 5340SOL     OW16918   6.073   3.104   2.815
 5340SOL    HW116919   6.082   3.068   2.908
 5340SOL    HW216920   6.139   3.178   2.801
 5341SOL     OW16921   4.241   5.082   4.014
 5341SOL    HW116922   4.254   4.986   3.991
 5341SOL    HW216923   4.255   5.138   3.933
 5342SOL     OW16924   5.795   6.831   4.676
 5342SOL    HW116925   5.837   6.856   4.589
 5342SOL    HW216926   5.776   6.733   4.677
 5343SOL     OW16927   3.253   3.192   6.842
 5343SOL    HW116928   3.236   3.232   6.753
 5343SOL    HW216929   3.166   3.162   6.882
 5344SOL     OW16930   1.045   2.141   6.463
 5344SOL    HW116931   1.098   2.105   6.540
 5344SOL    HW216932   0.987   2.069   6.425
 5345SOL     OW16933   4.612   1.483   0.127
 5345SOL    HW116934   4.546   1.459   0.198
 5345SOL    HW216935   4.699   1.438   0.146
 5346SOL     OW16936   3.033   6.131   3.771
 5346SOL    HW116937   3.044   6.119   3.870
 5346SOL    HW216938   2.970   6.207   3.754
 5347SOL     OW16939   6.424   2.022   4.278
 5347SOL    HW116940   6.455   2.067   4.194
 5347SOL    HW216941   6.423   1.923   4.264
 5348SOL     OW16942   5.598   2.841   3.335
 5348SOL    HW116943   5.648   2.861   3.250
 5348SOL    HW216944   5.525   2.909   3.347
 5349SOL     OW16945   0.887   3.712   2.161
 5349SOL    HW116946   0.791   3.700   2.189
 5349SOL    HW216947   0.936   3.626   2.175
 5350SOL     OW16948   1.076   6.812   0.256
 5350SOL    HW116949   1.080   6.912   0.262
 5350SOL    HW216950   1.120   6.783   0.171
 5351SOL     OW16951   6.490   6.448   3.238
 5351SOL    HW116952   6.496   6.527   3.178
 5351SOL    HW216953   6.418   6.464   3.306
 5352SOL     OW16954   1.285   3.297   5.355
 5352SOL    HW116955   1.319   3.343   5.273
 5352SOL    HW216956   1.287   3.359   5.432
 5353SOL     OW16957   3.894   5.458   3.454
 5353SOL    HW116958   3.871   5.555   3.458
 5353SOL    HW216959   3.992   5.447   3.439
 5354SOL     OW16960   4.747   6.000   0.714
 5354SOL    HW116961   4.682   6.070   0.687
 5354SOL    HW216962   4.739   5.982   0.812
 5355SOL     OW16963   5.370   4.441   5.029
 5355SOL    HW116964   5.322   4.355   5.010
 5355SOL    HW216965   5.396   4.484   4.943
 5356SOL     OW16966   0.357   5.230   0.676
 5356SOL    HW116967   0.262   5.199   0.688
 5356SOL    HW216968   0.358   5.309   0.614
 5357SOL     OW16969   5.881   3.371   2.827
 5357SOL    HW116970   5.810   3.417   2.879
 5357SOL    HW216971   5.951   3.438   2.799
 5358SOL     OW16972   4.299   1.512   6.982
 5358SOL    HW116973   4.352   1.547   0.036
 5358SOL    HW216974   4.287   1.413   6.992
 5359SOL     OW16975   3.603   2.727   6.961
 5359SOL    HW116976   3.572   2.665   6.888
 5359SOL    HW216977   3.680   2.782   6.927
 5360SOL     OW16978   5.756   4.674   4.001
 5360SOL    HW116979   5.689   4.628   4.059
 5360SOL    HW216980   5.742   4.647   3.906
 5361SOL     OW16981   2.289   5.647   2.512
 5361SOL    HW116982   2.316   5.552   2.531
 5361SOL    HW216983   2.190   5.656   2.521
 5362SOL     OW16984   5.330   0.952   1.988
 5362SOL    HW116985   5.268   0.875   2.001
 5362SOL    HW216986   5.413   0.921   1.941
 5363SOL     OW16987   5.648   5.705   3.098
 5363SOL    HW116988   5.619   5.785   3.046
 5363SOL    HW216989   5.582   5.687   3.171
 5364SOL     OW16990   4.876   1.250   2.660
 5364SOL    HW116991   4.900   1.230   2.755
 5364SOL    HW216992   4.843   1.345   2.653
 5365SOL     OW16993   3.209   2.995   4.162
 5365SOL    HW116994   3.262   3.071   4.125
 5365SOL    HW216995   3.118   3.028   4.189
 5366SOL     OW16996   6.140   5.956   2.581
 5366SOL    HW116997   6.086   5.896   2.641
 5366SOL    HW216998   6.190   6.022   2.636
 5367SOL     OW16999   6.405   6.085   1.672
 5367SOL    HW117000   6.487   6.043   1.710
 5367SOL    HW217001   6.361   6.140   1.743
 5368SOL     OW17002   6.453   5.771   4.097
 5368SOL    HW117003   6.449   5.822   4.011
 5368SOL    HW217004   6.392   5.692   4.091
 5369SOL     OW17005   3.075   5.287   3.070
 5369SOL    HW117006   2.997   5.349   3.071
 5369SOL    HW217007   3.100   5.267   2.975
 5370SOL     OW17008   1.709   3.508   0.896
 5370SOL    HW117009   1.660   3.513   0.809
 5370SOL    HW217010   1.652   3.545   0.969
 5371SOL     OW17011   5.586   5.174   4.586
 5371SOL    HW117012   5.682   5.199   4.600
 5371SOL    HW217013   5.569   5.085   4.626
 5372SOL     OW17014   1.721   0.027   3.013
 5372SOL    HW117015   1.639   0.080   2.994
 5372SOL    HW217016   1.711   6.959   2.976
 5373SOL     OW17017   2.878   1.910   6.760
 5373SOL    HW117018   2.824   1.894   6.677
 5373SOL    HW217019   2.952   1.843   6.766
 5374SOL     OW17020   1.850   4.539   2.321
 5374SOL    HW117021   1.784   4.482   2.369
 5374SOL    HW217022   1.942   4.519   2.353
 5375SOL     OW17023   2.357   4.386   4.637
 5375SOL    HW117024   2.363   4.368   4.735
 5375SOL    HW217025   2.304   4.314   4.593
 5376SOL     OW17026   0.489   0.431   6.010
 5376SOL    HW117027   0.412   0.412   5.949
 5376SOL    HW217028   0.572   0.389   5.973
 5377SOL     OW17029   1.946   1.010   3.274
 5377SOL    HW117030   1.901   1.076   3.333
 5377SOL    HW217031   1.930   0.917   3.308
 5378SOL     OW17032   4.847   1.002   2.329
 5378SOL    HW117033   4.775   1.070   2.313
 5378SOL    HW217034   4.935   1.039   2.298
 5379SOL     OW17035   1.793   2.062   5.371
 5379SOL    HW117036   1.867   2.071   5.437
 5379SOL    HW217037   1.824   2.091   5.280
 5380SOL     OW17038   4.803   6.417   1.702
 5380SOL    HW117039   4.821   6.337   1.760
 5380SOL    HW217040   4.786   6.496   1.760
 5381SOL     OW17041   4.337   0.506   4.291
 5381SOL    HW117042   4.337   0.511   4.391
 5381SOL    HW217043   4.403   0.572   4.254
 5382SOL     OW17044   4.592   1.238   1.416
 5382SOL    HW117045   4.632   1.330   1.415
 5382SOL    HW217046   4.663   1.170   1.399
 5383SOL     OW17047   2.445   2.618   4.668
 5383SOL    HW117048   2.353   2.603   4.704
 5383SOL    HW217049   2.440   2.677   4.588
 5384SOL     OW17050   5.860   5.213   4.656
 5384SOL    HW117051   5.854   5.309   4.630
 5384SOL    HW217052   5.935   5.200   4.721
 5385SOL     OW17053   3.817   3.278   6.237
 5385SOL    HW117054   3.899   3.289   6.292
 5385SOL    HW217055   3.744   3.240   6.294
 5386SOL     OW17056   5.361   4.733   4.571
 5386SOL    HW117057   5.396   4.741   4.478
 5386SOL    HW217058   5.263   4.754   4.572
 5387SOL     OW17059   1.229   1.699   3.769
 5387SOL    HW117060   1.285   1.620   3.794
 5387SOL    HW217061   1.252   1.775   3.829
 5388SOL     OW17062   0.753   6.600   2.459
 5388SOL    HW117063   0.820   6.602   2.533
 5388SOL    HW217064   0.665   6.570   2.495
 5389SOL     OW17065   4.610   2.058   4.023
 5389SOL    HW117066   4.609   1.963   3.991
 5389SOL    HW217067   4.559   2.116   3.959
 5390SOL     OW17068   0.412   2.643   3.355
 5390SOL    HW117069   0.494   2.610   3.403
 5390SOL    HW217070   0.376   2.570   3.298
 5391SOL     OW17071   3.002   3.017   0.708
 5391SOL    HW117072   3.099   3.016   0.683
 5391SOL    HW217073   2.990   2.967   0.794
 5392SOL     OW17074   5.542   1.221   3.856
 5392SOL    HW117075   5.551   1.309   3.904
 5392SOL    HW217076   5.610   1.216   3.783
 5393SOL     OW17077   4.689   2.173   5.136
 5393SOL    HW117078   4.761   2.157   5.069
 5393SOL    HW217079   4.719   2.241   5.203
 5394SOL     OW17080   1.374   2.006   1.749
 5394SOL    HW117081   1.347   1.946   1.674
 5394SOL    HW217082   1.303   2.005   1.820
 5395SOL     OW17083   6.619   1.762   0.479
 5395SOL    HW117084   6.638   1.860   0.468
 5395SOL    HW217085   6.683   1.709   0.423
 5396SOL     OW17086   4.647   4.045   0.272
 5396SOL    HW117087   4.729   4.101   0.261
 5396SOL    HW217088   4.636   4.021   0.369
 5397SOL     OW17089   0.349   1.214   2.386
 5397SOL    HW117090   0.283   1.289   2.380
 5397SOL    HW217091   0.321   1.150   2.458
 5398SOL     OW17092   5.895   1.974   2.543
 5398SOL    HW117093   5.976   2.029   2.566
 5398SOL    HW217094   5.914   1.920   2.460
 5399SOL     OW17095   1.725   1.946   0.305
 5399SOL    HW117096   1.749   1.852   0.280
 5399SOL    HW217097   1.786   1.977   0.378
 5400SOL     OW17098   4.857   3.277   1.776
 5400SOL    HW117099   4.800   3.198   1.801
 5400SOL    HW217100   4.868   3.280   1.677
 5401SOL     OW17101   5.967   2.614   1.355
 5401SOL    HW117102   5.893   2.558   1.317
 5401SOL    HW217103   5.931   2.701   1.387
 5402SOL     OW17104   1.824   6.567   1.958
 5402SOL    HW117105   1.879   6.584   2.040
 5402SOL    HW217106   1.879   6.583   1.876
 5403SOL     OW17107   5.149   3.089   0.025
 5403SOL    HW117108   5.081   3.139   0.079
 5403SOL    HW217109   5.188   3.150   6.980
 5404SOL     OW17110   5.905   0.486   0.072
 5404SOL    HW117111   5.840   0.562   0.068
 5404SOL    HW217112   5.994   0.517   0.036
 5405SOL     OW17113   0.471   5.169   0.386
 5405SOL    HW117114   0.413   5.129   0.457
 5405SOL    HW217115   0.505   5.259   0.417
 5406SOL     OW17116   2.666   0.852   6.246
 5406SOL    HW117117   2.660   0.817   6.153
 5406SOL    HW217118   2.575   0.857   6.286
 5407SOL     OW17119   1.963   0.122   3.106
 5407SOL    HW117120   1.999   0.078   3.188
 5407SOL    HW217121   1.880   0.075   3.076
 5408SOL     OW17122   2.829   1.281   4.375
 5408SOL    HW117123   2.918   1.267   4.418
 5408SOL    HW217124   2.821   1.222   4.294
 5409SOL     OW17125   0.794   3.247   2.167
 5409SOL    HW117126   0.737   3.276   2.244
 5409SOL    HW217127   0.769   3.299   2.085
 5410SOL     OW17128   0.671   2.524   1.044
 5410SOL    HW117129   0.742   2.476   1.096
 5410SOL    HW217130   0.695   2.620   1.036
 5411SOL     OW17131   3.325   5.482   6.993
 5411SOL    HW117132   3.250   5.465   0.033
 5411SOL    HW217133   3.299   5.557   6.931
 5412SOL     OW17134   0.266   2.039   5.975
 5412SOL    HW117135   0.288   2.071   6.068
 5412SOL    HW217136   0.212   2.109   5.928
 5413SOL     OW17137   0.191   6.139   4.474
 5413SOL    HW117138   0.107   6.164   4.426
 5413SOL    HW217139   0.172   6.134   4.572
 5414SOL     OW17140   5.444   4.659   5.213
 5414SOL    HW117141   5.539   4.668   5.183
 5414SOL    HW217142   5.394   4.601   5.149
 5415SOL     OW17143   4.263   0.830   0.444
 5415SOL    HW117144   4.223   0.907   0.394
 5415SOL    HW217145   4.328   0.865   0.512
 5416SOL     OW17146   3.134   5.744   6.609
 5416SOL    HW117147   3.119   5.765   6.512
 5416SOL    HW217148   3.054   5.697   6.645
 5417SOL     OW17149   4.260   0.134   4.485
 5417SOL    HW117150   4.216   0.049   4.456
 5417SOL    HW217151   4.329   0.160   4.418
 5418SOL     OW17152   0.219   3.397   5.030
 5418SOL    HW117153   0.175   3.323   4.978
 5418SOL    HW217154   0.177   3.484   5.006
 5419SOL     OW17155   4.505   0.294   5.660
 5419SOL    HW117156   4.564   0.296   5.742
 5419SOL    HW217157   4.417   0.334   5.682
 5420SOL     OW17158   0.836   1.409   2.098
 5420SOL    HW117159   0.876   1.484   2.046
 5420SOL    HW217160   0.845   1.323   2.047
 5421SOL     OW17161   3.765   4.850   2.155
 5421SOL    HW117162   3.688   4.813   2.102
 5421SOL    HW217163   3.797   4.934   2.112
 5422SOL     OW17164   2.527   5.043   3.705
 5422SOL    HW117165   2.465   4.987   3.650
 5422SOL    HW217166   2.494   5.046   3.799
 5423SOL     OW17167   5.400   6.505   2.515
 5423SOL    HW117168   5.373   6.455   2.432
 5423SOL    HW217169   5.319   6.549   2.555
 5424SOL     OW17170   4.511   3.926   5.322
 5424SOL    HW117171   4.441   3.996   5.341
 5424SOL    HW217172   4.496   3.847   5.381
 5425SOL     OW17173   1.468   3.765   5.765
 5425SOL    HW117174   1.500   3.740   5.856
 5425SOL    HW217175   1.501   3.697   5.699
 5426SOL     OW17176   6.527   5.559   1.415
 5426SOL    HW117177   6.534   5.659   1.418
 5426SOL    HW217178   6.447   5.532   1.362
 5427SOL     OW17179   4.136   2.672   6.506
 5427SOL    HW117180   4.142   2.648   6.409
 5427SOL    HW217181   4.223   2.713   6.536
 5428SOL     OW17182   5.685   5.545   2.343
 5428SOL    HW117183   5.769   5.571   2.295
 5428SOL    HW217184   5.709   5.491   2.424
 5429SOL     OW17185   3.369   0.356   5.076
 5429SOL    HW117186   3.407   0.435   5.026
 5429SOL    HW217187   3.309   0.388   5.149
 5430SOL     OW17188   2.896   3.815   5.197
 5430SOL    HW117189   2.904   3.900   5.145
 5430SOL    HW217190   2.809   3.813   5.245
 5431SOL     OW17191   3.944   4.287   0.499
 5431SOL    HW117192   3.898   4.316   0.415
 5431SOL    HW217193   3.982   4.195   0.486
 5432SOL     OW17194   0.279   5.605   6.704
 5432SOL    HW117195   0.237   5.650   6.783
 5432SOL    HW217196   0.370   5.643   6.688
 5433SOL     OW17197   2.479   0.701   1.587
 5433SOL    HW117198   2.509   0.606   1.574
 5433SOL    HW217199   2.433   0.709   1.675
 5434SOL     OW17200   5.308   0.993   5.207
 5434SOL    HW117201   5.296   0.912   5.264
 5434SOL    HW217202   5.296   0.968   5.111
 5435SOL     OW17203   6.598   4.853   0.827
 5435SOL    HW117204   6.684   4.898   0.847
 5435SOL    HW217205   6.562   4.887   0.739
 5436SOL     OW17206   0.890   3.917   3.116
 5436SOL    HW117207   0.944   3.990   3.159
 5436SOL    HW217208   0.812   3.956   3.068
 5437SOL     OW17209   3.926   5.577   1.382
 5437SOL    HW117210   3.866   5.645   1.423
 5437SOL    HW217211   3.998   5.553   1.447
 5438SOL     OW17212   5.074   5.644   2.657
 5438SOL    HW117213   5.124   5.726   2.628
 5438SOL    HW217214   5.139   5.575   2.689
 5439SOL     OW17215   1.075   4.519   1.825
 5439SOL    HW117216   1.089   4.543   1.921
 5439SOL    HW217217   1.104   4.595   1.767
 5440SOL     OW17218   6.121   7.021   3.807
 5440SOL    HW117219   6.194   6.953   3.817
 5440SOL    HW217220   6.135   0.070   3.874
 5441SOL     OW17221   5.804   2.948   3.915
 5441SOL    HW117222   5.814   2.957   3.816
 5441SOL    HW217223   5.868   2.880   3.949
 5442SOL     OW17224   3.786   0.073   6.133
 5442SOL    HW117225   3.741   0.059   6.222
 5442SOL    HW217226   3.716   0.079   6.062
 5443SOL     OW17227   4.480   0.975   3.455
 5443SOL    HW117228   4.540   0.931   3.522
 5443SOL    HW217229   4.434   0.906   3.401
 5444SOL     OW17230   6.110   1.544   5.078
 5444SOL    HW117231   6.053   1.505   5.005
 5444SOL    HW217232   6.102   1.486   5.160
 5445SOL     OW17233   6.025   6.003   4.941
 5445SOL    HW117234   5.997   6.036   5.030
 5445SOL    HW217235   6.108   5.947   4.950
 5446SOL     OW17236   6.990   4.548   6.109
 5446SOL    HW117237   0.008   4.615   6.170
 5446SOL    HW217238   6.990   4.583   6.015
 5447SOL     OW17239   0.360   2.222   1.013
 5447SOL    HW117240   0.368   2.260   1.105
 5447SOL    HW217241   0.306   2.138   1.016
 5448SOL     OW17242   4.749   4.761   3.028
 5448SOL    HW117243   4.808   4.836   2.997
 5448SOL    HW217244   4.657   4.774   2.991
 5449SOL     OW17245   2.883   0.794   1.901
 5449SOL    HW117246   2.938   0.817   1.820
 5449SOL    HW217247   2.802   0.742   1.872
 5450SOL     OW17248   4.675   5.368   1.462
 5450SOL    HW117249   4.666   5.330   1.554
 5450SOL    HW217250   4.772   5.376   1.439
 5451SOL     OW17251   6.533   7.020   2.798
 5451SOL    HW117252   6.586   6.946   2.757
 5451SOL    HW217253   6.574   0.023   2.885
 5452SOL     OW17254   2.061   4.547   2.064
 5452SOL    HW117255   2.023   4.456   2.047
 5452SOL    HW217256   2.100   4.551   2.156
 5453SOL     OW17257   5.791   3.895   2.997
 5453SOL    HW117258   5.777   3.848   3.084
 5453SOL    HW217259   5.718   3.962   2.983
 5454SOL     OW17260   6.286   4.463   2.587
 5454SOL    HW117261   6.294   4.479   2.685
 5454SOL    HW217262   6.363   4.507   2.540
 5455SOL     OW17263   2.012   1.667   3.947
 5455SOL    HW117264   2.108   1.692   3.939
 5455SOL    HW217265   2.002   1.590   4.009
 5456SOL     OW17266   5.381   1.868   1.128
 5456SOL    HW117267   5.467   1.836   1.168
 5456SOL    HW217268   5.313   1.881   1.200
 5457SOL     OW17269   5.833   1.380   6.835
 5457SOL    HW117270   5.821   1.409   6.740
 5457SOL    HW217271   5.744   1.383   6.881
 5458SOL     OW17272   5.936   3.164   0.407
 5458SOL    HW117273   5.853   3.158   0.461
 5458SOL    HW217274   5.990   3.081   0.418
 5459SOL     OW17275   1.731   3.224   5.439
 5459SOL    HW117276   1.802   3.164   5.477
 5459SOL    HW217277   1.642   3.200   5.477
 5460SOL     OW17278   1.173   1.131   1.301
 5460SOL    HW117279   1.186   1.045   1.350
 5460SOL    HW217280   1.075   1.154   1.299
 5461SOL     OW17281   6.097   0.977   5.234
 5461SOL    HW117282   6.074   0.898   5.177
 5461SOL    HW217283   6.161   1.036   5.185
 5462SOL     OW17284   4.617   3.784   6.460
 5462SOL    HW117285   4.637   3.702   6.407
 5462SOL    HW217286   4.622   3.864   6.400
 5463SOL     OW17287   0.701   2.917   6.547
 5463SOL    HW117288   0.774   2.886   6.486
 5463SOL    HW217289   0.617   2.927   6.495
 5464SOL     OW17290   1.023   5.752   5.661
 5464SOL    HW117291   1.119   5.781   5.655
 5464SOL    HW217292   0.990   5.766   5.754
 5465SOL     OW17293   6.912   6.570   4.268
 5465SOL    HW117294   6.843   6.608   4.206
 5465SOL    HW217295   6.880   6.483   4.305
 5466SOL     OW17296   5.970   2.900   5.092
 5466SOL    HW117297   6.070   2.907   5.101
 5466SOL    HW217298   5.946   2.806   5.068
 5467SOL     OW17299   4.809   2.941   4.525
 5467SOL    HW117300   4.763   2.871   4.579
 5467SOL    HW217301   4.807   2.914   4.428
 5468SOL     OW17302   6.886   1.177   1.135
 5468SOL    HW117303   6.830   1.148   1.057
 5468SOL    HW217304   6.856   1.268   1.165
 5469SOL     OW17305   3.179   6.828   5.050
 5469SOL    HW117306   3.172   6.792   4.956
 5469SOL    HW217307   3.263   6.794   5.092
 5470SOL     OW17308   3.423   5.286   3.323
 5470SOL    HW117309   3.441   5.293   3.421
 5470SOL    HW217310   3.367   5.364   3.295
 5471SOL     OW17311   4.309   0.527   3.349
 5471SOL    HW117312   4.286   0.615   3.392
 5471SOL    HW217313   4.408   0.516   3.346
 5472SOL     OW17314   2.406   2.369   6.730
 5472SOL    HW117315   2.374   2.404   6.817
 5472SOL    HW217316   2.506   2.362   6.732
 5473SOL     OW17317   2.715   4.368   1.610
 5473SOL    HW117318   2.755   4.421   1.685
 5473SOL    HW217319   2.782   4.358   1.537
 5474SOL     OW17320   0.790   4.992   2.928
 5474SOL    HW117321   0.851   4.932   2.877
 5474SOL    HW217322   0.833   5.081   2.941
 5475SOL     OW17323   0.286   1.727   5.364
 5475SOL    HW117324   0.286   1.669   5.445
 5475SOL    HW217325   0.377   1.768   5.353
 5476SOL     OW17326   2.366   6.844   5.220
 5476SOL    HW117327   2.438   6.844   5.289
 5476SOL    HW217328   2.348   6.750   5.190
 5477SOL     OW17329   1.355   4.325   4.255
 5477SOL    HW117330   1.277   4.385   4.236
 5477SOL    HW217331   1.322   4.231   4.263
 5478SOL     OW17332   5.326   4.644   5.751
 5478SOL    HW117333   5.326   4.671   5.655
 5478SOL    HW217334   5.371   4.714   5.805
 5479SOL     OW17335   4.557   1.475   5.087
 5479SOL    HW117336   4.560   1.454   4.989
 5479SOL    HW217337   4.632   1.536   5.111
 5480SOL     OW17338   7.012   3.980   4.051
 5480SOL    HW117339   0.025   3.896   4.012
 5480SOL    HW217340   0.009   3.983   4.149
 5481SOL     OW17341   4.390   0.985   6.704
 5481SOL    HW117342   4.459   1.057   6.697
 5481SOL    HW217343   4.390   0.930   6.620
 5482SOL     OW17344   4.979   2.655   1.423
 5482SOL    HW117345   5.007   2.562   1.396
 5482SOL    HW217346   4.918   2.692   1.353
 5483SOL     OW17347   6.913   3.036   5.978
 5483SOL    HW117348   6.860   3.106   5.930
 5483SOL    HW217349   7.009   3.061   5.979
 5484SOL     OW17350   6.034   6.783   4.353
 5484SOL    HW117351   6.018   6.766   4.256
 5484SOL    HW217352   6.111   6.727   4.384
 5485SOL     OW17353   3.106   0.021   5.227
 5485SOL    HW117354   3.009   0.044   5.219
 5485SOL    HW217355   3.122   6.956   5.184
 5486SOL     OW17356   0.304   0.685   3.190
 5486SOL    HW117357   0.368   0.756   3.158
 5486SOL    HW217358   0.243   0.659   3.115
 5487SOL     OW17359   5.003   5.417   0.704
 5487SOL    HW117360   4.929   5.474   0.740
 5487SOL    HW217361   5.055   5.379   0.781
 5488SOL     OW17362   5.652   1.244   6.558
 5488SOL    HW117363   5.573   1.286   6.601
 5488SOL    HW217364   5.653   1.146   6.578
 5489SOL     OW17365   1.119   3.740   2.796
 5489SOL    HW117366   1.056   3.710   2.724
 5489SOL    HW217367   1.213   3.725   2.767
 5490SOL     OW17368   2.014   1.522   0.232
 5490SOL    HW117369   2.056   1.597   0.284
 5490SOL    HW217370   2.085   1.470   0.185
 5491SOL     OW17371   1.007   4.928   0.738
 5491SOL    HW117372   0.963   4.914   0.827
 5491SOL    HW217373   1.011   5.027   0.719
 5492SOL     OW17374   0.906   1.554   6.035
 5492SOL    HW117375   0.982   1.589   6.090
 5492SOL    HW217376   0.824   1.609   6.051
 5493SOL     OW17377   3.306   3.500   7.018
 5493SOL    HW117378   3.399   3.527   6.995
 5493SOL    HW217379   3.273   3.434   6.950
 5494SOL     OW17380   5.805   3.242   1.995
 5494SOL    HW117381   5.900   3.258   2.021
 5494SOL    HW217382   5.796   3.150   1.956
 5495SOL     OW17383   3.503   3.300   2.338
 5495SOL    HW117384   3.544   3.210   2.352
 5495SOL    HW217385   3.417   3.306   2.389
 5496SOL     OW17386   4.223   6.120   1.519
 5496SOL    HW117387   4.224   6.217   1.493
 5496SOL    HW217388   4.178   6.109   1.607
 5497SOL     OW17389   6.714   6.997   1.778
 5497SOL    HW117390   6.735   0.066   1.807
 5497SOL    HW217391   6.755   6.980   1.688
 5498SOL     OW17392   3.913   1.164   5.532
 5498SOL    HW117393   3.996   1.120   5.495
 5498SOL    HW217394   3.881   1.234   5.468
 5499SOL     OW17395   6.722   1.245   3.225
 5499SOL    HW117396   6.653   1.282   3.162
 5499SOL    HW217397   6.752   1.317   3.288
 5500SOL     OW17398   2.318   5.652   1.865
 5500SOL    HW117399   2.324   5.580   1.796
 5500SOL    HW217400   2.246   5.716   1.840
 5501SOL     OW17401   2.777   6.611   2.534
 5501SOL    HW117402   2.830   6.605   2.450
 5501SOL    HW217403   2.807   6.691   2.587
 5502SOL     OW17404   5.157   3.720   5.948
 5502SOL    HW117405   5.102   3.762   5.876
 5502SOL    HW217406   5.099   3.664   6.007
 5503SOL     OW17407   1.410   5.187   3.514
 5503SOL    HW117408   1.381   5.150   3.602
 5503SOL    HW217409   1.341   5.167   3.444
 5504SOL     OW17410   3.325   2.072   5.001
 5504SOL    HW117411   3.290   2.165   5.003
 5504SOL    HW217412   3.416   2.070   4.961
 5505SOL     OW17413   2.585   5.432   5.608
 5505SOL    HW117414   2.629   5.488   5.677
 5505SOL    HW217415   2.644   5.426   5.527
 5506SOL     OW17416   6.095   0.423   5.567
 5506SOL    HW117417   6.026   0.431   5.495
 5506SOL    HW217418   6.159   0.349   5.543
 5507SOL     OW17419   2.067   6.158   3.940
 5507SOL    HW117420   2.011   6.199   4.012
 5507SOL    HW217421   2.128   6.089   3.980
 5508SOL     OW17422   3.060   1.050   6.916
 5508SOL    HW117423   3.024   0.992   6.844
 5508SOL    HW217424   3.123   0.997   6.973
 5509SOL     OW17425   5.851   6.508   6.650
 5509SOL    HW117426   5.856   6.435   6.719
 5509SOL    HW217427   5.909   6.584   6.678
 5510SOL     OW17428   5.371   0.959   5.917
 5510SOL    HW117429   5.293   0.940   5.976
 5510SOL    HW217430   5.339   0.991   5.828
 5511SOL     OW17431   0.553   0.955   2.483
 5511SOL    HW117432   0.544   1.000   2.394
 5511SOL    HW217433   0.608   0.872   2.473
 5512SOL     OW17434   1.195   0.388   0.422
 5512SOL    HW117435   1.106   0.347   0.404
 5512SOL    HW217436   1.256   0.320   0.463
 5513SOL     OW17437   4.612   4.324   4.418
 5513SOL    HW117438   4.519   4.288   4.420
 5513SOL    HW217439   4.677   4.247   4.420
 5514SOL     OW17440   5.649   4.768   2.374
 5514SOL    HW117441   5.571   4.781   2.435
 5514SOL    HW217442   5.703   4.689   2.405
 5515SOL     OW17443   6.858   3.084   1.216
 5515SOL    HW117444   6.909   3.118   1.136
 5515SOL    HW217445   6.762   3.072   1.191
 5516SOL     OW17446   1.405   3.600   6.366
 5516SOL    HW117447   1.375   3.624   6.273
 5516SOL    HW217448   1.343   3.643   6.432
 5517SOL     OW17449   2.423   1.945   1.930
 5517SOL    HW117450   2.466   2.031   1.903
 5517SOL    HW217451   2.429   1.933   2.029
 5518SOL     OW17452   6.054   4.795   5.133
 5518SOL    HW117453   5.977   4.731   5.124
 5518SOL    HW217454   6.112   4.788   5.052
 5519SOL     OW17455   5.545   4.161   4.274
 5519SOL    HW117456   5.455   4.119   4.275
 5519SOL    HW217457   5.588   4.151   4.364
 5520SOL     OW17458   1.798   4.133   1.736
 5520SOL    HW117459   1.840   4.134   1.646
 5520SOL    HW217460   1.836   4.057   1.790
 5521SOL     OW17461   6.066   5.479   1.376
 5521SOL    HW117462   6.091   5.414   1.448
 5521SOL    HW217463   6.033   5.564   1.418
 5522SOL     OW17464   2.193   3.558   1.674
 5522SOL    HW117465   2.248   3.518   1.747
 5522SOL    HW217466   2.236   3.541   1.586
 5523SOL     OW17467   3.010   0.447   2.452
 5523SOL    HW117468   2.933   0.475   2.509
 5523SOL    HW217469   3.082   0.517   2.456
 5524SOL     OW17470   0.085   5.471   6.548
 5524SOL    HW117471   0.021   5.406   6.590
 5524SOL    HW217472   0.167   5.478   6.604
 5525SOL     OW17473   6.721   5.608   5.390
 5525SOL    HW117474   6.748   5.680   5.325
 5525SOL    HW217475   6.799   5.584   5.447
 5526SOL     OW17476   6.174   3.098   4.502
 5526SOL    HW117477   6.123   3.083   4.586
 5526SOL    HW217478   6.111   3.101   4.424
 5527SOL     OW17479   1.778   3.670   1.478
 5527SOL    HW117480   1.751   3.637   1.388
 5527SOL    HW217481   1.702   3.721   1.519
 5528SOL     OW17482   0.776   3.660   3.850
 5528SOL    HW117483   0.729   3.582   3.807
 5528SOL    HW217484   0.874   3.643   3.852
 5529SOL     OW17485   2.474   1.599   4.987
 5529SOL    HW117486   2.542   1.533   4.956
 5529SOL    HW217487   2.513   1.657   5.058
 5530SOL     OW17488   1.104   2.725   0.699
 5530SOL    HW117489   1.009   2.695   0.705
 5530SOL    HW217490   1.162   2.647   0.673
 5531SOL     OW17491   3.662   3.006   5.946
 5531SOL    HW117492   3.687   2.931   5.885
 5531SOL    HW217493   3.695   2.985   6.039
 5532SOL     OW17494   2.517   1.823   1.291
 5532SOL    HW117495   2.507   1.909   1.341
 5532SOL    HW217496   2.513   1.747   1.355
 5533SOL     OW17497   3.873   1.078   1.210
 5533SOL    HW117498   3.827   1.161   1.180
 5533SOL    HW217499   3.954   1.101   1.265
 5534SOL     OW17500   7.009   4.179   6.774
 5534SOL    HW117501   7.006   4.079   6.775
 5534SOL    HW217502   0.060   4.211   6.832
 5535SOL     OW17503   6.330   3.560   2.596
 5535SOL    HW117504   6.345   3.646   2.546
 5535SOL    HW217505   6.401   3.548   2.664
 5536SOL     OW17506   2.572   0.380   3.936
 5536SOL    HW117507   2.629   0.379   3.853
 5536SOL    HW217508   2.622   0.336   4.010
 5537SOL     OW17509   4.265   0.502   5.245
 5537SOL    HW117510   4.348   0.555   5.227
 5537SOL    HW217511   4.258   0.429   5.177
 5538SOL     OW17512   4.633   1.694   6.733
 5538SOL    HW117513   4.535   1.683   6.748
 5538SOL    HW217514   4.648   1.760   6.659
 5539SOL     OW17515   3.020   6.700   0.745
 5539SOL    HW117516   3.051   6.767   0.812
 5539SOL    HW217517   3.093   6.682   0.679
 5540SOL     OW17518   5.187   1.241   6.989
 5540SOL    HW117519   5.151   1.207   0.052
 5540SOL    HW217520   5.177   1.340   6.986
 5541SOL     OW17521   4.286   3.636   6.592
 5541SOL    HW117522   4.319   3.730   6.582
 5541SOL    HW217523   4.357   3.572   6.563
 5542SOL     OW17524   4.936   4.482   6.354
 5542SOL    HW117525   4.999   4.497   6.278
 5542SOL    HW217526   4.842   4.486   6.321
 5543SOL     OW17527   1.681   0.501   0.986
 5543SOL    HW117528   1.642   0.531   1.073
 5543SOL    HW217529   1.609   0.457   0.932
 5544SOL     OW17530   4.272   5.632   5.967
 5544SOL    HW117531   4.221   5.718   5.961
 5544SOL    HW217532   4.296   5.601   5.875
 5545SOL     OW17533   4.310   0.642   3.006
 5545SOL    HW117534   4.334   0.550   2.973
 5545SOL    HW217535   4.239   0.635   3.076
 5546SOL     OW17536   0.119   6.093   5.702
 5546SOL    HW117537   0.165   6.166   5.652
 5546SOL    HW217538   0.182   6.016   5.715
 5547SOL     OW17539   5.469   2.305   4.980
 5547SOL    HW117540   5.402   2.271   5.045
 5547SOL    HW217541   5.487   2.235   4.911
 5548SOL     OW17542   6.972   4.206   5.018
 5548SOL    HW117543   6.967   4.302   4.988
 5548SOL    HW217544   7.020   4.152   4.948
 5549SOL     OW17545   3.765   3.136   1.613
 5549SOL    HW117546   3.679   3.099   1.646
 5549SOL    HW217547   3.754   3.169   1.520
 5550SOL     OW17548   1.286   3.930   3.302
 5550SOL    HW117549   1.361   3.966   3.357
 5550SOL    HW217550   1.260   3.839   3.336
 5551SOL     OW17551   2.311   4.893   3.645
 5551SOL    HW117552   2.308   4.829   3.568
 5551SOL    HW217553   2.261   4.854   3.723
 5552SOL     OW17554   0.177   6.975   6.243
 5552SOL    HW117555   0.159   6.897   6.303
 5552SOL    HW217556   0.189   0.034   6.298
 5553SOL     OW17557   4.675   0.500   6.674
 5553SOL    HW117558   4.734   0.436   6.623
 5553SOL    HW217559   4.688   0.487   6.772
 5554SOL     OW17560   5.657   3.106   1.604
 5554SOL    HW117561   5.584   3.125   1.670
 5554SOL    HW217562   5.633   3.025   1.550
 5555SOL     OW17563   1.198   4.248   2.486
 5555SOL    HW117564   1.116   4.191   2.496
 5555SOL    HW217565   1.235   4.269   2.577
 5556SOL     OW17566   6.717   0.972   4.933
 5556SOL    HW117567   6.704   1.069   4.951
 5556SOL    HW217568   6.721   0.956   4.834
 5557SOL     OW17569   3.273   5.288   2.275
 5557SOL    HW117570   3.278   5.333   2.364
 5557SOL    HW217571   3.217   5.342   2.213
 5558SOL     OW17572   3.149   4.402   0.590
 5558SOL    HW117573   3.161   4.492   0.632
 5558SOL    HW217574   3.068   4.403   0.532
 5559SOL     OW17575   1.811   6.511   2.681
 5559SOL    HW117576   1.824   6.418   2.715
 5559SOL    HW217577   1.733   6.513   2.619
 5560SOL     OW17578   0.714   5.850   2.736
 5560SOL    HW117579   0.791   5.860   2.799
 5560SOL    HW217580   0.657   5.932   2.739
 5561SOL     OW17581   3.356   1.031   3.737
 5561SOL    HW117582   3.286   1.060   3.671
 5561SOL    HW217583   3.350   1.088   3.819
 5562SOL     OW17584   4.245   4.040   0.745
 5562SOL    HW117585   4.218   3.947   0.773
 5562SOL    HW217586   4.265   4.040   0.647
 5563SOL     OW17587   3.042   4.934   2.792
 5563SOL    HW117588   3.080   4.978   2.873
 5563SOL    HW217589   2.942   4.942   2.793
 5564SOL     OW17590   5.667   0.699   5.683
 5564SOL    HW117591   5.746   0.705   5.622
 5564SOL    HW217592   5.668   0.611   5.731
 5565SOL     OW17593   3.874   3.095   0.265
 5565SOL    HW117594   3.958   3.042   0.258
 5565SOL    HW217595   3.896   3.193   0.268
 5566SOL     OW17596   1.365   3.431   0.111
 5566SOL    HW117597   1.448   3.377   0.127
 5566SOL    HW217598   1.291   3.395   0.167
 5567SOL     OW17599   6.948   3.662   1.478
 5567SOL    HW117600   6.941   3.701   1.569
 5567SOL    HW217601   6.862   3.615   1.454
 5568SOL     OW17602   4.462   6.724   2.578
 5568SOL    HW117603   4.490   6.811   2.616
 5568SOL    HW217604   4.396   6.740   2.504
 5569SOL     OW17605   2.778   2.242   3.927
 5569SOL    HW117606   2.685   2.273   3.945
 5569SOL    HW217607   2.813   2.192   4.006
 5570SOL     OW17608   6.732   3.524   3.408
 5570SOL    HW117609   6.751   3.622   3.399
 5570SOL    HW217610   6.638   3.506   3.377
 5571SOL     OW17611   0.311   5.613   2.118
 5571SOL    HW117612   0.376   5.676   2.076
 5571SOL    HW217613   0.325   5.521   2.080
 5572SOL     OW17614   0.740   3.584   4.827
 5572SOL    HW117615   0.666   3.541   4.878
 5572SOL    HW217616   0.706   3.667   4.783
 5573SOL     OW17617   1.752   5.009   4.958
 5573SOL    HW117618   1.829   4.946   4.941
 5573SOL    HW217619   1.712   5.035   4.871
 5574SOL     OW17620   6.957   2.923   6.315
 5574SOL    HW117621   6.945   2.824   6.307
 5574SOL    HW217622   6.889   2.970   6.258
 5575SOL     OW17623   0.856   0.605   1.614
 5575SOL    HW117624   0.891   0.668   1.544
 5575SOL    HW217625   0.844   0.654   1.700
 5576SOL     OW17626   2.373   4.339   3.460
 5576SOL    HW117627   2.389   4.265   3.394
 5576SOL    HW217628   2.424   4.420   3.432
 5577SOL     OW17629   1.455   3.350   6.465
 5577SOL    HW117630   1.436   3.445   6.440
 5577SOL    HW217631   1.533   3.347   6.528
 5578SOL     OW17632   3.032   3.130   3.061
 5578SOL    HW117633   3.026   3.197   2.986
 5578SOL    HW217634   3.024   3.178   3.148
 5579SOL     OW17635   0.104   2.808   1.497
 5579SOL    HW117636   0.163   2.852   1.565
 5579SOL    HW217637   0.155   2.793   1.413
 5580SOL     OW17638   4.589   1.655   6.005
 5580SOL    HW117639   4.670   1.596   5.994
 5580SOL    HW217640   4.507   1.604   5.978
 5581SOL     OW17641   0.594   1.786   1.289
 5581SOL    HW117642   0.592   1.692   1.255
 5581SOL    HW217643   0.511   1.833   1.258
 5582SOL     OW17644   2.179   3.356   6.506
 5582SOL    HW117645   2.188   3.258   6.487
 5582SOL    HW217646   2.261   3.387   6.554
 5583SOL     OW17647   5.012   0.911   2.530
 5583SOL    HW117648   4.987   0.899   2.434
 5583SOL    HW217649   4.930   0.923   2.585
 5584SOL     OW17650   6.720   4.347   4.812
 5584SOL    HW117651   6.777   4.423   4.841
 5584SOL    HW217652   6.625   4.377   4.805
 5585SOL     OW17653   4.747   5.045   2.547
 5585SOL    HW117654   4.803   5.120   2.583
 5585SOL    HW217655   4.776   5.025   2.453
 5586SOL     OW17656   6.868   3.549   6.176
 5586SOL    HW117657   6.866   3.483   6.251
 5586SOL    HW217658   6.837   3.638   6.209
 5587SOL     OW17659   4.651   1.155   6.730
 5587SOL    HW117660   4.616   1.216   6.801
 5587SOL    HW217661   4.739   1.117   6.761
 5588SOL     OW17662   2.915   6.441   2.057
 5588SOL    HW117663   2.945   6.349   2.034
 5588SOL    HW217664   2.880   6.486   1.974
 5589SOL     OW17665   5.945   4.237   6.380
 5589SOL    HW117666   5.962   4.336   6.382
 5589SOL    HW217667   5.855   4.218   6.419
 5590SOL     OW17668   5.413   5.965   4.064
 5590SOL    HW117669   5.339   5.899   4.055
 5590SOL    HW217670   5.500   5.920   4.044
 5591SOL     OW17671   6.804   1.598   2.153
 5591SOL    HW117672   6.726   1.536   2.166
 5591SOL    HW217673   6.793   1.648   2.067
 5592SOL     OW17674   1.332   4.451   3.167
 5592SOL    HW117675   1.285   4.365   3.190
 5592SOL    HW217676   1.379   4.441   3.079
 5593SOL     OW17677   6.789   2.387   6.766
 5593SOL    HW117678   6.872   2.431   6.732
 5593SOL    HW217679   6.813   2.324   6.840
 5594SOL     OW17680   5.356   1.587   5.442
 5594SOL    HW117681   5.298   1.668   5.445
 5594SOL    HW217682   5.416   1.592   5.361
 5595SOL     OW17683   0.841   2.445   5.067
 5595SOL    HW117684   0.869   2.349   5.077
 5595SOL    HW217685   0.819   2.463   4.971
 5596SOL     OW17686   3.904   6.577   2.999
 5596SOL    HW117687   3.891   6.479   2.989
 5596SOL    HW217688   3.815   6.623   2.996
 5597SOL     OW17689   5.073   2.476   3.670
 5597SOL    HW117690   5.169   2.474   3.699
 5597SOL    HW217691   5.044   2.571   3.657
 5598SOL     OW17692   4.770   2.845   4.244
 5598SOL    HW117693   4.683   2.796   4.247
 5598SOL    HW217694   4.827   2.806   4.172
 5599SOL     OW17695   1.357   1.005   4.607
 5599SOL    HW117696   1.274   0.978   4.557
 5599SOL    HW217697   1.413   0.924   4.624
 5600SOL     OW17698   1.015   2.238   4.060
 5600SOL    HW117699   0.923   2.277   4.059
 5600SOL    HW217700   1.080   2.307   4.029
 5601SOL     OW17701   2.594   0.695   6.006
 5601SOL    HW117702   2.533   0.731   5.935
 5601SOL    HW217703   2.549   0.619   6.054
 5602SOL     OW17704   0.251   1.571   1.147
 5602SOL    HW117705   0.278   1.647   1.089
 5602SOL    HW217706   0.237   1.603   1.241
 5603SOL     OW17707   5.289   1.783   0.138
 5603SOL    HW117708   5.347   1.840   0.080
 5603SOL    HW217709   5.211   1.751   0.086
 5604SOL     OW17710   6.191   2.233   5.807
 5604SOL    HW117711   6.185   2.331   5.827
 5604SOL    HW217712   6.241   2.187   5.881
 5605SOL     OW17713   0.813   1.396   4.682
 5605SOL    HW117714   0.742   1.462   4.707
 5605SOL    HW217715   0.777   1.303   4.692
 5606SOL     OW17716   5.500   6.387   1.103
 5606SOL    HW117717   5.443   6.306   1.114
 5606SOL    HW217718   5.447   6.468   1.128
 5607SOL     OW17719   5.095   1.538   1.729
 5607SOL    HW117720   5.011   1.484   1.741
 5607SOL    HW217721   5.071   1.635   1.721
 5608SOL     OW17722   4.600   0.281   4.704
 5608SOL    HW117723   4.604   0.367   4.755
 5608SOL    HW217724   4.515   0.278   4.651
 5609SOL     OW17725   2.246   5.835   6.984
 5609SOL    HW117726   2.215   5.820   6.890
 5609SOL    HW217727   2.236   5.750   0.012
 5610SOL     OW17728   5.317   0.468   0.418
 5610SOL    HW117729   5.374   0.441   0.341
 5610SOL    HW217730   5.307   0.390   0.481
 5611SOL     OW17731   1.728   4.756   2.774
 5611SOL    HW117732   1.668   4.824   2.817
 5611SOL    HW217733   1.777   4.706   2.845
 5612SOL     OW17734   3.591   1.595   6.002
 5612SOL    HW117735   3.514   1.638   6.050
 5612SOL    HW217736   3.663   1.662   5.987
 5613SOL     OW17737   5.024   4.471   2.490
 5613SOL    HW117738   5.032   4.566   2.522
 5613SOL    HW217739   4.930   4.453   2.463
 5614SOL     OW17740   4.472   2.422   3.617
 5614SOL    HW117741   4.523   2.506   3.635
 5614SOL    HW217742   4.415   2.400   3.697
 5615SOL     OW17743   0.787   0.328   0.012
 5615SOL    HW117744   0.852   0.317   6.961
 5615SOL    HW217745   0.827   0.386   0.083
 5616SOL     OW17746   2.394   0.520   5.273
 5616SOL    HW117747   2.366   0.437   5.224
 5616SOL    HW217748   2.318   0.552   5.330
 5617SOL     OW17749   2.513   0.254   6.137
 5617SOL    HW117750   2.429   0.301   6.165
 5617SOL    HW217751   2.497   0.203   6.053
 5618SOL     OW17752   6.628   4.195   4.313
 5618SOL    HW117753   6.611   4.134   4.391
 5618SOL    HW217754   6.634   4.140   4.229
 5619SOL     OW17755   2.872   3.950   6.232
 5619SOL    HW117756   2.799   3.924   6.169
 5619SOL    HW217757   2.833   3.999   6.310
 5620SOL     OW17758   4.086   2.917   0.300
 5620SOL    HW117759   4.125   2.878   0.217
 5620SOL    HW217760   4.158   2.960   0.355
 5621SOL     OW17761   1.701   1.539   5.814
 5621SOL    HW117762   1.797   1.533   5.788
 5621SOL    HW217763   1.661   1.621   5.775
 5622SOL     OW17764   4.694   0.038   6.062
 5622SOL    HW117765   4.763   6.991   6.053
 5622SOL    HW217766   4.739   0.125   6.085
 5623SOL     OW17767   2.207   6.169   6.108
 5623SOL    HW117768   2.252   6.258   6.112
 5623SOL    HW217769   2.212   6.124   6.197
 5624SOL     OW17770   1.245   4.547   3.550
 5624SOL    HW117771   1.208   4.628   3.594
 5624SOL    HW217772   1.172   4.497   3.502
 5625SOL     OW17773   6.080   2.595   4.611
 5625SOL    HW117774   6.054   2.505   4.646
 5625SOL    HW217775   6.129   2.585   4.525
 5626SOL     OW17776   3.272   6.787   4.744
 5626SOL    HW117777   3.235   6.853   4.679
 5626SOL    HW217778   3.363   6.819   4.774
 5627SOL     OW17779   1.756   5.724   1.644
 5627SOL    HW117780   1.850   5.758   1.643
 5627SOL    HW217781   1.756   5.626   1.624
 5628SOL     OW17782   1.704   1.975   6.014
 5628SOL    HW117783   1.763   1.933   5.944
 5628SOL    HW217784   1.717   1.929   6.101
 5629SOL     OW17785   3.047   3.852   2.086
 5629SOL    HW117786   3.015   3.790   2.014
 5629SOL    HW217787   3.113   3.916   2.047
 5630SOL     OW17788   1.217   4.700   0.977
 5630SOL    HW117789   1.135   4.655   0.939
 5630SOL    HW217790   1.240   4.779   0.920
 5631SOL     OW17791   4.321   1.742   0.175
 5631SOL    HW117792   4.362   1.808   0.112
 5631SOL    HW217793   4.224   1.765   0.189
 5632SOL     OW17794   4.288   3.921   6.437
 5632SOL    HW117795   4.379   3.878   6.438
 5632SOL    HW217796   4.295   4.015   6.469
 5633SOL     OW17797   6.927   2.362   3.804
 5633SOL    HW117798   6.948   2.404   3.891
 5633SOL    HW217799   6.979   2.277   3.794
 5634SOL     OW17800   3.459   5.016   4.682
 5634SOL    HW117801   3.514   4.988   4.604
 5634SOL    HW217802   3.385   5.076   4.651
 5635SOL     OW17803   2.239   2.888   4.808
 5635SOL    HW117804   2.281   2.929   4.889
 5635SOL    HW217805   2.179   2.955   4.764
 5636SOL     OW17806   4.111   5.725   3.245
 5636SOL    HW117807   4.191   5.720   3.304
 5636SOL    HW217808   4.135   5.691   3.154
 5637SOL     OW17809   6.174   6.941   4.124
 5637SOL    HW117810   6.202   7.024   4.075
 5637SOL    HW217811   6.249   6.911   4.183
 5638SOL     OW17812   5.784   2.828   1.074
 5638SOL    HW117813   5.825   2.871   0.994
 5638SOL    HW217814   5.800   2.729   1.070
 5639SOL     OW17815   0.650   1.323   6.749
 5639SOL    HW117816   0.608   1.247   6.700
 5639SOL    HW217817   0.612   1.409   6.716
 5640SOL     OW17818   2.731   0.301   4.158
 5640SOL    HW117819   2.659   0.240   4.191
 5640SOL    HW217820   2.790   0.252   4.094
 5641SOL     OW17821   6.793   5.015   5.876
 5641SOL    HW117822   6.861   5.057   5.816
 5641SOL    HW217823   6.771   5.079   5.950
 5642SOL     OW17824   2.409   0.677   6.896
 5642SOL    HW117825   2.339   0.739   6.861
 5642SOL    HW217826   2.387   0.583   6.868
 5643SOL     OW17827   5.667   3.224   4.680
 5643SOL    HW117828   5.597   3.155   4.662
 5643SOL    HW217829   5.754   3.196   4.639
 5644SOL     OW17830   3.279   0.060   6.099
 5644SOL    HW117831   3.267   6.991   6.063
 5644SOL    HW217832   3.200   0.116   6.073
 5645SOL     OW17833   6.455   3.207   3.432
 5645SOL    HW117834   6.355   3.203   3.439
 5645SOL    HW217835   6.484   3.301   3.417
 5646SOL     OW17836   1.975   4.839   2.968
 5646SOL    HW117837   2.044   4.870   3.032
 5646SOL    HW217838   1.988   4.883   2.879
 5647SOL     OW17839   5.795   5.997   2.230
 5647SOL    HW117840   5.710   6.041   2.259
 5647SOL    HW217841   5.818   5.924   2.294
 5648SOL     OW17842   3.090   5.937   3.055
 5648SOL    HW117843   3.023   5.979   2.994
 5648SOL    HW217844   3.127   5.855   3.012
 5649SOL     OW17845   0.817   5.295   3.917
 5649SOL    HW117846   0.825   5.246   4.004
 5649SOL    HW217847   0.890   5.264   3.855
 5650SOL     OW17848   0.326   4.659   0.442
 5650SOL    HW117849   0.360   4.686   0.352
 5650SOL    HW217850   0.292   4.740   0.491
 5651SOL     OW17851   1.412   0.766   0.383
 5651SOL    HW117852   1.377   0.720   0.465
 5651SOL    HW217853   1.429   0.862   0.404
 5652SOL     OW17854   0.503   4.492   1.894
 5652SOL    HW117855   0.446   4.439   1.956
 5652SOL    HW217856   0.508   4.587   1.925
 5653SOL     OW17857   0.110   5.989   1.674
 5653SOL    HW117858   0.203   6.026   1.678
 5653SOL    HW217859   0.090   5.960   1.580
 5654SOL     OW17860   1.537   6.255   4.579
 5654SOL    HW117861   1.586   6.295   4.657
 5654SOL    HW217862   1.439   6.253   4.598
 5655SOL     OW17863   6.634   3.201   4.244
 5655SOL    HW117864   6.569   3.232   4.314
 5655SOL    HW217865   6.645   3.102   4.249
 5656SOL     OW17866   6.994   3.168   6.420
 5656SOL    HW117867   6.970   3.071   6.428
 5656SOL    HW217868   0.044   3.178   6.353
 5657SOL     OW17869   4.646   4.821   4.529
 5657SOL    HW117870   4.598   4.789   4.610
 5657SOL    HW217871   4.688   4.743   4.482
 5658SOL     OW17872   1.855   2.100   5.728
 5658SOL    HW117873   1.899   2.024   5.776
 5658SOL    HW217874   1.909   2.124   5.647
 5659SOL     OW17875   3.092   3.765   6.233
 5659SOL    HW117876   3.000   3.803   6.230
 5659SOL    HW217877   3.132   3.784   6.323
 5660SOL     OW17878   4.823   6.999   6.573
 5660SOL    HW117879   4.729   0.002   6.592
 5660SOL    HW217880   4.823   6.920   6.511
 5661SOL     OW17881   0.667   5.952   5.973
 5661SOL    HW117882   0.693   5.857   5.959
 5661SOL    HW217883   0.736   6.012   5.930
 5662SOL     OW17884   3.030   6.331   3.099
 5662SOL    HW117885   3.023   6.332   2.999
 5662SOL    HW217886   2.939   6.339   3.139
 5663SOL     OW17887   1.163   2.820   0.991
 5663SOL    HW117888   1.220   2.738   0.987
 5663SOL    HW217889   1.124   2.837   0.900
 5664SOL     OW17890   5.277   4.114   4.332
 5664SOL    HW117891   5.216   4.067   4.395
 5664SOL    HW217892   5.251   4.210   4.325
 5665SOL     OW17893   1.843   0.235   0.814
 5665SOL    HW117894   1.844   0.213   0.911
 5665SOL    HW217895   1.852   0.334   0.802
 5666SOL     OW17896   6.298   1.125   4.718
 5666SOL    HW117897   6.344   1.094   4.634
 5666SOL    HW217898   6.218   1.068   4.735
 5667SOL     OW17899   1.703   5.314   4.824
 5667SOL    HW117900   1.607   5.289   4.810
 5667SOL    HW217901   1.713   5.358   4.913
 5668SOL     OW17902   5.854   2.389   3.512
 5668SOL    HW117903   5.836   2.339   3.427
 5668SOL    HW217904   5.939   2.440   3.503
 5669SOL     OW17905   5.809   3.914   6.772
 5669SOL    HW117906   5.846   3.926   6.865
 5669SOL    HW217907   5.813   3.817   6.747
 5670SOL     OW17908   0.805   2.765   2.674
 5670SOL    HW117909   0.875   2.695   2.659
 5670SOL    HW217910   0.752   2.777   2.590
 5671SOL     OW17911   0.243   6.898   3.983
 5671SOL    HW117912   0.220   6.813   4.031
 5671SOL    HW217913   0.337   6.925   4.007
 5672SOL     OW17914   5.093   4.050   5.090
 5672SOL    HW117915   5.035   3.969   5.099
 5672SOL    HW217916   5.066   4.119   5.157
 5673SOL     OW17917   0.760   0.196   1.586
 5673SOL    HW117918   0.850   0.238   1.602
 5673SOL    HW217919   0.746   0.122   1.652
 5674SOL     OW17920   0.879   5.411   5.032
 5674SOL    HW117921   0.885   5.404   5.131
 5674SOL    HW217922   0.925   5.332   4.990
 5675SOL     OW17923   2.656   1.446   0.078
 5675SOL    HW117924   2.702   1.406   0.158
 5675SOL    HW217925   2.711   1.429   7.020
 5676SOL     OW17926   2.612   2.337   2.143
 5676SOL    HW117927   2.711   2.326   2.135
 5676SOL    HW217928   2.567   2.286   2.069
 5677SOL     OW17929   0.216   0.337   1.160
 5677SOL    HW117930   0.265   0.374   1.239
 5677SOL    HW217931   0.209   0.237   1.170
 5678SOL     OW17932   3.217   1.984   1.415
 5678SOL    HW117933   3.281   2.042   1.466
 5678SOL    HW217934   3.124   2.001   1.447
 5679SOL     OW17935   5.760   3.564   4.736
 5679SOL    HW117936   5.758   3.588   4.639
 5679SOL    HW217937   5.667   3.555   4.771
 5680SOL     OW17938   1.198   5.201   5.867
 5680SOL    HW117939   1.176   5.242   5.779
 5680SOL    HW217940   1.292   5.226   5.892
 5681SOL     OW17941   0.195   4.356   2.963
 5681SOL    HW117942   0.162   4.276   3.015
 5681SOL    HW217943   0.213   4.431   3.026
 5682SOL     OW17944   2.001   4.669   2.715
 5682SOL    HW117945   1.915   4.719   2.729
 5682SOL    HW217946   1.998   4.583   2.765
 5683SOL     OW17947   4.590   2.065   6.773
 5683SOL    HW117948   4.658   2.017   6.718
 5683SOL    HW217949   4.523   2.109   6.713
 5684SOL     OW17950   2.038   2.473   5.840
 5684SOL    HW117951   2.038   2.540   5.914
 5684SOL    HW217952   2.042   2.520   5.752
 5685SOL     OW17953   2.139   2.153   4.019
 5685SOL    HW117954   2.090   2.170   3.934
 5685SOL    HW217955   2.226   2.108   3.999
 5686SOL     OW17956   3.560   0.096   5.980
 5686SOL    HW117957   3.473   0.093   6.029
 5686SOL    HW217958   3.547   0.142   5.892
 5687SOL     OW17959   1.413   6.281   5.618
 5687SOL    HW117960   1.491   6.231   5.581
 5687SOL    HW217961   1.352   6.218   5.665
 5688SOL     OW17962   2.160   3.348   3.195
 5688SOL    HW117963   2.140   3.384   3.286
 5688SOL    HW217964   2.169   3.248   3.200
 5689SOL     OW17965   1.466   1.148   1.326
 5689SOL    HW117966   1.372   1.178   1.315
 5689SOL    HW217967   1.491   1.151   1.423
 5690SOL     OW17968   0.880   5.583   0.049
 5690SOL    HW117969   0.895   5.622   6.982
 5690SOL    HW217970   0.872   5.484   0.041
 5691SOL     OW17971   3.965   1.197   2.375
 5691SOL    HW117972   3.895   1.179   2.444
 5691SOL    HW217973   3.963   1.294   2.350
 5692SOL     OW17974   4.911   5.453   1.396
 5692SOL    HW117975   4.940   5.521   1.463
 5692SOL    HW217976   4.978   5.378   1.395
 5693SOL     OW17977   3.273   0.568   1.031
 5693SOL    HW117978   3.305   0.659   1.057
 5693SOL    HW217979   3.195   0.542   1.087
 5694SOL     OW17980   0.468   0.107   2.268
 5694SOL    HW117981   0.543   0.069   2.215
 5694SOL    HW217982   0.486   0.095   2.366
 5695SOL     OW17983   0.957   0.812   1.441
 5695SOL    HW117984   0.928   0.837   1.349
 5695SOL    HW217985   1.052   0.842   1.455
 5696SOL     OW17986   1.578   6.956   4.319
 5696SOL    HW117987   1.642   6.879   4.326
 5696SOL    HW217988   1.488   6.928   4.352
 5697SOL     OW17989   6.298   3.169   1.137
 5697SOL    HW117990   6.359   3.194   1.061
 5697SOL    HW217991   6.289   3.070   1.140
 5698SOL     OW17992   1.823   2.885   3.666
 5698SOL    HW117993   1.849   2.952   3.736
 5698SOL    HW217994   1.863   2.911   3.578
 5699SOL     OW17995   2.409   2.402   3.355
 5699SOL    HW117996   2.441   2.480   3.408
 5699SOL    HW217997   2.476   2.328   3.360
 5700SOL     OW17998   6.320   0.494   2.537
 5700SOL    HW117999   6.242   0.495   2.600
 5700SOL    HW218000   6.375   0.412   2.554
 5701SOL     OW18001   6.590   0.861   0.507
 5701SOL    HW118002   6.613   0.824   0.417
 5701SOL    HW218003   6.671   0.862   0.565
 5702SOL     OW18004   2.206   0.055   4.734
 5702SOL    HW118005   2.302   0.045   4.707
 5702SOL    HW218006   2.159   0.114   4.668
 5703SOL     OW18007   6.246   2.817   6.749
 5703SOL    HW118008   6.202   2.902   6.721
 5703SOL    HW218009   6.228   2.800   6.846
 5704SOL     OW18010   5.446   4.137   3.290
 5704SOL    HW118011   5.481   4.230   3.288
 5704SOL    HW218012   5.506   4.080   3.347
 5705SOL     OW18013   5.951   6.264   6.184
 5705SOL    HW118014   5.962   6.267   6.284
 5705SOL    HW218015   5.893   6.186   6.160
 5706SOL     OW18016   5.936   2.187   0.469
 5706SOL    HW118017   5.994   2.179   0.388
 5706SOL    HW218018   5.877   2.106   0.476
 5707SOL     OW18019   5.439   6.248   2.054
 5707SOL    HW118020   5.340   6.248   2.063
 5707SOL    HW218021   5.463   6.235   1.957
 5708SOL     OW18022   4.418   5.984   4.076
 5708SOL    HW118023   4.463   6.046   4.011
 5708SOL    HW218024   4.423   6.023   4.168
 5709SOL     OW18025   0.821   1.159   1.962
 5709SOL    HW118026   0.741   1.191   1.912
 5709SOL    HW218027   0.832   1.061   1.948
 5710SOL     OW18028   2.274   2.529   0.978
 5710SOL    HW118029   2.369   2.558   0.966
 5710SOL    HW218030   2.224   2.544   0.893
 5711SOL     OW18031   5.307   1.399   1.917
 5711SOL    HW118032   5.379   1.351   1.966
 5711SOL    HW218033   5.299   1.363   1.824
 5712SOL     OW18034   6.960   6.173   1.757
 5712SOL    HW118035   0.009   6.107   1.740
 5712SOL    HW218036   6.915   6.196   1.671
 5713SOL     OW18037   2.369   5.977   0.383
 5713SOL    HW118038   2.309   5.985   0.304
 5713SOL    HW218039   2.447   6.039   0.374
 5714SOL     OW18040   6.061   6.399   1.838
 5714SOL    HW118041   5.974   6.428   1.798
 5714SOL    HW218042   6.105   6.477   1.882
 5715SOL     OW18043   1.041   0.004   0.722
 5715SOL    HW118044   1.109   6.970   0.767
 5715SOL    HW218045   1.065   0.100   0.734
 5716SOL     OW18046   0.645   4.449   5.994
 5716SOL    HW118047   0.623   4.540   5.960
 5716SOL    HW218048   0.588   4.429   6.074
 5717SOL     OW18049   2.038   5.384   3.095
 5717SOL    HW118050   2.047   5.285   3.084
 5717SOL    HW218051   2.114   5.418   3.152
 5718SOL     OW18052   0.955   3.135   0.494
 5718SOL    HW118053   0.936   3.224   0.536
 5718SOL    HW218054   0.871   3.098   0.455
 5719SOL     OW18055   3.073   3.854   1.383
 5719SOL    HW118056   3.049   3.792   1.309
 5719SOL    HW218057   3.172   3.871   1.381
 5720SOL     OW18058   2.013   5.284   5.812
 5720SOL    HW118059   2.049   5.354   5.873
 5720SOL    HW218060   1.963   5.328   5.737
 5721SOL     OW18061   4.711   4.347   0.093
 5721SOL    HW118062   4.695   4.349   0.191
 5721SOL    HW218063   4.737   4.438   0.061
 5722SOL     OW18064   1.067   0.574   5.853
 5722SOL    HW118065   1.121   0.516   5.914
 5722SOL    HW218066   1.128   0.617   5.786
 5723SOL     OW18067   4.183   3.072   6.876
 5723SOL    HW118068   4.278   3.055   6.851
 5723SOL    HW218069   4.123   3.018   6.817
 5724SOL     OW18070   5.213   2.013   3.992
 5724SOL    HW118071   5.202   1.922   4.032
 5724SOL    HW218072   5.165   2.017   3.905
 5725SOL     OW18073   5.963   4.304   3.898
 5725SOL    HW118074   5.971   4.403   3.913
 5725SOL    HW218075   5.947   4.287   3.801
 5726SOL     OW18076   4.833   4.373   3.091
 5726SOL    HW118077   4.928   4.376   3.123
 5726SOL    HW218078   4.832   4.359   2.992
 5727SOL     OW18079   0.987   2.133   4.314
 5727SOL    HW118080   0.947   2.177   4.394
 5727SOL    HW218081   0.949   2.174   4.231
 5728SOL     OW18082   5.262   6.433   5.189
 5728SOL    HW118083   5.251   6.367   5.115
 5728SOL    HW218084   5.184   6.495   5.190
 5729SOL     OW18085   2.520   1.305   5.835
 5729SOL    HW118086   2.581   1.383   5.817
 5729SOL    HW218087   2.530   1.238   5.762
 5730SOL     OW18088   6.639   4.171   5.939
 5730SOL    HW118089   6.567   4.102   5.945
 5730SOL    HW218090   6.708   4.153   6.009
 5731SOL     OW18091   0.285   6.561   1.754
 5731SOL    HW118092   0.232   6.504   1.691
 5731SOL    HW218093   0.223   6.610   1.816
 5732SOL     OW18094   1.297   6.906   4.040
 5732SOL    HW118095   1.295   6.869   3.947
 5732SOL    HW218096   1.378   6.964   4.051
 5733SOL     OW18097   3.254   0.135   4.776
 5733SOL    HW118098   3.187   0.137   4.850
 5733SOL    HW218099   3.347   0.130   4.815
 5734SOL     OW18100   1.708   5.415   3.518
 5734SOL    HW118101   1.758   5.399   3.433
 5734SOL    HW218102   1.644   5.491   3.506
 5735SOL     OW18103   3.123   1.457   1.686
 5735SOL    HW118104   3.205   1.400   1.692
 5735SOL    HW218105   3.083   1.449   1.595
 5736SOL     OW18106   0.895   5.582   6.512
 5736SOL    HW118107   0.844   5.501   6.483
 5736SOL    HW218108   0.831   5.658   6.528
 5737SOL     OW18109   4.798   4.600   7.008
 5737SOL    HW118110   4.838   4.640   0.066
 5737SOL    HW218111   4.727   4.661   6.973
 5738SOL     OW18112   1.295   3.661   6.078
 5738SOL    HW118113   1.374   3.678   6.018
 5738SOL    HW218114   1.221   3.621   6.024
 5739SOL     OW18115   1.014   1.134   0.991
 5739SOL    HW118116   1.060   1.134   0.902
 5739SOL    HW218117   0.990   1.228   1.016
 5740SOL     OW18118   3.919   5.797   6.380
 5740SOL    HW118119   3.825   5.817   6.408
 5740SOL    HW218120   3.957   5.725   6.438
 5741SOL     OW18121   0.282   5.413   4.546
 5741SOL    HW118122   0.329   5.326   4.530
 5741SOL    HW218123   0.314   5.452   4.633
 5742SOL     OW18124   6.550   6.741   3.528
 5742SOL    HW118125   6.607   6.768   3.605
 5742SOL    HW218126   6.607   6.694   3.460
 5743SOL     OW18127   1.733   6.914   5.010
 5743SOL    HW118128   1.824   6.872   5.008
 5743SOL    HW218129   1.725   6.973   5.090
 5744SOL     OW18130   6.358   0.343   1.624
 5744SOL    HW118131   6.269   0.348   1.580
 5744SOL    HW218132   6.371   0.423   1.683
 5745SOL     OW18133   1.970   1.929   4.131
 5745SOL    HW118134   1.991   2.011   4.184
 5745SOL    HW218135   2.049   1.902   4.077
 5746SOL     OW18136   5.169   2.097   0.082
 5746SOL    HW118137   5.129   2.175   0.034
 5746SOL    HW218138   5.237   2.053   0.023
 5747SOL     OW18139   0.643   5.749   3.128
 5747SOL    HW118140   0.605   5.832   3.169
 5747SOL    HW218141   0.625   5.750   3.029
 5748SOL     OW18142   2.892   6.039   2.891
 5748SOL    HW118143   2.927   6.133   2.884
 5748SOL    HW218144   2.815   6.037   2.955
 5749SOL     OW18145   2.331   2.431   3.086
 5749SOL    HW118146   2.373   2.460   3.172
 5749SOL    HW218147   2.372   2.345   3.056
 5750SOL     OW18148   6.771   5.961   2.743
 5750SOL    HW118149   6.840   6.021   2.703
 5750SOL    HW218150   6.681   6.004   2.735
 5751SOL     OW18151   2.333   3.469   5.379
 5751SOL    HW118152   2.376   3.462   5.469
 5751SOL    HW218153   2.310   3.565   5.361
 5752SOL     OW18154   0.006   0.045   6.789
 5752SOL    HW118155   0.079   0.020   6.853
 5752SOL    HW218156   6.954   7.004   6.798
 5753SOL     OW18157   3.681   2.681   0.438
 5753SOL    HW118158   3.775   2.682   0.404
 5753SOL    HW218159   3.653   2.775   0.460
 5754SOL     OW18160   6.270   4.599   1.710
 5754SOL    HW118161   6.228   4.547   1.636
 5754SOL    HW218162   6.343   4.544   1.751
 5755SOL     OW18163   3.386   4.228   0.564
 5755SOL    HW118164   3.367   4.140   0.520
 5755SOL    HW218165   3.303   4.284   0.564
 5756SOL     OW18166   0.006   5.551   4.129
 5756SOL    HW118167   6.957   5.584   4.068
 5756SOL    HW218168   6.996   5.547   4.223
 5757SOL     OW18169   0.138   4.960   1.059
 5757SOL    HW118170   0.071   4.924   1.124
 5757SOL    HW218171   0.113   5.054   1.036
 5758SOL     OW18172   1.412   2.091   5.393
 5758SOL    HW118173   1.468   2.015   5.362
 5758SOL    HW218174   1.471   2.166   5.424
 5759SOL     OW18175   5.640   1.551   5.885
 5759SOL    HW118176   5.735   1.526   5.905
 5759SOL    HW218177   5.634   1.583   5.790
 5760SOL     OW18178   1.717   5.629   2.524
 5760SOL    HW118179   1.771   5.669   2.451
 5760SOL    HW218180   1.693   5.535   2.501
 5761SOL     OW18181   4.800   0.077   4.709
 5761SOL    HW118182   4.739   0.153   4.732
 5761SOL    HW218183   4.751   7.014   4.719
 5762SOL     OW18184   5.857   5.916   1.785
 5762SOL    HW118185   5.920   5.924   1.862
 5762SOL    HW218186   5.865   5.996   1.726
 5763SOL     OW18187   1.455   0.685   1.517
 5763SOL    HW118188   1.514   0.732   1.582
 5763SOL    HW218189   1.473   0.719   1.425
 5764SOL     OW18190   4.920   3.259   5.471
 5764SOL    HW118191   4.984   3.182   5.466
 5764SOL    HW218192   4.860   3.248   5.550
 5765SOL     OW18193   5.888   4.213   0.105
 5765SOL    HW118194   5.827   4.232   0.029
 5765SOL    HW218195   5.983   4.223   0.074
 5766SOL     OW18196   3.179   1.678   2.777
 5766SOL    HW118197   3.203   1.730   2.695
 5766SOL    HW218198   3.250   1.609   2.794
 5767SOL     OW18199   0.255   6.223   1.918
 5767SOL    HW118200   0.246   6.322   1.932
 5767SOL    HW218201   0.277   6.205   1.822
 5768SOL     OW18202   6.139   1.735   2.295
 5768SOL    HW118203   6.049   1.772   2.322
 5768SOL    HW218204   6.138   1.636   2.306
 5769SOL     OW18205   2.166   5.475   4.112
 5769SOL    HW118206   2.131   5.381   4.114
 5769SOL    HW218207   2.253   5.477   4.061
 5770SOL     OW18208   6.470   0.962   1.171
 5770SOL    HW118209   6.460   1.016   1.255
 5770SOL    HW218210   6.486   0.866   1.195
 5771SOL     OW18211   1.001   1.853   1.408
 5771SOL    HW118212   1.051   1.779   1.363
 5771SOL    HW218213   0.950   1.816   1.486
 5772SOL     OW18214   6.140   4.224   6.993
 5772SOL    HW118215   6.151   4.126   6.982
 5772SOL    HW218216   6.208   4.272   6.937
 5773SOL     OW18217   5.388   6.123   4.277
 5773SOL    HW118218   5.399   6.067   4.195
 5773SOL    HW218219   5.366   6.217   4.250
 5774SOL     OW18220   2.096   5.444   3.724
 5774SOL    HW118221   2.017   5.502   3.704
 5774SOL    HW218222   2.082   5.399   3.812
 5775SOL     OW18223   0.075   0.359   6.584
 5775SOL    HW118224   0.077   0.445   6.635
 5775SOL    HW218225   0.125   0.370   6.498
 5776SOL     OW18226   5.279   0.826   5.416
 5776SOL    HW118227   5.251   0.742   5.462
 5776SOL    HW218228   5.269   0.903   5.479
 5777SOL     OW18229   0.263   1.048   5.243
 5777SOL    HW118230   0.254   0.949   5.244
 5777SOL    HW218231   0.265   1.083   5.336
 5778SOL     OW18232   2.062   6.908   3.807
 5778SOL    HW118233   2.014   6.821   3.816
 5778SOL    HW218234   2.094   6.920   3.713
 5779SOL     OW18235   4.554   1.368   2.011
 5779SOL    HW118236   4.502   1.300   2.063
 5779SOL    HW218237   4.561   1.339   1.915
 5780SOL     OW18238   5.927   4.219   1.315
 5780SOL    HW118239   5.915   4.228   1.413
 5780SOL    HW218240   5.838   4.203   1.271
 5781SOL     OW18241   2.101   5.577   4.768
 5781SOL    HW118242   2.027   5.524   4.726
 5781SOL    HW218243   2.157   5.619   4.697
 5782SOL     OW18244   3.123   1.577   2.293
 5782SOL    HW118245   3.120   1.600   2.196
 5782SOL    HW218246   3.031   1.572   2.330
 5783SOL     OW18247   1.595   7.014   1.016
 5783SOL    HW118248   1.692   6.993   1.029
 5783SOL    HW218249   1.545   6.993   1.100
 5784SOL     OW18250   1.501   5.982   0.223
 5784SOL    HW118251   1.413   5.936   0.205
 5784SOL    HW218252   1.527   6.035   0.143
 5785SOL     OW18253   1.730   2.134   0.108
 5785SOL    HW118254   1.693   2.103   0.021
 5785SOL    HW218255   1.720   2.062   0.177
 5786SOL     OW18256   1.293   3.163   1.512
 5786SOL    HW118257   1.196   3.140   1.506
 5786SOL    HW218258   1.327   3.185   1.420
 5787SOL     OW18259   6.721   3.226   5.564
 5787SOL    HW118260   6.642   3.223   5.502
 5787SOL    HW218261   6.780   3.302   5.538
 5788SOL     OW18262   2.655   1.588   2.189
 5788SOL    HW118263   2.667   1.624   2.097
 5788SOL    HW218264   2.560   1.601   2.218
 5789SOL     OW18265   3.390   4.614   6.708
 5789SOL    HW118266   3.294   4.613   6.681
 5789SOL    HW218267   3.443   4.556   6.646
 5790SOL     OW18268   5.761   6.001   4.181
 5790SOL    HW118269   5.795   6.088   4.146
 5790SOL    HW218270   5.745   5.938   4.104
 5791SOL     OW18271   3.974   1.735   1.868
 5791SOL    HW118272   4.062   1.783   1.871
 5791SOL    HW218273   3.905   1.789   1.915
 5792SOL     OW18274   5.242   3.009   3.063
 5792SOL    HW118275   5.281   2.939   3.123
 5792SOL    HW218276   5.193   2.965   2.987
 5793SOL     OW18277   4.586   2.533   5.739
 5793SOL    HW118278   4.634   2.533   5.651
 5793SOL    HW218279   4.578   2.439   5.772
 5794SOL     OW18280   4.319   6.994   0.193
 5794SOL    HW118281   4.317   0.054   0.138
 5794SOL    HW218282   4.413   6.962   0.202
 5795SOL     OW18283   2.310   5.786   1.573
 5795SOL    HW118284   2.403   5.784   1.610
 5795SOL    HW218285   2.312   5.754   1.478
 5796SOL     OW18286   4.794   1.927   6.593
 5796SOL    HW118287   4.837   1.881   6.670
 5796SOL    HW218288   4.837   2.016   6.578
 5797SOL     OW18289   5.319   2.488   1.205
 5797SOL    HW118290   5.295   2.465   1.111
 5797SOL    HW218291   5.337   2.587   1.212
 5798SOL     OW18292   1.552   3.877   5.389
 5798SOL    HW118293   1.486   3.925   5.447
 5798SOL    HW218294   1.542   3.909   5.294
 5799SOL     OW18295   2.541   6.744   3.511
 5799SOL    HW118296   2.598   6.681   3.458
 5799SOL    HW218297   2.534   6.712   3.605
 5800SOL     OW18298   1.061   6.762   0.990
 5800SOL    HW118299   0.985   6.796   0.936
 5800SOL    HW218300   1.050   6.663   1.005
 5801SOL     OW18301   1.827   1.646   2.230
 5801SOL    HW118302   1.751   1.709   2.209
 5801SOL    HW218303   1.797   1.580   2.298
 5802SOL     OW18304   0.570   1.197   1.804
 5802SOL    HW118305   0.584   1.098   1.795
 5802SOL    HW218306   0.539   1.218   1.896
 5803SOL     OW18307   0.406   4.984   3.745
 5803SOL    HW118308   0.490   5.036   3.734
 5803SOL    HW218309   0.409   4.934   3.832
 5804SOL     OW18310   5.705   1.258   3.638
 5804SOL    HW118311   5.750   1.332   3.687
 5804SOL    HW218312   5.754   1.172   3.656
 5805SOL     OW18313   1.314   2.413   2.132
 5805SOL    HW118314   1.323   2.396   2.034
 5805SOL    HW218315   1.400   2.449   2.168
 5806SOL     OW18316   6.567   4.567   2.014
 5806SOL    HW118317   6.666   4.556   1.999
 5806SOL    HW218318   6.518   4.495   1.965
 5807SOL     OW18319   1.449   0.274   1.327
 5807SOL    HW118320   1.367   0.217   1.315
 5807SOL    HW218321   1.529   0.226   1.293
 5808SOL     OW18322   6.409   6.544   5.802
 5808SOL    HW118323   6.378   6.517   5.710
 5808SOL    HW218324   6.450   6.634   5.799
 5809SOL     OW18325   0.608   1.994   5.507
 5809SOL    HW118326   0.562   1.956   5.427
 5809SOL    HW218327   0.699   2.026   5.480
 5810SOL     OW18328   3.060   6.956   5.580
 5810SOL    HW118329   3.021   6.966   5.671
 5810SOL    HW218330   3.106   0.018   5.554
 5811SOL     OW18331   2.727   3.938   6.490
 5811SOL    HW118332   2.693   3.851   6.455
 5811SOL    HW218333   2.673   4.013   6.451
 5812SOL     OW18334   6.058   2.105   0.244
 5812SOL    HW118335   6.143   2.153   0.220
 5812SOL    HW218336   6.052   2.021   0.192
 5813SOL     OW18337   5.010   6.518   0.474
 5813SOL    HW118338   4.946   6.441   0.465
 5813SOL    HW218339   5.036   6.551   0.384
 5814SOL     OW18340   5.250   1.472   1.190
 5814SOL    HW118341   5.259   1.476   1.091
 5814SOL    HW218342   5.287   1.385   1.224
 5815SOL     OW18343   6.702   1.795   4.578
 5815SOL    HW118344   6.666   1.701   4.579
 5815SOL    HW218345   6.802   1.792   4.568
 5816SOL     OW18346   0.232   3.470   2.783
 5816SOL    HW118347   0.249   3.497   2.688
 5816SOL    HW218348   0.309   3.415   2.815
 5817SOL     OW18349   6.337   3.183   3.117
 5817SOL    HW118350   6.374   3.215   3.029
 5817SOL    HW218351   6.390   3.223   3.192
 5818SOL     OW18352   2.136   6.991   5.176
 5818SOL    HW118353   2.081   7.013   5.257
 5818SOL    HW218354   2.218   6.942   5.205
 5819SOL     OW18355   4.227   5.506   0.246
 5819SOL    HW118356   4.145   5.458   0.215
 5819SOL    HW218357   4.303   5.482   0.186
 5820SOL     OW18358   5.527   5.989   2.016
 5820SOL    HW118359   5.516   6.081   2.053
 5820SOL    HW218360   5.613   5.950   2.049
 5821SOL     OW18361   0.259   6.553   0.924
 5821SOL    HW118362   0.255   6.582   1.019
 5821SOL    HW218363   0.318   6.615   0.872
 5822SOL     OW18364   1.756   3.350   2.858
 5822SOL    HW118365   1.840   3.305   2.887
 5822SOL    HW218366   1.739   3.330   2.762
 5823SOL     OW18367   2.045   5.348   3.472
 5823SOL    HW118368   2.063   5.395   3.558
 5823SOL    HW218369   1.948   5.352   3.451
 5824SOL     OW18370   1.196   0.766   2.326
 5824SOL    HW118371   1.214   0.840   2.262
 5824SOL    HW218372   1.280   0.714   2.341
 5825SOL     OW18373   5.657   0.778   4.402
 5825SOL    HW118374   5.648   0.795   4.500
 5825SOL    HW218375   5.578   0.724   4.371
 5826SOL     OW18376   0.477   6.869   5.369
 5826SOL    HW118377   0.558   6.888   5.314
 5826SOL    HW218378   0.408   6.939   5.352
 5827SOL     OW18379   2.281   4.119   3.729
 5827SOL    HW118380   2.220   4.040   3.729
 5827SOL    HW218381   2.313   4.137   3.636
 5828SOL     OW18382   3.909   0.158   5.249
 5828SOL    HW118383   3.917   0.223   5.325
 5828SOL    HW218384   3.911   0.208   5.162
 5829SOL     OW18385   2.239   0.699   4.241
 5829SOL    HW118386   2.287   0.768   4.187
 5829SOL    HW218387   2.142   0.699   4.216
 5830SOL     OW18388   4.016   5.200   4.434
 5830SOL    HW118389   4.052   5.201   4.340
 5830SOL    HW218390   3.927   5.155   4.434
 5831SOL     OW18391   1.633   2.262   5.444
 5831SOL    HW118392   1.693   2.185   5.422
 5831SOL    HW218393   1.630   2.325   5.367
 5832SOL     OW18394   3.062   5.277   1.862
 5832SOL    HW118395   3.037   5.235   1.775
 5832SOL    HW218396   3.107   5.365   1.846
 5833SOL     OW18397   3.354   4.719   6.984
 5833SOL    HW118398   3.341   4.663   6.902
 5833SOL    HW218399   3.433   4.686   0.011
 5834SOL     OW18400   5.714   2.711   6.246
 5834SOL    HW118401   5.732   2.669   6.335
 5834SOL    HW218402   5.713   2.810   6.256
 5835SOL     OW18403   5.436   2.266   2.753
 5835SOL    HW118404   5.357   2.214   2.719
 5835SOL    HW218405   5.404   2.352   2.794
 5836SOL     OW18406   4.587   6.465   3.639
 5836SOL    HW118407   4.627   6.512   3.561
 5836SOL    HW218408   4.540   6.530   3.697
 5837SOL     OW18409   2.826   5.392   6.931
 5837SOL    HW118410   2.768   5.311   6.939
 5837SOL    HW218411   2.771   5.474   6.948
 5838SOL     OW18412   3.383   2.202   1.179
 5838SOL    HW118413   3.467   2.150   1.168
 5838SOL    HW218414   3.304   2.141   1.175
 5839SOL     OW18415   1.806   2.031   0.975
 5839SOL    HW118416   1.800   1.935   0.948
 5839SOL    HW218417   1.884   2.044   1.036
 5840SOL     OW18418   0.393   3.125   3.142
 5840SOL    HW118419   0.414   3.037   3.185
 5840SOL    HW218420   0.377   3.111   3.044
 5841SOL     OW18421   5.314   1.677   0.390
 5841SOL    HW118422   5.365   1.740   0.448
 5841SOL    HW218423   5.284   1.724   0.307
 5842SOL     OW18424   2.219   2.510   1.394
 5842SOL    HW118425   2.124   2.526   1.419
 5842SOL    HW218426   2.271   2.595   1.405
 5843SOL     OW18427   2.587   3.777   0.980
 5843SOL    HW118428   2.506   3.718   0.979
 5843SOL    HW218429   2.609   3.803   1.074
 5844SOL     OW18430   0.559   6.371   5.140
 5844SOL    HW118431   0.553   6.274   5.166
 5844SOL    HW218432   0.593   6.425   5.217
 5845SOL     OW18433   1.389   6.803   2.336
 5845SOL    HW118434   1.361   6.717   2.294
 5845SOL    HW218435   1.475   6.834   2.295
 5846SOL     OW18436   6.436   3.987   5.918
 5846SOL    HW118437   6.400   3.934   5.841
 5846SOL    HW218438   6.367   3.991   5.990
 5847SOL     OW18439   2.675   4.207   6.968
 5847SOL    HW118440   2.644   4.267   0.017
 5847SOL    HW218441   2.598   4.181   6.910
 5848SOL     OW18442   2.151   5.267   2.365
 5848SOL    HW118443   2.127   5.358   2.399
 5848SOL    HW218444   2.071   5.207   2.373
 5849SOL     OW18445   3.809   5.987   5.506
 5849SOL    HW118446   3.810   6.080   5.470
 5849SOL    HW218447   3.876   5.979   5.580
 5850SOL     OW18448   1.247   1.390   2.774
 5850SOL    HW118449   1.178   1.398   2.846
 5850SOL    HW218450   1.249   1.296   2.739
 5851SOL     OW18451   6.461   3.506   4.040
 5851SOL    HW118452   6.383   3.509   3.977
 5851SOL    HW218453   6.501   3.598   4.047
 5852SOL     OW18454   4.940   4.049   2.353
 5852SOL    HW118455   4.903   3.963   2.390
 5852SOL    HW218456   4.899   4.066   2.263
 5853SOL     OW18457   3.507   5.252   5.833
 5853SOL    HW118458   3.548   5.329   5.784
 5853SOL    HW218459   3.427   5.219   5.783
 5854SOL     OW18460   2.784   4.731   5.325
 5854SOL    HW118461   2.783   4.650   5.266
 5854SOL    HW218462   2.815   4.705   5.416
 5855SOL     OW18463   2.045   2.838   2.998
 5855SOL    HW118464   2.080   2.759   3.048
 5855SOL    HW218465   2.112   2.868   2.930
 5856SOL     OW18466   1.321   6.733   3.089
 5856SOL    HW118467   1.266   6.817   3.094
 5856SOL    HW218468   1.273   6.664   3.037
 5857SOL     OW18469   5.647   4.476   6.576
 5857SOL    HW118470   5.677   4.560   6.620
 5857SOL    HW218471   5.628   4.493   6.479
 5858SOL     OW18472   1.469   1.022   2.914
 5858SOL    HW118473   1.400   1.080   2.959
 5858SOL    HW218474   1.559   1.063   2.927
 5859SOL     OW18475   6.321   6.497   1.298
 5859SOL    HW118476   6.368   6.457   1.377
 5859SOL    HW218477   6.230   6.528   1.325
 5860SOL     OW18478   0.108   4.499   3.176
 5860SOL    HW118479   0.025   4.521   3.124
 5860SOL    HW218480   0.085   4.490   3.273
 5861SOL     OW18481   4.982   0.676   5.871
 5861SOL    HW118482   4.999   0.749   5.804
 5861SOL    HW218483   4.989   0.714   5.963
 5862SOL     OW18484   6.980   5.782   2.334
 5862SOL    HW118485   0.011   5.858   2.367
 5862SOL    HW218486   6.889   5.814   2.309
 5863SOL     OW18487   4.118   0.073   6.225
 5863SOL    HW118488   4.122   0.147   6.159
 5863SOL    HW218489   4.210   0.036   6.239
 5864SOL     OW18490   3.720   4.108   2.707
 5864SOL    HW118491   3.794   4.042   2.694
 5864SOL    HW218492   3.685   4.137   2.618
 5865SOL     OW18493   6.549   0.581   5.567
 5865SOL    HW118494   6.452   0.583   5.590
 5865SOL    HW218495   6.560   0.571   5.468
 5866SOL     OW18496   3.863   3.015   3.195
 5866SOL    HW118497   3.897   3.088   3.136
 5866SOL    HW218498   3.807   2.952   3.142
 5867SOL     OW18499   3.222   1.726   1.635
 5867SOL    HW118500   3.178   1.643   1.670
 5867SOL    HW218501   3.232   1.719   1.536
 5868SOL     OW18502   1.084   0.923   5.707
 5868SOL    HW118503   1.152   0.984   5.665
 5868SOL    HW218504   1.007   0.912   5.644
 5869SOL     OW18505   0.632   5.741   3.859
 5869SOL    HW118506   0.696   5.687   3.804
 5869SOL    HW218507   0.611   5.692   3.944
 5870SOL     OW18508   4.345   5.283   4.614
 5870SOL    HW118509   4.271   5.220   4.637
 5870SOL    HW218510   4.427   5.231   4.591
 5871SOL     OW18511   3.100   4.013   3.998
 5871SOL    HW118512   3.067   3.971   3.913
 5871SOL    HW218513   3.034   4.081   4.029
 5872SOL     OW18514   4.507   5.346   1.694
 5872SOL    HW118515   4.494   5.277   1.764
 5872SOL    HW218516   4.542   5.430   1.735
 5873SOL     OW18517   4.283   5.954   2.249
 5873SOL    HW118518   4.247   6.046   2.263
 5873SOL    HW218519   4.223   5.903   2.187
 5874SOL     OW18520   1.947   4.216   5.761
 5874SOL    HW118521   2.021   4.160   5.722
 5874SOL    HW218522   1.957   4.218   5.861
 5875SOL     OW18523   2.733   1.497   0.806
 5875SOL    HW118524   2.732   1.597   0.817
 5875SOL    HW218525   2.650   1.459   0.845
 5876SOL     OW18526   3.355   3.364   2.021
 5876SOL    HW118527   3.354   3.331   1.927
 5876SOL    HW218528   3.264   3.399   2.045
 5877SOL     OW18529   5.222   4.157   0.757
 5877SOL    HW118530   5.241   4.146   0.660
 5877SOL    HW218531   5.304   4.138   0.810
 5878SOL     OW18532   2.179   4.939   2.738
 5878SOL    HW118533   2.173   4.854   2.686
 5878SOL    HW218534   2.100   4.997   2.717
 5879SOL     OW18535   0.327   4.444   4.955
 5879SOL    HW118536   0.403   4.486   4.906
 5879SOL    HW218537   0.347   4.444   5.053
 5880SOL     OW18538   2.655   5.670   0.966
 5880SOL    HW118539   2.625   5.755   0.923
 5880SOL    HW218540   2.585   5.638   1.029
 5881SOL     OW18541   0.938   6.296   4.425
 5881SOL    HW118542   0.844   6.263   4.411
 5881SOL    HW218543   0.979   6.247   4.501
 5882SOL     OW18544   4.511   1.350   1.752
 5882SOL    HW118545   4.510   1.253   1.726
 5882SOL    HW218546   4.431   1.396   1.713
 5883SOL     OW18547   0.367   3.758   5.773
 5883SOL    HW118548   0.317   3.841   5.750
 5883SOL    HW218549   0.461   3.764   5.739
 5884SOL     OW18550   1.515   1.463   3.321
 5884SOL    HW118551   1.573   1.384   3.299
 5884SOL    HW218552   1.473   1.499   3.238
 5885SOL     OW18553   6.055   6.569   1.372
 5885SOL    HW118554   6.010   6.531   1.292
 5885SOL    HW218555   6.047   6.669   1.370
 5886SOL     OW18556   1.455   1.501   6.169
 5886SOL    HW118557   1.553   1.506   6.150
 5886SOL    HW218558   1.406   1.559   6.105
 5887SOL     OW18559   3.832   6.982   4.320
 5887SOL    HW118560   3.853   0.050   4.286
 5887SOL    HW218561   3.754   6.987   4.382
 5888SOL     OW18562   2.256   0.250   3.625
 5888SOL    HW118563   2.208   0.335   3.651
 5888SOL    HW218564   2.190   0.175   3.621
 5889SOL     OW18565   2.344   0.484   0.423
 5889SOL    HW118566   2.332   0.581   0.405
 5889SOL    HW218567   2.440   0.466   0.447
 5890SOL     OW18568   3.003   4.773   5.902
 5890SOL    HW118569   3.012   4.783   5.803
 5890SOL    HW218570   3.053   4.847   5.947
 5891SOL     OW18571   3.039   4.014   0.162
 5891SOL    HW118572   3.120   3.959   0.184
 5891SOL    HW218573   2.971   3.957   0.115
 5892SOL     OW18574   0.837   6.734   1.668
 5892SOL    HW118575   0.809   6.828   1.689
 5892SOL    HW218576   0.937   6.730   1.662
 5893SOL     OW18577   1.406   0.654   3.348
 5893SOL    HW118578   1.383   0.750   3.338
 5893SOL    HW218579   1.358   0.601   3.278
 5894SOL     OW18580   1.406   3.279   3.205
 5894SOL    HW118581   1.496   3.264   3.164
 5894SOL    HW218582   1.334   3.266   3.137
 5895SOL     OW18583   4.944   3.753   3.851
 5895SOL    HW118584   4.960   3.762   3.752
 5895SOL    HW218585   4.934   3.843   3.892
 5896SOL     OW18586   3.695   2.276   5.988
 5896SOL    HW118587   3.709   2.318   5.898
 5896SOL    HW218588   3.676   2.178   5.976
 5897SOL     OW18589   4.314   0.198   1.264
 5897SOL    HW118590   4.271   0.170   1.178
 5897SOL    HW218591   4.299   0.296   1.278
 5898SOL     OW18592   2.112   0.276   2.148
 5898SOL    HW118593   2.115   0.176   2.156
 5898SOL    HW218594   2.132   0.317   2.237
 5899SOL     OW18595   5.442   0.204   4.390
 5899SOL    HW118596   5.458   0.235   4.296
 5899SOL    HW218597   5.430   0.284   4.449
 5900SOL     OW18598   4.852   5.032   3.035
 5900SOL    HW118599   4.779   5.011   3.100
 5900SOL    HW218600   4.851   5.129   3.014
 5901SOL     OW18601   3.354   6.539   4.922
 5901SOL    HW118602   3.389   6.452   4.885
 5901SOL    HW218603   3.360   6.537   5.021
 5902SOL     OW18604   6.382   1.883   6.333
 5902SOL    HW118605   6.292   1.840   6.343
 5902SOL    HW218606   6.448   1.814   6.306
 5903SOL     OW18607   6.061   2.782   6.254
 5903SOL    HW118608   6.132   2.756   6.320
 5903SOL    HW218609   6.016   2.700   6.219
 5904SOL     OW18610   0.162   4.064   2.610
 5904SOL    HW118611   0.219   4.103   2.682
 5904SOL    HW218612   0.114   4.137   2.562
 5905SOL     OW18613   0.095   5.442   2.566
 5905SOL    HW118614   0.008   5.489   2.550
 5905SOL    HW218615   0.077   5.348   2.594
 5906SOL     OW18616   6.115   1.410   3.698
 5906SOL    HW118617   6.017   1.403   3.717
 5906SOL    HW218618   6.158   1.321   3.714
 5907SOL     OW18619   2.038   6.164   1.870
 5907SOL    HW118620   1.949   6.209   1.867
 5907SOL    HW218621   2.025   6.065   1.880
 5908SOL     OW18622   0.121   3.237   5.992
 5908SOL    HW118623   0.169   3.238   5.904
 5908SOL    HW218624   0.060   3.316   5.997
 5909SOL     OW18625   6.704   5.019   1.051
 5909SOL    HW118626   6.611   4.996   1.021
 5909SOL    HW218627   6.701   5.100   1.110
 5910SOL     OW18628   2.394   1.850   3.633
 5910SOL    HW118629   2.420   1.827   3.539
 5910SOL    HW218630   2.354   1.942   3.634
 5911SOL     OW18631   6.576   6.110   6.458
 5911SOL    HW118632   6.594   6.021   6.415
 5911SOL    HW218633   6.648   6.174   6.431
 5912SOL     OW18634   0.339   0.857   3.565
 5912SOL    HW118635   0.414   0.860   3.499
 5912SOL    HW218636   0.347   0.775   3.622
 5913SOL     OW18637   6.034   1.692   6.603
 5913SOL    HW118638   5.937   1.673   6.587
 5913SOL    HW218639   6.081   1.699   6.515
 5914SOL     OW18640   0.944   6.742   0.473
 5914SOL    HW118641   1.006   6.743   0.395
 5914SOL    HW218642   0.997   6.747   0.558
 5915SOL     OW18643   3.851   1.771   6.337
 5915SOL    HW118644   3.892   1.854   6.375
 5915SOL    HW218645   3.905   1.739   6.260
 5916SOL     OW18646   1.249   6.237   2.696
 5916SOL    HW118647   1.273   6.208   2.788
 5916SOL    HW218648   1.152   6.220   2.679
 5917SOL     OW18649   3.577   4.318   0.158
 5917SOL    HW118650   3.512   4.249   0.188
 5917SOL    HW218651   3.551   4.352   0.068
 5918SOL     OW18652   2.830   6.320   5.397
 5918SOL    HW118653   2.782   6.400   5.360
 5918SOL    HW218654   2.893   6.284   5.328
 5919SOL     OW18655   3.757   2.880   3.806
 5919SOL    HW118656   3.763   2.928   3.894
 5919SOL    HW218657   3.832   2.814   3.800
 5920SOL     OW18658   6.984   0.056   5.327
 5920SOL    HW118659   0.026   7.009   5.305
 5920SOL    HW218660   0.005   0.130   5.377
 5921SOL     OW18661   2.932   4.746   6.524
 5921SOL    HW118662   2.990   4.736   6.604
 5921SOL    HW218663   2.852   4.801   6.546
 5922SOL     OW18664   5.244   3.833   3.609
 5922SOL    HW118665   5.145   3.841   3.599
 5922SOL    HW218666   5.272   3.739   3.588
 5923SOL     OW18667   6.496   0.511   1.965
 5923SOL    HW118668   6.414   0.569   1.973
 5923SOL    HW218669   6.479   0.424   2.010
 5924SOL     OW18670   5.584   0.664   3.286
 5924SOL    HW118671   5.497   0.704   3.258
 5924SOL    HW218672   5.658   0.728   3.264
 5925SOL     OW18673   5.150   6.103   1.410
 5925SOL    HW118674   5.100   6.141   1.487
 5925SOL    HW218675   5.151   6.004   1.416
 5926SOL     OW18676   4.681   5.336   3.665
 5926SOL    HW118677   4.616   5.333   3.741
 5926SOL    HW218678   4.682   5.248   3.618
 5927SOL     OW18679   0.756   4.591   1.993
 5927SOL    HW118680   0.759   4.672   1.934
 5927SOL    HW218681   0.691   4.525   1.955
 5928SOL     OW18682   3.565   0.136   1.165
 5928SOL    HW118683   3.525   0.137   1.256
 5928SOL    HW218684   3.511   0.078   1.105
 5929SOL     OW18685   1.509   0.762   6.663
 5929SOL    HW118686   1.414   0.781   6.687
 5929SOL    HW218687   1.570   0.821   6.717
 5930SOL     OW18688   1.225   3.297   2.349
 5930SOL    HW118689   1.270   3.208   2.351
 5930SOL    HW218690   1.264   3.355   2.421
 5931SOL     OW18691   5.215   6.366   3.691
 5931SOL    HW118692   5.177   6.310   3.764
 5931SOL    HW218693   5.304   6.402   3.720
 5932SOL     OW18694   3.204   1.300   6.927
 5932SOL    HW118695   3.201   1.201   6.936
 5932SOL    HW218696   3.143   1.329   6.853
 5933SOL     OW18697   6.428   5.922   3.853
 5933SOL    HW118698   6.508   5.971   3.818
 5933SOL    HW218699   6.345   5.974   3.832
 5934SOL     OW18700   3.248   3.855   6.010
 5934SOL    HW118701   3.289   3.794   5.941
 5934SOL    HW218702   3.193   3.800   6.073
 5935SOL     OW18703   6.971   6.267   5.853
 5935SOL    HW118704   6.998   6.354   5.812
 5935SOL    HW218705   0.019   6.199   5.837
 5936SOL     OW18706   3.512   2.903   1.491
 5936SOL    HW118707   3.534   2.922   1.587
 5936SOL    HW218708   3.588   2.855   1.448
 5937SOL     OW18709   6.676   3.275   1.634
 5937SOL    HW118710   6.681   3.363   1.682
 5937SOL    HW218711   6.720   3.283   1.545
 5938SOL     OW18712   0.430   4.918   5.060
 5938SOL    HW118713   0.436   4.999   5.002
 5938SOL    HW218714   0.334   4.890   5.068
 5939SOL     OW18715   3.432   0.811   5.192
 5939SOL    HW118716   3.490   0.752   5.248
 5939SOL    HW218717   3.488   0.856   5.122
 5940SOL     OW18718   4.985   6.054   2.652
 5940SOL    HW118719   4.936   5.978   2.695
 5940SOL    HW218720   5.058   6.019   2.594
 5941SOL     OW18721   6.410   1.800   2.055
 5941SOL    HW118722   6.438   1.767   2.145
 5941SOL    HW218723   6.341   1.872   2.065
 5942SOL     OW18724   5.194   3.254   5.630
 5942SOL    HW118725   5.266   3.318   5.603
 5942SOL    HW218726   5.113   3.304   5.659
 5943SOL     OW18727   3.203   4.196   1.541
 5943SOL    HW118728   3.161   4.181   1.630
 5943SOL    HW218729   3.152   4.145   1.471
 5944SOL     OW18730   0.844   3.344   6.344
 5944SOL    HW118731   0.883   3.298   6.424
 5944SOL    HW218732   0.914   3.401   6.301
 5945SOL     OW18733   0.036   5.827   5.613
 5945SOL    HW118734   7.009   5.900   5.565
 5945SOL    HW218735   0.058   5.754   5.549
 5946SOL     OW18736   3.455   4.073   0.863
 5946SOL    HW118737   3.388   4.019   0.811
 5946SOL    HW218738   3.502   4.015   0.929
 5947SOL     OW18739   3.318   3.134   4.732
 5947SOL    HW118740   3.338   3.062   4.799
 5947SOL    HW218741   3.393   3.142   4.667
 5948SOL     OW18742   5.235   3.666   1.952
 5948SOL    HW118743   5.306   3.615   2.001
 5948SOL    HW218744   5.170   3.704   2.018
 5949SOL     OW18745   6.871   4.001   1.603
 5949SOL    HW118746   6.860   4.020   1.505
 5949SOL    HW218747   6.952   4.047   1.638
 5950SOL     OW18748   4.820   1.029   5.811
 5950SOL    HW118749   4.825   1.106   5.748
 5950SOL    HW218750   4.895   0.965   5.791
 5951SOL     OW18751   1.185   4.449   6.211
 5951SOL    HW118752   1.161   4.419   6.304
 5951SOL    HW218753   1.263   4.511   6.214
 5952SOL     OW18754   4.161   5.070   1.110
 5952SOL    HW118755   4.191   5.015   1.033
 5952SOL    HW218756   4.213   5.044   1.192
 5953SOL     OW18757   5.977   2.859   4.699
 5953SOL    HW118758   5.899   2.846   4.761
 5953SOL    HW218759   5.995   2.774   4.650
 5954SOL     OW18760   1.405   6.615   4.527
 5954SOL    HW118761   1.383   6.547   4.598
 5954SOL    HW218762   1.339   6.607   4.452
 5955SOL     OW18763   5.938   3.927   1.022
 5955SOL    HW118764   5.964   3.835   1.050
 5955SOL    HW218765   5.838   3.936   1.026
 5956SOL     OW18766   4.999   2.639   4.393
 5956SOL    HW118767   5.041   2.677   4.311
 5956SOL    HW218768   4.918   2.692   4.417
 5957SOL     OW18769   0.782   1.237   2.361
 5957SOL    HW118770   0.703   1.262   2.416
 5957SOL    HW218771   0.801   1.309   2.294
 5958SOL     OW18772   3.787   6.678   2.667
 5958SOL    HW118773   3.765   6.581   2.669
 5958SOL    HW218774   3.855   6.696   2.596
 5959SOL     OW18775   5.353   2.366   4.321
 5959SOL    HW118776   5.266   2.316   4.325
 5959SOL    HW218777   5.386   2.369   4.227
 5960SOL     OW18778   4.119   6.735   6.042
 5960SOL    HW118779   4.136   6.739   5.943
 5960SOL    HW218780   4.043   6.796   6.064
 5961SOL     OW18781   2.894   1.690   2.839
 5961SOL    HW118782   2.878   1.759   2.909
 5961SOL    HW218783   2.987   1.700   2.802
 5962SOL     OW18784   5.375   6.213   6.917
 5962SOL    HW118785   5.322   6.148   6.970
 5962SOL    HW218786   5.471   6.184   6.914
 5963SOL     OW18787   3.676   4.001   0.017
 5963SOL    HW118788   3.584   4.031   7.017
 5963SOL    HW218789   3.721   3.963   6.961
 5964SOL     OW18790   2.147   6.493   2.899
 5964SOL    HW118791   2.233   6.516   2.854
 5964SOL    HW218792   2.111   6.407   2.863
 5965SOL     OW18793   1.730   0.029   0.362
 5965SOL    HW118794   1.672   0.105   0.331
 5965SOL    HW218795   1.803   0.064   0.420
 5966SOL     OW18796   2.219   1.035   5.232
 5966SOL    HW118797   2.134   1.086   5.240
 5966SOL    HW218798   2.291   1.082   5.283
 5967SOL     OW18799   2.446   1.674   4.001
 5967SOL    HW118800   2.389   1.641   4.076
 5967SOL    HW218801   2.541   1.648   4.017
 5968SOL     OW18802   5.785   1.887   1.260
 5968SOL    HW118803   5.727   1.806   1.263
 5968SOL    HW218804   5.728   1.969   1.261
 5969SOL     OW18805   5.089   0.922   0.030
 5969SOL    HW118806   5.086   0.983   0.109
 5969SOL    HW218807   5.184   0.905   0.004
 5970SOL     OW18808   6.962   3.469   0.839
 5970SOL    HW118809   6.948   3.523   0.756
 5970SOL    HW218810   6.951   3.528   0.919
 5971SOL     OW18811   0.162   6.827   3.725
 5971SOL    HW118812   0.225   6.844   3.650
 5971SOL    HW218813   0.203   6.857   3.811
 5972SOL     OW18814   5.179   4.958   1.204
 5972SOL    HW118815   5.271   4.998   1.200
 5972SOL    HW218816   5.177   4.872   1.152
 5973SOL     OW18817   1.625   2.493   2.859
 5973SOL    HW118818   1.679   2.537   2.931
 5973SOL    HW218819   1.588   2.406   2.893
 5974SOL     OW18820   4.837   1.724   5.780
 5974SOL    HW118821   4.755   1.773   5.748
 5974SOL    HW218822   4.857   1.753   5.874
 5975SOL     OW18823   5.684   5.432   0.679
 5975SOL    HW118824   5.766   5.483   0.706
 5975SOL    HW218825   5.605   5.493   0.678
 5976SOL     OW18826   2.695   3.797   5.661
 5976SOL    HW118827   2.644   3.710   5.658
 5976SOL    HW218828   2.790   3.778   5.685
 5977SOL     OW18829   0.141   5.226   6.887
 5977SOL    HW118830   0.225   5.280   6.894
 5977SOL    HW218831   0.156   5.134   6.923
 5978SOL     OW18832   3.260   5.184   0.820
 5978SOL    HW118833   3.304   5.181   0.910
 5978SOL    HW218834   3.218   5.274   0.807
 5979SOL     OW18835   6.594   0.434   1.442
 5979SOL    HW118836   6.505   0.396   1.467
 5979SOL    HW218837   6.594   0.532   1.459
 5980SOL     OW18838   3.749   3.332   1.870
 5980SOL    HW118839   3.777   3.373   1.957
 5980SOL    HW218840   3.650   3.334   1.862
 5981SOL     OW18841   2.687   2.478   0.017
 5981SOL    HW118842   2.617   2.527   0.070
 5981SOL    HW218843   2.749   2.431   0.080
 5982SOL     OW18844   6.542   2.521   1.329
 5982SOL    HW118845   6.612   2.578   1.373
 5982SOL    HW218846   6.476   2.578   1.281
 5983SOL     OW18847   0.207   0.707   3.904
 5983SOL    HW118848   0.167   0.654   3.829
 5983SOL    HW218849   0.203   0.805   3.881
 5984SOL     OW18850   6.261   6.704   3.200
 5984SOL    HW118851   6.356   6.705   3.168
 5984SOL    HW218852   6.232   6.797   3.222
 5985SOL     OW18853   5.788   2.436   2.434
 5985SOL    HW118854   5.711   2.373   2.441
 5985SOL    HW218855   5.753   2.529   2.416
 5986SOL     OW18856   4.289   3.745   5.256
 5986SOL    HW118857   4.345   3.823   5.228
 5986SOL    HW218858   4.340   3.661   5.243
 5987SOL     OW18859   6.872   0.262   5.611
 5987SOL    HW118860   6.879   0.228   5.704
 5987SOL    HW218861   6.785   0.233   5.571
 5988SOL     OW18862   1.766   2.418   6.702
 5988SOL    HW118863   1.706   2.429   6.623
 5988SOL    HW218864   1.838   2.351   6.681
 5989SOL     OW18865   0.574   5.681   6.903
 5989SOL    HW118866   0.556   5.582   6.905
 5989SOL    HW218867   0.638   5.701   6.829
 5990SOL     OW18868   3.949   4.973   1.651
 5990SOL    HW118869   3.988   5.020   1.730
 5990SOL    HW218870   4.022   4.946   1.588
 5991SOL     OW18871   5.177   6.535   0.980
 5991SOL    HW118872   5.164   6.456   1.040
 5991SOL    HW218873   5.177   6.505   0.885
 5992SOL     OW18874   3.077   0.190   2.181
 5992SOL    HW118875   3.083   0.290   2.174
 5992SOL    HW218876   3.122   0.159   2.264
 5993SOL     OW18877   6.532   1.787   0.212
 5993SOL    HW118878   6.435   1.812   0.213
 5993SOL    HW218879   6.561   1.762   0.304
 5994SOL     OW18880   0.675   3.020   0.407
 5994SOL    HW118881   0.620   2.969   0.342
 5994SOL    HW218882   0.673   2.975   0.496
 5995SOL     OW18883   4.962   3.810   1.203
 5995SOL    HW118884   5.047   3.788   1.250
 5995SOL    HW218885   4.929   3.899   1.234
 5996SOL     OW18886   2.997   5.183   1.578
 5996SOL    HW118887   2.933   5.138   1.515
 5996SOL    HW218888   3.090   5.155   1.556
 5997SOL     OW18889   6.934   0.076   3.171
 5997SOL    HW118890   6.935   0.006   3.243
 5997SOL    HW218891   6.867   0.146   3.194
 5998SOL     OW18892   6.948   0.293   1.218
 5998SOL    HW118893   6.939   0.210   1.164
 5998SOL    HW218894   0.009   0.340   1.194
 5999SOL     OW18895   4.672   2.866   1.247
 5999SOL    HW118896   4.686   2.827   1.338
 5999SOL    HW218897   4.754   2.918   1.220
 6000SOL     OW18898   7.023   4.654   0.681
 6000SOL    HW118899   0.022   4.688   0.773
 6000SOL    HW218900   6.953   4.712   0.641
 6001SOL     OW18901   5.901   6.048   5.178
 6001SOL    HW118902   5.823   6.108   5.157
 6001SOL    HW218903   5.973   6.102   5.222
 6002SOL     OW18904   5.759   5.904   4.874
 6002SOL    HW118905   5.855   5.931   4.868
 6002SOL    HW218906   5.748   5.840   4.951
 6003SOL     OW18907   0.152   3.155   4.510
 6003SOL    HW118908   0.096   3.118   4.435
 6003SOL    HW218909   0.175   3.250   4.490
 6004SOL     OW18910   5.149   2.861   3.807
 6004SOL    HW118911   5.199   2.850   3.893
 6004SOL    HW218912   5.177   2.946   3.763
 6005SOL     OW18913   3.519   5.624   6.233
 6005SOL    HW118914   3.534   5.567   6.152
 6005SOL    HW218915   3.439   5.591   6.283
 6006SOL     OW18916   3.575   5.965   5.650
 6006SOL    HW118917   3.595   5.906   5.728
 6006SOL    HW218918   3.655   5.970   5.590
 6007SOL     OW18919   1.647   5.635   5.426
 6007SOL    HW118920   1.659   5.634   5.525
 6007SOL    HW218921   1.596   5.554   5.398
 6008SOL     OW18922   3.024   4.805   5.623
 6008SOL    HW118923   3.080   4.791   5.541
 6008SOL    HW218924   2.960   4.728   5.633
 6009SOL     OW18925   3.986   5.138   3.328
 6009SOL    HW118926   3.925   5.200   3.279
 6009SOL    HW218927   4.066   5.188   3.361
 6010SOL     OW18928   0.230   5.604   5.103
 6010SOL    HW118929   0.256   5.655   5.021
 6010SOL    HW218930   0.302   5.612   5.171
 6011SOL     OW18931   6.522   1.858   1.806
 6011SOL    HW118932   6.455   1.842   1.734
 6011SOL    HW218933   6.477   1.853   1.896
 6012SOL     OW18934   0.270   0.302   5.901
 6012SOL    HW118935   0.286   0.206   5.877
 6012SOL    HW218936   0.187   0.309   5.956
 6013SOL     OW18937   5.863   1.537   2.496
 6013SOL    HW118938   5.782   1.540   2.438
 6013SOL    HW218939   5.852   1.466   2.565
 6014SOL     OW18940   4.078   3.235   4.182
 6014SOL    HW118941   4.156   3.178   4.207
 6014SOL    HW218942   4.031   3.265   4.265
 6015SOL     OW18943   6.241   1.651   4.724
 6015SOL    HW118944   6.252   1.689   4.817
 6015SOL    HW218945   6.177   1.574   4.727
 6016SOL     OW18946   5.466   1.645   4.451
 6016SOL    HW118947   5.390   1.688   4.500
 6016SOL    HW218948   5.549   1.653   4.505
 6017SOL     OW18949   6.588   2.656   5.775
 6017SOL    HW118950   6.669   2.711   5.795
 6017SOL    HW218951   6.592   2.571   5.828
 6018SOL     OW18952   3.524   1.216   6.252
 6018SOL    HW118953   3.617   1.234   6.283
 6018SOL    HW218954   3.462   1.217   6.331
 6019SOL     OW18955   6.832   3.667   6.860
 6019SOL    HW118956   6.863   3.618   6.942
 6019SOL    HW218957   6.733   3.679   6.864
 6020SOL     OW18958   0.601   4.189   0.168
 6020SOL    HW118959   0.529   4.256   0.150
 6020SOL    HW218960   0.577   4.103   0.121
 6021SOL     OW18961   4.405   0.131   3.205
 6021SOL    HW118962   4.398   0.178   3.293
 6021SOL    HW218963   4.489   0.161   3.159
 6022SOL     OW18964   6.353   1.815   1.594
 6022SOL    HW118965   6.336   1.729   1.545
 6022SOL    HW218966   6.306   1.890   1.548
 6023SOL     OW18967   4.390   1.068   1.542
 6023SOL    HW118968   4.393   0.978   1.498
 6023SOL    HW218969   4.444   1.133   1.488
 6024SOL     OW18970   0.455   5.470   0.173
 6024SOL    HW118971   0.423   5.384   0.133
 6024SOL    HW218972   0.495   5.451   0.263
 6025SOL     OW18973   2.235   1.610   4.626
 6025SOL    HW118974   2.187   1.564   4.701
 6025SOL    HW218975   2.333   1.596   4.635
 6026SOL     OW18976   6.650   4.461   4.183
 6026SOL    HW118977   6.614   4.376   4.222
 6026SOL    HW218978   6.695   4.514   4.255
 6027SOL     OW18979   6.086   3.487   5.940
 6027SOL    HW118980   6.155   3.444   5.998
 6027SOL    HW218981   6.059   3.424   5.867
 6028SOL     OW18982   5.703   4.872   6.202
 6028SOL    HW118983   5.622   4.929   6.212
 6028SOL    HW218984   5.680   4.789   6.152
 6029SOL     OW18985   2.342   0.899   3.235
 6029SOL    HW118986   2.312   0.992   3.255
 6029SOL    HW218987   2.264   0.837   3.238
 6030SOL     OW18988   5.348   4.037   5.181
 6030SOL    HW118989   5.261   4.019   5.135
 6030SOL    HW218990   5.342   4.122   5.233
 6031SOL     OW18991   0.330   6.051   5.473
 6031SOL    HW118992   0.386   6.133   5.488
 6031SOL    HW218993   0.335   5.992   5.554
 6032SOL     OW18994   3.380   5.661   3.886
 6032SOL    HW118995   3.318   5.637   3.812
 6032SOL    HW218996   3.334   5.647   3.974
 6033SOL     OW18997   2.017   1.558   2.762
 6033SOL    HW118998   2.037   1.525   2.670
 6033SOL    HW218999   1.997   1.656   2.758
 6034SOL     OW19000   1.585   0.731   0.057
 6034SOL    HW119001   1.679   0.741   0.089
 6034SOL    HW219002   1.531   0.683   0.126
 6035SOL     OW19003   1.514   0.763   2.967
 6035SOL    HW119004   1.485   0.856   2.945
 6035SOL    HW219005   1.567   0.726   2.891
 6036SOL     OW19006   6.318   2.572   0.608
 6036SOL    HW119007   6.353   2.486   0.647
 6036SOL    HW219008   6.291   2.556   0.513
 6037SOL     OW19009   4.660   2.797   0.809
 6037SOL    HW119010   4.738   2.840   0.854
 6037SOL    HW219011   4.680   2.783   0.712
 6038SOL     OW19012   0.887   2.403   5.840
 6038SOL    HW119013   0.827   2.420   5.761
 6038SOL    HW219014   0.975   2.447   5.823
 6039SOL     OW19015   3.306   4.019   3.688
 6039SOL    HW119016   3.299   3.990   3.784
 6039SOL    HW219017   3.219   4.003   3.642
 6040SOL     OW19018   0.763   1.510   0.057
 6040SOL    HW119019   0.851   1.463   0.062
 6040SOL    HW219020   0.778   1.608   0.044
 6041SOL     OW19021   2.926   3.128   6.124
 6041SOL    HW119022   2.881   3.206   6.082
 6041SOL    HW219023   2.874   3.098   6.204
 6042SOL     OW19024   3.126   5.440   3.413
 6042SOL    HW119025   3.091   5.488   3.332
 6042SOL    HW219026   3.110   5.342   3.402
 6043SOL     OW19027   1.865   0.810   3.620
 6043SOL    HW119028   1.824   0.876   3.683
 6043SOL    HW219029   1.880   0.723   3.667
 6044SOL     OW19030   0.937   2.116   1.661
 6044SOL    HW119031   0.996   2.147   1.736
 6044SOL    HW219032   0.890   2.032   1.688
 6045SOL     OW19033   4.918   2.323   3.899
 6045SOL    HW119034   4.851   2.277   3.840
 6045SOL    HW219035   4.985   2.371   3.842
 6046SOL     OW19036   3.266   3.280   2.480
 6046SOL    HW119037   3.182   3.305   2.431
 6046SOL    HW219038   3.248   3.201   2.539
 6047SOL     OW19039   5.814   1.622   0.286
 6047SOL    HW119040   5.863   1.536   0.297
 6047SOL    HW219041   5.717   1.603   0.268
 6048SOL     OW19042   5.622   5.826   4.343
 6048SOL    HW119043   5.670   5.890   4.284
 6048SOL    HW219044   5.524   5.846   4.340
 6049SOL     OW19045   4.270   4.792   5.310
 6049SOL    HW119046   4.223   4.879   5.294
 6049SOL    HW219047   4.242   4.755   5.398
 6050SOL     OW19048   3.843   5.894   1.529
 6050SOL    HW119049   3.876   5.923   1.439
 6050SOL    HW219050   3.915   5.907   1.597
 6051SOL     OW19051   1.295   1.142   3.111
 6051SOL    HW119052   1.236   1.086   3.052
 6051SOL    HW219053   1.238   1.200   3.169
 6052SOL     OW19054   5.444   0.053   0.310
 6052SOL    HW119055   5.380   0.129   0.299
 6052SOL    HW219056   5.489   0.059   0.399
 6053SOL     OW19057   4.244   2.514   6.013
 6053SOL    HW119058   4.207   2.590   6.066
 6053SOL    HW219059   4.303   2.458   6.071
 6054SOL     OW19060   4.039   4.674   0.604
 6054SOL    HW119061   4.097   4.595   0.588
 6054SOL    HW219062   4.003   4.671   0.698
 6055SOL     OW19063   3.326   4.543   0.303
 6055SOL    HW119064   3.401   4.608   0.316
 6055SOL    HW219065   3.239   4.593   0.302
 6056SOL     OW19066   6.169   4.422   4.927
 6056SOL    HW119067   6.210   4.459   4.843
 6056SOL    HW219068   6.146   4.326   4.913
 6057SOL     OW19069   4.977   0.411   3.138
 6057SOL    HW119070   4.942   0.477   3.072
 6057SOL    HW219071   5.046   0.454   3.196
 6058SOL     OW19072   5.470   2.060   6.252
 6058SOL    HW119073   5.481   2.014   6.164
 6058SOL    HW219074   5.427   1.998   6.318
 6059SOL     OW19075   4.527   4.479   6.652
 6059SOL    HW119076   4.601   4.416   6.629
 6059SOL    HW219077   4.501   4.466   6.748
 6060SOL     OW19078   2.801   2.968   0.139
 6060SOL    HW119079   2.832   3.054   0.178
 6060SOL    HW219080   2.762   2.985   0.048
 6061SOL     OW19081   3.619   5.202   0.125
 6061SOL    HW119082   3.609   5.166   0.217
 6061SOL    HW219083   3.542   5.173   0.068
 6062SOL     OW19084   2.668   2.933   0.669
 6062SOL    HW119085   2.586   2.932   0.612
 6062SOL    HW219086   2.742   2.884   0.623
 6063SOL     OW19087   3.560   5.485   6.021
 6063SOL    HW119088   3.565   5.583   6.004
 6063SOL    HW219089   3.495   5.443   5.957
 6064SOL     OW19090   0.103   5.992   0.697
 6064SOL    HW119091   0.087   5.894   0.705
 6064SOL    HW219092   0.182   6.008   0.638
 6065SOL     OW19093   1.332   5.847   2.188
 6065SOL    HW119094   1.391   5.777   2.226
 6065SOL    HW219095   1.321   5.831   2.090
 6066SOL     OW19096   4.691   6.911   3.774
 6066SOL    HW119097   4.745   6.980   3.822
 6066SOL    HW219098   4.640   6.954   3.700
 6067SOL     OW19099   6.009   0.347   6.096
 6067SOL    HW119100   5.999   0.442   6.123
 6067SOL    HW219101   5.987   0.288   6.173
 6068SOL     OW19102   4.510   1.419   5.667
 6068SOL    HW119103   4.445   1.426   5.742
 6068SOL    HW219104   4.531   1.510   5.631
 6069SOL     OW19105   6.384   3.484   6.385
 6069SOL    HW119106   6.459   3.428   6.349
 6069SOL    HW219107   6.344   3.537   6.311
 6070SOL     OW19108   2.927   2.019   1.147
 6070SOL    HW119109   3.018   1.978   1.146
 6070SOL    HW219110   2.931   2.110   1.106
 6071SOL     OW19111   5.871   0.159   5.451
 6071SOL    HW119112   5.852   0.256   5.438
 6071SOL    HW219113   5.838   0.108   5.371
 6072SOL     OW19114   0.121   2.791   0.571
 6072SOL    HW119115   0.035   2.840   0.588
 6072SOL    HW219116   0.134   2.721   0.641
 6073SOL     OW19117   5.103   2.988   1.214
 6073SOL    HW119118   5.115   3.071   1.268
 6073SOL    HW219119   5.016   2.992   1.164
 6074SOL     OW19120   1.057   5.931   2.501
 6074SOL    HW119121   1.017   5.996   2.566
 6074SOL    HW219122   1.035   5.959   2.407
 6075SOL     OW19123   4.974   6.567   6.376
 6075SOL    HW119124   4.936   6.558   6.468
 6075SOL    HW219125   4.900   6.566   6.308
 6076SOL     OW19126   1.888   5.040   4.159
 6076SOL    HW119127   1.824   5.106   4.121
 6076SOL    HW219128   1.900   4.964   4.095
 6077SOL     OW19129   6.028   6.829   1.708
 6077SOL    HW119130   5.932   6.827   1.680
 6077SOL    HW219131   6.080   6.766   1.651
 6078SOL     OW19132   4.300   3.261   0.047
 6078SOL    HW119133   4.251   3.190   7.020
 6078SOL    HW219134   4.381   3.289   7.019
 6079SOL     OW19135   3.682   4.282   6.204
 6079SOL    HW119136   3.705   4.187   6.226
 6079SOL    HW219137   3.718   4.342   6.276
 6080SOL     OW19138   0.623   4.280   6.837
 6080SOL    HW119139   0.687   4.357   6.831
 6080SOL    HW219140   0.675   4.195   6.844
 6081SOL     OW19141   1.258   3.116   4.539
 6081SOL    HW119142   1.169   3.161   4.551
 6081SOL    HW219143   1.257   3.063   4.454
 6082SOL     OW19144   4.002   1.353   1.092
 6082SOL    HW119145   3.920   1.297   1.083
 6082SOL    HW219146   4.066   1.310   1.154
 6083SOL     OW19147   4.763   6.552   6.202
 6083SOL    HW119148   4.764   6.466   6.150
 6083SOL    HW219149   4.678   6.558   6.255
 6084SOL     OW19150   0.454   0.022   2.733
 6084SOL    HW119151   0.436   6.948   2.742
 6084SOL    HW219152   0.437   0.067   2.820
 6085SOL     OW19153   0.229   5.972   0.091
 6085SOL    HW119154   0.175   5.894   0.121
 6085SOL    HW219155   0.239   6.037   0.166
 6086SOL     OW19156   3.862   3.451   6.629
 6086SOL    HW119157   3.805   3.532   6.638
 6086SOL    HW219158   3.947   3.464   6.681
 6087SOL     OW19159   5.156   6.469   0.712
 6087SOL    HW119160   5.233   6.433   0.658
 6087SOL    HW219161   5.081   6.493   0.651
 6088SOL     OW19162   5.259   6.977   3.639
 6088SOL    HW119163   5.239   6.940   3.730
 6088SOL    HW219164   5.212   0.040   3.627
 6089SOL     OW19165   6.113   3.035   3.082
 6089SOL    HW119166   6.189   3.080   3.128
 6089SOL    HW219167   6.119   2.936   3.095
 6090SOL     OW19168   3.903   6.560   4.311
 6090SOL    HW119169   3.835   6.579   4.383
 6090SOL    HW219170   3.857   6.515   4.234
 6091SOL     OW19171   2.342   1.176   1.416
 6091SOL    HW119172   2.340   1.113   1.339
 6091SOL    HW219173   2.278   1.252   1.399
 6092SOL     OW19174   4.377   6.250   1.843
 6092SOL    HW119175   4.440   6.314   1.888
 6092SOL    HW219176   4.407   6.235   1.749
 6093SOL     OW19177   2.508   1.439   2.521
 6093SOL    HW119178   2.532   1.348   2.487
 6093SOL    HW219179   2.523   1.507   2.448
 6094SOL     OW19180   0.468   6.333   4.703
 6094SOL    HW119181   0.525   6.414   4.687
 6094SOL    HW219182   0.401   6.325   4.629
 6095SOL     OW19183   4.247   5.934   0.122
 6095SOL    HW119184   4.259   5.965   0.027
 6095SOL    HW219185   4.315   5.864   0.144
 6096SOL     OW19186   6.142   6.459   2.148
 6096SOL    HW119187   6.119   6.473   2.245
 6096SOL    HW219188   6.106   6.371   2.118
 6097SOL     OW19189   1.960   6.048   2.255
 6097SOL    HW119190   2.032   6.115   2.275
 6097SOL    HW219191   1.905   6.081   2.178
 6098SOL     OW19192   6.724   1.234   5.021
 6098SOL    HW119193   6.631   1.249   5.054
 6098SOL    HW219194   6.790   1.264   5.091
 6099SOL     OW19195   4.533   6.552   6.349
 6099SOL    HW119196   4.529   6.453   6.338
 6099SOL    HW219197   4.456   6.594   6.300
 6100SOL     OW19198   6.709   6.020   3.982
 6100SOL    HW119199   6.692   5.927   4.012
 6100SOL    HW219200   6.663   6.036   3.895
 6101SOL     OW19201   6.554   2.224   1.316
 6101SOL    HW119202   6.635   2.165   1.321
 6101SOL    HW219203   6.584   2.319   1.310
 6102SOL     OW19204   4.563   6.394   1.981
 6102SOL    HW119205   4.551   6.382   2.080
 6102SOL    HW219206   4.611   6.480   1.964
 6103SOL     OW19207   0.031   1.301   1.320
 6103SOL    HW119208   7.015   1.234   1.258
 6103SOL    HW219209   0.094   1.255   1.382
 6104SOL     OW19210   5.944   1.537   4.534
 6104SOL    HW119211   5.909   1.511   4.444
 6104SOL    HW219212   6.012   1.470   4.565
 6105SOL     OW19213   2.532   5.931   5.701
 6105SOL    HW119214   2.487   5.900   5.617
 6105SOL    HW219215   2.537   5.855   5.766
 6106SOL     OW19216   6.813   4.347   6.895
 6106SOL    HW119217   6.873   4.271   6.868
 6106SOL    HW219218   6.864   4.410   6.954
 6107SOL     OW19219   4.724   4.826   5.187
 6107SOL    HW119220   4.751   4.840   5.282
 6107SOL    HW219221   4.803   4.793   5.135
 6108SOL     OW19222   1.699   1.531   1.532
 6108SOL    HW119223   1.730   1.571   1.618
 6108SOL    HW219224   1.725   1.592   1.456
 6109SOL     OW19225   6.056   6.324   3.140
 6109SOL    HW119226   6.122   6.362   3.205
 6109SOL    HW219227   5.964   6.360   3.161
 6110SOL     OW19228   1.961   1.809   5.496
 6110SOL    HW119229   2.034   1.830   5.431
 6110SOL    HW219230   1.880   1.863   5.474
 6111SOL     OW19231   1.931   4.109   1.498
 6111SOL    HW119232   1.996   4.141   1.428
 6111SOL    HW219233   1.844   4.088   1.455
 6112SOL     OW19234   4.704   0.153   2.805
 6112SOL    HW119235   4.636   0.080   2.795
 6112SOL    HW219236   4.774   0.144   2.735
 6113SOL     OW19237   1.980   5.682   6.727
 6113SOL    HW119238   2.057   5.729   6.684
 6113SOL    HW219239   1.894   5.719   6.691
 6114SOL     OW19240   5.103   1.331   0.717
 6114SOL    HW119241   5.018   1.310   0.766
 6114SOL    HW219242   5.080   1.365   0.626
 6115SOL     OW19243   0.987   0.810   5.172
 6115SOL    HW119244   0.993   0.892   5.115
 6115SOL    HW219245   0.902   0.812   5.225
 6116SOL     OW19246   4.253   1.995   5.071
 6116SOL    HW119247   4.352   1.985   5.073
 6116SOL    HW219248   4.221   1.990   4.976
 6117SOL     OW19249   1.413   1.891   2.596
 6117SOL    HW119250   1.385   1.796   2.602
 6117SOL    HW219251   1.444   1.911   2.503
 6118SOL     OW19252   5.977   0.762   0.110
 6118SOL    HW119253   5.903   0.767   0.042
 6118SOL    HW219254   6.049   0.826   0.085
 6119SOL     OW19255   0.200   1.808   0.782
 6119SOL    HW119256   0.291   1.775   0.810
 6119SOL    HW219257   0.139   1.730   0.772
 6120SOL     OW19258   2.100   0.205   5.899
 6120SOL    HW119259   2.108   0.217   5.998
 6120SOL    HW219260   2.003   0.205   5.873
 6121SOL     OW19261   0.825   2.880   4.919
 6121SOL    HW119262   0.866   2.865   5.009
 6121SOL    HW219263   0.888   2.851   4.848
 6122SOL     OW19264   5.090   5.609   5.546
 6122SOL    HW119265   5.131   5.682   5.601
 6122SOL    HW219266   4.992   5.606   5.563
 6123SOL     OW19267   6.022   1.461   5.318
 6123SOL    HW119268   5.982   1.370   5.328
 6123SOL    HW219269   6.033   1.503   5.407
 6124SOL     OW19270   2.217   0.027   4.298
 6124SOL    HW119271   2.255   6.961   4.322
 6124SOL    HW219272   2.201   0.032   4.200
 6125SOL     OW19273   1.822   2.971   6.845
 6125SOL    HW119274   1.827   2.872   6.834
 6125SOL    HW219275   1.832   3.015   6.756
 6126SOL     OW19276   6.493   2.995   5.246
 6126SOL    HW119277   6.553   2.918   5.265
 6126SOL    HW219278   6.536   3.055   5.178
 6127SOL     OW19279   4.112   2.112   1.339
 6127SOL    HW119280   4.170   2.175   1.287
 6127SOL    HW219281   4.149   2.100   1.431
 6128SOL     OW19282   6.000   6.413   0.407
 6128SOL    HW119283   5.935   6.472   0.455
 6128SOL    HW219284   6.021   6.454   0.318
 6129SOL     OW19285   1.581   4.781   3.037
 6129SOL    HW119286   1.570   4.704   2.974
 6129SOL    HW219287   1.665   4.769   3.090
 6130SOL     OW19288   5.105   3.227   1.401
 6130SOL    HW119289   5.071   3.179   1.482
 6130SOL    HW219290   5.184   3.283   1.427
 6131SOL     OW19291   6.985   1.897   2.521
 6131SOL    HW119292   0.034   1.963   2.537
 6131SOL    HW219293   6.947   1.911   2.429
 6132SOL     OW19294   2.963   2.153   6.630
 6132SOL    HW119295   2.939   2.082   6.697
 6132SOL    HW219296   3.023   2.114   6.561
 6133SOL     OW19297   1.731   2.342   3.932
 6133SOL    HW119298   1.670   2.266   3.956
 6133SOL    HW219299   1.719   2.416   3.998
 6134SOL     OW19300   5.073   6.189   6.073
 6134SOL    HW119301   5.070   6.143   6.161
 6134SOL    HW219302   5.100   6.123   6.002
 6135SOL     OW19303   6.144   0.556   6.976
 6135SOL    HW119304   6.168   0.463   6.948
 6135SOL    HW219305   6.123   0.611   6.894
 6136SOL     OW19306   1.136   2.772   2.494
 6136SOL    HW119307   1.104   2.712   2.567
 6136SOL    HW219308   1.148   2.719   2.410
 6137SOL     OW19309   0.002   4.288   2.504
 6137SOL    HW119310   6.935   4.280   2.544
 6137SOL    HW219311   0.015   4.381   2.469
 6138SOL     OW19312   2.806   0.162   2.133
 6138SOL    HW119313   2.900   0.195   2.128
 6138SOL    HW219314   2.744   0.240   2.141
 6139SOL     OW19315   1.844   6.729   5.578
 6139SOL    HW119316   1.893   6.697   5.497
 6139SOL    HW219317   1.779   6.660   5.607
 6140SOL     OW19318   1.860   0.373   3.285
 6140SOL    HW119319   1.822   0.357   3.194
 6140SOL    HW219320   1.938   0.435   3.278
 6141SOL     OW19321   0.306   0.446   5.674
 6141SOL    HW119322   0.286   0.421   5.768
 6141SOL    HW219323   0.398   0.485   5.668
 6142SOL     OW19324   0.392   0.876   0.491
 6142SOL    HW119325   0.335   0.904   0.568
 6142SOL    HW219326   0.422   0.957   0.440
 6143SOL     OW19327   5.828   3.428   6.320
 6143SOL    HW119328   5.743   3.469   6.285
 6143SOL    HW219329   5.889   3.500   6.352
 6144SOL     OW19330   5.036   4.277   2.721
 6144SOL    HW119331   5.013   4.345   2.651
 6144SOL    HW219332   4.981   4.195   2.708
 6145SOL     OW19333   5.024   3.541   4.661
 6145SOL    HW119334   5.060   3.548   4.568
 6145SOL    HW219335   4.983   3.451   4.674
 6146SOL     OW19336   4.665   0.768   4.746
 6146SOL    HW119337   4.696   0.676   4.767
 6146SOL    HW219338   4.597   0.797   4.813
 6147SOL     OW19339   2.533   2.584   3.961
 6147SOL    HW119340   2.520   2.485   3.963
 6147SOL    HW219341   2.530   2.619   4.055
 6148SOL     OW19342   3.541   5.596   6.685
 6148SOL    HW119343   3.588   5.508   6.687
 6148SOL    HW219344   3.574   5.651   6.609
 6149SOL     OW19345   2.483   0.191   1.803
 6149SOL    HW119346   2.439   0.255   1.866
 6149SOL    HW219347   2.413   0.141   1.752
 6150SOL     OW19348   6.150   4.079   6.371
 6150SOL    HW119349   6.127   4.056   6.465
 6150SOL    HW219350   6.078   4.138   6.333
 6151SOL     OW19351   4.739   4.566   4.409
 6151SOL    HW119352   4.830   4.523   4.409
 6151SOL    HW219353   4.670   4.498   4.435
 6152SOL     OW19354   0.508   4.578   3.977
 6152SOL    HW119355   0.428   4.583   4.037
 6152SOL    HW219356   0.543   4.484   3.978
 6153SOL     OW19357   4.921   5.455   1.110
 6153SOL    HW119358   4.933   5.545   1.069
 6153SOL    HW219359   4.894   5.465   1.206
 6154SOL     OW19360   5.650   3.081   2.463
 6154SOL    HW119361   5.674   3.016   2.391
 6154SOL    HW219362   5.724   3.083   2.531
 6155SOL     OW19363   2.566   0.744   2.893
 6155SOL    HW119364   2.548   0.732   2.990
 6155SOL    HW219365   2.619   0.828   2.879
 6156SOL     OW19366   5.254   4.583   1.281
 6156SOL    HW119367   5.267   4.616   1.375
 6156SOL    HW219368   5.304   4.497   1.269
 6157SOL     OW19369   1.170   2.050   2.930
 6157SOL    HW119370   1.091   2.076   2.986
 6157SOL    HW219371   1.251   2.098   2.964
 6158SOL     OW19372   2.535   2.826   5.509
 6158SOL    HW119373   2.595   2.758   5.551
 6158SOL    HW219374   2.590   2.894   5.461
 6159SOL     OW19375   6.229   1.740   0.253
 6159SOL    HW119376   6.238   1.814   0.319
 6159SOL    HW219377   6.199   1.657   0.300
 6160SOL     OW19378   0.549   6.855   6.756
 6160SOL    HW119379   0.573   6.943   6.798
 6160SOL    HW219380   0.630   6.812   6.718
 6161SOL     OW19381   4.921   2.192   6.569
 6161SOL    HW119382   4.938   2.223   6.476
 6161SOL    HW219383   5.007   2.165   6.611
 6162SOL     OW19384   6.495   5.680   2.748
 6162SOL    HW119385   6.591   5.692   2.724
 6162SOL    HW219386   6.437   5.713   2.673
 6163SOL     OW19387   5.902   6.503   2.840
 6163SOL    HW119388   5.954   6.548   2.913
 6163SOL    HW219389   5.930   6.408   2.832
 6164SOL     OW19390   4.094   3.539   4.149
 6164SOL    HW119391   4.110   3.441   4.147
 6164SOL    HW219392   4.086   3.574   4.055
 6165SOL     OW19393   4.197   2.089   0.396
 6165SOL    HW119394   4.189   2.065   0.299
 6165SOL    HW219395   4.193   2.188   0.407
 6166SOL     OW19396   0.618   2.280   6.935
 6166SOL    HW119397   0.685   2.355   6.927
 6166SOL    HW219398   0.625   2.220   6.856
 6167SOL     OW19399   1.278   3.438   3.782
 6167SOL    HW119400   1.301   3.447   3.879
 6167SOL    HW219401   1.189   3.393   3.773
 6168SOL     OW19402   6.959   2.795   4.382
 6168SOL    HW119403   7.014   2.768   4.461
 6168SOL    HW219404   6.982   2.889   4.357
 6169SOL     OW19405   1.368   0.047   6.971
 6169SOL    HW119406   1.388   0.043   6.873
 6169SOL    HW219407   1.414   0.127   7.011
 6170SOL     OW19408   3.472   4.402   6.933
 6170SOL    HW119409   3.498   4.478   6.873
 6170SOL    HW219410   3.458   4.320   6.878
 6171SOL     OW19411   1.651   5.084   2.673
 6171SOL    HW119412   1.721   5.026   2.631
 6171SOL    HW219413   1.564   5.035   2.675
 6172SOL     OW19414   1.743   7.006   2.674
 6172SOL    HW119415   1.650   7.014   2.711
 6172SOL    HW219416   1.783   6.919   2.704
 6173SOL     OW19417   1.102   4.367   3.377
 6173SOL    HW119418   1.130   4.290   3.320
 6173SOL    HW219419   1.045   4.430   3.324
 6174SOL     OW19420   5.805   4.966   2.529
 6174SOL    HW119421   5.742   4.944   2.454
 6174SOL    HW219422   5.889   4.912   2.518
 6175SOL     OW19423   5.179   6.566   2.664
 6175SOL    HW119424   5.143   6.619   2.741
 6175SOL    HW219425   5.103   6.533   2.609
 6176SOL     OW19426   5.890   2.986   6.314
 6176SOL    HW119427   5.900   2.966   6.411
 6176SOL    HW219428   5.940   2.917   6.261
 6177SOL     OW19429   5.413   2.120   1.940
 6177SOL    HW119430   5.416   2.098   1.842
 6177SOL    HW219431   5.498   2.093   1.983
 6178SOL     OW19432   4.941   3.788   0.482
 6178SOL    HW119433   4.897   3.770   0.570
 6178SOL    HW219434   4.963   3.885   0.475
 6179SOL     OW19435   0.627   2.880   5.323
 6179SOL    HW119436   0.673   2.885   5.412
 6179SOL    HW219437   0.685   2.921   5.253
 6180SOL     OW19438   3.624   6.787   1.075
 6180SOL    HW119439   3.599   6.691   1.080
 6180SOL    HW219440   3.687   6.809   1.150
 6181SOL     OW19441   5.170   6.185   6.722
 6181SOL    HW119442   5.237   6.229   6.782
 6181SOL    HW219443   5.110   6.126   6.776
 6182SOL     OW19444   5.397   5.304   5.598
 6182SOL    HW119445   5.368   5.262   5.513
 6182SOL    HW219446   5.491   5.276   5.619
 6183SOL     OW19447   2.592   7.002   2.808
 6183SOL    HW119448   2.635   7.012   2.897
 6183SOL    HW219449   2.529   6.924   2.809
 6184SOL     OW19450   0.934   0.314   6.622
 6184SOL    HW119451   0.880   0.232   6.635
 6184SOL    HW219452   1.020   0.291   6.576
 6185SOL     OW19453   6.778   4.096   6.361
 6185SOL    HW119454   6.685   4.100   6.397
 6185SOL    HW219455   6.807   4.187   6.332
 6186SOL     OW19456   5.489   0.319   3.753
 6186SOL    HW119457   5.556   0.249   3.728
 6186SOL    HW219458   5.525   0.410   3.733
 6187SOL     OW19459   4.686   4.284   4.146
 6187SOL    HW119460   4.663   4.351   4.217
 6187SOL    HW219461   4.786   4.275   4.140
 6188SOL     OW19462   3.167   6.283   1.340
 6188SOL    HW119463   3.230   6.222   1.293
 6188SOL    HW219464   3.100   6.319   1.275
 6189SOL     OW19465   5.217   5.457   3.271
 6189SOL    HW119466   5.166   5.538   3.243
 6189SOL    HW219467   5.281   5.431   3.199
 6190SOL     OW19468   4.924   2.789   6.083
 6190SOL    HW119469   4.927   2.781   5.984
 6190SOL    HW219470   4.899   2.701   6.124
 6191SOL     OW19471   5.748   1.933   0.450
 6191SOL    HW119472   5.667   1.877   0.464
 6191SOL    HW219473   5.772   1.935   0.353
 6192SOL     OW19474   2.986   3.484   0.573
 6192SOL    HW119475   2.967   3.509   0.668
 6192SOL    HW219476   2.903   3.446   0.532
 6193SOL     OW19477   5.174   0.160   2.268
 6193SOL    HW119478   5.213   0.174   2.177
 6193SOL    HW219479   5.230   0.207   2.336
 6194SOL     OW19480   2.230   1.016   0.913
 6194SOL    HW119481   2.184   0.935   0.878
 6194SOL    HW219482   2.170   1.096   0.904
 6195SOL     OW19483   3.730   6.081   6.205
 6195SOL    HW119484   3.641   6.039   6.223
 6195SOL    HW219485   3.796   6.011   6.178
 6196SOL     OW19486   1.350   2.156   5.826
 6196SOL    HW119487   1.296   2.183   5.746
 6196SOL    HW219488   1.447   2.170   5.808
 6197SOL     OW19489   2.616   4.087   1.090
 6197SOL    HW119490   2.586   4.017   1.155
 6197SOL    HW219491   2.715   4.096   1.094
 6198SOL     OW19492   3.811   4.958   2.610
 6198SOL    HW119493   3.743   4.958   2.536
 6198SOL    HW219494   3.775   5.009   2.688
 6199SOL     OW19495   1.352   0.185   1.034
 6199SOL    HW119496   1.429   0.122   1.044
 6199SOL    HW219497   1.312   0.203   1.124
 6200SOL     OW19498   3.091   1.311   6.602
 6200SOL    HW119499   3.027   1.375   6.644
 6200SOL    HW219500   3.041   1.247   6.543
 6201SOL     OW19501   2.020   3.548   5.386
 6201SOL    HW119502   2.036   3.643   5.361
 6201SOL    HW219503   2.003   3.494   5.303
 6202SOL     OW19504   3.185   1.945   1.151
 6202SOL    HW119505   3.225   1.960   1.242
 6202SOL    HW219506   3.243   1.882   1.100
 6203SOL     OW19507   5.109   1.124   4.575
 6203SOL    HW119508   5.033   1.063   4.598
 6203SOL    HW219509   5.188   1.070   4.547
 6204SOL     OW19510   1.429   5.449   4.962
 6204SOL    HW119511   1.449   5.525   4.900
 6204SOL    HW219512   1.438   5.363   4.913
 6205SOL     OW19513   5.149   5.262   6.660
 6205SOL    HW119514   5.119   5.168   6.647
 6205SOL    HW219515   5.249   5.265   6.657
 6206SOL     OW19516   6.748   0.692   1.645
 6206SOL    HW119517   6.750   0.767   1.579
 6206SOL    HW219518   6.841   0.667   1.671
 6207SOL     OW19519   1.067   4.212   5.021
 6207SOL    HW119520   1.161   4.244   5.023
 6207SOL    HW219521   1.041   4.190   4.927
 6208SOL     OW19522   6.664   0.179   6.262
 6208SOL    HW119523   6.630   0.092   6.295
 6208SOL    HW219524   6.757   0.168   6.228
 6209SOL     OW19525   4.560   6.065   0.187
 6209SOL    HW119526   4.533   6.144   0.242
 6209SOL    HW219527   4.658   6.047   0.201
 6210SOL     OW19528   5.538   3.750   2.746
 6210SOL    HW119529   5.631   3.727   2.777
 6210SOL    HW219530   5.520   3.703   2.660
 6211SOL     OW19531   2.310   0.643   5.865
 6211SOL    HW119532   2.298   0.546   5.843
 6211SOL    HW219533   2.226   0.678   5.906
 6212SOL     OW19534   6.601   6.118   3.753
 6212SOL    HW119535   6.558   6.208   3.752
 6212SOL    HW219536   6.637   6.097   3.662
 6213SOL     OW19537   5.772   0.360   6.717
 6213SOL    HW119538   5.867   0.380   6.692
 6213SOL    HW219539   5.770   0.315   6.807
 6214SOL     OW19540   6.098   5.122   2.374
 6214SOL    HW119541   6.159   5.104   2.297
 6214SOL    HW219542   6.006   5.142   2.340
 6215SOL     OW19543   2.953   2.911   0.941
 6215SOL    HW119544   3.027   2.883   1.002
 6215SOL    HW219545   2.893   2.974   0.990
 6216SOL     OW19546   5.791   1.368   2.164
 6216SOL    HW119547   5.827   1.283   2.201
 6216SOL    HW219548   5.797   1.366   2.064
 6217SOL     OW19549   4.670   2.747   1.484
 6217SOL    HW119550   4.660   2.824   1.547
 6217SOL    HW219551   4.744   2.688   1.515
 6218SOL     OW19552   1.978   4.903   4.843
 6218SOL    HW119553   1.966   4.808   4.815
 6218SOL    HW219554   2.009   4.957   4.765
 6219SOL     OW19555   1.455   2.121   5.053
 6219SOL    HW119556   1.489   2.215   5.053
 6219SOL    HW219557   1.531   2.058   5.036
 6220SOL     OW19558   1.851   4.759   5.495
 6220SOL    HW119559   1.924   4.744   5.562
 6220SOL    HW219560   1.844   4.680   5.435
 6221SOL     OW19561   4.533   5.483   4.511
 6221SOL    HW119562   4.535   5.443   4.603
 6221SOL    HW219563   4.443   5.467   4.471
 6222SOL     OW19564   6.966   0.225   1.726
 6222SOL    HW119565   6.938   0.268   1.640
 6222SOL    HW219566   6.928   0.275   1.803
 6223SOL     OW19567   5.588   4.373   4.590
 6223SOL    HW119568   5.601   4.275   4.578
 6223SOL    HW219569   5.669   4.413   4.632
 6224SOL     OW19570   1.726   1.280   5.731
 6224SOL    HW119571   1.660   1.311   5.662
 6224SOL    HW219572   1.723   1.342   5.810
 6225SOL     OW19573   3.480   3.681   0.790
 6225SOL    HW119574   3.399   3.735   0.812
 6225SOL    HW219575   3.451   3.598   0.742
 6226SOL     OW19576   5.383   0.810   4.108
 6226SOL    HW119577   5.451   0.880   4.088
 6226SOL    HW219578   5.316   0.846   4.174
 6227SOL     OW19579   3.238   4.445   5.631
 6227SOL    HW119580   3.221   4.371   5.696
 6227SOL    HW219581   3.208   4.417   5.540
 6228SOL     OW19582   6.551   1.348   2.982
 6228SOL    HW119583   6.479   1.338   2.913
 6228SOL    HW219584   6.612   1.423   2.956
 6229SOL     OW19585   2.446   2.191   3.054
 6229SOL    HW119586   2.381   2.155   3.121
 6229SOL    HW219587   2.533   2.211   3.099
 6230SOL     OW19588   2.456   1.385   4.109
 6230SOL    HW119589   2.421   1.357   4.020
 6230SOL    HW219590   2.390   1.446   4.153
 6231SOL     OW19591   0.366   4.851   1.308
 6231SOL    HW119592   0.320   4.940   1.311
 6231SOL    HW219593   0.312   4.783   1.357
 6232SOL     OW19594   0.094   1.154   6.932
 6232SOL    HW119595   0.050   1.238   6.900
 6232SOL    HW219596   0.177   1.137   6.878
 6233SOL     OW19597   5.013   1.816   6.728
 6233SOL    HW119598   5.068   1.735   6.705
 6233SOL    HW219599   5.009   1.825   6.828
 6234SOL     OW19600   1.676   1.747   4.487
 6234SOL    HW119601   1.743   1.674   4.473
 6234SOL    HW219602   1.606   1.716   4.551
 6235SOL     OW19603   2.009   6.802   3.010
 6235SOL    HW119604   2.008   6.869   3.084
 6235SOL    HW219605   1.983   6.712   3.046
 6236SOL     OW19606   0.779   5.121   1.076
 6236SOL    HW119607   0.736   5.136   0.988
 6236SOL    HW219608   0.738   5.040   1.119
 6237SOL     OW19609   4.559   0.048   0.647
 6237SOL    HW119610   4.605   7.005   0.705
 6237SOL    HW219611   4.460   0.034   0.652
 6238SOL     OW19612   5.026   5.553   2.021
 6238SOL    HW119613   5.098   5.495   2.059
 6238SOL    HW219614   4.949   5.496   1.991
 6239SOL     OW19615   3.142   6.958   2.558
 6239SOL    HW119616   3.151   0.020   2.509
 6239SOL    HW219617   3.150   6.882   2.493
 6240SOL     OW19618   2.010   3.136   0.448
 6240SOL    HW119619   2.073   3.154   0.372
 6240SOL    HW219620   1.987   3.038   0.450
 6241SOL     OW19621   2.707   0.575   1.773
 6241SOL    HW119622   2.634   0.611   1.831
 6241SOL    HW219623   2.758   0.505   1.824
 6242SOL     OW19624   4.935   1.762   3.705
 6242SOL    HW119625   5.004   1.822   3.746
 6242SOL    HW219626   4.868   1.817   3.655
 6243SOL     OW19627   5.719   6.627   3.838
 6243SOL    HW119628   5.713   6.636   3.937
 6243SOL    HW219629   5.631   6.597   3.802
 6244SOL     OW19630   2.634   2.385   2.520
 6244SOL    HW119631   2.639   2.345   2.612
 6244SOL    HW219632   2.696   2.336   2.459
 6245SOL     OW19633   2.914   4.823   1.566
 6245SOL    HW119634   2.877   4.861   1.650
 6245SOL    HW219635   2.949   4.731   1.584
 6246SOL     OW19636   2.799   1.878   6.242
 6246SOL    HW119637   2.854   1.817   6.186
 6246SOL    HW219638   2.703   1.871   6.215
 6247SOL     OW19639   0.552   6.401   3.784
 6247SOL    HW119640   0.527   6.333   3.716
 6247SOL    HW219641   0.474   6.420   3.844
 6248SOL     OW19642   0.730   4.653   1.480
 6248SOL    HW119643   0.756   4.590   1.554
 6248SOL    HW219644   0.696   4.738   1.520
 6249SOL     OW19645   6.985   4.508   7.010
 6249SOL    HW119646   6.941   4.587   6.966
 6249SOL    HW219647   0.060   4.522   7.013
 6250SOL     OW19648   6.679   6.150   7.018
 6250SOL    HW119649   6.651   6.246   7.012
 6250SOL    HW219650   6.612   6.093   6.970
 6251SOL     OW19651   4.327   1.232   0.979
 6251SOL    HW119652   4.383   1.149   0.974
 6251SOL    HW219653   4.333   1.271   1.071
 6252SOL     OW19654   2.712   5.105   4.739
 6252SOL    HW119655   2.756   5.039   4.799
 6252SOL    HW219656   2.613   5.096   4.747
 6253SOL     OW19657   2.556   4.170   1.709
 6253SOL    HW119658   2.482   4.208   1.765
 6253SOL    HW219659   2.623   4.242   1.690
 6254SOL     OW19660   6.250   6.898   0.266
 6254SOL    HW119661   6.281   6.905   0.172
 6254SOL    HW219662   6.223   6.804   0.286
 6255SOL     OW19663   1.064   1.545   1.759
 6255SOL    HW119664   1.133   1.587   1.700
 6255SOL    HW219665   1.070   1.446   1.753
 6256SOL     OW19666   4.228   4.771   2.738
 6256SOL    HW119667   4.252   4.788   2.834
 6256SOL    HW219668   4.172   4.846   2.704
 6257SOL     OW19669   5.748   2.538   0.999
 6257SOL    HW119670   5.664   2.543   0.945
 6257SOL    HW219671   5.822   2.500   0.943
 6258SOL     OW19672   4.172   1.141   2.212
 6258SOL    HW119673   4.092   1.156   2.270
 6258SOL    HW219674   4.214   1.054   2.235
 6259SOL     OW19675   3.215   2.099   0.817
 6259SOL    HW119676   3.138   2.141   0.768
 6259SOL    HW219677   3.180   2.052   0.899
 6260SOL     OW19678   4.084   3.624   0.539
 6260SOL    HW119679   4.013   3.593   0.602
 6260SOL    HW219680   4.046   3.633   0.447
 6261SOL     OW19681   3.700   0.387   0.313
 6261SOL    HW119682   3.766   0.431   0.374
 6261SOL    HW219683   3.659   0.456   0.254
 6262SOL     OW19684   1.166   4.186   0.277
 6262SOL    HW119685   1.099   4.232   0.336
 6262SOL    HW219686   1.124   4.105   0.237
 6263SOL     OW19687   0.325   6.857   6.613
 6263SOL    HW119688   0.358   6.882   6.522
 6263SOL    HW219689   0.401   6.858   6.678
 6264SOL     OW19690   2.847   1.985   0.784
 6264SOL    HW119691   2.911   1.977   0.708
 6264SOL    HW219692   2.894   2.023   0.863
 6265SOL     OW19693   3.942   4.695   0.853
 6265SOL    HW119694   3.865   4.634   0.872
 6265SOL    HW219695   3.985   4.723   0.939
 6266SOL     OW19696   3.525   0.944   3.540
 6266SOL    HW119697   3.498   0.979   3.450
 6266SOL    HW219698   3.456   0.970   3.608
 6267SOL     OW19699   2.988   0.270   0.252
 6267SOL    HW119700   2.901   0.293   0.208
 6267SOL    HW219701   2.995   0.318   0.339
 6268SOL     OW19702   3.087   5.248   2.805
 6268SOL    HW119703   2.989   5.259   2.820
 6268SOL    HW219704   3.103   5.197   2.720
 6269SOL     OW19705   6.177   6.074   2.281
 6269SOL    HW119706   6.108   6.011   2.316
 6269SOL    HW219707   6.141   6.124   2.203
 6270SOL     OW19708   1.498   1.236   4.971
 6270SOL    HW119709   1.458   1.269   4.886
 6270SOL    HW219710   1.596   1.219   4.957
 6271SOL     OW19711   6.864   2.677   6.427
 6271SOL    HW119712   6.842   2.592   6.377
 6271SOL    HW219713   6.925   2.656   6.504
 6272SOL     OW19714   2.346   2.835   4.541
 6272SOL    HW119715   2.317   2.864   4.633
 6272SOL    HW219716   2.278   2.864   4.474
 6273SOL     OW19717   2.078   1.321   1.304
 6273SOL    HW119718   1.997   1.339   1.360
 6273SOL    HW219719   2.050   1.273   1.220
 6274SOL     OW19720   3.300   5.968   6.671
 6274SOL    HW119721   3.399   5.955   6.668
 6274SOL    HW219722   3.254   5.879   6.669
 6275SOL     OW19723   2.200   0.172   4.992
 6275SOL    HW119724   2.194   0.140   4.897
 6275SOL    HW219725   2.187   0.095   5.054
 6276SOL     OW19726   0.956   5.360   3.575
 6276SOL    HW119727   1.009   5.324   3.651
 6276SOL    HW219728   0.907   5.442   3.605
 6277SOL     OW19729   5.365   2.529   2.722
 6277SOL    HW119730   5.451   2.541   2.673
 6277SOL    HW219731   5.289   2.527   2.656
 6278SOL     OW19732   4.773   0.308   4.485
 6278SOL    HW119733   4.732   0.279   4.571
 6278SOL    HW219734   4.726   0.264   4.409
 6279SOL     OW19735   3.709   2.011   0.621
 6279SOL    HW119736   3.803   2.020   0.655
 6279SOL    HW219737   3.646   2.046   0.690
 6280SOL     OW19738   0.318   3.468   5.908
 6280SOL    HW119739   0.266   3.535   5.961
 6280SOL    HW219740   0.256   3.396   5.875
 6281SOL     OW19741   2.046   0.303   5.385
 6281SOL    HW119742   2.044   0.207   5.411
 6281SOL    HW219743   1.966   0.325   5.328
 6282SOL     OW19744   1.816   0.238   4.708
 6282SOL    HW119745   1.850   0.147   4.731
 6282SOL    HW219746   1.809   0.293   4.791
 6283SOL     OW19747   0.017   2.632   5.404
 6283SOL    HW119748   6.954   2.633   5.454
 6283SOL    HW219749   0.050   2.538   5.396
 6284SOL     OW19750   1.274   5.063   5.582
 6284SOL    HW119751   1.188   5.065   5.633
 6284SOL    HW219752   1.280   4.978   5.529
 6285SOL     OW19753   1.198   2.734   4.047
 6285SOL    HW119754   1.177   2.663   3.980
 6285SOL    HW219755   1.130   2.732   4.121
 6286SOL     OW19756   5.715   1.603   2.963
 6286SOL    HW119757   5.663   1.656   2.896
 6286SOL    HW219758   5.798   1.653   2.988
 6287SOL     OW19759   4.907   3.762   2.092
 6287SOL    HW119760   4.865   3.708   2.019
 6287SOL    HW219761   4.901   3.859   2.068
 6288SOL     OW19762   5.136   3.855   0.288
 6288SOL    HW119763   5.214   3.829   0.346
 6288SOL    HW219764   5.052   3.822   0.330
 6289SOL     OW19765   1.996   2.239   3.794
 6289SOL    HW119766   1.956   2.272   3.879
 6289SOL    HW219767   1.939   2.266   3.716
 6290SOL     OW19768   5.056   3.976   4.039
 6290SOL    HW119769   5.125   3.967   3.967
 6290SOL    HW219770   5.089   3.931   4.122
 6291SOL     OW19771   3.792   3.609   3.543
 6291SOL    HW119772   3.725   3.567   3.604
 6291SOL    HW219773   3.753   3.693   3.504
 6292SOL     OW19774   0.807   1.841   3.123
 6292SOL    HW119775   0.762   1.928   3.103
 6292SOL    HW219776   0.737   1.771   3.140
 6293SOL     OW19777   5.463   0.176   6.891
 6293SOL    HW119778   5.519   0.129   6.959
 6293SOL    HW219779   5.503   0.164   6.800
 6294SOL     OW19780   3.527   5.406   2.865
 6294SOL    HW119781   3.581   5.376   2.787
 6294SOL    HW219782   3.534   5.339   2.939
 6295SOL     OW19783   5.588   5.514   5.676
 6295SOL    HW119784   5.530   5.455   5.619
 6295SOL    HW219785   5.682   5.512   5.641
 6296SOL     OW19786   6.843   0.930   3.855
 6296SOL    HW119787   6.852   0.908   3.952
 6296SOL    HW219788   6.933   0.927   3.812
 6297SOL     OW19789   5.285   6.128   5.642
 6297SOL    HW119790   5.282   6.137   5.741
 6297SOL    HW219791   5.365   6.176   5.606
 6298SOL     OW19792   0.259   3.247   5.739
 6298SOL    HW119793   0.191   3.236   5.667
 6298SOL    HW219794   0.338   3.298   5.704
 6299SOL     OW19795   6.050   2.513   6.871
 6299SOL    HW119796   6.000   2.427   6.867
 6299SOL    HW219797   6.039   2.555   6.961
 6300SOL     OW19798   5.282   0.887   4.527
 6300SOL    HW119799   5.281   0.817   4.598
 6300SOL    HW219800   5.344   0.859   4.453
 6301SOL     OW19801   2.999   6.399   1.122
 6301SOL    HW119802   3.058   6.475   1.096
 6301SOL    HW219803   2.904   6.422   1.102
 6302SOL     OW19804   1.717   0.989   3.767
 6302SOL    HW119805   1.720   1.087   3.788
 6302SOL    HW219806   1.623   0.961   3.751
 6303SOL     OW19807   2.339   6.598   5.128
 6303SOL    HW119808   2.259   6.548   5.094
 6303SOL    HW219809   2.420   6.570   5.075
 6304SOL     OW19810   2.773   1.362   0.299
 6304SOL    HW119811   2.734   1.375   0.390
 6304SOL    HW219812   2.871   1.345   0.306
 6305SOL     OW19813   0.084   6.852   1.670
 6305SOL    HW119814   0.081   6.852   1.570
 6305SOL    HW219815   0.009   6.796   1.705
 6306SOL     OW19816   6.386   2.890   3.885
 6306SOL    HW119817   6.329   2.849   3.814
 6306SOL    HW219818   6.416   2.981   3.856
 6307SOL     OW19819   2.617   5.054   5.766
 6307SOL    HW119820   2.624   5.061   5.865
 6307SOL    HW219821   2.704   5.021   5.729
 6308SOL     OW19822   2.290   1.900   4.937
 6308SOL    HW119823   2.229   1.821   4.944
 6308SOL    HW219824   2.349   1.904   5.018
 6309SOL     OW19825   5.382   2.238   4.038
 6309SOL    HW119826   5.442   2.243   3.958
 6309SOL    HW219827   5.314   2.166   4.024
 6310SOL     OW19828   1.279   4.450   4.707
 6310SOL    HW119829   1.371   4.418   4.688
 6310SOL    HW219830   1.243   4.499   4.627
 6311SOL     OW19831   6.875   0.085   4.859
 6311SOL    HW119832   6.801   0.113   4.797
 6311SOL    HW219833   6.963   0.109   4.819
 6312SOL     OW19834   4.394   5.217   6.650
 6312SOL    HW119835   4.366   5.121   6.645
 6312SOL    HW219836   4.385   5.259   6.560
 6313SOL     OW19837   1.908   5.745   3.193
 6313SOL    HW119838   1.817   5.785   3.185
 6313SOL    HW219839   1.935   5.741   3.289
 6314SOL     OW19840   2.660   5.868   2.453
 6314SOL    HW119841   2.600   5.904   2.524
 6314SOL    HW219842   2.639   5.772   2.438
 6315SOL     OW19843   3.643   3.401   0.014
 6315SOL    HW119844   3.629   3.306   0.041
 6315SOL    HW219845   3.628   3.411   6.940
 6316SOL     OW19846   4.459   1.880   6.079
 6316SOL    HW119847   4.488   1.789   6.049
 6316SOL    HW219848   4.363   1.878   6.106
 6317SOL     OW19849   4.935   6.481   2.532
 6317SOL    HW119850   4.896   6.393   2.506
 6317SOL    HW219851   4.863   6.541   2.566
 6318SOL     OW19852   2.454   2.389   5.604
 6318SOL    HW119853   2.361   2.398   5.568
 6318SOL    HW219854   2.451   2.342   5.692
 6319SOL     OW19855   0.571   2.951   3.607
 6319SOL    HW119856   0.496   2.904   3.654
 6319SOL    HW219857   0.642   2.885   3.583
 6320SOL     OW19858   5.862   3.573   3.357
 6320SOL    HW119859   5.852   3.493   3.299
 6320SOL    HW219860   5.848   3.547   3.453
 6321SOL     OW19861   3.117   5.711   0.201
 6321SOL    HW119862   3.193   5.758   0.156
 6321SOL    HW219863   3.123   5.724   0.300
 6322SOL     OW19864   1.268   0.887   6.727
 6322SOL    HW119865   1.323   0.964   6.760
 6322SOL    HW219866   1.192   0.921   6.672
 6323SOL     OW19867   3.783   2.636   1.497
 6323SOL    HW119868   3.711   2.579   1.457
 6323SOL    HW219869   3.802   2.605   1.590
 6324SOL     OW19870   3.902   0.922   5.730
 6324SOL    HW119871   3.825   0.911   5.792
 6324SOL    HW219872   3.944   1.012   5.745
 6325SOL     OW19873   0.846   2.619   2.256
 6325SOL    HW119874   0.926   2.650   2.205
 6325SOL    HW219875   0.799   2.698   2.296
 6326SOL     OW19876   5.445   5.961   1.458
 6326SOL    HW119877   5.368   5.902   1.484
 6326SOL    HW219878   5.455   5.961   1.359
 6327SOL     OW19879   5.588   6.027   5.378
 6327SOL    HW119880   5.580   6.074   5.291
 6327SOL    HW219881   5.554   5.933   5.369
 6328SOL     OW19882   1.973   3.988   6.914
 6328SOL    HW119883   1.935   4.023   7.000
 6328SOL    HW219884   1.972   3.889   6.916
 6329SOL     OW19885   1.551   1.188   3.517
 6329SOL    HW119886   1.588   1.277   3.543
 6329SOL    HW219887   1.543   1.183   3.417
 6330SOL     OW19888   4.368   0.656   0.262
 6330SOL    HW119889   4.303   0.723   0.298
 6330SOL    HW219890   4.373   0.577   0.324
 6331SOL     OW19891   6.731   1.913   0.870
 6331SOL    HW119892   6.702   1.840   0.808
 6331SOL    HW219893   6.702   1.891   0.963
 6332SOL     OW19894   6.389   5.885   1.259
 6332SOL    HW119895   6.328   5.868   1.336
 6332SOL    HW219896   6.369   5.975   1.219
 6333SOL     OW19897   3.502   4.923   3.665
 6333SOL    HW119898   3.522   4.992   3.595
 6333SOL    HW219899   3.502   4.832   3.624
 6334SOL     OW19900   2.462   0.026   2.021
 6334SOL    HW119901   2.504   0.075   1.944
 6334SOL    HW219902   2.479   6.952   2.011
 6335SOL     OW19903   6.464   0.967   6.138
 6335SOL    HW119904   6.366   0.955   6.155
 6335SOL    HW219905   6.503   0.879   6.110
 6336SOL     OW19906   0.120   2.389   4.824
 6336SOL    HW119907   0.193   2.384   4.757
 6336SOL    HW219908   0.152   2.353   4.912
 6337SOL     OW19909   4.977   3.605   6.136
 6337SOL    HW119910   4.981   3.506   6.120
 6337SOL    HW219911   4.881   3.634   6.132
 6338SOL     OW19912   2.844   1.520   2.369
 6338SOL    HW119913   2.776   1.519   2.296
 6338SOL    HW219914   2.898   1.436   2.366
 6339SOL     OW19915   0.555   2.449   3.476
 6339SOL    HW119916   0.575   2.462   3.573
 6339SOL    HW219917   0.585   2.357   3.448
 6340SOL     OW19918   2.670   5.750   3.912
 6340SOL    HW119919   2.654   5.678   3.978
 6340SOL    HW219920   2.644   5.718   3.821
 6341SOL     OW19921   6.909   4.612   3.733
 6341SOL    HW119922   6.993   4.568   3.763
 6341SOL    HW219923   6.909   4.708   3.760
 6342SOL     OW19924   2.033   2.643   2.597
 6342SOL    HW119925   2.107   2.578   2.579
 6342SOL    HW219926   1.979   2.611   2.675
 6343SOL     OW19927   3.975   1.974   6.508
 6343SOL    HW119928   3.957   2.054   6.451
 6343SOL    HW219929   4.034   2.000   6.585
 6344SOL     OW19930   0.078   4.059   4.840
 6344SOL    HW119931   0.082   3.959   4.852
 6344SOL    HW219932   0.149   4.087   4.775
 6345SOL     OW19933   3.397   1.495   1.972
 6345SOL    HW119934   3.446   1.582   1.963
 6345SOL    HW219935   3.457   1.420   1.943
 6346SOL     OW19936   0.146   3.583   3.303
 6346SOL    HW119937   0.151   3.647   3.380
 6346SOL    HW219938   0.114   3.494   3.335
 6347SOL     OW19939   2.785   0.540   1.365
 6347SOL    HW119940   2.849   0.471   1.330
 6347SOL    HW219941   2.759   0.602   1.291
 6348SOL     OW19942   0.550   2.891   4.617
 6348SOL    HW119943   0.613   2.968   4.606
 6348SOL    HW219944   0.549   2.861   4.712
 6349SOL     OW19945   2.758   0.505   0.963
 6349SOL    HW119946   2.716   0.433   1.018
 6349SOL    HW219947   2.813   0.464   0.890
 6350SOL     OW19948   1.604   5.895   2.334
 6350SOL    HW119949   1.527   5.901   2.397
 6350SOL    HW219950   1.575   5.928   2.244
 6351SOL     OW19951   0.231   1.715   2.203
 6351SOL    HW119952   0.200   1.685   2.112
 6351SOL    HW219953   0.158   1.765   2.249
 6352SOL     OW19954   1.745   5.532   2.914
 6352SOL    HW119955   1.826   5.530   2.973
 6352SOL    HW219956   1.756   5.466   2.840
 6353SOL     OW19957   0.476   0.167   0.306
 6353SOL    HW119958   0.481   0.160   0.406
 6353SOL    HW219959   0.510   0.082   0.265
 6354SOL     OW19960   1.276   6.967   2.531
 6354SOL    HW119961   1.298   0.032   2.491
 6354SOL    HW219962   1.309   6.895   2.470
 6355SOL     OW19963   1.564   3.029   3.594
 6355SOL    HW119964   1.470   3.003   3.613
 6355SOL    HW219965   1.626   2.978   3.653
 6356SOL     OW19966   4.400   4.803   1.099
 6356SOL    HW119967   4.355   4.821   1.012
 6356SOL    HW219968   4.378   4.711   1.131
 6357SOL     OW19969   4.701   2.801   0.532
 6357SOL    HW119970   4.653   2.888   0.544
 6357SOL    HW219971   4.739   2.796   0.440
 6358SOL     OW19972   0.161   2.060   4.049
 6358SOL    HW119973   0.124   2.050   4.141
 6358SOL    HW219974   0.253   2.020   4.045
 6359SOL     OW19975   6.930   0.624   5.428
 6359SOL    HW119976   0.006   0.626   5.431
 6359SOL    HW219977   6.900   0.545   5.374
 6360SOL     OW19978   2.207   4.734   4.344
 6360SOL    HW119979   2.269   4.751   4.420
 6360SOL    HW219980   2.252   4.758   4.258
 6361SOL     OW19981   4.194   6.080   6.367
 6361SOL    HW119982   4.237   6.144   6.431
 6361SOL    HW219983   4.237   5.990   6.376
 6362SOL     OW19984   5.994   4.749   7.023
 6362SOL    HW119985   6.035   4.811   6.956
 6362SOL    HW219986   5.928   4.690   6.978
 6363SOL     OW19987   1.605   5.767   4.340
 6363SOL    HW119988   1.697   5.760   4.303
 6363SOL    HW219989   1.606   5.745   4.437
 6364SOL     OW19990   2.500   2.737   5.914
 6364SOL    HW119991   2.569   2.727   5.986
 6364SOL    HW219992   2.522   2.675   5.839
 6365SOL     OW19993   4.568   0.007   3.566
 6365SOL    HW119994   4.504   0.081   3.551
 6365SOL    HW219995   4.659   0.033   3.533
 6366SOL     OW19996   0.420   5.079   5.320
 6366SOL    HW119997   0.429   5.061   5.223
 6366SOL    HW219998   0.473   5.012   5.372
 6367SOL     OW19999   5.208   0.749   3.405
 6367SOL    HW120000   5.153   0.674   3.442
 6367SOL    HW220001   5.220   0.735   3.306
 6368SOL     OW20002   2.862   0.180   3.963
 6368SOL    HW120003   2.843   0.120   3.884
 6368SOL    HW220004   2.941   0.237   3.943
 6369SOL     OW20005   2.473   5.339   4.020
 6369SOL    HW120006   2.431   5.249   4.027
 6369SOL    HW220007   2.556   5.332   3.964
 6370SOL     OW20008   6.774   2.143   1.494
 6370SOL    HW120009   6.728   2.096   1.569
 6370SOL    HW220010   6.838   2.211   1.532
 6371SOL     OW20011   5.053   3.188   2.418
 6371SOL    HW120012   5.075   3.100   2.461
 6371SOL    HW220013   4.998   3.172   2.336
 6372SOL     OW20014   3.556   6.233   2.117
 6372SOL    HW120015   3.604   6.182   2.188
 6372SOL    HW220016   3.604   6.319   2.099
 6373SOL     OW20017   4.722   4.520   5.708
 6373SOL    HW120018   4.644   4.465   5.738
 6373SOL    HW220019   4.736   4.595   5.772
 6374SOL     OW20020   2.902   3.466   3.252
 6374SOL    HW120021   2.968   3.393   3.237
 6374SOL    HW220022   2.889   3.481   3.350
 6375SOL     OW20023   1.528   0.455   3.002
 6375SOL    HW120024   1.580   0.520   2.946
 6375SOL    HW220025   1.562   0.457   3.096
 6376SOL     OW20026   6.966   2.323   4.574
 6376SOL    HW120027   6.866   2.326   4.572
 6376SOL    HW220028   6.999   2.377   4.651
 6377SOL     OW20029   0.380   1.400   4.690
 6377SOL    HW120030   0.318   1.342   4.637
 6377SOL    HW220031   0.329   1.451   4.759
 6378SOL     OW20032   4.806   4.089   4.420
 6378SOL    HW120033   4.836   4.052   4.509
 6378SOL    HW220034   4.795   4.014   4.355
 6379SOL     OW20035   2.026   3.906   3.712
 6379SOL    HW120036   2.055   3.811   3.707
 6379SOL    HW220037   1.982   3.924   3.800
 6380SOL     OW20038   0.524   1.524   6.157
 6380SOL    HW120039   0.436   1.569   6.171
 6380SOL    HW220040   0.591   1.592   6.127
 6381SOL     OW20041   3.231   3.627   2.992
 6381SOL    HW120042   3.278   3.694   2.934
 6381SOL    HW220043   3.139   3.611   2.957
 6382SOL     OW20044   0.912   2.747   5.858
 6382SOL    HW120045   0.948   2.661   5.896
 6382SOL    HW220046   0.856   2.792   5.927
 6383SOL     OW20047   2.729   2.005   4.286
 6383SOL    HW120048   2.708   2.048   4.374
 6383SOL    HW220049   2.828   2.006   4.271
 6384SOL     OW20050   5.582   5.122   2.614
 6384SOL    HW120051   5.525   5.040   2.621
 6384SOL    HW220052   5.666   5.100   2.564
 6385SOL     OW20053   0.059   5.309   3.985
 6385SOL    HW120054   0.055   5.396   4.034
 6385SOL    HW220055   0.005   5.315   3.902
 6386SOL     OW20056   2.519   5.511   1.169
 6386SOL    HW120057   2.481   5.568   1.241
 6386SOL    HW220058   2.478   5.420   1.173
 6387SOL     OW20059   0.212   2.171   5.726
 6387SOL    HW120060   0.243   2.230   5.651
 6387SOL    HW220061   0.148   2.103   5.690
 6388SOL     OW20062   3.310   4.705   1.790
 6388SOL    HW120063   3.384   4.715   1.856
 6388SOL    HW220064   3.254   4.787   1.790
 6389SOL     OW20065   1.215   5.552   3.339
 6389SOL    HW120066   1.261   5.532   3.252
 6389SOL    HW220067   1.123   5.586   3.322
 6390SOL     OW20068   0.244   2.374   3.739
 6390SOL    HW120069   0.259   2.366   3.640
 6390SOL    HW220070   0.203   2.463   3.759
 6391SOL     OW20071   2.933   2.175   0.316
 6391SOL    HW120072   2.873   2.145   0.241
 6391SOL    HW220073   2.882   2.238   0.375
 6392SOL     OW20074   2.144   7.016   3.573
 6392SOL    HW120075   2.232   7.008   3.526
 6392SOL    HW220076   2.075   0.027   3.510
 6393SOL     OW20077   6.198   6.724   0.750
 6393SOL    HW120078   6.277   6.664   0.735
 6393SOL    HW220079   6.230   6.813   0.783
 6394SOL     OW20080   2.320   5.251   0.432
 6394SOL    HW120081   2.331   5.197   0.348
 6394SOL    HW220082   2.407   5.293   0.456
 6395SOL     OW20083   5.700   1.325   1.047
 6395SOL    HW120084   5.783   1.305   1.099
 6395SOL    HW220085   5.708   1.416   1.005
 6396SOL     OW20086   4.884   3.051   5.896
 6396SOL    HW120087   4.802   3.043   5.954
 6396SOL    HW220088   4.910   2.960   5.864
 6397SOL     OW20089   0.222   2.393   6.766
 6397SOL    HW120090   0.290   2.452   6.811
 6397SOL    HW220091   0.269   2.327   6.708
 6398SOL     OW20092   2.762   1.696   1.573
 6398SOL    HW120093   2.711   1.612   1.553
 6398SOL    HW220094   2.773   1.706   1.672
 6399SOL     OW20095   1.705   5.663   7.002
 6399SOL    HW120096   1.771   5.588   6.996
 6399SOL    HW220097   1.749   5.748   6.974
 6400SOL     OW20098   2.618   5.583   3.698
 6400SOL    HW120099   2.562   5.501   3.706
 6400SOL    HW220100   2.563   5.658   3.660
 6401SOL     OW20101   0.125   4.772   3.408
 6401SOL    HW120102   0.111   4.702   3.337
 6401SOL    HW220103   0.204   4.828   3.385
 6402SOL     OW20104   2.736   0.833   3.167
 6402SOL    HW120105   2.808   0.898   3.188
 6402SOL    HW220106   2.756   0.788   3.080
 6403SOL     OW20107   1.307   4.349   6.723
 6403SOL    HW120108   1.378   4.314   6.663
 6403SOL    HW220109   1.349   4.398   6.799
 6404SOL     OW20110   4.445   1.967   3.488
 6404SOL    HW120111   4.467   2.062   3.509
 6404SOL    HW220112   4.353   1.962   3.448
 6405SOL     OW20113   2.509   1.809   2.475
 6405SOL    HW120114   2.592   1.766   2.511
 6405SOL    HW220115   2.466   1.748   2.408
 6406SOL     OW20116   2.103   1.068   4.085
 6406SOL    HW120117   2.180   1.095   4.142
 6406SOL    HW220118   2.108   0.969   4.067
 6407SOL     OW20119   3.340   5.903   5.023
 6407SOL    HW120120   3.404   5.950   5.083
 6407SOL    HW220121   3.254   5.886   5.072
 6408SOL     OW20122   5.809   1.464   6.534
 6408SOL    HW120123   5.748   1.385   6.529
 6408SOL    HW220124   5.779   1.533   6.467
 6409SOL     OW20125   6.486   3.415   3.090
 6409SOL    HW120126   6.576   3.378   3.068
 6409SOL    HW220127   6.487   3.452   3.183
 6410SOL     OW20128   1.372   1.600   0.390
 6410SOL    HW120129   1.384   1.592   0.291
 6410SOL    HW220130   1.458   1.631   0.431
 6411SOL     OW20131   0.427   1.258   3.668
 6411SOL    HW120132   0.379   1.228   3.585
 6411SOL    HW220133   0.475   1.180   3.709
 6412SOL     OW20134   6.782   2.956   5.577
 6412SOL    HW120135   6.771   2.929   5.481
 6412SOL    HW220136   6.744   3.047   5.591
 6413SOL     OW20137   6.456   5.052   1.526
 6413SOL    HW120138   6.470   5.009   1.615
 6413SOL    HW220139   6.528   5.024   1.463
 6414SOL     OW20140   6.647   0.392   1.066
 6414SOL    HW120141   6.624   0.345   1.151
 6414SOL    HW220142   6.717   0.340   1.017
 6415SOL     OW20143   1.673   2.179   2.145
 6415SOL    HW120144   1.667   2.237   2.063
 6415SOL    HW220145   1.584   2.140   2.164
 6416SOL     OW20146   1.219   0.104   6.730
 6416SOL    HW120147   1.314   0.093   6.701
 6416SOL    HW220148   1.166   0.146   6.656
 6417SOL     OW20149   0.843   6.899   3.389
 6417SOL    HW120150   0.817   6.803   3.377
 6417SOL    HW220151   0.861   6.917   3.485
 6418SOL     OW20152   0.046   5.259   2.211
 6418SOL    HW120153   0.140   5.225   2.218
 6418SOL    HW220154   0.047   5.359   2.204
 6419SOL     OW20155   3.662   4.948   1.822
 6419SOL    HW120156   3.629   4.885   1.893
 6419SOL    HW220157   3.729   5.010   1.862
 6420SOL     OW20158   2.990   3.621   6.591
 6420SOL    HW120159   2.945   3.686   6.652
 6420SOL    HW220160   3.077   3.659   6.561
 6421SOL     OW20161   5.234   0.462   1.293
 6421SOL    HW120162   5.247   0.489   1.388
 6421SOL    HW220163   5.313   0.490   1.239
 6422SOL     OW20164   6.578   1.120   3.509
 6422SOL    HW120165   6.534   1.188   3.450
 6422SOL    HW220166   6.583   1.032   3.460
 6423SOL     OW20167   5.094   3.167   0.784
 6423SOL    HW120168   5.052   3.103   0.720
 6423SOL    HW220169   5.158   3.118   0.843
 6424SOL     OW20170   6.061   3.648   6.309
 6424SOL    HW120171   6.149   3.658   6.263
 6424SOL    HW220172   6.005   3.729   6.293
 6425SOL     OW20173   0.357   4.251   2.530
 6425SOL    HW120174   0.390   4.225   2.621
 6425SOL    HW220175   0.420   4.317   2.489
 6426SOL     OW20176   1.144   2.168   3.234
 6426SOL    HW120177   1.074   2.131   3.172
 6426SOL    HW220178   1.232   2.124   3.215
 6427SOL     OW20179   1.072   3.563   5.558
 6427SOL    HW120180   1.154   3.505   5.558
 6427SOL    HW220181   1.006   3.527   5.624
 6428SOL     OW20182   6.739   3.759   2.080
 6428SOL    HW120183   6.648   3.764   2.038
 6428SOL    HW220184   6.808   3.788   2.013
 6429SOL     OW20185   1.645   1.035   4.554
 6429SOL    HW120186   1.556   1.063   4.520
 6429SOL    HW220187   1.695   0.988   4.482
 6430SOL     OW20188   5.385   1.624   1.695
 6430SOL    HW120189   5.288   1.598   1.698
 6430SOL    HW220190   5.408   1.661   1.605
 6431SOL     OW20191   4.791   6.467   3.354
 6431SOL    HW120192   4.877   6.416   3.354
 6431SOL    HW220193   4.784   6.521   3.270
 6432SOL     OW20194   4.856   3.607   0.990
 6432SOL    HW120195   4.825   3.600   1.085
 6432SOL    HW220196   4.893   3.698   0.973
 6433SOL     OW20197   2.881   4.270   1.395
 6433SOL    HW120198   2.940   4.308   1.324
 6433SOL    HW220199   2.870   4.171   1.380
 6434SOL     OW20200   0.963   3.972   0.600
 6434SOL    HW120201   0.865   3.985   0.613
 6434SOL    HW220202   0.989   3.881   0.631
 6435SOL     OW20203   3.889   4.856   0.012
 6435SOL    HW120204   3.818   4.827   6.972
 6435SOL    HW220205   3.967   4.793   0.005
 6436SOL     OW20206   1.991   2.915   3.438
 6436SOL    HW120207   1.913   2.908   3.377
 6436SOL    HW220208   2.050   2.991   3.410
 6437SOL     OW20209   0.901   6.955   0.031
 6437SOL    HW120210   0.835   6.924   0.099
 6437SOL    HW220211   0.991   6.916   0.051
 6438SOL     OW20212   0.940   3.760   4.105
 6438SOL    HW120213   0.927   3.689   4.175
 6438SOL    HW220214   1.036   3.760   4.076
 6439SOL     OW20215   1.284   6.573   0.797
 6439SOL    HW120216   1.275   6.530   0.886
 6439SOL    HW220217   1.362   6.534   0.748
 6440SOL     OW20218   1.181   1.750   2.392
 6440SOL    HW120219   1.228   1.839   2.395
 6440SOL    HW220220   1.176   1.713   2.484
 6441SOL     OW20221   1.854   1.116   3.502
 6441SOL    HW120222   1.783   1.091   3.568
 6441SOL    HW220223   1.834   1.206   3.463
 6442SOL     OW20224   2.410   2.070   4.328
 6442SOL    HW120225   2.459   1.998   4.279
 6442SOL    HW220226   2.475   2.134   4.367
 6443SOL     OW20227   2.876   3.111   0.456
 6443SOL    HW120228   2.878   3.200   0.409
 6443SOL    HW220229   2.916   3.121   0.547
 6444SOL     OW20230   0.848   1.541   2.786
 6444SOL    HW120231   0.934   1.515   2.831
 6444SOL    HW220232   0.773   1.534   2.851
 6445SOL     OW20233   4.205   2.826   5.347
 6445SOL    HW120234   4.182   2.742   5.297
 6445SOL    HW220235   4.301   2.849   5.331
 6446SOL     OW20236   6.835   1.254   6.355
 6446SOL    HW120237   6.797   1.327   6.411
 6446SOL    HW220238   6.772   1.233   6.281
 6447SOL     OW20239   2.026   6.375   2.187
 6447SOL    HW120240   2.044   6.473   2.197
 6447SOL    HW220241   2.108   6.324   2.213
 6448SOL     OW20242   6.521   2.946   2.997
 6448SOL    HW120243   6.467   2.864   2.978
 6448SOL    HW220244   6.614   2.932   2.964
 6449SOL     OW20245   3.453   3.340   1.735
 6449SOL    HW120246   3.370   3.364   1.686
 6449SOL    HW220247   3.527   3.326   1.670
 6450SOL     OW20248   6.304   3.618   1.344
 6450SOL    HW120249   6.241   3.541   1.348
 6450SOL    HW220250   6.345   3.633   1.434
 6451SOL     OW20251   2.478   6.490   5.406
 6451SOL    HW120252   2.466   6.400   5.365
 6451SOL    HW220253   2.390   6.536   5.412
 6452SOL     OW20254   3.436   6.952   4.393
 6452SOL    HW120255   3.360   6.997   4.441
 6452SOL    HW220256   3.401   6.908   4.310
 6453SOL     OW20257   1.269   6.566   6.928
 6453SOL    HW120258   1.176   6.557   6.962
 6453SOL    HW220259   1.330   6.593   7.003
 6454SOL     OW20260   3.005   1.768   4.367
 6454SOL    HW120261   3.071   1.738   4.298
 6454SOL    HW220262   3.009   1.867   4.376
 6455SOL     OW20263   6.975   2.982   5.223
 6455SOL    HW120264   6.952   3.079   5.225
 6455SOL    HW220265   7.011   2.955   5.312
 6456SOL     OW20266   0.625   0.588   3.095
 6456SOL    HW120267   0.577   0.506   3.064
 6456SOL    HW220268   0.718   0.588   3.060
 6457SOL     OW20269   6.663   2.802   1.389
 6457SOL    HW120270   6.718   2.822   1.470
 6457SOL    HW220271   6.588   2.868   1.383
 6458SOL     OW20272   1.353   5.513   3.084
 6458SOL    HW120273   1.377   5.587   3.021
 6458SOL    HW220274   1.283   5.455   3.042
 6459SOL     OW20275   6.606   4.506   0.332
 6459SOL    HW120276   6.643   4.509   0.425
 6459SOL    HW220277   6.525   4.565   0.326
 6460SOL     OW20278   4.051   4.702   6.535
 6460SOL    HW120279   3.962   4.693   6.579
 6460SOL    HW220280   4.086   4.795   6.552
 6461SOL     OW20281   2.644   5.032   5.154
 6461SOL    HW120282   2.674   5.016   5.248
 6461SOL    HW220283   2.709   4.988   5.091
 6462SOL     OW20284   1.905   3.205   5.186
 6462SOL    HW120285   1.995   3.248   5.187
 6462SOL    HW220286   1.857   3.228   5.271
 6463SOL     OW20287   2.683   4.837   6.643
 6463SOL    HW120288   2.606   4.775   6.660
 6463SOL    HW220289   2.729   4.857   6.729
 6464SOL     OW20290   0.561   5.371   3.512
 6464SOL    HW120291   0.473   5.383   3.559
 6464SOL    HW220292   0.550   5.390   3.415
 6465SOL     OW20293   5.813   1.503   3.716
 6465SOL    HW120294   5.761   1.569   3.662
 6465SOL    HW220295   5.865   1.551   3.786
 6466SOL     OW20296   0.234   2.703   5.094
 6466SOL    HW120297   0.249   2.609   5.122
 6466SOL    HW220298   0.316   2.757   5.112
 6467SOL     OW20299   2.790   1.279   6.562
 6467SOL    HW120300   2.844   1.322   6.489
 6467SOL    HW220301   2.771   1.184   6.538
 6468SOL     OW20302   4.936   6.131   1.582
 6468SOL    HW120303   4.903   6.193   1.511
 6468SOL    HW220304   4.871   6.056   1.595
 6469SOL     OW20305   6.898   0.370   5.305
 6469SOL    HW120306   6.965   0.344   5.374
 6469SOL    HW220307   6.944   0.406   5.224
 6470SOL     OW20308   6.203   6.579   5.996
 6470SOL    HW120309   6.191   6.668   6.039
 6470SOL    HW220310   6.269   6.587   5.920
 6471SOL     OW20311   6.941   4.982   6.688
 6471SOL    HW120312   6.877   4.916   6.649
 6471SOL    HW220313   6.927   4.987   6.787
 6472SOL     OW20314   0.967   6.176   1.750
 6472SOL    HW120315   0.962   6.125   1.835
 6472SOL    HW220316   0.927   6.123   1.676
 6473SOL     OW20317   2.163   1.356   6.260
 6473SOL    HW120318   2.131   1.273   6.214
 6473SOL    HW220319   2.088   1.393   6.316
 6474SOL     OW20320   0.999   3.616   5.955
 6474SOL    HW120321   0.959   3.698   5.914
 6474SOL    HW220322   0.978   3.537   5.898
 6475SOL     OW20323   5.702   6.488   3.575
 6475SOL    HW120324   5.761   6.437   3.512
 6475SOL    HW220325   5.712   6.586   3.557
 6476SOL     OW20326   4.246   4.657   3.122
 6476SOL    HW120327   4.160   4.706   3.112
 6476SOL    HW220328   4.279   4.666   3.217
 6477SOL     OW20329   6.395   5.457   6.865
 6477SOL    HW120330   6.400   5.516   6.946
 6477SOL    HW220331   6.431   5.367   6.887
 6478SOL     OW20332   4.599   5.810   2.032
 6478SOL    HW120333   4.585   5.779   2.126
 6478SOL    HW220334   4.558   5.900   2.020
 6479SOL     OW20335   4.562   5.028   2.325
 6479SOL    HW120336   4.532   4.933   2.312
 6479SOL    HW220337   4.594   5.040   2.419
 6480SOL     OW20338   3.184   2.739   6.899
 6480SOL    HW120339   3.100   2.751   6.951
 6480SOL    HW220340   3.260   2.783   6.947
 6481SOL     OW20341   3.448   1.167   1.443
 6481SOL    HW120342   3.430   1.254   1.398
 6481SOL    HW220343   3.545   1.145   1.435
 6482SOL     OW20344   6.791   6.873   0.225
 6482SOL    HW120345   6.729   6.844   0.151
 6482SOL    HW220346   6.742   6.871   0.312
 6483SOL     OW20347   1.771   6.347   2.261
 6483SOL    HW120348   1.869   6.363   2.246
 6483SOL    HW220349   1.742   6.267   2.208
 6484SOL     OW20350   4.903   0.094   2.619
 6484SOL    HW120351   4.929   0.082   2.523
 6484SOL    HW220352   4.961   0.036   2.676
 6485SOL     OW20353   1.789   2.644   3.770
 6485SOL    HW120354   1.690   2.627   3.769
 6485SOL    HW220355   1.806   2.734   3.729
 6486SOL     OW20356   1.478   3.632   4.008
 6486SOL    HW120357   1.557   3.650   4.066
 6486SOL    HW220358   1.439   3.543   4.032
 6487SOL     OW20359   6.301   6.802   3.806
 6487SOL    HW120360   6.335   6.721   3.757
 6487SOL    HW220361   6.341   6.805   3.897
 6488SOL     OW20362   2.711   5.261   6.283
 6488SOL    HW120363   2.703   5.263   6.383
 6488SOL    HW220364   2.800   5.297   6.255
 6489SOL     OW20365   2.176   1.726   6.189
 6489SOL    HW120366   2.208   1.744   6.096
 6489SOL    HW220367   2.156   1.813   6.235
 6490SOL     OW20368   3.951   2.708   0.380
 6490SOL    HW120369   3.991   2.682   0.468
 6490SOL    HW220370   3.991   2.794   0.349
 6491SOL     OW20371   4.916   1.210   6.542
 6491SOL    HW120372   4.844   1.249   6.484
 6491SOL    HW220373   4.909   1.111   6.543
 6492SOL     OW20374   6.960   6.633   0.213
 6492SOL    HW120375   6.935   6.719   0.256
 6492SOL    HW220376   0.030   6.609   0.240
 6493SOL     OW20377   2.269   6.691   6.565
 6493SOL    HW120378   2.350   6.654   6.520
 6493SOL    HW220379   2.238   6.773   6.517
 6494SOL     OW20380   1.312   0.138   3.584
 6494SOL    HW120381   1.372   0.063   3.556
 6494SOL    HW220382   1.351   0.185   3.663
 6495SOL     OW20383   5.108   5.340   2.916
 6495SOL    HW120384   5.083   5.245   2.935
 6495SOL    HW220385   5.187   5.366   2.972
 6496SOL     OW20386   0.593   6.207   1.819
 6496SOL    HW120387   0.545   6.258   1.748
 6496SOL    HW220388   0.616   6.116   1.786
 6497SOL     OW20389   2.005   3.981   0.635
 6497SOL    HW120390   2.105   3.984   0.642
 6497SOL    HW220391   1.967   4.073   0.648
 6498SOL     OW20392   1.956   3.887   4.452
 6498SOL    HW120393   1.924   3.871   4.546
 6498SOL    HW220394   1.975   3.799   4.409
 6499SOL     OW20395   4.642   1.048   4.694
 6499SOL    HW120396   4.565   1.069   4.754
 6499SOL    HW220397   4.662   0.950   4.698
 6500SOL     OW20398   5.766   4.246   3.146
 6500SOL    HW120399   5.725   4.232   3.056
 6500SOL    HW220400   5.861   4.276   3.135
 6501SOL     OW20401   5.645   3.983   1.004
 6501SOL    HW120402   5.623   4.029   0.918
 6501SOL    HW220403   5.589   4.020   1.077
 6502SOL     OW20404   0.958   4.630   3.532
 6502SOL    HW120405   0.946   4.719   3.575
 6502SOL    HW220406   0.876   4.607   3.479
 6503SOL     OW20407   5.955   6.495   3.717
 6503SOL    HW120408   5.995   6.586   3.731
 6503SOL    HW220409   5.855   6.502   3.721
 6504SOL     OW20410   3.699   1.060   0.171
 6504SOL    HW120411   3.680   0.995   0.244
 6504SOL    HW220412   3.650   1.032   0.088
 6505SOL     OW20413   6.220   4.922   0.536
 6505SOL    HW120414   6.291   4.858   0.506
 6505SOL    HW220415   6.238   4.950   0.630
 6506SOL     OW20416   1.533   3.628   1.089
 6506SOL    HW120417   1.494   3.634   1.181
 6506SOL    HW220418   1.480   3.686   1.027
 6507SOL     OW20419   2.170   5.992   1.388
 6507SOL    HW120420   2.267   5.971   1.395
 6507SOL    HW220421   2.155   6.060   1.316
 6508SOL     OW20422   2.210   2.085   3.573
 6508SOL    HW120423   2.207   2.129   3.483
 6508SOL    HW220424   2.235   2.153   3.642
 6509SOL     OW20425   1.482   2.282   4.763
 6509SOL    HW120426   1.509   2.303   4.669
 6509SOL    HW220427   1.525   2.348   4.825
 6510SOL     OW20428   6.300   4.812   6.465
 6510SOL    HW120429   6.322   4.748   6.391
 6510SOL    HW220430   6.384   4.857   6.496
 6511SOL     OW20431   6.346   6.845   5.575
 6511SOL    HW120432   6.385   6.904   5.646
 6511SOL    HW220433   6.408   6.769   5.557
 6512SOL     OW20434   4.810   6.803   2.762
 6512SOL    HW120435   4.772   6.718   2.725
 6512SOL    HW220436   4.907   6.789   2.784
 6513SOL     OW20437   4.221   6.649   3.704
 6513SOL    HW120438   4.308   6.691   3.730
 6513SOL    HW220439   4.221   6.553   3.733
 6514SOL     OW20440   4.694   0.572   4.373
 6514SOL    HW120441   4.616   0.546   4.430
 6514SOL    HW220442   4.756   0.493   4.364
 6515SOL     OW20443   6.776   6.337   4.276
 6515SOL    HW120444   6.759   6.312   4.180
 6515SOL    HW220445   6.703   6.299   4.333
 6516SOL     OW20446   1.265   2.213   5.597
 6516SOL    HW120447   1.306   2.158   5.524
 6516SOL    HW220448   1.168   2.227   5.578
 6517SOL     OW20449   0.717   1.429   0.390
 6517SOL    HW120450   0.629   1.476   0.404
 6517SOL    HW220451   0.792   1.493   0.407
 6518SOL     OW20452   0.254   6.373   1.549
 6518SOL    HW120453   0.230   6.334   1.460
 6518SOL    HW220454   0.348   6.406   1.546
 6519SOL     OW20455   2.012   1.461   4.132
 6519SOL    HW120456   2.064   1.387   4.089
 6519SOL    HW220457   2.034   1.465   4.229
 6520SOL     OW20458   6.733   5.869   2.358
 6520SOL    HW120459   6.689   5.785   2.392
 6520SOL    HW220460   6.728   5.940   2.428
 6521SOL     OW20461   0.733   1.776   5.105
 6521SOL    HW120462   0.674   1.778   5.024
 6521SOL    HW220463   0.702   1.704   5.167
 6522SOL     OW20464   2.329   5.586   6.581
 6522SOL    HW120465   2.300   5.672   6.623
 6522SOL    HW220466   2.261   5.515   6.600
 6523SOL     OW20467   2.317   1.728   6.648
 6523SOL    HW120468   2.400   1.774   6.679
 6523SOL    HW220469   2.330   1.696   6.554
 6524SOL     OW20470   3.849   3.436   3.912
 6524SOL    HW120471   3.789   3.408   3.836
 6524SOL    HW220472   3.925   3.490   3.876
 6525SOL     OW20473   0.598   2.904   2.772
 6525SOL    HW120474   0.670   2.838   2.749
 6525SOL    HW220475   0.524   2.897   2.706
 6526SOL     OW20476   1.090   5.664   4.698
 6526SOL    HW120477   1.089   5.675   4.797
 6526SOL    HW220478   0.997   5.643   4.666
 6527SOL     OW20479   1.176   6.544   5.212
 6527SOL    HW120480   1.084   6.527   5.180
 6527SOL    HW220481   1.186   6.511   5.306
 6528SOL     OW20482   1.021   1.331   4.489
 6528SOL    HW120483   0.951   1.382   4.540
 6528SOL    HW220484   0.988   1.239   4.470
 6529SOL     OW20485   6.156   1.779   1.786
 6529SOL    HW120486   6.058   1.782   1.767
 6529SOL    HW220487   6.207   1.778   1.700
 6530SOL     OW20488   6.721   2.268   0.004
 6530SOL    HW120489   6.806   2.304   0.044
 6530SOL    HW220490   6.696   2.184   0.051
 6531SOL     OW20491   5.470   2.704   3.584
 6531SOL    HW120492   5.518   2.688   3.497
 6531SOL    HW220493   5.458   2.802   3.598
 6532SOL     OW20494   5.999   1.273   6.556
 6532SOL    HW120495   5.934   1.340   6.521
 6532SOL    HW220496   6.090   1.314   6.562
 6533SOL     OW20497   5.022   6.854   0.451
 6533SOL    HW120498   5.063   6.941   0.480
 6533SOL    HW220499   5.093   6.784   0.446
 6534SOL     OW20500   2.597   3.743   1.514
 6534SOL    HW120501   2.555   3.658   1.482
 6534SOL    HW220502   2.683   3.722   1.561
 6535SOL     OW20503   0.809   3.172   4.874
 6535SOL    HW120504   0.765   3.213   4.794
 6535SOL    HW220505   0.801   3.072   4.869
 6536SOL     OW20506   5.880   1.890   0.223
 6536SOL    HW120507   5.876   1.795   0.254
 6536SOL    HW220508   5.947   1.898   0.149
 6537SOL     OW20509   0.555   6.941   0.210
 6537SOL    HW120510   0.511   6.854   0.230
 6537SOL    HW220511   0.639   6.949   0.263
 6538SOL     OW20512   3.213   4.292   0.269
 6538SOL    HW120513   3.146   4.313   0.198
 6538SOL    HW220514   3.263   4.375   0.294
 6539SOL     OW20515   2.698   1.430   6.799
 6539SOL    HW120516   2.701   1.333   6.775
 6539SOL    HW220517   2.639   1.478   6.734
 6540SOL     OW20518   3.457   0.684   4.587
 6540SOL    HW120519   3.415   0.730   4.509
 6540SOL    HW220520   3.492   0.595   4.559
 6541SOL     OW20521   2.972   2.311   5.807
 6541SOL    HW120522   3.005   2.404   5.788
 6541SOL    HW220523   2.967   2.296   5.906
 6542SOL     OW20524   6.551   4.791   3.382
 6542SOL    HW120525   6.489   4.806   3.458
 6542SOL    HW220526   6.631   4.740   3.413
 6543SOL     OW20527   6.034   5.943   6.675
 6543SOL    HW120528   6.040   5.851   6.713
 6543SOL    HW220529   6.070   5.942   6.582
 6544SOL     OW20530   6.983   6.476   3.973
 6544SOL    HW120531   6.960   6.401   4.036
 6544SOL    HW220532   6.908   6.490   3.909
 6545SOL     OW20533   5.289   1.502   5.967
 6545SOL    HW120534   5.307   1.500   5.868
 6545SOL    HW220535   5.190   1.509   5.983
 6546SOL     OW20536   3.032   5.285   5.691
 6546SOL    HW120537   3.005   5.334   5.609
 6546SOL    HW220538   3.001   5.336   5.772
 6547SOL     OW20539   5.085   2.339   6.373
 6547SOL    HW120540   5.108   2.267   6.308
 6547SOL    HW220541   5.168   2.376   6.413
 6548SOL     OW20542   6.271   4.385   5.651
 6548SOL    HW120543   6.262   4.290   5.621
 6548SOL    HW220544   6.207   4.403   5.726
 6549SOL     OW20545   4.127   2.314   0.581
 6549SOL    HW120546   4.179   2.351   0.658
 6549SOL    HW220547   4.056   2.380   0.554
 6550SOL     OW20548   0.974   5.711   3.715
 6550SOL    HW120549   0.937   5.801   3.695
 6550SOL    HW220550   1.068   5.705   3.681
 6551SOL     OW20551   1.554   4.683   1.909
 6551SOL    HW120552   1.623   4.617   1.939
 6551SOL    HW220553   1.572   4.771   1.952
 6552SOL     OW20554   2.788   4.640   6.015
 6552SOL    HW120555   2.776   4.573   5.941
 6552SOL    HW220556   2.855   4.708   5.987
 6553SOL     OW20557   0.523   3.345   2.226
 6553SOL    HW120558   0.479   3.334   2.137
 6553SOL    HW220559   0.483   3.282   2.292
 6554SOL     OW20560   6.112   1.869   6.131
 6554SOL    HW120561   6.121   1.955   6.180
 6554SOL    HW220562   6.189   1.858   6.068
 6555SOL     OW20563   1.728   1.305   2.226
 6555SOL    HW120564   1.817   1.259   2.220
 6555SOL    HW220565   1.709   1.329   2.321
 6556SOL     OW20566   4.346   5.704   4.664
 6556SOL    HW120567   4.310   5.664   4.748
 6556SOL    HW220568   4.286   5.679   4.588
 6557SOL     OW20569   6.287   5.593   0.655
 6557SOL    HW120570   6.193   5.585   0.688
 6557SOL    HW220571   6.286   5.618   0.558
 6558SOL     OW20572   5.962   5.943   6.963
 6558SOL    HW120573   6.052   5.906   6.988
 6558SOL    HW220574   5.967   5.983   6.872
 6559SOL     OW20575   4.632   3.869   1.209
 6559SOL    HW120576   4.544   3.844   1.169
 6559SOL    HW220577   4.680   3.787   1.239
 6560SOL     OW20578   3.640   3.445   0.940
 6560SOL    HW120579   3.728   3.481   0.969
 6560SOL    HW220580   3.601   3.505   0.870
 6561SOL     OW20581   4.034   3.789   2.905
 6561SOL    HW120582   4.055   3.860   2.973
 6561SOL    HW220583   3.982   3.716   2.949
 6562SOL     OW20584   6.257   4.725   5.933
 6562SOL    HW120585   6.260   4.720   5.833
 6562SOL    HW220586   6.348   4.706   5.970
 6563SOL     OW20587   0.566   5.814   1.482
 6563SOL    HW120588   0.661   5.796   1.457
 6563SOL    HW220589   0.506   5.752   1.431
 6564SOL     OW20590   1.179   4.241   2.069
 6564SOL    HW120591   1.241   4.315   2.046
 6564SOL    HW220592   1.185   4.168   2.000
 6565SOL     OW20593   6.913   2.968   4.687
 6565SOL    HW120594   6.912   2.879   4.732
 6565SOL    HW220595   7.004   3.010   4.698
 6566SOL     OW20596   3.489   6.452   0.673
 6566SOL    HW120597   3.586   6.450   0.649
 6566SOL    HW220598   3.476   6.417   0.766
 6567SOL     OW20599   5.253   2.629   0.730
 6567SOL    HW120600   5.265   2.603   0.634
 6567SOL    HW220601   5.163   2.600   0.762
 6568SOL     OW20602   4.310   4.502   1.793
 6568SOL    HW120603   4.337   4.531   1.884
 6568SOL    HW220604   4.339   4.407   1.778
 6569SOL     OW20605   2.034   4.755   0.319
 6569SOL    HW120606   2.102   4.823   0.347
 6569SOL    HW220607   2.081   4.674   0.284
 6570SOL     OW20608   5.551   1.553   1.909
 6570SOL    HW120609   5.506   1.503   1.983
 6570SOL    HW220610   5.483   1.589   1.846
 6571SOL     OW20611   2.647   6.131   3.743
 6571SOL    HW120612   2.635   6.097   3.837
 6571SOL    HW220613   2.715   6.075   3.697
 6572SOL     OW20614   0.232   4.002   5.647
 6572SOL    HW120615   0.195   3.969   5.560
 6572SOL    HW220616   0.300   4.073   5.630
 6573SOL     OW20617   3.017   1.322   1.982
 6573SOL    HW120618   3.077   1.402   1.988
 6573SOL    HW220619   3.069   1.243   1.951
 6574SOL     OW20620   2.787   5.014   2.854
 6574SOL    HW120621   2.745   4.923   2.847
 6574SOL    HW220622   2.780   5.047   2.948
 6575SOL     OW20623   1.101   1.214   1.915
 6575SOL    HW120624   1.004   1.195   1.899
 6575SOL    HW220625   1.112   1.255   2.005
 6576SOL     OW20626   1.128   5.933   6.876
 6576SOL    HW120627   1.178   6.007   6.921
 6576SOL    HW220628   1.142   5.848   6.927
 6577SOL     OW20629   0.622   2.055   3.822
 6577SOL    HW120630   0.636   1.980   3.887
 6577SOL    HW220631   0.548   2.114   3.855
 6578SOL     OW20632   6.266   5.632   3.516
 6578SOL    HW120633   6.206   5.554   3.497
 6578SOL    HW220634   6.268   5.650   3.614
 6579SOL     OW20635   6.777   4.679   3.468
 6579SOL    HW120636   6.840   4.753   3.442
 6579SOL    HW220637   6.801   4.645   3.558
 6580SOL     OW20638   5.252   1.090   1.475
 6580SOL    HW120639   5.314   1.018   1.505
 6580SOL    HW220640   5.242   1.159   1.547
 6581SOL     OW20641   4.119   2.233   6.355
 6581SOL    HW120642   4.090   2.193   6.268
 6581SOL    HW220643   4.039   2.272   6.402
 6582SOL     OW20644   6.702   6.867   2.688
 6582SOL    HW120645   6.764   6.831   2.758
 6582SOL    HW220646   6.705   6.808   2.607
 6583SOL     OW20647   5.612   0.995   6.041
 6583SOL    HW120648   5.532   0.973   5.985
 6583SOL    HW220649   5.663   1.070   5.999
 6584SOL     OW20650   6.183   1.599   7.014
 6584SOL    HW120651   6.189   1.657   0.071
 6584SOL    HW220652   6.198   1.504   0.015
 6585SOL     OW20653   0.643   1.724   6.443
 6585SOL    HW120654   0.635   1.802   6.380
 6585SOL    HW220655   0.712   1.744   6.512
 6586SOL     OW20656   6.612   1.854   6.042
 6586SOL    HW120657   6.625   1.898   6.130
 6586SOL    HW220658   6.576   1.761   6.055
 6587SOL     OW20659   2.005   5.687   3.444
 6587SOL    HW120660   1.951   5.645   3.517
 6587SOL    HW220661   2.071   5.751   3.483
 6588SOL     OW20662   1.526   2.895   6.863
 6588SOL    HW120663   1.593   2.906   6.790
 6588SOL    HW220664   1.434   2.899   6.824
 6589SOL     OW20665   4.828   1.392   5.910
 6589SOL    HW120666   4.826   1.400   5.810
 6589SOL    HW220667   4.743   1.349   5.941
 6590SOL     OW20668   0.018   1.345   4.796
 6590SOL    HW120669   6.962   1.399   4.821
 6590SOL    HW220670   0.034   1.275   4.866
 6591SOL     OW20671   5.757   6.710   3.074
 6591SOL    HW120672   5.721   6.791   3.028
 6591SOL    HW220673   5.851   6.694   3.045
 6592SOL     OW20674   4.725   6.843   4.711
 6592SOL    HW120675   4.692   6.794   4.630
 6592SOL    HW220676   4.744   6.778   4.785
 6593SOL     OW20677   3.190   1.848   3.278
 6593SOL    HW120678   3.199   1.797   3.193
 6593SOL    HW220679   3.238   1.936   3.270
 6594SOL     OW20680   4.732   0.752   6.565
 6594SOL    HW120681   4.737   0.787   6.658
 6594SOL    HW220682   4.692   0.660   6.567
 6595SOL     OW20683   1.385   3.741   0.841
 6595SOL    HW120684   1.316   3.669   0.830
 6595SOL    HW220685   1.412   3.775   0.751
 6596SOL     OW20686   4.613   6.924   5.317
 6596SOL    HW120687   4.702   6.966   5.299
 6596SOL    HW220688   4.573   6.964   5.400
 6597SOL     OW20689   6.938   6.132   4.385
 6597SOL    HW120690   6.896   6.121   4.475
 6597SOL    HW220691   6.894   6.206   4.336
 6598SOL     OW20692   1.849   5.976   4.969
 6598SOL    HW120693   1.782   5.921   5.019
 6598SOL    HW220694   1.823   5.982   4.873
 6599SOL     OW20695   4.181   5.351   6.272
 6599SOL    HW120696   4.153   5.265   6.228
 6599SOL    HW220697   4.266   5.336   6.322
 6600SOL     OW20698   4.816   6.096   4.180
 6600SOL    HW120699   4.752   6.088   4.257
 6600SOL    HW220700   4.770   6.141   4.103
 6601SOL     OW20701   0.508   0.958   0.235
 6601SOL    HW120702   0.592   1.009   0.217
 6601SOL    HW220703   0.519   0.864   0.204
 6602SOL     OW20704   6.815   1.698   1.234
 6602SOL    HW120705   6.830   1.717   1.331
 6602SOL    HW220706   6.771   1.777   1.191
 6603SOL     OW20707   2.075   3.492   2.989
 6603SOL    HW120708   2.127   3.449   3.063
 6603SOL    HW220709   2.002   3.430   2.960
 6604SOL     OW20710   2.964   5.437   2.578
 6604SOL    HW120711   2.926   5.438   2.670
 6604SOL    HW220712   2.905   5.382   2.518
 6605SOL     OW20713   5.693   5.818   0.048
 6605SOL    HW120714   5.780   5.865   0.039
 6605SOL    HW220715   5.692   5.737   7.013
 6606SOL     OW20716   5.134   0.795   2.087
 6606SOL    HW120717   5.040   0.829   2.085
 6606SOL    HW220718   5.139   0.715   2.146
 6607SOL     OW20719   2.218   1.294   2.292
 6607SOL    HW120720   2.286   1.333   2.230
 6607SOL    HW220721   2.230   1.331   2.384
 6608SOL     OW20722   5.621   3.651   3.879
 6608SOL    HW120723   5.590   3.727   3.936
 6608SOL    HW220724   5.585   3.565   3.916
 6609SOL     OW20725   5.497   0.835   6.756
 6609SOL    HW120726   5.472   0.930   6.777
 6609SOL    HW220727   5.531   0.791   6.839
 6610SOL     OW20728   1.848   0.845   0.759
 6610SOL    HW120729   1.807   0.832   0.850
 6610SOL    HW220730   1.776   0.868   0.694
 6611SOL     OW20731   6.368   2.718   2.899
 6611SOL    HW120732   6.373   2.621   2.922
 6611SOL    HW220733   6.368   2.729   2.800
 6612SOL     OW20734   1.647   6.156   0.035
 6612SOL    HW120735   1.739   6.189   0.058
 6612SOL    HW220736   1.579   6.225   0.059
 6613SOL     OW20737   4.938   5.540   2.942
 6613SOL    HW120738   5.002   5.464   2.932
 6613SOL    HW220739   4.931   5.590   2.855
 6614SOL     OW20740   5.257   5.131   6.102
 6614SOL    HW120741   5.329   5.189   6.063
 6614SOL    HW220742   5.199   5.186   6.161
 6615SOL     OW20743   0.262   3.774   5.431
 6615SOL    HW120744   0.206   3.852   5.401
 6615SOL    HW220745   0.211   3.721   5.499
 6616SOL     OW20746   5.180   1.293   5.057
 6616SOL    HW120747   5.143   1.376   5.098
 6616SOL    HW220748   5.259   1.262   5.110
 6617SOL     OW20749   2.919   6.742   4.590
 6617SOL    HW120750   2.861   6.769   4.513
 6617SOL    HW220751   2.888   6.789   4.673
 6618SOL     OW20752   0.699   4.255   1.829
 6618SOL    HW120753   0.697   4.234   1.927
 6618SOL    HW220754   0.606   4.267   1.796
 6619SOL     OW20755   4.522   6.464   3.302
 6619SOL    HW120756   4.500   6.373   3.266
 6619SOL    HW220757   4.620   6.468   3.324
 6620SOL     OW20758   1.449   2.846   5.970
 6620SOL    HW120759   1.432   2.750   5.992
 6620SOL    HW220760   1.548   2.864   5.974
 6621SOL     OW20761   2.640   3.979   0.090
 6621SOL    HW120762   2.676   4.064   0.052
 6621SOL    HW220763   2.545   3.968   0.064
 6622SOL     OW20764   6.222   6.268   0.448
 6622SOL    HW120765   6.136   6.319   0.439
 6622SOL    HW220766   6.202   6.170   0.448
 6623SOL     OW20767   3.463   2.846   2.841
 6623SOL    HW120768   3.466   2.839   2.741
 6623SOL    HW220769   3.367   2.848   2.872
 6624SOL     OW20770   4.287   5.897   4.439
 6624SOL    HW120771   4.231   5.835   4.384
 6624SOL    HW220772   4.229   5.970   4.477
 6625SOL     OW20773   6.388   0.502   6.332
 6625SOL    HW120774   6.338   0.577   6.289
 6625SOL    HW220775   6.415   0.435   6.263
 6626SOL     OW20776   3.551   5.203   3.062
 6626SOL    HW120777   3.548   5.103   3.056
 6626SOL    HW220778   3.471   5.236   3.111
 6627SOL     OW20779   2.047   0.825   6.569
 6627SOL    HW120780   1.955   0.793   6.545
 6627SOL    HW220781   2.052   0.924   6.554
 6628SOL     OW20782   4.178   5.351   2.908
 6628SOL    HW120783   4.192   5.383   3.002
 6628SOL    HW220784   4.178   5.429   2.846
 6629SOL     OW20785   3.577   5.390   0.850
 6629SOL    HW120786   3.659   5.421   0.801
 6629SOL    HW220787   3.541   5.465   0.906
 6630SOL     OW20788   3.190   2.150   0.162
 6630SOL    HW120789   3.161   2.197   0.079
 6630SOL    HW220790   3.110   2.127   0.217
 6631SOL     OW20791   5.180   0.694   2.493
 6631SOL    HW120792   5.145   0.787   2.510
 6631SOL    HW220793   5.129   0.629   2.551
 6632SOL     OW20794   6.738   1.012   6.758
 6632SOL    HW120795   6.790   1.076   6.702
 6632SOL    HW220796   6.766   1.021   6.853
 6633SOL     OW20797   1.879   6.492   0.820
 6633SOL    HW120798   1.930   6.472   0.736
 6633SOL    HW220799   1.888   6.590   0.841
 6634SOL     OW20800   6.160   2.809   5.720
 6634SOL    HW120801   6.099   2.863   5.778
 6634SOL    HW220802   6.230   2.868   5.681
 6635SOL     OW20803   4.854   5.035   3.757
 6635SOL    HW120804   4.892   4.946   3.732
 6635SOL    HW220805   4.929   5.097   3.780
 6636SOL     OW20806   1.601   2.729   4.486
 6636SOL    HW120807   1.632   2.666   4.416
 6636SOL    HW220808   1.515   2.696   4.525
 6637SOL     OW20809   1.001   0.496   0.668
 6637SOL    HW120810   1.065   0.420   0.678
 6637SOL    HW220811   0.907   0.461   0.661
 6638SOL     OW20812   1.764   5.965   5.399
 6638SOL    HW120813   1.732   5.956   5.493
 6638SOL    HW220814   1.863   5.949   5.395
 6639SOL     OW20815   5.954   4.572   6.595
 6639SOL    HW120816   5.924   4.667   6.591
 6639SOL    HW220817   5.922   4.523   6.514
 6640SOL     OW20818   6.828   2.105   3.097
 6640SOL    HW120819   6.806   2.121   3.193
 6640SOL    HW220820   6.816   2.191   3.046
 6641SOL     OW20821   2.566   3.722   6.401
 6641SOL    HW120822   2.586   3.667   6.483
 6641SOL    HW220823   2.567   3.663   6.321
 6642SOL     OW20824   1.076   5.762   5.968
 6642SOL    HW120825   1.155   5.805   6.010
 6642SOL    HW220826   1.014   5.728   6.039
 6643SOL     OW20827   5.938   3.873   6.204
 6643SOL    HW120828   5.854   3.870   6.150
 6643SOL    HW220829   5.947   3.964   6.245
 6644SOL     OW20830   2.799   4.873   1.817
 6644SOL    HW120831   2.785   4.972   1.821
 6644SOL    HW220832   2.811   4.837   1.910
 6645SOL     OW20833   6.768   4.535   5.873
 6645SOL    HW120834   6.796   4.575   5.960
 6645SOL    HW220835   6.818   4.450   5.857
 6646SOL     OW20836   3.130   5.545   4.455
 6646SOL    HW120837   3.085   5.527   4.542
 6646SOL    HW220838   3.208   5.606   4.469
 6647SOL     OW20839   3.447   0.843   2.002
 6647SOL    HW120840   3.420   0.934   1.971
 6647SOL    HW220841   3.458   0.782   1.923
 6648SOL     OW20842   4.556   5.889   2.687
 6648SOL    HW120843   4.580   5.793   2.671
 6648SOL    HW220844   4.488   5.895   2.760
 6649SOL     OW20845   4.865   1.739   6.357
 6649SOL    HW120846   4.898   1.738   6.452
 6649SOL    HW220847   4.899   1.821   6.311
 6650SOL     OW20848   4.005   1.313   4.373
 6650SOL    HW120849   3.983   1.216   4.383
 6650SOL    HW220850   3.930   1.359   4.324
 6651SOL     OW20851   0.842   2.405   6.880
 6651SOL    HW120852   0.920   2.462   6.905
 6651SOL    HW220853   0.868   2.309   6.885
 6652SOL     OW20854   0.209   5.709   1.369
 6652SOL    HW120855   0.167   5.623   1.341
 6652SOL    HW220856   0.309   5.701   1.363
 6653SOL     OW20857   3.737   4.092   3.060
 6653SOL    HW120858   3.709   4.024   2.992
 6653SOL    HW220859   3.782   4.169   3.013
 6654SOL     OW20860   2.224   3.199   1.822
 6654SOL    HW120861   2.158   3.163   1.888
 6654SOL    HW220862   2.259   3.287   1.855
 6655SOL     OW20863   3.139   6.832   1.987
 6655SOL    HW120864   3.214   6.845   2.053
 6655SOL    HW220865   3.055   6.808   2.037
 6656SOL     OW20866   6.704   1.398   1.393
 6656SOL    HW120867   6.759   1.393   1.309
 6656SOL    HW220868   6.631   1.465   1.381
 6657SOL     OW20869   3.592   6.510   6.730
 6657SOL    HW120870   3.545   6.540   6.814
 6657SOL    HW220871   3.529   6.517   6.653
 6658SOL     OW20872   5.898   1.770   4.922
 6658SOL    HW120873   5.954   1.851   4.939
 6658SOL    HW220874   5.891   1.754   4.824
 6659SOL     OW20875   2.475   3.592   0.298
 6659SOL    HW120876   2.546   3.663   0.300
 6659SOL    HW220877   2.517   3.502   0.308
 6660SOL     OW20878   6.681   6.826   2.346
 6660SOL    HW120879   6.705   6.737   2.307
 6660SOL    HW220880   6.759   6.888   2.337
 6661SOL     OW20881   6.986   5.813   3.978
 6661SOL    HW120882   7.016   5.780   4.068
 6661SOL    HW220883   6.888   5.800   3.969
 6662SOL     OW20884   2.241   1.247   0.344
 6662SOL    HW120885   2.306   1.197   0.288
 6662SOL    HW220886   2.263   1.235   0.441
 6663SOL     OW20887   0.361   5.698   1.678
 6663SOL    HW120888   0.374   5.759   1.599
 6663SOL    HW220889   0.365   5.752   1.762
 6664SOL     OW20890   1.273   0.435   2.495
 6664SOL    HW120891   1.180   0.464   2.473
 6664SOL    HW220892   1.287   0.437   2.594
 6665SOL     OW20893   1.878   6.061   3.217
 6665SOL    HW120894   1.942   6.044   3.292
 6665SOL    HW220895   1.838   6.152   3.227
 6666SOL     OW20896   6.401   1.450   5.357
 6666SOL    HW120897   6.491   1.421   5.325
 6666SOL    HW220898   6.349   1.488   5.280
 6667SOL     OW20899   6.825   5.415   4.649
 6667SOL    HW120900   6.881   5.349   4.599
 6667SOL    HW220901   6.746   5.368   4.690
 6668SOL     OW20902   0.549   4.820   2.262
 6668SOL    HW120903   0.521   4.847   2.354
 6668SOL    HW220904   0.632   4.870   2.236
 6669SOL     OW20905   2.296   5.563   3.568
 6669SOL    HW120906   2.302   5.640   3.631
 6669SOL    HW220907   2.237   5.492   3.607
 6670SOL     OW20908   3.087   4.735   6.743
 6670SOL    HW120909   3.129   4.813   6.790
 6670SOL    HW220910   3.035   4.681   6.809
 6671SOL     OW20911   7.009   3.835   6.121
 6671SOL    HW120912   0.056   3.889   6.166
 6671SOL    HW220913   7.002   3.746   6.165
 6672SOL     OW20914   1.139   0.631   5.359
 6672SOL    HW120915   1.105   0.567   5.428
 6672SOL    HW220916   1.063   0.662   5.302
 6673SOL     OW20917   5.012   5.124   2.314
 6673SOL    HW120918   5.008   5.024   2.314
 6673SOL    HW220919   5.026   5.157   2.407
 6674SOL     OW20920   0.557   6.125   5.230
 6674SOL    HW120921   0.619   6.067   5.177
 6674SOL    HW220922   0.471   6.077   5.245
 6675SOL     OW20923   5.955   4.524   0.365
 6675SOL    HW120924   5.855   4.526   0.355
 6675SOL    HW220925   5.981   4.450   0.427
 6676SOL     OW20926   0.955   3.166   5.616
 6676SOL    HW120927   0.974   3.096   5.685
 6676SOL    HW220928   0.998   3.139   5.529
 6677SOL     OW20929   0.418   3.404   0.640
 6677SOL    HW120930   0.492   3.339   0.623
 6677SOL    HW220931   0.331   3.362   0.614
 6678SOL     OW20932   1.136   2.544   5.833
 6678SOL    HW120933   1.197   2.545   5.912
 6678SOL    HW220934   1.187   2.569   5.751
 6679SOL     OW20935   1.297   2.721   5.223
 6679SOL    HW120936   1.206   2.704   5.263
 6679SOL    HW220937   1.286   2.751   5.128
 6680SOL     OW20938   3.974   6.327   6.248
 6680SOL    HW120939   4.038   6.253   6.226
 6680SOL    HW220940   3.911   6.297   6.319
 6681SOL     OW20941   5.357   5.320   0.480
 6681SOL    HW120942   5.405   5.376   0.547
 6681SOL    HW220943   5.407   5.235   0.463
 6682SOL     OW20944   0.866   5.468   2.553
 6682SOL    HW120945   0.861   5.564   2.525
 6682SOL    HW220946   0.796   5.450   2.622
 6683SOL     OW20947   4.990   1.871   5.256
 6683SOL    HW120948   5.003   1.775   5.281
 6683SOL    HW220949   5.019   1.884   5.161
 6684SOL     OW20950   1.637   6.856   2.217
 6684SOL    HW120951   1.702   6.899   2.155
 6684SOL    HW220952   1.655   6.757   2.221
 6685SOL     OW20953   5.568   2.972   6.249
 6685SOL    HW120954   5.642   3.040   6.257
 6685SOL    HW220955   5.491   3.013   6.201
 6686SOL     OW20956   6.053   3.756   3.297
 6686SOL    HW120957   5.965   3.712   3.315
 6686SOL    HW220958   6.038   3.853   3.276
 6687SOL     OW20959   1.231   1.436   1.010
 6687SOL    HW120960   1.239   1.340   1.037
 6687SOL    HW220961   1.251   1.446   0.913
 6688SOL     OW20962   0.445   4.593   2.540
 6688SOL    HW120963   0.379   4.579   2.614
 6688SOL    HW220964   0.492   4.507   2.521
 6689SOL     OW20965   5.043   4.027   0.065
 6689SOL    HW120966   5.121   4.028   0.002
 6689SOL    HW220967   5.058   3.957   0.135
 6690SOL     OW20968   2.003   3.238   1.134
 6690SOL    HW120969   2.040   3.171   1.070
 6690SOL    HW220970   2.004   3.200   1.226
 6691SOL     OW20971   2.823   5.920   1.615
 6691SOL    HW120972   2.783   5.982   1.683
 6691SOL    HW220973   2.863   5.974   1.541
 6692SOL     OW20974   3.052   4.503   5.351
 6692SOL    HW120975   3.081   4.407   5.347
 6692SOL    HW220976   2.980   4.518   5.283
 6693SOL     OW20977   4.490   3.732   5.537
 6693SOL    HW120978   4.534   3.734   5.627
 6693SOL    HW220979   4.435   3.648   5.529
 6694SOL     OW20980   4.864   6.279   0.431
 6694SOL    HW120981   4.885   6.199   0.375
 6694SOL    HW220982   4.767   6.278   0.456
 6695SOL     OW20983   0.813   1.806   6.642
 6695SOL    HW120984   0.898   1.769   6.679
 6695SOL    HW220985   0.756   1.841   6.716
 6696SOL     OW20986   1.982   3.444   1.909
 6696SOL    HW120987   2.041   3.453   1.989
 6696SOL    HW220988   1.987   3.351   1.874
 6697SOL     OW20989   4.478   1.323   2.800
 6697SOL    HW120990   4.545   1.277   2.857
 6697SOL    HW220991   4.519   1.406   2.762
 6698SOL     OW20992   3.906   2.587   6.671
 6698SOL    HW120993   3.845   2.648   6.621
 6698SOL    HW220994   3.999   2.595   6.634
 6699SOL     OW20995   2.754   4.873   6.913
 6699SOL    HW120996   2.772   4.776   6.901
 6699SOL    HW220997   2.782   4.902   7.005
 6700SOL     OW20998   0.413   5.347   1.062
 6700SOL    HW120999   0.491   5.367   1.003
 6700SOL    HW221000   0.443   5.338   1.157
 6701SOL     OW21001   0.498   1.767   0.147
 6701SOL    HW121002   0.493   1.714   0.063
 6701SOL    HW221003   0.524   1.708   0.223
 6702SOL     OW21004   1.998   1.681   0.747
 6702SOL    HW121005   2.033   1.619   0.677
 6702SOL    HW221006   2.072   1.739   0.781
 6703SOL     OW21007   0.084   1.258   6.301
 6703SOL    HW121008   7.018   1.245   6.340
 6703SOL    HW221009   0.134   1.327   6.354
 6704SOL     OW21010   4.687   2.746   2.948
 6704SOL    HW121011   4.656   2.667   3.000
 6704SOL    HW221012   4.668   2.830   3.000
 6705SOL     OW21013   6.404   2.001   1.231
 6705SOL    HW121014   6.340   2.032   1.160
 6705SOL    HW221015   6.453   2.080   1.267
 6706SOL     OW21016   0.754   4.045   6.909
 6706SOL    HW121017   0.806   3.970   6.869
 6706SOL    HW221018   0.701   4.012   6.986
 6707SOL     OW21019   0.714   5.465   3.715
 6707SOL    HW121020   0.666   5.412   3.644
 6707SOL    HW221021   0.720   5.410   3.798
 6708SOL     OW21022   2.612   6.360   2.361
 6708SOL    HW121023   2.612   6.444   2.306
 6708SOL    HW221024   2.703   6.319   2.360
 6709SOL     OW21025   3.794   0.872   1.917
 6709SOL    HW121026   3.892   0.894   1.921
 6709SOL    HW221027   3.752   0.916   1.838
 6710SOL     OW21028   3.305   2.532   0.136
 6710SOL    HW121029   3.350   2.620   0.142
 6710SOL    HW221030   3.300   2.504   0.040
 6711SOL     OW21031   4.349   3.613   0.115
 6711SOL    HW121032   4.420   3.556   0.158
 6711SOL    HW221033   4.276   3.554   0.082
 6712SOL     OW21034   3.719   6.333   0.379
 6712SOL    HW121035   3.770   6.260   0.334
 6712SOL    HW221036   3.721   6.318   0.478
 6713SOL     OW21037   1.786   2.725   2.055
 6713SOL    HW121038   1.738   2.810   2.076
 6713SOL    HW221039   1.724   2.662   2.008
 6714SOL     OW21040   5.833   0.480   4.020
 6714SOL    HW121041   5.744   0.463   4.063
 6714SOL    HW221042   5.905   0.476   4.088
 6715SOL     OW21043   0.583   1.365   0.843
 6715SOL    HW121044   0.541   1.298   0.781
 6715SOL    HW221045   0.636   1.317   0.913
 6716SOL     OW21046   2.358   5.698   1.281
 6716SOL    HW121047   2.285   5.630   1.285
 6716SOL    HW221048   2.336   5.767   1.212
 6717SOL     OW21049   4.501   2.279   0.660
 6717SOL    HW121050   4.481   2.336   0.581
 6717SOL    HW221051   4.452   2.192   0.653
 6718SOL     OW21052   3.109   0.597   0.541
 6718SOL    HW121053   3.050   0.544   0.480
 6718SOL    HW221054   3.198   0.553   0.549
 6719SOL     OW21055   0.022   6.540   5.458
 6719SOL    HW121056   0.005   6.441   5.464
 6719SOL    HW221057   0.047   6.564   5.364
 6720SOL     OW21058   2.331   5.170   1.535
 6720SOL    HW121059   2.332   5.107   1.613
 6720SOL    HW221060   2.252   5.231   1.543
 6721SOL     OW21061   5.232   6.820   3.874
 6721SOL    HW121062   5.201   6.739   3.825
 6721SOL    HW221063   5.235   6.801   3.972
 6722SOL     OW21064   4.286   2.946   6.541
 6722SOL    HW121065   4.321   2.974   6.631
 6722SOL    HW221066   4.190   2.922   6.549
 6723SOL     OW21067   3.416   6.496   3.422
 6723SOL    HW121068   3.491   6.512   3.486
 6723SOL    HW221069   3.351   6.432   3.462
 6724SOL     OW21070   2.968   4.900   5.178
 6724SOL    HW121071   3.065   4.877   5.174
 6724SOL    HW221072   2.915   4.817   5.195
 6725SOL     OW21073   1.054   5.270   2.542
 6725SOL    HW121074   1.121   5.283   2.616
 6725SOL    HW221075   0.982   5.338   2.550
 6726SOL     OW21076   2.772   2.118   3.668
 6726SOL    HW121077   2.776   2.021   3.689
 6726SOL    HW221078   2.767   2.171   3.752
 6727SOL     OW21079   4.153   3.206   6.134
 6727SOL    HW121080   4.140   3.293   6.182
 6727SOL    HW221081   4.207   3.144   6.191
 6728SOL     OW21082   4.070   1.703   3.722
 6728SOL    HW121083   4.109   1.672   3.635
 6728SOL    HW221084   4.064   1.625   3.785
 6729SOL     OW21085   6.034   0.866   2.431
 6729SOL    HW121086   5.967   0.936   2.406
 6729SOL    HW221087   6.028   0.847   2.529
 6730SOL     OW21088   2.417   1.107   6.922
 6730SOL    HW121089   2.469   1.025   6.945
 6730SOL    HW221090   2.448   1.142   6.834
 6731SOL     OW21091   2.776   5.023   1.455
 6731SOL    HW121092   2.728   5.040   1.541
 6731SOL    HW221093   2.834   4.942   1.464
 6732SOL     OW21094   2.445   6.081   0.999
 6732SOL    HW121095   2.521   6.052   0.939
 6732SOL    HW221096   2.472   6.162   1.051
 6733SOL     OW21097   5.487   6.045   4.884
 6733SOL    HW121098   5.425   5.967   4.882
 6733SOL    HW221099   5.582   6.012   4.878
 6734SOL     OW21100   2.430   3.152   5.648
 6734SOL    HW121101   2.464   3.145   5.554
 6734SOL    HW221102   2.471   3.079   5.703
 6735SOL     OW21103   6.804   5.311   5.651
 6735SOL    HW121104   6.711   5.275   5.644
 6735SOL    HW221105   6.803   5.397   5.701
 6736SOL     OW21106   2.090   3.309   2.245
 6736SOL    HW121107   2.121   3.345   2.333
 6736SOL    HW221108   2.144   3.349   2.172
 6737SOL     OW21109   1.912   1.281   1.940
 6737SOL    HW121110   1.915   1.379   1.960
 6737SOL    HW221111   1.933   1.229   2.023
 6738SOL     OW21112   3.008   0.886   2.670
 6738SOL    HW121113   3.048   0.906   2.580
 6738SOL    HW221114   3.079   0.896   2.740
 6739SOL     OW21115   3.601   6.165   4.958
 6739SOL    HW121116   3.553   6.117   5.031
 6739SOL    HW221117   3.684   6.115   4.933
 6740SOL     OW21118   1.527   1.820   3.625
 6740SOL    HW121119   1.505   1.795   3.531
 6740SOL    HW221120   1.462   1.776   3.687
 6741SOL     OW21121   0.008   0.356   6.087
 6741SOL    HW121122   6.982   0.292   6.144
 6741SOL    HW221123   6.970   0.426   6.052
 6742SOL     OW21124   6.253   5.514   5.334
 6742SOL    HW121125   6.342   5.547   5.365
 6742SOL    HW221126   6.265   5.434   5.275
 6743SOL     OW21127   4.036   3.393   1.378
 6743SOL    HW121128   3.965   3.391   1.448
 6743SOL    HW221129   4.120   3.430   1.417
 6744SOL     OW21130   4.608   4.979   5.685
 6744SOL    HW121131   4.579   4.940   5.597
 6744SOL    HW221132   4.695   5.025   5.673
 6745SOL     OW21133   1.715   4.577   4.185
 6745SOL    HW121134   1.705   4.505   4.116
 6745SOL    HW221135   1.812   4.587   4.208
 6746SOL     OW21136   0.209   2.099   0.687
 6746SOL    HW121137   0.113   2.093   0.712
 6746SOL    HW221138   0.264   2.050   0.755
 6747SOL     OW21139   5.578   6.151   5.125
 6747SOL    HW121140   5.554   6.112   5.036
 6747SOL    HW221141   5.557   6.249   5.124
 6748SOL     OW21142   1.492   0.170   2.199
 6748SOL    HW121143   1.513   0.073   2.186
 6748SOL    HW221144   1.539   0.225   2.131
 6749SOL     OW21145   4.404   0.216   0.073
 6749SOL    HW121146   4.395   0.307   0.115
 6749SOL    HW221147   4.498   0.203   0.042
 6750SOL     OW21148   2.391   2.780   5.225
 6750SOL    HW121149   2.353   2.871   5.207
 6750SOL    HW221150   2.420   2.774   5.321
 6751SOL     OW21151   2.914   2.197   5.097
 6751SOL    HW121152   2.868   2.252   5.028
 6751SOL    HW221153   3.008   2.229   5.109
 6752SOL     OW21154   5.831   2.259   0.838
 6752SOL    HW121155   5.757   2.231   0.777
 6752SOL    HW221156   5.831   2.200   0.919
 6753SOL     OW21157   4.541   2.228   6.484
 6753SOL    HW121158   4.584   2.305   6.531
 6753SOL    HW221159   4.611   2.174   6.437
 6754SOL     OW21160   6.252   0.684   6.196
 6754SOL    HW121161   6.258   0.780   6.225
 6754SOL    HW221162   6.156   0.656   6.194
 6755SOL     OW21163   5.103   1.783   4.385
 6755SOL    HW121164   5.018   1.834   4.371
 6755SOL    HW221165   5.116   1.717   4.311
 6756SOL     OW21166   5.355   4.984   4.300
 6756SOL    HW121167   5.288   4.917   4.331
 6756SOL    HW221168   5.326   5.076   4.329
 6757SOL     OW21169   5.701   5.709   1.730
 6757SOL    HW121170   5.778   5.763   1.765
 6757SOL    HW221171   5.619   5.766   1.729
 6758SOL     OW21172   4.633   2.682   2.471
 6758SOL    HW121173   4.650   2.780   2.467
 6758SOL    HW221174   4.587   2.653   2.387
 6759SOL     OW21175   0.137   4.932   3.096
 6759SOL    HW121176   0.046   4.965   3.070
 6759SOL    HW221177   0.195   5.010   3.118
 6760SOL     OW21178   6.435   3.786   4.419
 6760SOL    HW121179   6.354   3.840   4.395
 6760SOL    HW221180   6.514   3.822   4.370
 6761SOL     OW21181   5.133   2.893   5.733
 6761SOL    HW121182   5.203   2.860   5.670
 6761SOL    HW221183   5.170   2.966   5.791
 6762SOL     OW21184   6.465   4.160   3.885
 6762SOL    HW121185   6.469   4.259   3.868
 6762SOL    HW221186   6.395   4.119   3.826
 6763SOL     OW21187   6.214   6.298   6.101
 6763SOL    HW121188   6.217   6.397   6.089
 6763SOL    HW221189   6.121   6.271   6.126
 6764SOL     OW21190   2.249   4.069   6.356
 6764SOL    HW121191   2.332   4.056   6.301
 6764SOL    HW221192   2.259   4.151   6.412
 6765SOL     OW21193   5.574   4.676   2.126
 6765SOL    HW121194   5.652   4.630   2.083
 6765SOL    HW221195   5.604   4.717   2.212
 6766SOL     OW21196   1.853   0.745   5.692
 6766SOL    HW121197   1.795   0.701   5.624
 6766SOL    HW221198   1.830   0.842   5.698
 6767SOL     OW21199   6.528   2.740   6.991
 6767SOL    HW121200   6.575   2.756   6.904
 6767SOL    HW221201   6.548   2.816   0.029
 6768SOL     OW21202   6.751   0.345   4.199
 6768SOL    HW121203   6.783   0.405   4.273
 6768SOL    HW221204   6.828   0.291   4.165
 6769SOL     OW21205   1.921   3.222   5.870
 6769SOL    HW121206   1.936   3.302   5.812
 6769SOL    HW221207   1.963   3.238   5.960
 6770SOL     OW21208   0.853   1.450   3.189
 6770SOL    HW121209   0.840   1.487   3.281
 6770SOL    HW221210   0.790   1.495   3.126
 6771SOL     OW21211   4.166   1.994   3.448
 6771SOL    HW121212   4.157   1.899   3.416
 6771SOL    HW221213   4.121   2.055   3.384
 6772SOL     OW21214   6.569   1.291   1.149
 6772SOL    HW121215   6.599   1.377   1.107
 6772SOL    HW221216   6.564   1.220   1.079
 6773SOL     OW21217   1.584   6.643   1.475
 6773SOL    HW121218   1.590   6.737   1.507
 6773SOL    HW221219   1.585   6.641   1.375
 6774SOL     OW21220   2.447   2.639   4.957
 6774SOL    HW121221   2.494   2.651   4.869
 6774SOL    HW221222   2.424   2.728   4.995
 6775SOL     OW21223   0.579   1.844   4.600
 6775SOL    HW121224   0.567   1.796   4.513
 6775SOL    HW221225   0.588   1.942   4.582
 6776SOL     OW21226   3.958   3.933   3.146
 6776SOL    HW121227   3.895   4.004   3.113
 6776SOL    HW221228   3.985   3.953   3.240
 6777SOL     OW21229   6.201   5.361   0.381
 6777SOL    HW121230   6.133   5.304   0.335
 6777SOL    HW221231   6.293   5.330   0.357
 6778SOL     OW21232   5.890   5.190   2.728
 6778SOL    HW121233   5.823   5.135   2.678
 6778SOL    HW221234   5.858   5.206   2.821
 6779SOL     OW21235   4.975   3.382   5.916
 6779SOL    HW121236   5.038   3.314   5.955
 6779SOL    HW221237   4.884   3.342   5.906
 6780SOL     OW21238   3.280   2.110   3.237
 6780SOL    HW121239   3.376   2.129   3.256
 6780SOL    HW221240   3.268   2.089   3.140
 6781SOL     OW21241   0.066   1.789   3.224
 6781SOL    HW121242   0.073   1.779   3.323
 6781SOL    HW221243   0.158   1.790   3.184
 6782SOL     OW21244   6.200   0.917   2.867
 6782SOL    HW121245   6.159   0.905   2.958
 6782SOL    HW221246   6.286   0.866   2.863
 6783SOL     OW21247   1.135   4.666   5.703
 6783SOL    HW121248   1.060   4.601   5.713
 6783SOL    HW221249   1.216   4.632   5.751
 6784SOL     OW21250   2.239   3.824   1.816
 6784SOL    HW121251   2.325   3.855   1.775
 6784SOL    HW221252   2.229   3.725   1.800
 6785SOL     OW21253   5.273   5.667   4.794
 6785SOL    HW121254   5.260   5.702   4.887
 6785SOL    HW221255   5.368   5.639   4.781
 6786SOL     OW21256   5.915   1.667   6.070
 6786SOL    HW121257   5.976   1.733   6.114
 6786SOL    HW221258   5.878   1.707   5.986
 6787SOL     OW21259   3.473   2.162   6.944
 6787SOL    HW121260   3.394   2.198   6.995
 6787SOL    HW221261   3.553   2.218   6.964
 6788SOL     OW21262   0.481   4.095   2.221
 6788SOL    HW121263   0.560   4.141   2.180
 6788SOL    HW221264   0.491   3.996   2.211
 6789SOL     OW21265   5.426   4.433   3.232
 6789SOL    HW121266   5.465   4.436   3.140
 6789SOL    HW221267   5.480   4.491   3.293
 6790SOL     OW21268   0.536   5.239   6.106
 6790SOL    HW121269   0.593   5.186   6.044
 6790SOL    HW221270   0.492   5.178   6.172
 6791SOL     OW21271   2.883   0.692   2.967
 6791SOL    HW121272   2.970   0.679   2.919
 6791SOL    HW221273   2.811   0.642   2.918
 6792SOL     OW21274   3.839   6.943   5.380
 6792SOL    HW121275   3.849   0.004   5.328
 6792SOL    HW221276   3.745   6.935   5.412
 6793SOL     OW21277   1.919   3.508   6.229
 6793SOL    HW121278   1.846   3.525   6.163
 6793SOL    HW221279   1.994   3.571   6.211
 6794SOL     OW21280   5.296   1.960   5.180
 6794SOL    HW121281   5.247   1.950   5.267
 6794SOL    HW221282   5.231   1.981   5.107
 6795SOL     OW21283   1.092   0.416   1.284
 6795SOL    HW121284   1.159   0.460   1.225
 6795SOL    HW221285   1.002   0.417   1.239
 6796SOL     OW21286   6.093   1.588   2.697
 6796SOL    HW121287   6.046   1.580   2.609
 6796SOL    HW221288   6.044   1.533   2.765
 6797SOL     OW21289   0.688   2.534   1.694
 6797SOL    HW121290   0.717   2.455   1.640
 6797SOL    HW221291   0.669   2.610   1.632
 6798SOL     OW21292   6.028   0.044   1.532
 6798SOL    HW121293   6.070   0.135   1.528
 6798SOL    HW221294   6.034   0.009   1.626
 6799SOL     OW21295   6.562   0.686   3.744
 6799SOL    HW121296   6.628   0.737   3.688
 6799SOL    HW221297   6.605   0.660   3.830
 6800SOL     OW21298   6.810   2.718   1.156
 6800SOL    HW121299   6.864   2.649   1.204
 6800SOL    HW221300   6.750   2.765   1.222
 6801SOL     OW21301   0.775   6.294   6.471
 6801SOL    HW121302   0.813   6.370   6.522
 6801SOL    HW221303   0.675   6.294   6.481
 6802SOL     OW21304   3.215   4.821   2.078
 6802SOL    HW121305   3.155   4.815   1.998
 6802SOL    HW221306   3.276   4.743   2.080
 6803SOL     OW21307   5.494   4.846   5.801
 6803SOL    HW121308   5.450   4.931   5.828
 6803SOL    HW221309   5.537   4.858   5.711
 6804SOL     OW21310   3.999   4.797   3.116
 6804SOL    HW121311   3.923   4.854   3.146
 6804SOL    HW221312   3.967   4.703   3.102
 6805SOL     OW21313   6.977   4.768   4.648
 6805SOL    HW121314   6.956   4.725   4.736
 6805SOL    HW221315   6.901   4.753   4.584
 6806SOL     OW21316   6.559   2.471   1.665
 6806SOL    HW121317   6.532   2.389   1.715
 6806SOL    HW221318   6.552   2.455   1.567
 6807SOL     OW21319   3.641   3.869   2.011
 6807SOL    HW121320   3.542   3.855   2.010
 6807SOL    HW221321   3.661   3.964   1.988
 6808SOL     OW21322   3.086   1.227   4.505
 6808SOL    HW121323   3.051   1.283   4.580
 6808SOL    HW221324   3.118   1.286   4.431
 6809SOL     OW21325   5.606   3.280   0.170
 6809SOL    HW121326   5.623   3.333   0.087
 6809SOL    HW221327   5.622   3.337   0.250
 6810SOL     OW21328   2.567   0.336   4.799
 6810SOL    HW121329   2.634   0.286   4.854
 6810SOL    HW221330   2.589   0.434   4.801
 6811SOL     OW21331   6.191   1.211   0.688
 6811SOL    HW121332   6.135   1.293   0.690
 6811SOL    HW221333   6.211   1.185   0.593
 6812SOL     OW21334   3.903   4.254   5.240
 6812SOL    HW121335   3.881   4.165   5.201
 6812SOL    HW221336   3.822   4.313   5.238
 6813SOL     OW21337   6.623   3.367   2.346
 6813SOL    HW121338   6.664   3.307   2.415
 6813SOL    HW221339   6.532   3.332   2.321
 6814SOL     OW21340   5.529   0.470   6.838
 6814SOL    HW121341   5.470   0.389   6.839
 6814SOL    HW221342   5.617   0.447   6.796
 6815SOL     OW21343   1.058   4.982   6.197
 6815SOL    HW121344   0.963   4.960   6.220
 6815SOL    HW221345   1.096   4.909   6.141
 6816SOL     OW21346   6.680   0.476   3.632
 6816SOL    HW121347   6.709   0.447   3.723
 6816SOL    HW221348   6.591   0.522   3.639
 6817SOL     OW21349   4.236   2.030   1.629
 6817SOL    HW121350   4.248   1.967   1.706
 6817SOL    HW221351   4.180   2.108   1.658
 6818SOL     OW21352   1.434   6.778   5.393
 6818SOL    HW121353   1.364   6.750   5.459
 6818SOL    HW221354   1.392   6.793   5.304
 6819SOL     OW21355   4.755   4.129   2.158
 6819SOL    HW121356   4.818   4.079   2.099
 6819SOL    HW221357   4.661   4.119   2.124
 6820SOL     OW21358   3.126   4.901   1.803
 6820SOL    HW121359   3.154   4.972   1.738
 6820SOL    HW221360   3.029   4.910   1.822
 6821SOL     OW21361   3.906   2.539   5.366
 6821SOL    HW121362   3.844   2.470   5.328
 6821SOL    HW221363   3.966   2.573   5.294
 6822SOL     OW21364   6.130   2.902   6.024
 6822SOL    HW121365   6.229   2.916   6.029
 6822SOL    HW221366   6.099   2.857   6.107
 6823SOL     OW21367   6.262   2.593   4.866
 6823SOL    HW121368   6.332   2.547   4.811
 6823SOL    HW221369   6.190   2.627   4.806
 6824SOL     OW21370   1.173   0.214   5.709
 6824SOL    HW121371   1.158   0.166   5.622
 6824SOL    HW221372   1.219   0.301   5.691
 6825SOL     OW21373   4.656   4.550   0.844
 6825SOL    HW121374   4.701   4.616   0.904
 6825SOL    HW221375   4.662   4.580   0.749
 6826SOL     OW21376   6.114   5.813   4.095
 6826SOL    HW121377   6.091   5.869   4.015
 6826SOL    HW221378   6.032   5.801   4.151
 6827SOL     OW21379   4.889   6.299   4.737
 6827SOL    HW121380   4.963   6.358   4.705
 6827SOL    HW221381   4.838   6.263   4.659
 6828SOL     OW21382   2.834   2.264   2.342
 6828SOL    HW121383   2.917   2.258   2.398
 6828SOL    HW221384   2.859   2.280   2.246
 6829SOL     OW21385   3.708   0.112   3.735
 6829SOL    HW121386   3.774   0.157   3.794
 6829SOL    HW221387   3.746   0.026   3.701
 6830SOL     OW21388   4.842   5.536   3.466
 6830SOL    HW121389   4.932   5.507   3.434
 6830SOL    HW221390   4.817   5.483   3.546
 6831SOL     OW21391   1.876   2.124   6.180
 6831SOL    HW121392   1.786   2.084   6.169
 6831SOL    HW221393   1.888   2.199   6.115
 6832SOL     OW21394   3.175   2.848   0.166
 6832SOL    HW121395   3.113   2.796   0.108
 6832SOL    HW221396   3.138   2.852   0.259
 6833SOL     OW21397   3.593   5.481   5.696
 6833SOL    HW121398   3.522   5.474   5.627
 6833SOL    HW221399   3.683   5.484   5.652
 6834SOL     OW21400   6.376   6.201   7.008
 6834SOL    HW121401   6.434   6.131   6.964
 6834SOL    HW221402   6.429   6.247   0.055
 6835SOL     OW21403   2.937   1.404   5.242
 6835SOL    HW121404   2.963   1.500   5.254
 6835SOL    HW221405   2.988   1.347   5.306
 6836SOL     OW21406   2.257   4.326   6.447
 6836SOL    HW121407   2.301   4.353   6.362
 6836SOL    HW221408   2.235   4.407   6.501
 6837SOL     OW21409   0.544   1.049   2.224
 6837SOL    HW121410   0.626   1.015   2.178
 6837SOL    HW221411   0.498   1.116   2.166
 6838SOL     OW21412   3.201   4.092   5.144
 6838SOL    HW121413   3.228   4.101   5.048
 6838SOL    HW221414   3.104   4.069   5.149
 6839SOL     OW21415   6.402   3.263   4.436
 6839SOL    HW121416   6.333   3.193   4.455
 6839SOL    HW221417   6.393   3.292   4.340
 6840SOL     OW21418   2.582   6.838   4.618
 6840SOL    HW121419   2.484   6.840   4.636
 6840SOL    HW221420   2.631   6.815   4.702
 6841SOL     OW21421   4.822   6.195   1.104
 6841SOL    HW121422   4.742   6.185   1.046
 6841SOL    HW221423   4.799   6.252   1.183
 6842SOL     OW21424   0.446   3.706   4.786
 6842SOL    HW121425   0.457   3.747   4.876
 6842SOL    HW221426   0.365   3.744   4.741
 6843SOL     OW21427   3.996   2.170   1.966
 6843SOL    HW121428   4.049   2.185   2.049
 6843SOL    HW221429   3.899   2.188   1.985
 6844SOL     OW21430   4.693   5.502   3.955
 6844SOL    HW121431   4.627   5.545   4.016
 6844SOL    HW221432   4.734   5.423   4.000
 6845SOL     OW21433   4.351   4.542   1.166
 6845SOL    HW121434   4.422   4.487   1.210
 6845SOL    HW221435   4.291   4.483   1.113
 6846SOL     OW21436   3.100   3.288   2.862
 6846SOL    HW121437   3.055   3.324   2.781
 6846SOL    HW221438   3.194   3.261   2.839
 6847SOL     OW21439   5.624   3.415   2.501
 6847SOL    HW121440   5.563   3.348   2.460
 6847SOL    HW221441   5.718   3.382   2.497
 6848SOL     OW21442   0.511   6.721   3.271
 6848SOL    HW121443   0.586   6.656   3.260
 6848SOL    HW221444   0.460   6.700   3.354
 6849SOL     OW21445   3.477   6.823   3.666
 6849SOL    HW121446   3.516   6.733   3.684
 6849SOL    HW221447   3.530   6.869   3.594
 6850SOL     OW21448   5.491   2.564   2.258
 6850SOL    HW121449   5.516   2.638   2.195
 6850SOL    HW221450   5.394   2.542   2.246
 6851SOL     OW21451   1.099   5.702   5.244
 6851SOL    HW121452   1.068   5.792   5.275
 6851SOL    HW221453   1.068   5.632   5.308
 6852SOL     OW21454   0.119   4.743   2.004
 6852SOL    HW121455   0.149   4.802   1.929
 6852SOL    HW221456   0.197   4.723   2.064
 6853SOL     OW21457   0.144   3.611   5.622
 6853SOL    HW121458   0.138   3.515   5.593
 6853SOL    HW221459   0.236   3.629   5.657
 6854SOL     OW21460   6.456   1.372   6.405
 6854SOL    HW121461   6.465   1.292   6.463
 6854SOL    HW221462   6.476   1.455   6.458
 6855SOL     OW21463   3.254   5.781   1.776
 6855SOL    HW121464   3.267   5.742   1.685
 6855SOL    HW221465   3.303   5.867   1.783
 6856SOL     OW21466   6.897   3.595   5.449
 6856SOL    HW121467   6.928   3.669   5.508
 6856SOL    HW221468   6.975   3.552   5.405
 6857SOL     OW21469   4.561   1.974   5.457
 6857SOL    HW121470   4.552   1.898   5.394
 6857SOL    HW221471   4.491   2.043   5.438
 6858SOL     OW21472   4.094   3.314   4.719
 6858SOL    HW121473   4.174   3.266   4.753
 6858SOL    HW221474   4.092   3.407   4.756
 6859SOL     OW21475   4.158   6.640   1.549
 6859SOL    HW121476   4.115   6.568   1.494
 6859SOL    HW221477   4.122   6.637   1.642
 6860SOL     OW21478   4.967   3.738   6.818
 6860SOL    HW121479   4.919   3.817   6.779
 6860SOL    HW221480   4.905   3.690   6.881
 6861SOL     OW21481   6.506   4.551   6.932
 6861SOL    HW121482   6.528   4.492   6.854
 6861SOL    HW221483   6.467   4.496   7.005
 6862SOL     OW21484   3.665   5.730   4.136
 6862SOL    HW121485   3.740   5.778   4.181
 6862SOL    HW221486   3.619   5.792   4.072
 6863SOL     OW21487   6.549   2.940   4.326
 6863SOL    HW121488   6.497   2.956   4.410
 6863SOL    HW221489   6.575   2.844   4.320
 6864SOL     OW21490   4.196   6.193   4.472
 6864SOL    HW121491   4.211   6.266   4.538
 6864SOL    HW221492   4.209   6.228   4.379
 6865SOL     OW21493   6.905   4.641   4.046
 6865SOL    HW121494   6.909   4.722   3.988
 6865SOL    HW221495   6.825   4.586   4.021
 6866SOL     OW21496   0.133   3.359   2.498
 6866SOL    HW121497   0.057   3.415   2.531
 6866SOL    HW221498   0.214   3.417   2.486
 6867SOL     OW21499   2.217   3.998   3.015
 6867SOL    HW121500   2.184   4.041   2.930
 6867SOL    HW221501   2.159   4.027   3.091
 6868SOL     OW21502   1.608   5.232   5.385
 6868SOL    HW121503   1.699   5.262   5.358
 6868SOL    HW221504   1.587   5.266   5.477
 6869SOL     OW21505   6.077   3.641   5.121
 6869SOL    HW121506   6.172   3.673   5.126
 6869SOL    HW221507   6.067   3.557   5.173
 6870SOL     OW21508   5.259   3.523   2.936
 6870SOL    HW121509   5.168   3.548   2.969
 6870SOL    HW221510   5.328   3.577   2.983
 6871SOL     OW21511   5.605   6.124   1.617
 6871SOL    HW121512   5.695   6.084   1.636
 6871SOL    HW221513   5.568   6.084   1.534
 6872SOL     OW21514   2.517   3.293   6.232
 6872SOL    HW121515   2.593   3.255   6.286
 6872SOL    HW221516   2.511   3.244   6.145
 6873SOL     OW21517   5.513   3.674   5.873
 6873SOL    HW121518   5.433   3.614   5.866
 6873SOL    HW221519   5.530   3.694   5.969
 6874SOL     OW21520   0.727   2.368   5.640
 6874SOL    HW121521   0.674   2.446   5.606
 6874SOL    HW221522   0.664   2.293   5.662
 6875SOL     OW21523   3.105   2.062   3.773
 6875SOL    HW121524   3.033   2.128   3.753
 6875SOL    HW221525   3.077   2.002   3.848
 6876SOL     OW21526   3.845   6.273   6.683
 6876SOL    HW121527   3.812   6.281   6.589
 6876SOL    HW221528   3.800   6.342   6.740
 6877SOL     OW21529   2.449   4.124   6.786
 6877SOL    HW121530   2.459   4.065   6.706
 6877SOL    HW221531   2.415   4.214   6.757
 6878SOL     OW21532   1.595   1.195   5.383
 6878SOL    HW121533   1.607   1.293   5.367
 6878SOL    HW221534   1.554   1.181   5.473
 6879SOL     OW21535   1.417   2.185   6.130
 6879SOL    HW121536   1.458   2.187   6.039
 6879SOL    HW221537   1.337   2.244   6.132
 6880SOL     OW21538   1.578   3.995   5.124
 6880SOL    HW121539   1.587   3.964   5.030
 6880SOL    HW221540   1.647   4.065   5.143
 6881SOL     OW21541   6.851   4.043   1.319
 6881SOL    HW121542   6.772   3.986   1.298
 6881SOL    HW221543   6.849   4.125   1.262
 6882SOL     OW21544   1.723   0.040   5.312
 6882SOL    HW121545   1.677   0.125   5.287
 6882SOL    HW221546   1.705   0.019   5.408
 6883SOL     OW21547   3.467   6.386   1.865
 6883SOL    HW121548   3.435   6.445   1.939
 6883SOL    HW221549   3.416   6.299   1.867
 6884SOL     OW21550   2.625   4.601   3.684
 6884SOL    HW121551   2.696   4.670   3.697
 6884SOL    HW221552   2.622   4.574   3.588
 6885SOL     OW21553   2.757   5.305   4.506
 6885SOL    HW121554   2.715   5.354   4.430
 6885SOL    HW221555   2.697   5.308   4.586
 6886SOL     OW21556   5.518   1.777   2.845
 6886SOL    HW121557   5.576   1.858   2.840
 6886SOL    HW221558   5.475   1.761   2.756
 6887SOL     OW21559   6.140   0.694   4.709
 6887SOL    HW121560   6.233   0.679   4.744
 6887SOL    HW221561   6.123   0.792   4.700
 6888SOL     OW21562   5.458   6.695   4.677
 6888SOL    HW121563   5.421   6.620   4.622
 6888SOL    HW221564   5.552   6.675   4.702
 6889SOL     OW21565   1.143   4.317   6.461
 6889SOL    HW121566   1.069   4.252   6.478
 6889SOL    HW221567   1.131   4.396   6.522
 6890SOL     OW21568   2.156   0.079   1.100
 6890SOL    HW121569   2.213   0.068   1.018
 6890SOL    HW221570   2.142   0.176   1.118
 6891SOL     OW21571   1.967   4.365   4.416
 6891SOL    HW121572   2.043   4.312   4.454
 6891SOL    HW221573   1.891   4.303   4.395
 6892SOL     OW21574   4.023   1.172   3.997
 6892SOL    HW121575   4.075   1.092   3.966
 6892SOL    HW221576   3.928   1.146   4.013
 6893SOL     OW21577   5.246   5.415   2.094
 6893SOL    HW121578   5.328   5.456   2.135
 6893SOL    HW221579   5.248   5.316   2.108
 6894SOL     OW21580   6.393   4.624   6.282
 6894SOL    HW121581   6.469   4.584   6.333
 6894SOL    HW221582   6.403   4.605   6.185
 6895SOL     OW21583   3.578   5.889   6.767
 6895SOL    HW121584   3.603   5.799   6.801
 6895SOL    HW221585   3.554   5.948   6.844
 6896SOL     OW21586   3.615   0.592   2.813
 6896SOL    HW121587   3.633   0.588   2.912
 6896SOL    HW221588   3.667   0.667   2.773
 6897SOL     OW21589   3.271   2.959   0.653
 6897SOL    HW121590   3.294   2.868   0.618
 6897SOL    HW221591   3.344   3.023   0.629
 6898SOL     OW21592   4.387   2.420   2.558
 6898SOL    HW121593   4.419   2.404   2.464
 6898SOL    HW221594   4.392   2.517   2.579
 6899SOL     OW21595   5.119   5.999   6.917
 6899SOL    HW121596   5.153   6.012   7.010
 6899SOL    HW221597   5.145   5.908   6.885
 6900SOL     OW21598   4.280   0.541   6.008
 6900SOL    HW121599   4.291   0.501   6.099
 6900SOL    HW221600   4.227   0.626   6.015
 6901SOL     OW21601   1.627   0.956   6.446
 6901SOL    HW121602   1.593   0.958   6.540
 6901SOL    HW221603   1.556   0.989   6.384
 6902SOL     OW21604   7.004   5.738   0.668
 6902SOL    HW121605   6.909   5.765   0.658
 6902SOL    HW221606   0.023   5.728   0.578
 6903SOL     OW21607   4.567   3.654   0.813
 6903SOL    HW121608   4.480   3.627   0.772
 6903SOL    HW221609   4.553   3.673   0.911
 6904SOL     OW21610   7.009   1.507   3.160
 6904SOL    HW121611   6.967   1.481   3.073
 6904SOL    HW221612   6.982   1.600   3.183
 6905SOL     OW21613   5.976   6.573   0.726
 6905SOL    HW121614   6.054   6.635   0.731
 6905SOL    HW221615   5.987   6.501   0.794
 6906SOL     OW21616   4.226   0.793   3.459
 6906SOL    HW121617   4.229   0.889   3.486
 6906SOL    HW221618   4.138   0.754   3.485
 6907SOL     OW21619   3.918   1.890   1.399
 6907SOL    HW121620   3.956   1.980   1.379
 6907SOL    HW221621   3.826   1.900   1.437
 6908SOL     OW21622   1.132   6.601   6.617
 6908SOL    HW121623   1.149   6.660   6.538
 6908SOL    HW221624   1.168   6.509   6.598
 6909SOL     OW21625   3.673   3.647   6.661
 6909SOL    HW121626   3.615   3.576   6.701
 6909SOL    HW221627   3.704   3.709   6.734
 6910SOL     OW21628   6.317   1.584   1.906
 6910SOL    HW121629   6.251   1.643   1.862
 6910SOL    HW221630   6.376   1.639   1.966
 6911SOL     OW21631   3.763   1.230   4.717
 6911SOL    HW121632   3.726   1.239   4.625
 6911SOL    HW221633   3.862   1.243   4.715
 6912SOL     OW21634   4.632   4.673   0.599
 6912SOL    HW121635   4.671   4.684   0.508
 6912SOL    HW221636   4.595   4.760   0.630
 6913SOL     OW21637   5.198   5.105   5.056
 6913SOL    HW121638   5.109   5.078   5.092
 6913SOL    HW221639   5.235   5.180   5.111
 6914SOL     OW21640   6.533   4.934   0.581
 6914SOL    HW121641   6.519   4.878   0.500
 6914SOL    HW221642   6.505   5.028   0.562
 6915SOL     OW21643   0.632   5.379   1.929
 6915SOL    HW121644   0.667   5.376   1.835
 6915SOL    HW221645   0.709   5.371   1.992
 6916SOL     OW21646   6.783   1.930   6.987
 6916SOL    HW121647   6.758   1.984   0.044
 6916SOL    HW221648   6.701   1.887   6.950
 6917SOL     OW21649   4.585   5.850   6.391
 6917SOL    HW121650   4.485   5.853   6.391
 6917SOL    HW221651   4.619   5.903   6.469
 6918SOL     OW21652   1.588   3.014   3.911
 6918SOL    HW121653   1.638   3.101   3.903
 6918SOL    HW221654   1.501   3.021   3.862
 6919SOL     OW21655   1.986   6.330   3.296
 6919SOL    HW121656   2.013   6.374   3.382
 6919SOL    HW221657   2.035   6.244   3.285
 6920SOL     OW21658   4.928   6.872   4.227
 6920SOL    HW121659   4.960   6.924   4.307
 6920SOL    HW221660   4.997   6.875   4.156
 6921SOL     OW21661   0.387   0.408   3.292
 6921SOL    HW121662   0.445   0.358   3.228
 6921SOL    HW221663   0.375   0.502   3.260
 6922SOL     OW21664   2.176   6.008   0.158
 6922SOL    HW121665   2.206   5.945   0.086
 6922SOL    HW221666   2.087   5.979   0.193
 6923SOL     OW21667   4.753   0.630   3.789
 6923SOL    HW121668   4.843   0.649   3.748
 6923SOL    HW221669   4.742   0.687   3.871
 6924SOL     OW21670   0.393   5.343   1.436
 6924SOL    HW121671   0.411   5.246   1.420
 6924SOL    HW221672   0.340   5.353   1.520
 6925SOL     OW21673   4.880   5.483   2.568
 6925SOL    HW121674   4.791   5.527   2.557
 6925SOL    HW221675   4.940   5.541   2.623
 6926SOL     OW21676   2.891   3.372   4.573
 6926SOL    HW121677   2.882   3.404   4.479
 6926SOL    HW221678   2.889   3.450   4.635
 6927SOL     OW21679   4.386   4.043   6.106
 6927SOL    HW121680   4.442   4.069   6.027
 6927SOL    HW221681   4.352   4.126   6.151
 6928SOL     OW21682   5.229   0.411   6.765
 6928SOL    HW121683   5.174   0.477   6.816
 6928SOL    HW221684   5.190   0.319   6.777
 6929SOL     OW21685   3.559   5.585   0.066
 6929SOL    HW121686   3.645   5.533   0.067
 6929SOL    HW221687   3.496   5.545   0.000
 6930SOL     OW21688   0.933   0.181   3.393
 6930SOL    HW121689   0.933   0.155   3.490
 6930SOL    HW221690   1.002   0.252   3.377
 6931SOL     OW21691   1.685   1.282   1.237
 6931SOL    HW121692   1.612   1.224   1.273
 6931SOL    HW221693   1.763   1.279   1.299
 6932SOL     OW21694   2.469   2.294   0.737
 6932SOL    HW121695   2.563   2.324   0.755
 6932SOL    HW221696   2.428   2.260   0.822
 6933SOL     OW21697   3.883   5.624   5.956
 6933SOL    HW121698   3.881   5.525   5.958
 6933SOL    HW221699   3.962   5.655   5.902
 6934SOL     OW21700   5.356   3.363   0.058
 6934SOL    HW121701   5.423   3.317   0.117
 6934SOL    HW221702   5.356   3.319   6.992
 6935SOL     OW21703   4.089   5.772   3.685
 6935SOL    HW121704   4.003   5.723   3.689
 6935SOL    HW221705   4.079   5.854   3.628
 6936SOL     OW21706   1.387   4.177   1.221
 6936SOL    HW121707   1.387   4.231   1.137
 6936SOL    HW221708   1.469   4.121   1.225
 6937SOL     OW21709   4.407   6.591   5.355
 6937SOL    HW121710   4.393   6.689   5.343
 6937SOL    HW221711   4.325   6.550   5.396
 6938SOL     OW21712   4.849   2.363   5.245
 6938SOL    HW121713   4.863   2.358   5.344
 6938SOL    HW221714   4.933   2.394   5.201
 6939SOL     OW21715   0.582   4.467   2.934
 6939SOL    HW121716   0.537   4.553   2.958
 6939SOL    HW221717   0.515   4.393   2.937
 6940SOL     OW21718   4.931   0.827   5.071
 6940SOL    HW121719   4.955   0.917   5.036
 6940SOL    HW221720   4.928   0.829   5.171
 6941SOL     OW21721   4.139   3.551   3.648
 6941SOL    HW121722   4.099   3.469   3.688
 6941SOL    HW221723   4.151   3.538   3.549
 6942SOL     OW21724   6.915   2.051   6.771
 6942SOL    HW121725   6.985   2.114   6.803
 6942SOL    HW221726   6.873   2.004   6.849
 6943SOL     OW21727   4.956   5.435   6.500
 6943SOL    HW121728   4.946   5.383   6.586
 6943SOL    HW221729   4.947   5.373   6.423
 6944SOL     OW21730   1.697   5.918   5.672
 6944SOL    HW121731   1.776   5.862   5.698
 6944SOL    HW221732   1.614   5.864   5.683
 6945SOL     OW21733   5.918   2.989   5.809
 6945SOL    HW121734   5.894   2.894   5.830
 6945SOL    HW221735   5.964   3.030   5.888
 6946SOL     OW21736   5.601   4.417   2.500
 6946SOL    HW121737   5.689   4.459   2.477
 6946SOL    HW221738   5.605   4.319   2.480
 6947SOL     OW21739   3.517   6.386   3.139
 6947SOL    HW121740   3.495   6.396   3.236
 6947SOL    HW221741   3.561   6.298   3.124
 6948SOL     OW21742   4.231   0.958   5.540
 6948SOL    HW121743   4.274   0.876   5.576
 6948SOL    HW221744   4.269   1.038   5.586
 6949SOL     OW21745   5.312   0.101   2.901
 6949SOL    HW121746   5.389   0.142   2.950
 6949SOL    HW221747   5.226   0.134   2.941
 6950SOL     OW21748   2.265   0.426   3.265
 6950SOL    HW121749   2.268   0.326   3.265
 6950SOL    HW221750   2.358   0.461   3.282
 6951SOL     OW21751   6.275   5.440   5.908
 6951SOL    HW121752   6.238   5.371   5.845
 6951SOL    HW221753   6.248   5.418   6.001
 6952SOL     OW21754   0.652   4.955   5.412
 6952SOL    HW121755   0.709   5.012   5.471
 6952SOL    HW221756   0.689   4.953   5.320
 6953SOL     OW21757   4.883   1.593   5.323
 6953SOL    HW121758   4.942   1.576   5.244
 6953SOL    HW221759   4.802   1.535   5.317
 6954SOL     OW21760   0.011   4.111   3.541
 6954SOL    HW121761   0.110   4.114   3.527
 6954SOL    HW221762   6.989   4.152   3.462
 6955SOL     OW21763   0.124   5.831   2.018
 6955SOL    HW121764   0.039   5.840   1.967
 6955SOL    HW221765   0.137   5.736   2.045
 6956SOL     OW21766   4.142   4.915   1.411
 6956SOL    HW121767   4.234   4.950   1.397
 6956SOL    HW221768   4.134   4.825   1.369
 6957SOL     OW21769   0.825   4.841   0.923
 6957SOL    HW121770   0.764   4.786   0.982
 6957SOL    HW221771   0.775   4.870   0.842
 6958SOL     OW21772   2.633   3.404   0.021
 6958SOL    HW121773   2.658   3.492   0.060
 6958SOL    HW221774   2.628   3.411   6.946
 6959SOL     OW21775   2.974   0.853   4.327
 6959SOL    HW121776   3.017   0.888   4.410
 6959SOL    HW221777   2.995   0.756   4.317
 6960SOL     OW21778   0.596   4.816   6.393
 6960SOL    HW121779   0.611   4.721   6.421
 6960SOL    HW221780   0.672   4.845   6.335
 6961SOL     OW21781   0.098   0.786   2.787
 6961SOL    HW121782   0.171   0.854   2.790
 6961SOL    HW221783   0.049   0.795   2.700
 6962SOL     OW21784   4.839   4.342   1.047
 6962SOL    HW121785   4.787   4.275   0.993
 6962SOL    HW221786   4.817   4.434   1.016
 6963SOL     OW21787   0.080   5.215   1.514
 6963SOL    HW121788   0.003   5.152   1.500
 6963SOL    HW221789   0.055   5.283   1.582
 6964SOL     OW21790   4.157   5.597   5.366
 6964SOL    HW121791   4.209   5.630   5.287
 6964SOL    HW221792   4.198   5.633   5.450
 6965SOL     OW21793   6.540   3.271   6.301
 6965SOL    HW121794   6.489   3.190   6.329
 6965SOL    HW221795   6.627   3.275   6.350
 6966SOL     OW21796   4.885   2.672   4.058
 6966SOL    HW121797   4.951   2.702   3.988
 6966SOL    HW221798   4.908   2.580   4.088
 6967SOL     OW21799   1.614   0.825   5.941
 6967SOL    HW121800   1.596   0.768   6.021
 6967SOL    HW221801   1.699   0.794   5.897
 6968SOL     OW21802   5.129   6.039   1.832
 6968SOL    HW121803   5.041   6.048   1.786
 6968SOL    HW221804   5.138   5.947   1.870
 6969SOL     OW21805   2.941   2.449   0.677
 6969SOL    HW121806   2.993   2.528   0.707
 6969SOL    HW221807   3.001   2.370   0.668
 6970SOL     OW21808   5.124   4.265   6.694
 6970SOL    HW121809   5.127   4.362   6.673
 6970SOL    HW221810   5.033   4.229   6.675
 6971SOL     OW21811   5.250   0.192   1.207
 6971SOL    HW121812   5.246   0.286   1.239
 6971SOL    HW221813   5.158   0.157   1.195
 6972SOL     OW21814   6.143   4.952   4.230
 6972SOL    HW121815   6.087   4.915   4.155
 6972SOL    HW221816   6.117   5.047   4.247
 6973SOL     OW21817   1.613   4.418   3.200
 6973SOL    HW121818   1.525   4.443   3.240
 6973SOL    HW221819   1.679   4.492   3.217
 6974SOL     OW21820   3.261   3.817   4.614
 6974SOL    HW121821   3.352   3.832   4.577
 6974SOL    HW221822   3.215   3.745   4.562
 6975SOL     OW21823   3.903   0.544   6.457
 6975SOL    HW121824   3.981   0.599   6.485
 6975SOL    HW221825   3.935   0.462   6.410
 6976SOL     OW21826   1.778   4.540   6.348
 6976SOL    HW121827   1.801   4.623   6.297
 6976SOL    HW221828   1.784   4.559   6.446
 6977SOL     OW21829   3.229   1.853   2.566
 6977SOL    HW121830   3.156   1.900   2.517
 6977SOL    HW221831   3.264   1.912   2.638
 6978SOL     OW21832   6.979   0.618   1.769
 6978SOL    HW121833   0.003   0.666   1.843
 6978SOL    HW221834   6.931   0.539   1.806
 6979SOL     OW21835   0.548   5.065   2.431
 6979SOL    HW121836   0.558   5.103   2.523
 6979SOL    HW221837   0.631   5.083   2.379
 6980SOL     OW21838   3.281   0.761   4.392
 6980SOL    HW121839   3.220   0.812   4.453
 6980SOL    HW221840   3.227   0.700   4.335
 6981SOL     OW21841   1.830   5.272   0.813
 6981SOL    HW121842   1.789   5.362   0.799
 6981SOL    HW221843   1.758   5.203   0.817
 6982SOL     OW21844   0.345   0.211   4.949
 6982SOL    HW121845   0.413   0.251   5.010
 6982SOL    HW221846   0.253   0.225   4.988
 6983SOL     OW21847   6.380   6.981   4.338
 6983SOL    HW121848   6.474   7.014   4.335
 6983SOL    HW221849   6.358   6.954   4.432
 6984SOL     OW21850   1.814   1.018   6.095
 6984SOL    HW121851   1.747   0.996   6.165
 6984SOL    HW221852   1.769   1.027   6.007
 6985SOL     OW21853   5.079   5.812   2.004
 6985SOL    HW121854   5.171   5.813   2.043
 6985SOL    HW221855   5.041   5.720   2.012
 6986SOL     OW21856   2.436   6.819   6.002
 6986SOL    HW121857   2.495   6.793   5.925
 6986SOL    HW221858   2.486   6.804   6.088
 6987SOL     OW21859   0.658   3.525   6.805
 6987SOL    HW121860   0.657   3.579   6.721
 6987SOL    HW221861   0.746   3.536   6.851
 6988SOL     OW21862   5.078   1.043   3.800
 6988SOL    HW121863   4.981   1.037   3.779
 6988SOL    HW221864   5.129   0.975   3.746
 6989SOL     OW21865   1.432   2.387   4.422
 6989SOL    HW121866   1.402   2.294   4.443
 6989SOL    HW221867   1.528   2.398   4.451
 6990SOL     OW21868   3.699   3.206   6.816
 6990SOL    HW121869   3.718   3.166   6.906
 6990SOL    HW221870   3.785   3.237   6.775
 6991SOL     OW21871   2.934   4.514   5.769
 6991SOL    HW121872   2.969   4.596   5.815
 6991SOL    HW221873   2.983   4.434   5.802
 6992SOL     OW21874   5.541   0.043   3.677
 6992SOL    HW121875   5.446   0.016   3.658
 6992SOL    HW221876   5.585   6.998   3.734
 6993SOL     OW21877   7.010   0.401   2.995
 6993SOL    HW121878   6.937   0.351   2.949
 6993SOL    HW221879   6.981   0.426   3.087
 6994SOL     OW21880   1.332   3.125   6.383
 6994SOL    HW121881   1.375   3.206   6.424
 6994SOL    HW221882   1.393   3.088   6.313
 6995SOL     OW21883   6.163   5.642   3.217
 6995SOL    HW121884   6.261   5.638   3.237
 6995SOL    HW221885   6.119   5.708   3.278
 6996SOL     OW21886   2.294   0.277   5.224
 6996SOL    HW121887   2.207   0.296   5.269
 6996SOL    HW221888   2.277   0.240   5.133
 6997SOL     OW21889   4.675   0.425   5.485
 6997SOL    HW121890   4.761   0.458   5.523
 6997SOL    HW221891   4.627   0.369   5.554
 6998SOL     OW21892   0.781   3.231   3.339
 6998SOL    HW121893   0.844   3.296   3.297
 6998SOL    HW221894   0.736   3.177   3.268
 6999SOL     OW21895   3.593   1.972   5.608
 6999SOL    HW121896   3.648   1.934   5.533
 6999SOL    HW221897   3.513   2.019   5.570
 7000SOL     OW21898   0.748   6.348   2.701
 7000SOL    HW121899   0.662   6.390   2.671
 7000SOL    HW221900   0.821   6.416   2.701
 7001SOL     OW21901   2.246   2.798   5.852
 7001SOL    HW121902   2.237   2.816   5.754
 7001SOL    HW221903   2.343   2.798   5.877
 7002SOL     OW21904   1.918   5.110   3.145
 7002SOL    HW121905   1.829   5.089   3.185
 7002SOL    HW221906   1.987   5.046   3.182
 7003SOL     OW21907   3.110   6.192   0.913
 7003SOL    HW121908   3.030   6.220   0.966
 7003SOL    HW221909   3.155   6.115   0.958
 7004SOL     OW21910   1.709   4.210   1.100
 7004SOL    HW121911   1.667   4.125   1.132
 7004SOL    HW221912   1.734   4.266   1.179
 7005SOL     OW21913   5.057   6.030   6.322
 7005SOL    HW121914   5.147   5.986   6.316
 7005SOL    HW221915   4.985   5.961   6.316
 7006SOL     OW21916   4.474   4.558   4.748
 7006SOL    HW121917   4.405   4.598   4.688
 7006SOL    HW221918   4.440   4.556   4.842
 7007SOL     OW21919   4.690   5.608   3.226
 7007SOL    HW121920   4.769   5.669   3.233
 7007SOL    HW221921   4.711   5.521   3.271
 7008SOL     OW21922   0.955   4.829   4.001
 7008SOL    HW121923   0.866   4.784   3.994
 7008SOL    HW221924   0.996   4.807   4.090
 7009SOL     OW21925   0.437   4.724   2.026
 7009SOL    HW121926   0.491   4.746   2.107
 7009SOL    HW221927   0.429   4.805   1.968
 7010SOL     OW21928   3.181   4.763   6.409
 7010SOL    HW121929   3.221   4.836   6.465
 7010SOL    HW221930   3.086   4.749   6.435
 7011SOL     OW21931   3.050   0.680   5.736
 7011SOL    HW121932   2.978   0.651   5.798
 7011SOL    HW221933   3.010   0.725   5.656
 7012SOL     OW21934   1.235   0.911   1.435
 7012SOL    HW121935   1.255   0.921   1.532
 7012SOL    HW221936   1.319   0.888   1.385
 7013SOL     OW21937   1.402   6.956   2.056
 7013SOL    HW121938   1.479   7.016   2.039
 7013SOL    HW221939   1.327   7.008   2.098
 7014SOL     OW21940   2.664   4.581   1.118
 7014SOL    HW121941   2.658   4.579   1.218
 7014SOL    HW221942   2.645   4.490   1.082
 7015SOL     OW21943   5.237   2.801   2.549
 7015SOL    HW121944   5.191   2.717   2.579
 7015SOL    HW221945   5.276   2.847   2.629
 7016SOL     OW21946   4.689   5.228   0.801
 7016SOL    HW121947   4.603   5.213   0.753
 7016SOL    HW221948   4.752   5.278   0.742
 7017SOL     OW21949   3.464   1.861   3.135
 7017SOL    HW121950   3.479   1.952   3.173
 7017SOL    HW221951   3.507   1.792   3.194
 7018SOL     OW21952   0.522   4.690   4.958
 7018SOL    HW121953   0.481   4.777   4.986
 7018SOL    HW221954   0.604   4.708   4.903
 7019SOL     OW21955   2.609   5.571   6.759
 7019SOL    HW121956   2.543   5.497   6.770
 7019SOL    HW221957   2.639   5.603   6.849
 7020SOL     OW21958   6.132   6.563   6.397
 7020SOL    HW121959   6.081   6.479   6.380
 7020SOL    HW221960   6.087   6.639   6.350
 7021SOL     OW21961   2.966   1.619   6.091
 7021SOL    HW121962   2.882   1.607   6.038
 7021SOL    HW221963   3.019   1.534   6.090
 7022SOL     OW21964   5.681   4.536   0.400
 7022SOL    HW121965   5.660   4.634   0.400
 7022SOL    HW221966   5.637   4.492   0.478
 7023SOL     OW21967   6.357   3.829   2.558
 7023SOL    HW121968   6.449   3.859   2.533
 7023SOL    HW221969   6.345   3.838   2.657
 7024SOL     OW21970   1.792   6.037   0.590
 7024SOL    HW121971   1.721   5.969   0.608
 7024SOL    HW221972   1.868   5.994   0.542
 7025SOL     OW21973   2.903   2.116   6.318
 7025SOL    HW121974   2.989   2.097   6.366
 7025SOL    HW221975   2.858   2.030   6.294
 7026SOL     OW21976   3.931   1.855   0.776
 7026SOL    HW121977   3.967   1.927   0.716
 7026SOL    HW221978   3.951   1.878   0.871
 7027SOL     OW21979   4.126   6.882   4.398
 7027SOL    HW121980   4.036   6.915   4.427
 7027SOL    HW221981   4.118   6.786   4.370
 7028SOL     OW21982   3.648   6.956   4.582
 7028SOL    HW121983   3.613   0.023   4.600
 7028SOL    HW221984   3.573   6.896   4.553
 7029SOL     OW21985   3.707   0.435   6.617
 7029SOL    HW121986   3.784   0.467   6.561
 7029SOL    HW221987   3.673   0.349   6.580
 7030SOL     OW21988   0.922   3.463   4.686
 7030SOL    HW121989   0.985   3.423   4.753
 7030SOL    HW221990   0.839   3.492   4.733
 7031SOL     OW21991   1.692   5.981   3.951
 7031SOL    HW121992   1.633   5.905   3.981
 7031SOL    HW221993   1.669   6.063   4.002
 7032SOL     OW21994   6.023   1.153   2.054
 7032SOL    HW121995   5.964   1.137   2.133
 7032SOL    HW221996   6.102   1.091   2.058
 7033SOL     OW21997   0.149   0.962   3.759
 7033SOL    HW121998   0.215   0.944   3.685
 7033SOL    HW221999   0.173   1.046   3.806
 7034SOL     OW22000   6.922   6.502   3.092
 7034SOL    HW122001   6.864   6.571   3.136
 7034SOL    HW222002   6.900   6.412   3.129
 7035SOL     OW22003   6.386   5.810   2.534
 7035SOL    HW122004   6.289   5.826   2.553
 7035SOL    HW222005   6.411   5.856   2.449
 7036SOL     OW22006   0.224   4.881   2.250
 7036SOL    HW122007   0.139   4.864   2.201
 7036SOL    HW222008   0.276   4.795   2.256
 7037SOL     OW22009   1.477   6.151   6.292
 7037SOL    HW122010   1.380   6.127   6.286
 7037SOL    HW222011   1.501   6.210   6.215
 7038SOL     OW22012   0.714   4.341   4.043
 7038SOL    HW122013   0.748   4.399   3.970
 7038SOL    HW222014   0.787   4.323   4.108
 7039SOL     OW22015   3.984   1.198   6.944
 7039SOL    HW122016   3.935   1.267   6.890
 7039SOL    HW222017   3.938   1.110   6.935
 7040SOL     OW22018   5.169   2.099   6.249
 7040SOL    HW122019   5.236   2.128   6.181
 7040SOL    HW222020   5.200   2.014   6.292
 7041SOL     OW22021   2.016   1.888   2.789
 7041SOL    HW122022   2.001   1.958   2.720
 7041SOL    HW222023   2.055   1.930   2.871
 7042SOL     OW22024   3.330   6.777   6.974
 7042SOL    HW122025   3.237   6.743   6.964
 7042SOL    HW222026   3.394   6.702   6.955
 7043SOL     OW22027   2.516   1.673   3.034
 7043SOL    HW122028   2.564   1.759   3.046
 7043SOL    HW222029   2.505   1.654   2.936
 7044SOL     OW22030   4.846   4.545   2.874
 7044SOL    HW122031   4.840   4.507   2.781
 7044SOL    HW222032   4.759   4.588   2.898
 7045SOL     OW22033   5.687   5.359   1.477
 7045SOL    HW122034   5.604   5.374   1.424
 7045SOL    HW222035   5.764   5.342   1.415
 7046SOL     OW22036   3.933   0.790   5.000
 7046SOL    HW122037   4.008   0.768   4.939
 7046SOL    HW222038   3.905   0.886   4.987
 7047SOL     OW22039   1.351   1.059   4.284
 7047SOL    HW122040   1.355   1.061   4.384
 7047SOL    HW222041   1.270   1.109   4.253
 7048SOL     OW22042   6.227   5.865   0.163
 7048SOL    HW122043   6.142   5.884   0.213
 7048SOL    HW222044   6.298   5.928   0.195
 7049SOL     OW22045   2.398   1.680   0.803
 7049SOL    HW122046   2.492   1.712   0.814
 7049SOL    HW222047   2.335   1.754   0.829
 7050SOL     OW22048   3.661   4.034   4.577
 7050SOL    HW122049   3.747   4.006   4.620
 7050SOL    HW222050   3.624   3.959   4.522
 7051SOL     OW22051   0.307   6.979   2.070
 7051SOL    HW122052   0.365   6.910   2.027
 7051SOL    HW222053   0.352   7.014   2.152
 7052SOL     OW22054   0.057   1.837   3.799
 7052SOL    HW122055   0.143   1.850   3.848
 7052SOL    HW222056   0.023   1.926   3.768
 7053SOL     OW22057   0.527   4.401   6.230
 7053SOL    HW122058   0.475   4.435   6.309
 7053SOL    HW222059   0.610   4.355   6.262
 7054SOL     OW22060   6.932   6.659   1.730
 7054SOL    HW122061   6.939   6.573   1.680
 7054SOL    HW222062   6.837   6.676   1.755
 7055SOL     OW22063   4.422   0.500   4.566
 7055SOL    HW122064   4.359   0.437   4.611
 7055SOL    HW222065   4.426   0.586   4.618
 7056SOL     OW22066   5.599   4.879   4.275
 7056SOL    HW122067   5.504   4.901   4.251
 7056SOL    HW222068   5.660   4.912   4.203
 7057SOL     OW22069   6.981   5.922   3.533
 7057SOL    HW122070   6.893   5.884   3.562
 7057SOL    HW222071   7.004   5.885   3.442
 7058SOL     OW22072   0.870   5.117   5.550
 7058SOL    HW122073   0.915   5.056   5.616
 7058SOL    HW222074   0.922   5.119   5.465
 7059SOL     OW22075   1.381   0.198   2.473
 7059SOL    HW122076   1.331   0.284   2.483
 7059SOL    HW222077   1.434   0.200   2.388
 7060SOL     OW22078   3.553   6.077   1.881
 7060SOL    HW122079   3.514   6.134   1.954
 7060SOL    HW222080   3.480   6.047   1.820
 7061SOL     OW22081   0.603   0.452   2.481
 7061SOL    HW122082   0.564   0.476   2.392
 7061SOL    HW222083   0.529   0.428   2.544
 7062SOL     OW22084   5.439   2.560   4.892
 7062SOL    HW122085   5.433   2.462   4.906
 7062SOL    HW222086   5.347   2.600   4.896
 7063SOL     OW22087   3.227   6.629   1.193
 7063SOL    HW122088   3.242   6.648   1.096
 7063SOL    HW222089   3.273   6.698   1.249
 7064SOL     OW22090   3.574   2.336   1.512
 7064SOL    HW122091   3.484   2.298   1.532
 7064SOL    HW222092   3.645   2.271   1.540
 7065SOL     OW22093   4.850   3.803   1.705
 7065SOL    HW122094   4.766   3.764   1.666
 7065SOL    HW222095   4.828   3.888   1.753
 7066SOL     OW22096   3.878   6.620   0.894
 7066SOL    HW122097   3.865   6.704   0.840
 7066SOL    HW222098   3.789   6.578   0.912
 7067SOL     OW22099   0.509   3.685   5.390
 7067SOL    HW122100   0.512   3.598   5.341
 7067SOL    HW222101   0.415   3.718   5.394
 7068SOL     OW22102   1.721   1.411   4.129
 7068SOL    HW122103   1.817   1.434   4.142
 7068SOL    HW222104   1.677   1.482   4.075
 7069SOL     OW22105   0.482   4.520   5.174
 7069SOL    HW122106   0.550   4.447   5.172
 7069SOL    HW222107   0.508   4.591   5.109
 7070SOL     OW22108   6.167   5.368   4.558
 7070SOL    HW122109   6.143   5.460   4.589
 7070SOL    HW222110   6.262   5.367   4.528
 7071SOL     OW22111   1.310   5.914   4.937
 7071SOL    HW122112   1.403   5.950   4.932
 7071SOL    HW222113   1.297   5.869   5.026
 7072SOL     OW22114   0.457   6.579   6.200
 7072SOL    HW122115   0.522   6.653   6.221
 7072SOL    HW222116   0.392   6.570   6.274
 7073SOL     OW22117   0.601   0.524   5.428
 7073SOL    HW122118   0.566   0.566   5.511
 7073SOL    HW222119   0.675   0.580   5.390
 7074SOL     OW22120   3.356   2.177   1.590
 7074SOL    HW122121   3.423   2.121   1.640
 7074SOL    HW222122   3.283   2.204   1.652
 7075SOL     OW22123   1.873   5.597   3.676
 7075SOL    HW122124   1.779   5.563   3.670
 7075SOL    HW222125   1.886   5.645   3.763
 7076SOL     OW22126   3.330   2.467   6.442
 7076SOL    HW122127   3.375   2.549   6.406
 7076SOL    HW222128   3.395   2.392   6.446
 7077SOL     OW22129   2.336   5.445   5.731
 7077SOL    HW122130   2.302   5.535   5.758
 7077SOL    HW222131   2.427   5.455   5.690
 7078SOL     OW22132   5.513   0.922   3.167
 7078SOL    HW122133   5.606   0.923   3.131
 7078SOL    HW222134   5.454   0.978   3.109
 7079SOL     OW22135   6.561   6.450   5.992
 7079SOL    HW122136   6.501   6.472   5.915
 7079SOL    HW222137   6.546   6.355   6.019
 7080SOL     OW22138   4.867   2.131   4.109
 7080SOL    HW122139   4.910   2.187   4.039
 7080SOL    HW222140   4.779   2.096   4.076
 7081SOL     OW22141   3.089   1.231   5.390
 7081SOL    HW122142   3.094   1.135   5.363
 7081SOL    HW222143   3.180   1.273   5.383
 7082SOL     OW22144   5.960   1.037   6.313
 7082SOL    HW122145   5.985   1.038   6.410
 7082SOL    HW222146   5.879   1.094   6.299
 7083SOL     OW22147   3.434   6.849   6.504
 7083SOL    HW122148   3.456   6.920   6.438
 7083SOL    HW222149   3.446   6.884   6.597
 7084SOL     OW22150   6.614   6.532   6.271
 7084SOL    HW122151   6.587   6.483   6.188
 7084SOL    HW222152   6.540   6.525   6.338
 7085SOL     OW22153   2.131   2.569   2.158
 7085SOL    HW122154   2.203   2.623   2.201
 7085SOL    HW222155   2.041   2.602   2.188
 7086SOL     OW22156   5.806   0.476   6.429
 7086SOL    HW122157   5.715   0.447   6.399
 7086SOL    HW222158   5.816   0.458   6.527
 7087SOL     OW22159   0.986   3.102   4.661
 7087SOL    HW122160   0.892   3.127   4.637
 7087SOL    HW222161   0.991   3.004   4.677
 7088SOL     OW22162   5.968   3.469   4.440
 7088SOL    HW122163   5.869   3.467   4.448
 7088SOL    HW222164   6.007   3.398   4.499
 7089SOL     OW22165   3.439   2.078   0.254
 7089SOL    HW122166   3.482   2.167   0.240
 7089SOL    HW222167   3.342   2.083   0.230
 7090SOL     OW22168   2.469   2.359   5.037
 7090SOL    HW122169   2.445   2.451   5.009
 7090SOL    HW222170   2.433   2.342   5.129
 7091SOL     OW22171   6.614   0.479   0.395
 7091SOL    HW122172   6.683   0.409   0.410
 7091SOL    HW222173   6.609   0.500   0.297
 7092SOL     OW22174   3.758   4.148   1.343
 7092SOL    HW122175   3.669   4.161   1.389
 7092SOL    HW222176   3.769   4.217   1.272
 7093SOL     OW22177   3.232   4.141   4.849
 7093SOL    HW122178   3.193   4.233   4.857
 7093SOL    HW222179   3.308   4.143   4.783
 7094SOL     OW22180   0.633   6.867   5.600
 7094SOL    HW122181   0.713   6.902   5.550
 7094SOL    HW222182   0.558   6.852   5.536
 7095SOL     OW22183   0.443   3.322   6.106
 7095SOL    HW122184   0.495   3.397   6.147
 7095SOL    HW222185   0.367   3.359   6.052
 7096SOL     OW22186   4.431   2.466   3.952
 7096SOL    HW122187   4.442   2.511   4.041
 7096SOL    HW222188   4.493   2.509   3.885
 7097SOL     OW22189   0.150   0.871   1.683
 7097SOL    HW122190   0.080   0.800   1.689
 7097SOL    HW222191   0.233   0.832   1.643
 7098SOL     OW22192   1.798   6.279   6.146
 7098SOL    HW122193   1.728   6.210   6.163
 7098SOL    HW222194   1.853   6.251   6.067
 7099SOL     OW22195   1.057   1.310   6.071
 7099SOL    HW122196   1.007   1.230   6.037
 7099SOL    HW222197   1.014   1.393   6.037
 7100SOL     OW22198   4.867   3.907   0.954
 7100SOL    HW122199   4.954   3.916   0.907
 7100SOL    HW222200   4.881   3.863   1.043
 7101SOL     OW22201   2.878   0.337   5.290
 7101SOL    HW122202   2.821   0.321   5.371
 7101SOL    HW222203   2.846   0.419   5.242
 7102SOL     OW22204   3.711   1.329   1.019
 7102SOL    HW122205   3.719   1.399   0.948
 7102SOL    HW222206   3.621   1.333   1.061
 7103SOL     OW22207   3.589   0.037   0.377
 7103SOL    HW122208   3.594   7.018   0.287
 7103SOL    HW222209   3.528   7.009   0.436
 7104SOL     OW22210   1.362   2.029   3.184
 7104SOL    HW122211   1.393   1.983   3.101
 7104SOL    HW222212   1.435   2.029   3.252
 7105SOL     OW22213   3.469   3.447   4.657
 7105SOL    HW122214   3.455   3.350   4.634
 7105SOL    HW222215   3.490   3.498   4.575
 7106SOL     OW22216   3.878   2.963   4.824
 7106SOL    HW122217   3.812   2.941   4.895
 7106SOL    HW222218   3.962   2.913   4.840
 7107SOL     OW22219   2.905   1.887   0.338
 7107SOL    HW122220   2.923   1.985   0.340
 7107SOL    HW222221   2.946   1.844   0.419
 7108SOL     OW22222   5.706   6.233   1.040
 7108SOL    HW122223   5.628   6.292   1.062
 7108SOL    HW222224   5.743   6.258   0.950
 7109SOL     OW22225   3.330   0.101   6.391
 7109SOL    HW122226   3.347   0.096   6.292
 7109SOL    HW222227   3.360   0.190   6.425
 7110SOL     OW22228   4.662   5.401   4.261
 7110SOL    HW122229   4.613   5.427   4.344
 7110SOL    HW222230   4.742   5.460   4.251
 7111SOL     OW22231   2.246   3.009   4.325
 7111SOL    HW122232   2.343   3.030   4.316
 7111SOL    HW222233   2.226   2.923   4.278
 7112SOL     OW22234   1.111   6.515   3.840
 7112SOL    HW122235   1.079   6.422   3.858
 7112SOL    HW222236   1.211   6.514   3.827
 7113SOL     OW22237   3.534   3.554   4.408
 7113SOL    HW122238   3.630   3.572   4.385
 7113SOL    HW222239   3.484   3.527   4.325
 7114SOL     OW22240   3.986   1.456   1.861
 7114SOL    HW122241   3.974   1.551   1.835
 7114SOL    HW222242   4.022   1.404   1.783
 7115SOL     OW22243   4.665   1.507   1.398
 7115SOL    HW122244   4.684   1.552   1.486
 7115SOL    HW222245   4.595   1.557   1.349
 7116SOL     OW22246   5.364   4.078   3.014
 7116SOL    HW122247   5.292   4.014   2.987
 7116SOL    HW222248   5.364   4.087   3.114
 7117SOL     OW22249   6.392   6.271   2.230
 7117SOL    HW122250   6.316   6.206   2.235
 7117SOL    HW222251   6.467   6.230   2.177
 7118SOL     OW22252   6.014   3.669   1.029
 7118SOL    HW122253   6.052   3.628   1.112
 7118SOL    HW222254   6.085   3.676   0.959
 7119SOL     OW22255   6.319   1.156   3.591
 7119SOL    HW122256   6.321   1.159   3.491
 7119SOL    HW222257   6.412   1.149   3.626
 7120SOL     OW22258   4.563   1.815   3.922
 7120SOL    HW122259   4.570   1.804   3.823
 7120SOL    HW222260   4.608   1.738   3.967
 7121SOL     OW22261   2.765   6.596   3.715
 7121SOL    HW122262   2.806   6.508   3.689
 7121SOL    HW222263   2.671   6.582   3.745
 7122SOL     OW22264   6.629   0.754   6.748
 7122SOL    HW122265   6.581   0.732   6.833
 7122SOL    HW222266   6.651   0.851   6.746
 7123SOL     OW22267   3.121   5.289   1.221
 7123SOL    HW122268   3.091   5.382   1.241
 7123SOL    HW222269   3.044   5.235   1.188
 7124SOL     OW22270   0.625   5.404   6.876
 7124SOL    HW122271   0.649   5.369   6.966
 7124SOL    HW222272   0.664   5.345   6.805
 7125SOL     OW22273   6.554   6.461   2.659
 7125SOL    HW122274   6.605   6.395   2.715
 7125SOL    HW222275   6.471   6.418   2.624
 7126SOL     OW22276   1.041   4.628   0.324
 7126SOL    HW122277   1.005   4.651   0.414
 7126SOL    HW222278   1.096   4.545   0.331
 7127SOL     OW22279   3.670   6.058   4.616
 7127SOL    HW122280   3.635   5.968   4.588
 7127SOL    HW222281   3.603   6.128   4.594
 7128SOL     OW22282   3.486   4.386   1.172
 7128SOL    HW122283   3.442   4.302   1.206
 7128SOL    HW222284   3.480   4.457   1.241
 7129SOL     OW22285   2.789   6.961   1.978
 7129SOL    HW122286   2.804   0.022   2.028
 7129SOL    HW222287   2.722   6.977   1.905
 7130SOL     OW22288   2.193   4.732   3.891
 7130SOL    HW122289   2.208   4.645   3.937
 7130SOL    HW222290   2.118   4.722   3.825
 7131SOL     OW22291   2.630   1.034   2.676
 7131SOL    HW122292   2.546   1.087   2.669
 7131SOL    HW222293   2.707   1.092   2.649
 7132SOL     OW22294   4.046   3.679   3.213
 7132SOL    HW122295   3.975   3.649   3.276
 7132SOL    HW222296   4.032   3.775   3.190
 7133SOL     OW22297   5.448   4.840   3.636
 7133SOL    HW122298   5.482   4.747   3.649
 7133SOL    HW222299   5.430   4.881   3.725
 7134SOL     OW22300   5.759   5.291   4.025
 7134SOL    HW122301   5.708   5.308   3.940
 7134SOL    HW222302   5.700   5.244   4.090
 7135SOL     OW22303   1.419   1.664   4.647
 7135SOL    HW122304   1.353   1.693   4.717
 7135SOL    HW222305   1.373   1.661   4.558
 7136SOL     OW22306   1.646   1.601   0.438
 7136SOL    HW122307   1.684   1.675   0.494
 7136SOL    HW222308   1.700   1.592   0.354
 7137SOL     OW22309   4.631   0.847   4.316
 7137SOL    HW122310   4.710   0.897   4.354
 7137SOL    HW222311   4.645   0.749   4.329
 7138SOL     OW22312   2.538   3.891   1.253
 7138SOL    HW122313   2.440   3.910   1.265
 7138SOL    HW222314   2.568   3.828   1.324
 7139SOL     OW22315   4.604   2.961   1.658
 7139SOL    HW122316   4.509   2.930   1.670
 7139SOL    HW222317   4.633   3.008   1.742
 7140SOL     OW22318   6.694   4.450   5.107
 7140SOL    HW122319   6.635   4.495   5.040
 7140SOL    HW222320   6.699   4.352   5.085
 7141SOL     OW22321   3.257   6.998   1.151
 7141SOL    HW122322   3.326   7.003   1.079
 7141SOL    HW222323   3.301   6.973   1.237
 7142SOL     OW22324   3.927   6.641   3.657
 7142SOL    HW122325   4.026   6.644   3.669
 7142SOL    HW222326   3.903   6.681   3.569
 7143SOL     OW22327   1.298   3.977   6.180
 7143SOL    HW122328   1.316   3.884   6.149
 7143SOL    HW222329   1.284   4.036   6.100
 7144SOL     OW22330   0.885   1.537   3.443
 7144SOL    HW122331   0.862   1.468   3.511
 7144SOL    HW222332   0.848   1.625   3.471
 7145SOL     OW22333   4.861   0.001   6.851
 7145SOL    HW122334   4.879   6.984   6.762
 7145SOL    HW222335   4.929   0.073   6.869
 7146SOL     OW22336   2.877   6.037   0.087
 7146SOL    HW122337   2.883   6.035   0.186
 7146SOL    HW222338   2.937   5.966   0.049
 7147SOL     OW22339   6.921   0.656   3.158
 7147SOL    HW122340   7.004   0.671   3.104
 7147SOL    HW222341   6.844   0.699   3.112
 7148SOL     OW22342   1.272   0.203   1.843
 7148SOL    HW122343   1.331   0.244   1.774
 7148SOL    HW222344   1.268   0.261   1.924
 7149SOL     OW22345   6.306   1.229   3.267
 7149SOL    HW122346   6.238   1.182   3.210
 7149SOL    HW222347   6.315   1.324   3.236
 7150SOL     OW22348   5.876   2.291   0.134
 7150SOL    HW122349   5.949   2.357   0.150
 7150SOL    HW222350   5.904   2.200   0.165
 7151SOL     OW22351   2.835   5.789   2.027
 7151SOL    HW122352   2.792   5.709   2.070
 7151SOL    HW222353   2.930   5.768   2.006
 7152SOL     OW22354   1.229   2.557   4.277
 7152SOL    HW122355   1.209   2.527   4.184
 7152SOL    HW222356   1.285   2.487   4.323
 7153SOL     OW22357   4.284   1.528   4.353
 7153SOL    HW122358   4.207   1.588   4.334
 7153SOL    HW222359   4.348   1.573   4.415
 7154SOL     OW22360   4.143   5.885   4.037
 7154SOL    HW122361   4.120   5.949   3.963
 7154SOL    HW222362   4.226   5.917   4.083
 7155SOL     OW22363   1.703   6.838   1.834
 7155SOL    HW122364   1.607   6.824   1.811
 7155SOL    HW222365   1.747   6.750   1.851
 7156SOL     OW22366   6.722   5.419   5.058
 7156SOL    HW122367   6.759   5.505   5.022
 7156SOL    HW222368   6.742   5.345   4.993
 7157SOL     OW22369   5.286   5.572   0.833
 7157SOL    HW122370   5.284   5.663   0.874
 7157SOL    HW222371   5.201   5.524   0.854
 7158SOL     OW22372   0.132   6.714   2.885
 7158SOL    HW122373   0.152   6.662   2.969
 7158SOL    HW222374   0.211   6.709   2.824
 7159SOL     OW22375   0.830   5.284   0.040
 7159SOL    HW122376   0.923   5.247   0.041
 7159SOL    HW222377   0.773   5.235   0.105
 7160SOL     OW22378   6.504   0.793   1.789
 7160SOL    HW122379   6.543   0.853   1.859
 7160SOL    HW222380   6.578   0.748   1.740
 7161SOL     OW22381   3.497   3.135   4.513
 7161SOL    HW122382   3.555   3.178   4.443
 7161SOL    HW222383   3.421   3.088   4.469
 7162SOL     OW22384   3.820   4.928   4.077
 7162SOL    HW122385   3.804   4.908   3.981
 7162SOL    HW222386   3.802   5.025   4.095
 7163SOL     OW22387   3.143   0.417   3.636
 7163SOL    HW122388   3.131   0.513   3.608
 7163SOL    HW222389   3.065   0.364   3.604
 7164SOL     OW22390   2.220   1.161   3.317
 7164SOL    HW122391   2.148   1.092   3.312
 7164SOL    HW222392   2.198   1.227   3.389
 7165SOL     OW22393   5.520   0.801   1.077
 7165SOL    HW122394   5.613   0.831   1.055
 7165SOL    HW222395   5.454   0.866   1.038
 7166SOL     OW22396   5.365   5.299   0.811
 7166SOL    HW122397   5.392   5.394   0.793
 7166SOL    HW222398   5.274   5.298   0.853
 7167SOL     OW22399   4.957   3.269   4.938
 7167SOL    HW122400   4.916   3.321   5.013
 7167SOL    HW222401   5.050   3.302   4.921
 7168SOL     OW22402   0.967   0.467   3.581
 7168SOL    HW122403   0.911   0.394   3.622
 7168SOL    HW222404   1.047   0.427   3.537
 7169SOL     OW22405   1.765   3.025   5.739
 7169SOL    HW122406   1.741   2.964   5.814
 7169SOL    HW222407   1.836   3.089   5.768
 7170SOL     OW22408   5.895   5.287   3.391
 7170SOL    HW122409   5.882   5.188   3.383
 7170SOL    HW222410   5.806   5.332   3.392
 7171SOL     OW22411   4.570   3.094   5.395
 7171SOL    HW122412   4.582   3.126   5.489
 7171SOL    HW222413   4.623   3.152   5.333
 7172SOL     OW22414   1.418   6.646   0.122
 7172SOL    HW122415   1.479   6.567   0.125
 7172SOL    HW222416   1.438   6.707   0.199
 7173SOL     OW22417   6.950   6.226   5.154
 7173SOL    HW122418   6.878   6.287   5.189
 7173SOL    HW222419   6.994   6.180   5.230
 7174SOL     OW22420   2.085   5.359   0.320
 7174SOL    HW122421   2.148   5.324   0.389
 7174SOL    HW222422   2.027   5.285   0.287
 7175SOL     OW22423   5.261   4.022   6.934
 7175SOL    HW122424   5.301   4.112   6.951
 7175SOL    HW222425   5.240   4.014   6.837
 7176SOL     OW22426   6.509   3.980   1.486
 7176SOL    HW122427   6.552   3.989   1.396
 7176SOL    HW222428   6.410   3.978   1.476
 7177SOL     OW22429   1.127   5.376   3.017
 7177SOL    HW122430   1.071   5.455   2.991
 7177SOL    HW222431   1.096   5.342   3.106
 7178SOL     OW22432   0.828   2.535   4.630
 7178SOL    HW122433   0.779   2.499   4.710
 7178SOL    HW222434   0.926   2.527   4.646
 7179SOL     OW22435   2.976   4.151   5.436
 7179SOL    HW122436   2.891   4.191   5.402
 7179SOL    HW222437   2.976   4.053   5.420
 7180SOL     OW22438   0.733   6.279   2.049
 7180SOL    HW122439   0.659   6.280   1.982
 7180SOL    HW222440   0.712   6.343   2.123
 7181SOL     OW22441   4.621   0.295   1.584
 7181SOL    HW122442   4.714   0.331   1.592
 7181SOL    HW222443   4.565   0.359   1.532
 7182SOL     OW22444   2.496   4.350   5.332
 7182SOL    HW122445   2.459   4.258   5.339
 7182SOL    HW222446   2.485   4.398   5.419
 7183SOL     OW22447   1.656   4.887   3.380
 7183SOL    HW122448   1.628   4.978   3.348
 7183SOL    HW222449   1.576   4.827   3.385
 7184SOL     OW22450   2.192   6.549   4.186
 7184SOL    HW122451   2.269   6.485   4.189
 7184SOL    HW222452   2.110   6.505   4.221
 7185SOL     OW22453   4.021   2.656   6.941
 7185SOL    HW122454   3.963   2.737   6.931
 7185SOL    HW222455   3.993   2.587   6.875
 7186SOL     OW22456   6.827   5.899   5.429
 7186SOL    HW122457   6.807   5.887   5.331
 7186SOL    HW222458   6.768   5.969   5.467
 7187SOL     OW22459   2.098   4.473   2.390
 7187SOL    HW122460   2.079   4.407   2.463
 7187SOL    HW222461   2.191   4.460   2.356
 7188SOL     OW22462   5.088   1.255   2.037
 7188SOL    HW122463   5.145   1.324   1.993
 7188SOL    HW222464   5.087   1.172   1.980
 7189SOL     OW22465   0.259   1.607   5.595
 7189SOL    HW122466   0.228   1.687   5.646
 7189SOL    HW222467   0.229   1.524   5.642
 7190SOL     OW22468   5.569   4.019   3.506
 7190SOL    HW122469   5.525   4.087   3.564
 7190SOL    HW222470   5.591   3.938   3.560
 7191SOL     OW22471   1.319   4.082   2.254
 7191SOL    HW122472   1.359   4.151   2.316
 7191SOL    HW222473   1.246   4.124   2.201
 7192SOL     OW22474   2.611   4.171   6.434
 7192SOL    HW122475   2.527   4.203   6.478
 7192SOL    HW222476   2.646   4.242   6.373
 7193SOL     OW22477   4.145   2.207   4.379
 7193SOL    HW122478   4.212   2.259   4.325
 7193SOL    HW222479   4.074   2.172   4.319
 7194SOL     OW22480   2.301   2.217   1.714
 7194SOL    HW122481   2.249   2.249   1.794
 7194SOL    HW222482   2.263   2.130   1.683
 7195SOL     OW22483   1.189   5.333   1.374
 7195SOL    HW122484   1.192   5.430   1.351
 7195SOL    HW222485   1.260   5.284   1.324
 7196SOL     OW22486   2.900   3.641   2.605
 7196SOL    HW122487   2.987   3.595   2.623
 7196SOL    HW222488   2.828   3.572   2.592
 7197SOL     OW22489   6.685   1.797   5.222
 7197SOL    HW122490   6.727   1.776   5.310
 7197SOL    HW222491   6.755   1.835   5.161
 7198SOL     OW22492   1.616   6.055   6.506
 7198SOL    HW122493   1.694   6.117   6.513
 7198SOL    HW222494   1.559   6.083   6.428
 7199SOL     OW22495   6.894   6.775   2.856
 7199SOL    HW122496   6.838   6.792   2.937
 7199SOL    HW222497   6.984   6.743   2.883
 7200SOL     OW22498   2.045   0.944   1.257
 7200SOL    HW122499   2.142   0.946   1.235
 7200SOL    HW222500   1.995   1.004   1.194
 7201SOL     OW22501   1.635   4.034   3.972
 7201SOL    HW122502   1.628   4.008   4.068
 7201SOL    HW222503   1.654   4.131   3.964
 7202SOL     OW22504   3.798   0.709   6.269
 7202SOL    HW122505   3.841   0.653   6.340
 7202SOL    HW222506   3.724   0.657   6.226
 7203SOL     OW22507   5.697   0.941   6.568
 7203SOL    HW122508   5.627   0.900   6.628
 7203SOL    HW222509   5.666   0.936   6.473
 7204SOL     OW22510   5.920   1.472   3.167
 7204SOL    HW122511   5.889   1.548   3.109
 7204SOL    HW222512   5.890   1.386   3.127
 7205SOL     OW22513   1.884   4.955   2.584
 7205SOL    HW122514   1.908   5.027   2.518
 7205SOL    HW222515   1.892   4.866   2.540
 7206SOL     OW22516   6.447   1.351   0.688
 7206SOL    HW122517   6.531   1.339   0.740
 7206SOL    HW222518   6.371   1.306   0.736
 7207SOL     OW22519   3.395   6.406   1.167
 7207SOL    HW122520   3.337   6.482   1.197
 7207SOL    HW222521   3.482   6.409   1.217
 7208SOL     OW22522   3.184   0.166   5.440
 7208SOL    HW122523   3.282   0.184   5.433
 7208SOL    HW222524   3.155   0.112   5.360
 7209SOL     OW22525   4.000   3.302   4.446
 7209SOL    HW122526   3.954   3.219   4.415
 7209SOL    HW222527   4.042   3.285   4.535
 7210SOL     OW22528   4.780   1.035   3.976
 7210SOL    HW122529   4.739   0.946   3.997
 7210SOL    HW222530   4.863   1.048   4.030
 7211SOL     OW22531   1.481   5.442   3.968
 7211SOL    HW122532   1.529   5.377   3.909
 7211SOL    HW222533   1.390   5.408   3.989
 7212SOL     OW22534   5.938   6.528   4.148
 7212SOL    HW122535   5.878   6.526   4.228
 7212SOL    HW222536   5.954   6.623   4.121
 7213SOL     OW22537   5.827   0.819   5.462
 7213SOL    HW122538   5.885   0.886   5.507
 7213SOL    HW222539   5.884   0.753   5.413
 7214SOL     OW22540   1.554   5.084   5.144
 7214SOL    HW122541   1.622   5.062   5.074
 7214SOL    HW222542   1.594   5.148   5.209
 7215SOL     OW22543   0.374   4.120   4.043
 7215SOL    HW122544   0.396   4.042   4.102
 7215SOL    HW222545   0.443   4.129   3.972
 7216SOL     OW22546   2.704   0.339   0.110
 7216SOL    HW122547   2.630   0.317   0.046
 7216SOL    HW222548   2.679   0.419   0.164
 7217SOL     OW22549   0.954   3.209   2.610
 7217SOL    HW122550   0.995   3.160   2.533
 7217SOL    HW222551   0.996   3.177   2.695
 7218SOL     OW22552   5.040   2.571   5.566
 7218SOL    HW122553   5.086   2.579   5.478
 7218SOL    HW222554   5.096   2.515   5.627
 7219SOL     OW22555   4.642   0.043   2.428
 7219SOL    HW122556   4.733   0.001   2.419
 7219SOL    HW222557   4.652   0.141   2.444
 7220SOL     OW22558   6.275   1.336   2.501
 7220SOL    HW122559   6.321   1.258   2.458
 7220SOL    HW222560   6.343   1.408   2.520
 7221SOL     OW22561   5.269   4.245   6.005
 7221SOL    HW122562   5.183   4.268   5.961
 7221SOL    HW222563   5.280   4.146   6.008
 7222SOL     OW22564   0.019   5.887   1.418
 7222SOL    HW122565   6.971   5.829   1.453
 7222SOL    HW222566   0.101   5.833   1.402
 7223SOL     OW22567   3.637   1.498   5.746
 7223SOL    HW122568   3.569   1.551   5.695
 7223SOL    HW222569   3.626   1.516   5.844
 7224SOL     OW22570   5.556   0.247   4.763
 7224SOL    HW122571   5.481   0.265   4.827
 7224SOL    HW222572   5.563   0.148   4.747
 7225SOL     OW22573   1.894   6.305   6.665
 7225SOL    HW122574   1.964   6.372   6.690
 7225SOL    HW222575   1.929   6.213   6.680
 7226SOL     OW22576   0.477   6.717   0.390
 7226SOL    HW122577   0.384   6.731   0.356
 7226SOL    HW222578   0.487   6.623   0.422
 7227SOL     OW22579   6.999   2.545   6.719
 7227SOL    HW122580   7.013   2.636   6.759
 7227SOL    HW222581   0.060   2.492   6.727
 7228SOL     OW22582   0.928   0.225   2.280
 7228SOL    HW122583   0.895   0.252   2.370
 7228SOL    HW222584   1.028   0.231   2.278
 7229SOL     OW22585   0.771   0.284   3.685
 7229SOL    HW122586   0.786   0.209   3.749
 7229SOL    HW222587   0.675   0.284   3.656
 7230SOL     OW22588   5.138   4.513   3.967
 7230SOL    HW122589   5.107   4.418   3.965
 7230SOL    HW222590   5.123   4.551   4.058
 7231SOL     OW22591   6.393   0.834   5.796
 7231SOL    HW122592   6.376   0.743   5.757
 7231SOL    HW222593   6.465   0.828   5.865
 7232SOL     OW22594   4.206   5.039   2.085
 7232SOL    HW122595   4.282   4.981   2.056
 7232SOL    HW222596   4.127   4.982   2.106
 7233SOL     OW22597   6.607   2.625   6.151
 7233SOL    HW122598   6.696   2.587   6.178
 7233SOL    HW222599   6.612   2.724   6.147
 7234SOL     OW22600   5.987   2.029   1.671
 7234SOL    HW122601   5.994   2.059   1.576
 7234SOL    HW222602   5.892   2.005   1.691
 7235SOL     OW22603   5.568   3.961   5.318
 7235SOL    HW122604   5.641   4.025   5.296
 7235SOL    HW222605   5.485   3.984   5.266
 7236SOL     OW22606   3.714   0.813   2.653
 7236SOL    HW122607   3.773   0.890   2.677
 7236SOL    HW222608   3.653   0.840   2.578
 7237SOL     OW22609   6.045   5.843   6.020
 7237SOL    HW122610   6.035   5.745   6.033
 7237SOL    HW222611   6.142   5.867   6.024
 7238SOL     OW22612   2.188   2.127   1.977
 7238SOL    HW122613   2.104   2.093   2.020
 7238SOL    HW222614   2.246   2.049   1.952
 7239SOL     OW22615   2.859   1.487   1.800
 7239SOL    HW122616   2.777   1.432   1.821
 7239SOL    HW222617   2.935   1.425   1.780
 7240SOL     OW22618   2.600   4.353   0.180
 7240SOL    HW122619   2.637   4.297   0.254
 7240SOL    HW222620   2.617   4.450   0.200
 7241SOL     OW22621   3.616   6.759   4.986
 7241SOL    HW122622   3.637   6.814   4.905
 7241SOL    HW222623   3.596   6.665   4.959
 7242SOL     OW22624   5.490   4.248   6.578
 7242SOL    HW122625   5.544   4.330   6.593
 7242SOL    HW222626   5.431   4.261   6.499
 7243SOL     OW22627   0.787   5.649   0.417
 7243SOL    HW122628   0.783   5.707   0.498
 7243SOL    HW222629   0.765   5.704   0.336
 7244SOL     OW22630   5.659   1.636   1.253
 7244SOL    HW122631   5.659   1.546   1.296
 7244SOL    HW222632   5.693   1.628   1.159
 7245SOL     OW22633   6.817   1.624   4.130
 7245SOL    HW122634   6.830   1.579   4.041
 7245SOL    HW222635   6.905   1.628   4.178
 7246SOL     OW22636   6.969   6.551   5.750
 7246SOL    HW122637   7.009   6.635   5.714
 7246SOL    HW222638   6.872   6.566   5.769
 7247SOL     OW22639   3.278   5.472   2.763
 7247SOL    HW122640   3.359   5.467   2.820
 7247SOL    HW222641   3.213   5.401   2.790
 7248SOL     OW22642   3.637   0.914   4.650
 7248SOL    HW122643   3.596   0.970   4.721
 7248SOL    HW222644   3.588   0.827   4.642
 7249SOL     OW22645   6.474   5.003   0.079
 7249SOL    HW122646   6.384   4.966   0.056
 7249SOL    HW222647   6.545   4.935   0.059
 7250SOL     OW22648   3.078   4.416   6.084
 7250SOL    HW122649   3.109   4.393   6.176
 7250SOL    HW222650   3.012   4.491   6.089
 7251SOL     OW22651   5.802   0.414   5.008
 7251SOL    HW122652   5.896   0.380   5.014
 7251SOL    HW222653   5.741   0.354   5.058
 7252SOL     OW22654   3.793   3.106   5.179
 7252SOL    HW122655   3.829   3.021   5.217
 7252SOL    HW222656   3.863   3.177   5.184
 7253SOL     OW22657   4.941   5.952   1.218
 7253SOL    HW122658   5.033   5.970   1.182
 7253SOL    HW222659   4.878   6.023   1.187
 7254SOL     OW22660   4.483   6.272   4.858
 7254SOL    HW122661   4.552   6.275   4.787
 7254SOL    HW222662   4.468   6.363   4.895
 7255SOL     OW22663   3.287   3.776   2.776
 7255SOL    HW122664   3.364   3.832   2.746
 7255SOL    HW222665   3.214   3.779   2.708
 7256SOL     OW22666   4.711   4.925   4.078
 7256SOL    HW122667   4.688   5.017   4.048
 7256SOL    HW222668   4.767   4.880   4.008
 7257SOL     OW22669   6.155   3.438   3.036
 7257SOL    HW122670   6.181   3.365   3.099
 7257SOL    HW222671   6.200   3.423   2.948
 7258SOL     OW22672   3.539   0.034   4.142
 7258SOL    HW122673   3.530   0.001   4.236
 7258SOL    HW222674   3.535   6.981   4.079
 7259SOL     OW22675   2.241   4.608   6.540
 7259SOL    HW122676   2.214   4.607   6.637
 7259SOL    HW222677   2.183   4.672   6.490
 7260SOL     OW22678   3.476   2.066   2.211
 7260SOL    HW122679   3.557   2.096   2.161
 7260SOL    HW222680   3.414   2.017   2.148
 7261SOL     OW22681   1.462   3.888   1.952
 7261SOL    HW122682   1.483   3.952   1.878
 7261SOL    HW222683   1.547   3.861   1.997
 7262SOL     OW22684   5.634   1.938   4.946
 7262SOL    HW122685   5.592   1.984   4.867
 7262SOL    HW222686   5.693   1.864   4.914
 7263SOL     OW22687   3.173   6.109   2.198
 7263SOL    HW122688   3.205   6.032   2.144
 7263SOL    HW222689   3.213   6.104   2.290
 7264SOL     OW22690   0.811   0.249   5.426
 7264SOL    HW122691   0.817   0.150   5.435
 7264SOL    HW222692   0.717   0.278   5.446
 7265SOL     OW22693   4.201   5.120   5.932
 7265SOL    HW122694   4.141   5.140   5.854
 7265SOL    HW222695   4.159   5.048   5.987
 7266SOL     OW22696   4.893   0.871   2.033
 7266SOL    HW122697   4.873   0.854   2.130
 7266SOL    HW222698   4.829   0.820   1.976
 7267SOL     OW22699   6.745   4.242   3.523
 7267SOL    HW122700   6.742   4.275   3.617
 7267SOL    HW222701   6.775   4.147   3.522
 7268SOL     OW22702   3.424   6.810   1.317
 7268SOL    HW122703   3.417   6.841   1.412
 7268SOL    HW222704   3.519   6.792   1.294
 7269SOL     OW22705   1.751   6.142   2.081
 7269SOL    HW122706   1.660   6.102   2.070
 7269SOL    HW222707   1.790   6.162   1.991
 7270SOL     OW22708   3.167   1.212   2.781
 7270SOL    HW122709   3.117   1.184   2.863
 7270SOL    HW222710   3.204   1.132   2.735
 7271SOL     OW22711   6.765   3.811   3.427
 7271SOL    HW122712   6.822   3.862   3.491
 7271SOL    HW222713   6.761   3.861   3.340
 7272SOL     OW22714   5.611   2.633   2.012
 7272SOL    HW122715   5.594   2.535   2.026
 7272SOL    HW222716   5.532   2.674   1.968
 7273SOL     OW22717   5.221   4.690   0.140
 7273SOL    HW122718   5.168   4.629   0.081
 7273SOL    HW222719   5.190   4.784   0.127
 7274SOL     OW22720   6.775   4.999   5.387
 7274SOL    HW122721   6.701   4.956   5.439
 7274SOL    HW222722   6.843   5.036   5.450
 7275SOL     OW22723   6.624   6.728   0.928
 7275SOL    HW122724   6.579   6.791   0.991
 7275SOL    HW222725   6.669   6.781   0.855
 7276SOL     OW22726   2.347   2.257   3.738
 7276SOL    HW122727   2.438   2.281   3.771
 7276SOL    HW222728   2.287   2.337   3.746
 7277SOL     OW22729   5.518   2.133   4.773
 7277SOL    HW122730   5.572   2.179   4.702
 7277SOL    HW222731   5.423   2.128   4.744
 7278SOL     OW22732   2.618   1.460   3.252
 7278SOL    HW122733   2.577   1.491   3.166
 7278SOL    HW222734   2.705   1.416   3.233
 7279SOL     OW22735   5.498   4.957   1.022
 7279SOL    HW122736   5.456   5.001   1.102
 7279SOL    HW222737   5.538   4.870   1.048
 7280SOL     OW22738   6.085   2.152   5.483
 7280SOL    HW122739   6.002   2.116   5.440
 7280SOL    HW222740   6.138   2.203   5.415
 7281SOL     OW22741   4.138   5.688   2.478
 7281SOL    HW122742   4.044   5.716   2.457
 7281SOL    HW222743   4.173   5.631   2.403
 7282SOL     OW22744   6.488   4.459   2.284
 7282SOL    HW122745   6.498   4.515   2.366
 7282SOL    HW222746   6.534   4.504   2.207
 7283SOL     OW22747   4.053   4.880   3.422
 7283SOL    HW122748   4.124   4.845   3.362
 7283SOL    HW222749   4.012   4.961   3.381
 7284SOL     OW22750   6.785   1.471   3.345
 7284SOL    HW122751   6.871   1.467   3.295
 7284SOL    HW222752   6.745   1.562   3.336
 7285SOL     OW22753   4.887   2.943   1.806
 7285SOL    HW122754   4.834   2.951   1.891
 7285SOL    HW222755   4.874   2.852   1.767
 7286SOL     OW22756   0.060   0.904   2.309
 7286SOL    HW122757   7.016   0.937   2.243
 7286SOL    HW222758   0.149   0.897   2.263
 7287SOL     OW22759   1.661   2.581   3.458
 7287SOL    HW122760   1.573   2.574   3.410
 7287SOL    HW222761   1.658   2.659   3.521
 7288SOL     OW22762   2.675   2.199   2.767
 7288SOL    HW122763   2.621   2.220   2.848
 7288SOL    HW222764   2.619   2.146   2.703
 7289SOL     OW22765   6.001   1.556   1.102
 7289SOL    HW122766   6.015   1.612   1.183
 7289SOL    HW222767   5.971   1.465   1.129
 7290SOL     OW22768   3.353   1.682   5.352
 7290SOL    HW122769   3.301   1.763   5.381
 7290SOL    HW222770   3.311   1.644   5.269
 7291SOL     OW22771   4.094   0.717   0.998
 7291SOL    HW122772   4.084   0.701   0.900
 7291SOL    HW222773   4.097   0.816   1.016
 7292SOL     OW22774   2.778   0.477   2.598
 7292SOL    HW122775   2.805   0.434   2.685
 7292SOL    HW222776   2.786   0.576   2.606
 7293SOL     OW22777   0.836   0.904   4.789
 7293SOL    HW122778   0.782   0.882   4.871
 7293SOL    HW222779   0.933   0.910   4.814
 7294SOL     OW22780   3.246   6.347   2.086
 7294SOL    HW122781   3.280   6.419   2.147
 7294SOL    HW222782   3.218   6.268   2.139
 7295SOL     OW22783   5.933   5.471   1.998
 7295SOL    HW122784   5.966   5.539   2.064
 7295SOL    HW222785   5.952   5.503   1.905
 7296SOL     OW22786   4.920   4.345   2.052
 7296SOL    HW122787   4.831   4.378   2.021
 7296SOL    HW222788   4.941   4.258   2.008
 7297SOL     OW22789   4.192   6.319   1.223
 7297SOL    HW122790   4.139   6.369   1.155
 7297SOL    HW222791   4.277   6.368   1.242
 7298SOL     OW22792   4.168   5.339   6.877
 7298SOL    HW122793   4.233   5.415   6.870
 7298SOL    HW222794   4.140   5.310   6.785
 7299SOL     OW22795   1.387   2.562   6.014
 7299SOL    HW122796   1.457   2.509   5.968
 7299SOL    HW222797   1.346   2.507   6.087
 7300SOL     OW22798   0.736   4.825   1.870
 7300SOL    HW122799   0.645   4.851   1.835
 7300SOL    HW222800   0.797   4.904   1.865
 7301SOL     OW22801   4.471   1.248   5.458
 7301SOL    HW122802   4.480   1.286   5.550
 7301SOL    HW222803   4.387   1.283   5.416
 7302SOL     OW22804   5.519   1.560   6.147
 7302SOL    HW122805   5.564   1.519   6.068
 7302SOL    HW222806   5.420   1.543   6.141
 7303SOL     OW22807   2.052   1.595   1.673
 7303SOL    HW122808   2.038   1.685   1.633
 7303SOL    HW222809   2.080   1.530   1.603
 7304SOL     OW22810   2.834   5.431   1.125
 7304SOL    HW122811   2.897   5.491   1.175
 7304SOL    HW222812   2.745   5.476   1.117
 7305SOL     OW22813   0.033   1.187   0.597
 7305SOL    HW122814   0.062   1.143   0.512
 7305SOL    HW222815   0.099   1.258   0.623
 7306SOL     OW22816   0.752   2.219   1.302
 7306SOL    HW122817   0.764   2.123   1.277
 7306SOL    HW222818   0.818   2.276   1.252
 7307SOL     OW22819   2.328   6.997   0.903
 7307SOL    HW122820   2.325   6.955   0.812
 7307SOL    HW222821   2.335   6.925   0.972
 7308SOL     OW22822   4.828   1.321   3.135
 7308SOL    HW122823   4.891   1.330   3.212
 7308SOL    HW222824   4.757   1.253   3.156
 7309SOL     OW22825   2.109   4.912   3.225
 7309SOL    HW122826   2.150   4.973   3.293
 7309SOL    HW222827   2.160   4.826   3.222
 7310SOL     OW22828   3.140   2.502   6.216
 7310SOL    HW122829   3.207   2.469   6.149
 7310SOL    HW222830   3.175   2.485   6.308
 7311SOL     OW22831   0.134   6.670   6.610
 7311SOL    HW122832   0.206   6.732   6.642
 7311SOL    HW222833   0.055   6.677   6.671
 7312SOL     OW22834   6.632   1.798   4.171
 7312SOL    HW122835   6.700   1.863   4.206
 7312SOL    HW222836   6.678   1.714   4.141
 7313SOL     OW22837   2.856   0.845   2.287
 7313SOL    HW122838   2.896   0.935   2.304
 7313SOL    HW222839   2.773   0.835   2.343
 7314SOL     OW22840   0.248   4.194   6.314
 7314SOL    HW122841   0.247   4.134   6.234
 7314SOL    HW222842   0.187   4.271   6.299
 7315SOL     OW22843   1.622   4.612   2.510
 7315SOL    HW122844   1.684   4.683   2.479
 7315SOL    HW222845   1.666   4.558   2.582
 7316SOL     OW22846   2.712   2.377   0.792
 7316SOL    HW122847   2.705   2.422   0.881
 7316SOL    HW222848   2.795   2.409   0.745
 7317SOL     OW22849   3.885   1.383   0.660
 7317SOL    HW122850   3.927   1.311   0.604
 7317SOL    HW222851   3.937   1.393   0.745
 7318SOL     OW22852   4.553   6.381   0.734
 7318SOL    HW122853   4.543   6.479   0.718
 7318SOL    HW222854   4.520   6.358   0.825
 7319SOL     OW22855   5.392   4.807   6.761
 7319SOL    HW122856   5.314   4.864   6.784
 7319SOL    HW222857   5.364   4.711   6.760
 7320SOL     OW22858   0.321   2.449   1.232
 7320SOL    HW122859   0.325   2.492   1.323
 7320SOL    HW222860   0.353   2.514   1.163
 7321SOL     OW22861   1.721   0.527   6.674
 7321SOL    HW122862   1.676   0.512   6.762
 7321SOL    HW222863   1.671   0.596   6.623
 7322SOL     OW22864   0.995   2.403   2.978
 7322SOL    HW122865   1.050   2.465   2.922
 7322SOL    HW222866   0.902   2.439   2.987
 7323SOL     OW22867   1.007   2.808   1.563
 7323SOL    HW122868   1.106   2.797   1.558
 7323SOL    HW222869   0.963   2.720   1.543
 7324SOL     OW22870   5.811   4.816   2.928
 7324SOL    HW122871   5.796   4.732   2.876
 7324SOL    HW222872   5.893   4.862   2.895
 7325SOL     OW22873   4.167   1.053   5.937
 7325SOL    HW122874   4.070   1.074   5.927
 7325SOL    HW222875   4.190   1.047   6.034
 7326SOL     OW22876   3.758   0.160   0.552
 7326SOL    HW122877   3.688   0.128   0.487
 7326SOL    HW222878   3.790   0.251   0.524
 7327SOL     OW22879   0.477   3.911   3.253
 7327SOL    HW122880   0.533   3.954   3.324
 7327SOL    HW222881   0.449   3.820   3.284
 7328SOL     OW22882   4.176   4.838   4.704
 7328SOL    HW122883   4.250   4.905   4.693
 7328SOL    HW222884   4.199   4.754   4.656
 7329SOL     OW22885   3.297   3.677   1.797
 7329SOL    HW122886   3.362   3.660   1.723
 7329SOL    HW222887   3.252   3.765   1.783
 7330SOL     OW22888   3.061   3.075   1.903
 7330SOL    HW122889   3.044   2.981   1.872
 7330SOL    HW222890   2.992   3.136   1.862
 7331SOL     OW22891   5.130   1.569   2.499
 7331SOL    HW122892   5.091   1.576   2.591
 7331SOL    HW222893   5.189   1.649   2.482
 7332SOL     OW22894   3.284   5.648   5.672
 7332SOL    HW122895   3.340   5.676   5.594
 7332SOL    HW222896   3.189   5.676   5.656
 7333SOL     OW22897   0.541   1.597   0.661
 7333SOL    HW122898   0.579   1.510   0.693
 7333SOL    HW222899   0.468   1.626   0.723
 7334SOL     OW22900   2.912   0.415   4.383
 7334SOL    HW122901   2.857   0.456   4.456
 7334SOL    HW222902   2.853   0.363   4.322
 7335SOL     OW22903   6.717   3.294   2.027
 7335SOL    HW122904   6.623   3.267   2.009
 7335SOL    HW222905   6.723   3.338   2.117
 7336SOL     OW22906   1.985   0.061   1.938
 7336SOL    HW122907   1.954   0.136   1.880
 7336SOL    HW222908   1.952   0.075   2.032
 7337SOL     OW22909   2.036   1.687   3.305
 7337SOL    HW122910   2.131   1.683   3.275
 7337SOL    HW222911   2.033   1.714   3.401
 7338SOL     OW22912   6.080   3.182   1.714
 7338SOL    HW122913   6.153   3.180   1.647
 7338SOL    HW222914   6.001   3.231   1.676
 7339SOL     OW22915   6.584   5.260   4.296
 7339SOL    HW122916   6.620   5.353   4.298
 7339SOL    HW222917   6.540   5.243   4.208
 7340SOL     OW22918   2.749   6.507   1.062
 7340SOL    HW122919   2.676   6.450   1.099
 7340SOL    HW222920   2.763   6.486   0.965
 7341SOL     OW22921   6.033   5.188   4.353
 7341SOL    HW122922   6.065   5.237   4.434
 7341SOL    HW222923   5.937   5.162   4.365
 7342SOL     OW22924   0.925   5.384   1.267
 7342SOL    HW122925   1.001   5.383   1.333
 7342SOL    HW222926   0.913   5.292   1.230
 7343SOL     OW22927   5.643   3.540   2.965
 7343SOL    HW122928   5.729   3.581   2.995
 7343SOL    HW222929   5.567   3.599   2.990
 7344SOL     OW22930   1.951   0.568   0.348
 7344SOL    HW122931   1.942   0.526   0.258
 7344SOL    HW222932   1.868   0.619   0.370
 7345SOL     OW22933   3.776   5.730   6.891
 7345SOL    HW122934   3.834   5.677   6.829
 7345SOL    HW222935   3.813   5.822   6.901
 7346SOL     OW22936   3.915   4.734   1.804
 7346SOL    HW122937   4.007   4.772   1.801
 7346SOL    HW222938   3.906   4.671   1.881
 7347SOL     OW22939   5.943   1.629   3.396
 7347SOL    HW122940   5.950   1.552   3.332
 7347SOL    HW222941   6.004   1.614   3.474
 7348SOL     OW22942   0.925   2.054   3.700
 7348SOL    HW122943   0.839   2.028   3.745
 7348SOL    HW222944   0.974   1.972   3.672
 7349SOL     OW22945   3.240   1.431   0.757
 7349SOL    HW122946   3.263   1.337   0.782
 7349SOL    HW222947   3.245   1.441   0.657
 7350SOL     OW22948   2.394   0.992   2.965
 7350SOL    HW122949   2.382   0.951   3.056
 7350SOL    HW222950   2.327   0.952   2.902
 7351SOL     OW22951   3.833   4.658   6.711
 7351SOL    HW122952   3.886   4.616   6.784
 7351SOL    HW222953   3.754   4.705   6.750
 7352SOL     OW22954   6.862   0.624   2.404
 7352SOL    HW122955   6.937   0.559   2.393
 7352SOL    HW222956   6.893   0.700   2.461
 7353SOL     OW22957   5.133   2.631   4.800
 7353SOL    HW122958   5.123   2.719   4.754
 7353SOL    HW222959   5.076   2.628   4.881
 7354SOL     OW22960   5.959   4.615   5.633
 7354SOL    HW122961   5.993   4.555   5.705
 7354SOL    HW222962   5.905   4.562   5.568
 7355SOL     OW22963   1.765   5.196   1.819
 7355SOL    HW122964   1.830   5.123   1.797
 7355SOL    HW222965   1.714   5.221   1.737
 7356SOL     OW22966   5.917   1.446   5.663
 7356SOL    HW122967   6.015   1.426   5.662
 7356SOL    HW222968   5.897   1.514   5.593
 7357SOL     OW22969   0.201   1.993   6.929
 7357SOL    HW122970   0.144   2.075   6.938
 7357SOL    HW222971   0.275   1.997   6.997
 7358SOL     OW22972   3.114   0.960   4.120
 7358SOL    HW122973   3.085   0.893   4.051
 7358SOL    HW222974   3.068   0.941   4.206
 7359SOL     OW22975   3.772   3.088   3.442
 7359SOL    HW122976   3.827   3.081   3.358
 7359SOL    HW222977   3.720   3.174   3.441
 7360SOL     OW22978   0.126   3.214   5.495
 7360SOL    HW122979   0.210   3.258   5.462
 7360SOL    HW222980   0.132   3.116   5.482
 7361SOL     OW22981   5.249   6.376   2.285
 7361SOL    HW122982   5.173   6.434   2.314
 7361SOL    HW222983   5.214   6.298   2.233
 7362SOL     OW22984   1.695   6.164   5.843
 7362SOL    HW122985   1.677   6.077   5.798
 7362SOL    HW222986   1.787   6.162   5.883
 7363SOL     OW22987   4.999   2.893   6.349
 7363SOL    HW122988   4.998   2.862   6.254
 7363SOL    HW222989   5.093   2.899   6.381
 7364SOL     OW22990   4.473   6.740   1.836
 7364SOL    HW122991   4.570   6.740   1.859
 7364SOL    HW222992   4.458   6.691   1.750
 7365SOL     OW22993   3.444   0.598   2.484
 7365SOL    HW122994   3.427   0.544   2.567
 7365SOL    HW222995   3.390   0.559   2.408
 7366SOL     OW22996   1.168   5.213   6.981
 7366SOL    HW122997   1.143   5.124   7.020
 7366SOL    HW222998   1.156   5.210   6.882
 7367SOL     OW22999   4.822   3.659   0.270
 7367SOL    HW123000   4.853   3.708   0.351
 7367SOL    HW223001   4.755   3.715   0.221
 7368SOL     OW23002   3.545   4.149   3.949
 7368SOL    HW123003   3.587   4.209   3.880
 7368SOL    HW223004   3.592   4.162   4.036
 7369SOL     OW23005   4.001   3.320   0.342
 7369SOL    HW123006   4.011   3.419   0.349
 7369SOL    HW223007   4.063   3.276   0.406
 7370SOL     OW23008   2.472   6.088   1.467
 7370SOL    HW123009   2.524   6.045   1.541
 7370SOL    HW223010   2.396   6.141   1.506
 7371SOL     OW23011   2.780   5.408   4.846
 7371SOL    HW123012   2.707   5.340   4.833
 7371SOL    HW223013   2.752   5.495   4.807
 7372SOL     OW23014   3.364   6.881   5.938
 7372SOL    HW123015   3.460   6.904   5.948
 7372SOL    HW223016   3.329   6.917   5.851
 7373SOL     OW23017   3.702   1.178   1.521
 7373SOL    HW123018   3.743   1.251   1.466
 7373SOL    HW223019   3.772   1.139   1.581
 7374SOL     OW23020   1.746   2.793   5.960
 7374SOL    HW123021   1.731   2.695   5.969
 7374SOL    HW223022   1.843   2.810   5.941
 7375SOL     OW23023   1.499   0.541   3.619
 7375SOL    HW123024   1.578   0.483   3.598
 7375SOL    HW223025   1.461   0.578   3.535
 7376SOL     OW23026   2.167   4.077   5.589
 7376SOL    HW123027   2.209   4.102   5.502
 7376SOL    HW223028   2.207   3.991   5.622
 7377SOL     OW23029   4.199   4.364   1.023
 7377SOL    HW123030   4.150   4.335   0.941
 7377SOL    HW223031   4.154   4.326   1.104
 7378SOL     OW23032   6.590   0.857   5.320
 7378SOL    HW123033   6.596   0.758   5.335
 7378SOL    HW223034   6.675   0.900   5.350
 7379SOL     OW23035   3.144   1.071   1.580
 7379SOL    HW123036   3.209   1.042   1.511
 7379SOL    HW223037   3.122   1.168   1.568
 7380SOL     OW23038   6.914   3.894   6.491
 7380SOL    HW123039   7.010   3.904   6.466
 7380SOL    HW223040   6.857   3.943   6.425
 7381SOL     OW23041   5.359   2.002   1.433
 7381SOL    HW123042   5.369   1.930   1.502
 7381SOL    HW223043   5.437   2.065   1.440
 7382SOL     OW23044   0.286   6.157   3.945
 7382SOL    HW123045   0.322   6.065   3.929
 7382SOL    HW223046   0.187   6.153   3.954
 7383SOL     OW23047   7.023   5.887   3.236
 7383SOL    HW123048   7.002   5.983   3.219
 7383SOL    HW223049   0.092   5.867   3.206
 7384SOL     OW23050   5.359   0.316   2.434
 7384SOL    HW123051   5.346   0.382   2.360
 7384SOL    HW223052   5.340   0.360   2.522
 7385SOL     OW23053   5.389   6.416   1.399
 7385SOL    HW123054   5.372   6.497   1.342
 7385SOL    HW223055   5.412   6.338   1.341
 7386SOL     OW23056   0.551   2.298   5.318
 7386SOL    HW123057   0.599   2.216   5.288
 7386SOL    HW223058   0.587   2.378   5.269
 7387SOL     OW23059   3.880   6.205   3.478
 7387SOL    HW123060   3.781   6.202   3.490
 7387SOL    HW223061   3.904   6.272   3.408
 7388SOL     OW23062   6.751   5.166   3.690
 7388SOL    HW123063   6.745   5.132   3.784
 7388SOL    HW223064   6.842   5.147   3.653
 7389SOL     OW23065   1.013   4.090   6.505
 7389SOL    HW123066   1.028   4.027   6.429
 7389SOL    HW223067   0.914   4.097   6.523
 7390SOL     OW23068   1.777   6.457   4.706
 7390SOL    HW123069   1.744   6.424   4.795
 7390SOL    HW223070   1.719   6.533   4.675
 7391SOL     OW23071   5.840   3.157   6.816
 7391SOL    HW123072   5.845   3.074   6.761
 7391SOL    HW223073   5.854   3.237   6.758
 7392SOL     OW23074   1.789   4.197   4.240
 7392SOL    HW123075   1.732   4.278   4.256
 7392SOL    HW223076   1.860   4.219   4.173
 7393SOL     OW23077   0.750   3.931   1.972
 7393SOL    HW123078   0.755   3.943   1.873
 7393SOL    HW223079   0.841   3.938   2.011
 7394SOL     OW23080   3.415   3.803   6.706
 7394SOL    HW123081   3.412   3.831   6.802
 7394SOL    HW223082   3.510   3.805   6.674
 7395SOL     OW23083   1.241   6.861   0.829
 7395SOL    HW123084   1.178   6.856   0.906
 7395SOL    HW223085   1.275   6.769   0.808
 7396SOL     OW23086   0.899   6.847   6.442
 7396SOL    HW123087   0.954   6.864   6.360
 7396SOL    HW223088   0.871   6.935   6.482
 7397SOL     OW23089   6.087   5.220   4.847
 7397SOL    HW123090   6.145   5.154   4.895
 7397SOL    HW223091   6.140   5.300   4.821
 7398SOL     OW23092   4.320   4.820   3.351
 7398SOL    HW123093   4.330   4.844   3.448
 7398SOL    HW223094   4.407   4.835   3.304
 7399SOL     OW23095   5.044   3.801   5.725
 7399SOL    HW123096   5.013   3.883   5.678
 7399SOL    HW223097   5.124   3.764   5.679
 7400SOL     OW23098   2.106   5.232   6.663
 7400SOL    HW123099   2.141   5.183   6.584
 7400SOL    HW223100   2.034   5.178   6.707
 7401SOL     OW23101   6.712   1.615   3.668
 7401SOL    HW123102   6.637   1.591   3.605
 7401SOL    HW223103   6.788   1.552   3.654
 7402SOL     OW23104   2.845   0.577   3.808
 7402SOL    HW123105   2.807   0.514   3.740
 7402SOL    HW223106   2.776   0.644   3.834
 7403SOL     OW23107   1.603   3.625   2.649
 7403SOL    HW123108   1.608   3.544   2.706
 7403SOL    HW223109   1.695   3.663   2.636
 7404SOL     OW23110   1.496   0.446   1.850
 7404SOL    HW123111   1.480   0.462   1.753
 7404SOL    HW223112   1.437   0.506   1.904
 7405SOL     OW23113   2.564   4.967   6.250
 7405SOL    HW123114   2.526   4.876   6.238
 7405SOL    HW223115   2.563   4.991   6.347
 7406SOL     OW23116   0.445   4.780   1.592
 7406SOL    HW123117   0.409   4.795   1.500
 7406SOL    HW223118   0.432   4.684   1.618
 7407SOL     OW23119   1.604   6.607   6.556
 7407SOL    HW123120   1.690   6.561   6.530
 7407SOL    HW223121   1.581   6.584   6.650
 7408SOL     OW23122   1.352   4.053   5.238
 7408SOL    HW123123   1.438   4.031   5.193
 7408SOL    HW223124   1.367   4.063   5.337
 7409SOL     OW23125   2.909   5.340   5.084
 7409SOL    HW123126   3.001   5.315   5.056
 7409SOL    HW223127   2.851   5.349   5.003
 7410SOL     OW23128   6.832   4.814   0.599
 7410SOL    HW123129   6.743   4.850   0.570
 7410SOL    HW223130   6.849   4.841   0.694
 7411SOL     OW23131   4.021   6.298   4.995
 7411SOL    HW123132   4.015   6.377   5.056
 7411SOL    HW223133   3.980   6.320   4.907
 7412SOL     OW23134   1.176   1.825   0.112
 7412SOL    HW123135   1.120   1.774   0.177
 7412SOL    HW223136   1.127   1.835   0.026
 7413SOL     OW23137   6.635   3.291   4.628
 7413SOL    HW123138   6.540   3.290   4.595
 7413SOL    HW223139   6.647   3.218   4.695
 7414SOL     OW23140   6.719   6.342   2.854
 7414SOL    HW123141   6.810   6.352   2.814
 7414SOL    HW223142   6.709   6.406   2.930
 7415SOL     OW23143   2.176   2.288   3.358
 7415SOL    HW123144   2.252   2.351   3.370
 7415SOL    HW223145   2.112   2.325   3.291
 7416SOL     OW23146   3.964   0.483   4.166
 7416SOL    HW123147   3.875   0.481   4.119
 7416SOL    HW223148   3.949   0.498   4.264
 7417SOL     OW23149   0.983   5.963   0.489
 7417SOL    HW123150   1.052   5.941   0.420
 7417SOL    HW223151   0.893   5.963   0.447
 7418SOL     OW23152   1.957   3.622   0.814
 7418SOL    HW123153   2.002   3.601   0.727
 7418SOL    HW223154   1.875   3.565   0.823
 7419SOL     OW23155   6.461   0.885   4.927
 7419SOL    HW123156   6.549   0.911   4.968
 7419SOL    HW223157   6.460   0.910   4.830
 7420SOL     OW23158   0.171   6.433   2.092
 7420SOL    HW123159   0.143   6.516   2.043
 7420SOL    HW223160   0.113   6.357   2.062
 7421SOL     OW23161   3.587   3.856   1.309
 7421SOL    HW123162   3.566   3.931   1.372
 7421SOL    HW223163   3.656   3.796   1.350
 7422SOL     OW23164   0.611   3.238   0.572
 7422SOL    HW123165   0.688   3.241   0.636
 7422SOL    HW223166   0.625   3.164   0.506
 7423SOL     OW23167   1.869   6.131   6.400
 7423SOL    HW123168   1.850   6.222   6.364
 7423SOL    HW223169   1.879   6.066   6.325
 7424SOL     OW23170   5.634   1.241   4.454
 7424SOL    HW123171   5.549   1.278   4.417
 7424SOL    HW223172   5.633   1.247   4.554
 7425SOL     OW23173   3.028   5.816   6.056
 7425SOL    HW123174   3.088   5.738   6.075
 7425SOL    HW223175   3.083   5.898   6.040
 7426SOL     OW23176   1.326   1.259   6.129
 7426SOL    HW123177   1.234   1.287   6.102
 7426SOL    HW223178   1.385   1.339   6.134
 7427SOL     OW23179   4.238   5.563   4.864
 7427SOL    HW123180   4.233   5.480   4.808
 7427SOL    HW223181   4.147   5.600   4.877
 7428SOL     OW23182   3.771   1.765   5.905
 7428SOL    HW123183   3.834   1.823   5.956
 7428SOL    HW223184   3.804   1.752   5.812
 7429SOL     OW23185   6.773   6.875   3.086
 7429SOL    HW123186   6.804   6.958   3.040
 7429SOL    HW223187   6.724   6.900   3.170
 7430SOL     OW23188   6.451   4.205   4.946
 7430SOL    HW123189   6.538   4.161   4.967
 7430SOL    HW223190   6.379   4.136   4.940
 7431SOL     OW23191   0.848   4.241   2.386
 7431SOL    HW123192   0.895   4.161   2.423
 7431SOL    HW223193   0.914   4.312   2.363
 7432SOL     OW23194   0.674   6.660   5.008
 7432SOL    HW123195   0.647   6.564   5.012
 7432SOL    HW223196   0.595   6.716   4.982
 7433SOL     OW23197   6.248   5.876   0.737
 7433SOL    HW123198   6.150   5.856   0.739
 7433SOL    HW223199   6.290   5.841   0.821
 7434SOL     OW23200   4.266   0.960   6.181
 7434SOL    HW123201   4.327   1.037   6.199
 7434SOL    HW223202   4.318   0.874   6.186
 7435SOL     OW23203   2.332   6.166   7.006
 7435SOL    HW123204   2.398   6.225   0.029
 7435SOL    HW223205   2.304   6.092   0.044
 7436SOL     OW23206   5.242   2.458   0.008
 7436SOL    HW123207   5.256   2.435   0.105
 7436SOL    HW223208   5.190   2.384   6.988
 7437SOL     OW23209   0.679   5.665   5.883
 7437SOL    HW123210   0.758   5.621   5.925
 7437SOL    HW223211   0.625   5.597   5.834
 7438SOL     OW23212   6.851   4.993   1.778
 7438SOL    HW123213   6.837   4.993   1.877
 7438SOL    HW223214   6.836   4.901   1.742
 7439SOL     OW23215   1.629   6.760   3.972
 7439SOL    HW123216   1.542   6.718   3.946
 7439SOL    HW223217   1.611   6.843   4.026
 7440SOL     OW23218   1.729   2.519   4.324
 7440SOL    HW123219   1.808   2.460   4.310
 7440SOL    HW223220   1.685   2.538   4.236
 7441SOL     OW23221   5.707   0.539   3.490
 7441SOL    HW123222   5.679   0.587   3.407
 7441SOL    HW223223   5.732   0.607   3.560
 7442SOL     OW23224   1.638   0.898   6.871
 7442SOL    HW123225   1.729   0.933   6.891
 7442SOL    HW223226   1.605   0.844   6.949
 7443SOL     OW23227   0.393   1.109   6.881
 7443SOL    HW123228   0.439   1.026   6.849
 7443SOL    HW223229   0.405   1.117   6.980
 7444SOL     OW23230   0.177   3.173   6.249
 7444SOL    HW123231   0.240   3.096   6.245
 7444SOL    HW223232   0.163   3.209   6.156
 7445SOL     OW23233   5.170   2.055   2.102
 7445SOL    HW123234   5.239   2.076   2.033
 7445SOL    HW223235   5.169   1.957   2.121
 7446SOL     OW23236   6.832   3.666   0.998
 7446SOL    HW123237   6.767   3.649   1.072
 7446SOL    HW223238   6.855   3.763   0.995
 7447SOL     OW23239   0.758   3.799   6.121
 7447SOL    HW123240   0.790   3.770   6.211
 7447SOL    HW223241   0.836   3.825   6.064
 7448SOL     OW23242   6.704   6.634   5.798
 7448SOL    HW123243   6.621   6.689   5.809
 7448SOL    HW223244   6.738   6.607   5.888
 7449SOL     OW23245   5.500   1.944   2.293
 7449SOL    HW123246   5.549   1.949   2.380
 7449SOL    HW223247   5.528   2.019   2.234
 7450SOL     OW23248   4.585   1.152   3.224
 7450SOL    HW123249   4.528   1.081   3.264
 7450SOL    HW223250   4.581   1.147   3.125
 7451SOL     OW23251   2.139   0.609   3.976
 7451SOL    HW123252   2.042   0.583   3.977
 7451SOL    HW223253   2.151   0.694   3.926
 7452SOL     OW23254   1.990   6.312   4.892
 7452SOL    HW123255   2.004   6.285   4.797
 7452SOL    HW223256   1.892   6.315   4.911
 7453SOL     OW23257   5.805   6.202   4.854
 7453SOL    HW123258   5.764   6.262   4.786
 7453SOL    HW223259   5.849   6.124   4.809
 7454SOL     OW23260   0.778   3.581   1.230
 7454SOL    HW123261   0.763   3.566   1.327
 7454SOL    HW223262   0.863   3.536   1.202
 7455SOL     OW23263   4.779   2.520   0.187
 7455SOL    HW123264   4.793   2.423   0.171
 7455SOL    HW223265   4.867   2.567   0.186
 7456SOL     OW23266   1.696   3.550   4.963
 7456SOL    HW123267   1.653   3.474   4.915
 7456SOL    HW223268   1.626   3.606   5.007
 7457SOL     OW23269   6.000   0.673   5.302
 7457SOL    HW123270   6.063   0.722   5.363
 7457SOL    HW223271   6.049   0.599   5.256
 7458SOL     OW23272   2.506   1.272   0.749
 7458SOL    HW123273   2.578   1.203   0.760
 7458SOL    HW223274   2.463   1.289   0.838
 7459SOL     OW23275   4.495   0.865   4.927
 7459SOL    HW123276   4.555   0.924   4.981
 7459SOL    HW223277   4.446   0.802   4.988
 7460SOL     OW23278   0.428   4.412   0.143
 7460SOL    HW123279   0.502   4.473   0.172
 7460SOL    HW223280   0.366   4.462   0.082
 7461SOL     OW23281   5.560   0.978   4.776
 7461SOL    HW123282   5.568   1.078   4.772
 7461SOL    HW223283   5.626   0.942   4.842
 7462SOL     OW23284   2.085   1.656   2.388
 7462SOL    HW123285   1.994   1.639   2.349
 7462SOL    HW223286   2.107   1.753   2.380
 7463SOL     OW23287   4.062   3.818   2.498
 7463SOL    HW123288   4.114   3.841   2.416
 7463SOL    HW223289   3.997   3.745   2.477
 7464SOL     OW23290   5.349   6.370   0.544
 7464SOL    HW123291   5.393   6.421   0.470
 7464SOL    HW223292   5.416   6.350   0.615
 7465SOL     OW23293   2.752   0.238   1.800
 7465SOL    HW123294   2.776   0.321   1.850
 7465SOL    HW223295   2.653   0.228   1.796
 7466SOL     OW23296   0.937   0.630   6.832
 7466SOL    HW123297   1.010   0.686   6.872
 7466SOL    HW223298   0.951   0.534   6.858
 7467SOL     OW23299   0.160   1.585   0.540
 7467SOL    HW123300   0.195   1.498   0.576
 7467SOL    HW223301   0.089   1.620   0.601
 7468SOL     OW23302   5.955   1.837   2.773
 7468SOL    HW123303   5.991   1.751   2.737
 7468SOL    HW223304   5.909   1.887   2.700
 7469SOL     OW23305   1.257   0.630   0.823
 7469SOL    HW123306   1.160   0.629   0.844
 7469SOL    HW223307   1.270   0.626   0.724
 7470SOL     OW23308   6.630   1.979   2.236
 7470SOL    HW123309   6.682   1.905   2.278
 7470SOL    HW223310   6.532   1.963   2.247
 7471SOL     OW23311   5.797   6.294   5.791
 7471SOL    HW123312   5.840   6.335   5.871
 7471SOL    HW223313   5.707   6.259   5.816
 7472SOL     OW23314   3.807   0.304   3.410
 7472SOL    HW123315   3.720   0.265   3.441
 7472SOL    HW223316   3.807   0.402   3.426
 7473SOL     OW23317   0.054   3.457   3.910
 7473SOL    HW123318   0.134   3.504   3.947
 7473SOL    HW223319   0.073   3.428   3.816
 7474SOL     OW23320   3.755   0.998   3.104
 7474SOL    HW123321   3.740   1.089   3.064
 7474SOL    HW223322   3.840   0.960   3.070
 7475SOL     OW23323   3.441   1.381   1.095
 7475SOL    HW123324   3.413   1.286   1.110
 7475SOL    HW223325   3.361   1.437   1.074
 7476SOL     OW23326   4.004   6.327   4.729
 7476SOL    HW123327   3.927   6.328   4.666
 7476SOL    HW223328   4.086   6.360   4.682
 7477SOL     OW23329   4.086   1.698   4.253
 7477SOL    HW123330   3.991   1.681   4.276
 7477SOL    HW223331   4.092   1.773   4.186
 7478SOL     OW23332   1.548   4.775   0.634
 7478SOL    HW123333   1.561   4.686   0.678
 7478SOL    HW223334   1.632   4.802   0.587
 7479SOL     OW23335   4.499   0.856   6.927
 7479SOL    HW123336   4.440   0.874   6.848
 7479SOL    HW223337   4.591   0.887   6.907
 7480SOL     OW23338   6.367   5.191   1.279
 7480SOL    HW123339   6.276   5.173   1.242
 7480SOL    HW223340   6.374   5.153   1.371
 7481SOL     OW23341   5.735   5.357   0.395
 7481SOL    HW123342   5.652   5.398   0.356
 7481SOL    HW223343   5.723   5.345   0.493
 7482SOL     OW23344   5.015   0.682   3.012
 7482SOL    HW123345   4.955   0.735   2.953
 7482SOL    HW223346   5.064   0.614   2.956
 7483SOL     OW23347   3.240   0.979   5.549
 7483SOL    HW123348   3.226   0.898   5.492
 7483SOL    HW223349   3.166   0.986   5.615
 7484SOL     OW23350   2.150   6.873   1.947
 7484SOL    HW123351   2.233   6.889   2.000
 7484SOL    HW223352   2.104   6.960   1.931
 7485SOL     OW23353   2.619   5.669   6.510
 7485SOL    HW123354   2.539   5.627   6.466
 7485SOL    HW223355   2.629   5.631   6.602
 7486SOL     OW23356   2.564   6.850   5.751
 7486SOL    HW123357   2.595   6.780   5.686
 7486SOL    HW223358   2.498   6.910   5.706
 7487SOL     OW23359   3.266   6.158   4.356
 7487SOL    HW123360   3.322   6.230   4.316
 7487SOL    HW223361   3.250   6.086   4.289
 7488SOL     OW23362   3.669   0.166   6.561
 7488SOL    HW123363   3.702   0.168   6.467
 7488SOL    HW223364   3.720   0.097   6.613
 7489SOL     OW23365   5.498   3.432   3.933
 7489SOL    HW123366   5.473   3.370   4.007
 7489SOL    HW223367   5.423   3.437   3.867
 7490SOL     OW23368   5.345   0.943   0.944
 7490SOL    HW123369   5.255   0.919   0.908
 7490SOL    HW223370   5.362   1.040   0.929
 7491SOL     OW23371   6.205   5.711   6.485
 7491SOL    HW123372   6.215   5.631   6.425
 7491SOL    HW223373   6.283   5.716   6.547
 7492SOL     OW23374   1.566   2.680   4.997
 7492SOL    HW123375   1.585   2.738   5.076
 7492SOL    HW223376   1.638   2.692   4.929
 7493SOL     OW23377   5.122   3.797   6.573
 7493SOL    HW123378   5.162   3.879   6.613
 7493SOL    HW223379   5.064   3.751   6.641
 7494SOL     OW23380   5.063   0.010   1.869
 7494SOL    HW123381   5.074   6.979   1.786
 7494SOL    HW223382   5.051   6.974   1.948
 7495SOL     OW23383   1.658   2.265   1.038
 7495SOL    HW123384   1.704   2.177   1.022
 7495SOL    HW223385   1.655   2.283   1.136
 7496SOL     OW23386   0.782   5.018   6.289
 7496SOL    HW123387   0.710   5.072   6.332
 7496SOL    HW223388   0.767   5.013   6.191
 7497SOL     OW23389   1.604   4.300   2.191
 7497SOL    HW123390   1.622   4.293   2.289
 7497SOL    HW223391   1.684   4.270   2.140
 7498SOL     OW23392   3.768   1.905   4.786
 7498SOL    HW123393   3.728   1.879   4.874
 7498SOL    HW223394   3.859   1.865   4.778
 7499SOL     OW23395   5.336   0.009   4.032
 7499SOL    HW123396   5.319   7.001   4.125
 7499SOL    HW223397   5.301   6.966   3.967
 7500SOL     OW23398   5.333   5.412   1.514
 7500SOL    HW123399   5.384   5.486   1.470
 7500SOL    HW223400   5.266   5.451   1.577
 7501SOL     OW23401   0.303   4.028   3.479
 7501SOL    HW123402   0.334   3.976   3.559
 7501SOL    HW223403   0.335   3.982   3.396
 7502SOL     OW23404   2.501   1.185   5.007
 7502SOL    HW123405   2.548   1.125   5.073
 7502SOL    HW223406   2.424   1.135   4.966
 7503SOL     OW23407   3.004   1.711   6.997
 7503SOL    HW123408   3.022   1.655   0.054
 7503SOL    HW223409   2.931   1.776   7.017
 7504SOL     OW23410   3.623   6.612   3.020
 7504SOL    HW123411   3.578   6.532   3.061
 7504SOL    HW223412   3.554   6.677   2.989
 7505SOL     OW23413   1.660   1.484   5.242
 7505SOL    HW123414   1.612   1.568   5.216
 7505SOL    HW223415   1.701   1.497   5.333
 7506SOL     OW23416   3.779   1.500   2.527
 7506SOL    HW123417   3.707   1.569   2.529
 7506SOL    HW223418   3.783   1.458   2.436
 7507SOL     OW23419   0.999   6.417   5.879
 7507SOL    HW123420   0.989   6.333   5.932
 7507SOL    HW223421   1.090   6.419   5.836
 7508SOL     OW23422   5.673   0.290   2.642
 7508SOL    HW123423   5.644   0.197   2.662
 7508SOL    HW223424   5.710   0.294   2.549
 7509SOL     OW23425   4.617   4.028   6.293
 7509SOL    HW123426   4.676   4.072   6.225
 7509SOL    HW223427   4.528   4.009   6.252
 7510SOL     OW23428   3.914   4.093   4.932
 7510SOL    HW123429   3.829   4.141   4.908
 7510SOL    HW223430   3.982   4.159   4.963
 7511SOL     OW23431   1.226   0.783   1.780
 7511SOL    HW123432   1.265   0.861   1.732
 7511SOL    HW223433   1.247   0.699   1.730
 7512SOL     OW23434   2.222   2.778   1.887
 7512SOL    HW123435   2.124   2.789   1.903
 7512SOL    HW223436   2.254   2.849   1.824
 7513SOL     OW23437   1.396   2.095   6.933
 7513SOL    HW123438   1.343   2.094   7.018
 7513SOL    HW223439   1.430   2.188   6.917
 7514SOL     OW23440   2.403   5.573   2.806
 7514SOL    HW123441   2.416   5.549   2.902
 7514SOL    HW223442   2.419   5.671   2.794
 7515SOL     OW23443   6.936   6.297   2.550
 7515SOL    HW123444   6.978   6.263   2.465
 7515SOL    HW223445   6.941   6.397   2.552
 7516SOL     OW23446   0.541   0.917   3.392
 7516SOL    HW123447   0.565   1.014   3.405
 7516SOL    HW223448   0.518   0.901   3.296
 7517SOL     OW23449   0.443   3.343   1.206
 7517SOL    HW123450   0.378   3.410   1.243
 7517SOL    HW223451   0.399   3.254   1.202
 7518SOL     OW23452   4.423   5.702   4.135
 7518SOL    HW123453   4.459   5.719   4.227
 7518SOL    HW223454   4.438   5.782   4.078
 7519SOL     OW23455   1.912   6.278   4.132
 7519SOL    HW123456   1.859   6.214   4.188
 7519SOL    HW223457   1.928   6.363   4.183
 7520SOL     OW23458   1.401   6.547   3.773
 7520SOL    HW123459   1.460   6.564   3.694
 7520SOL    HW223460   1.454   6.507   3.847
 7521SOL     OW23461   4.434   4.556   5.583
 7521SOL    HW123462   4.425   4.497   5.503
 7521SOL    HW223463   4.358   4.622   5.584
 7522SOL     OW23464   2.315   0.990   1.196
 7522SOL    HW123465   2.278   1.022   1.109
 7522SOL    HW223466   2.415   0.984   1.189
 7523SOL     OW23467   5.542   0.232   6.608
 7523SOL    HW123468   5.623   0.274   6.649
 7523SOL    HW223469   5.526   0.273   6.518
 7524SOL     OW23470   0.607   1.622   5.318
 7524SOL    HW123471   0.569   1.530   5.316
 7524SOL    HW223472   0.655   1.637   5.405
 7525SOL     OW23473   1.143   1.092   0.734
 7525SOL    HW123474   1.092   1.021   0.685
 7525SOL    HW223475   1.240   1.069   0.734
 7526SOL     OW23476   3.853   3.198   4.704
 7526SOL    HW123477   3.862   3.108   4.746
 7526SOL    HW223478   3.939   3.248   4.714
 7527SOL     OW23479   5.609   4.619   3.325
 7527SOL    HW123480   5.701   4.633   3.287
 7527SOL    HW223481   5.555   4.702   3.310
 7528SOL     OW23482   5.784   2.689   0.317
 7528SOL    HW123483   5.716   2.638   0.370
 7528SOL    HW223484   5.849   2.625   0.276
 7529SOL     OW23485   3.625   1.648   5.322
 7529SOL    HW123486   3.526   1.646   5.308
 7529SOL    HW223487   3.672   1.632   5.235
 7530SOL     OW23488   1.129   4.034   1.888
 7530SOL    HW123489   1.100   3.986   1.971
 7530SOL    HW223490   1.050   4.055   1.832
 7531SOL     OW23491   4.267   1.501   3.600
 7531SOL    HW123492   4.364   1.524   3.615
 7531SOL    HW223493   4.261   1.427   3.534
 7532SOL     OW23494   5.348   5.796   2.058
 7532SOL    HW123495   5.409   5.874   2.046
 7532SOL    HW223496   5.399   5.720   2.099
 7533SOL     OW23497   3.485   1.264   4.597
 7533SOL    HW123498   3.491   1.361   4.619
 7533SOL    HW223499   3.487   1.252   4.498
 7534SOL     OW23500   4.635   6.472   4.692
 7534SOL    HW123501   4.607   6.546   4.631
 7534SOL    HW223502   4.663   6.510   4.780
 7535SOL     OW23503   3.000   2.623   5.783
 7535SOL    HW123504   2.976   2.631   5.880
 7535SOL    HW223505   3.037   2.710   5.751
 7536SOL     OW23506   4.565   6.039   4.511
 7536SOL    HW123507   4.616   5.970   4.460
 7536SOL    HW223508   4.511   5.994   4.582
 7537SOL     OW23509   2.118   4.917   5.807
 7537SOL    HW123510   2.152   4.932   5.900
 7537SOL    HW223511   2.105   5.005   5.762
 7538SOL     OW23512   2.913   3.711   2.915
 7538SOL    HW123513   2.886   3.751   2.827
 7538SOL    HW223514   2.890   3.613   2.916
 7539SOL     OW23515   2.129   2.924   5.100
 7539SOL    HW123516   2.082   2.854   5.046
 7539SOL    HW223517   2.212   2.953   5.051
 7540SOL     OW23518   2.708   1.097   0.191
 7540SOL    HW123519   2.732   1.184   0.234
 7540SOL    HW223520   2.720   1.105   0.092
 7541SOL     OW23521   6.342   2.061   5.633
 7541SOL    HW123522   6.252   2.078   5.673
 7541SOL    HW223523   6.399   2.011   5.698
 7542SOL     OW23524   1.566   6.714   5.763
 7542SOL    HW123525   1.478   6.715   5.811
 7542SOL    HW223526   1.556   6.663   5.677
 7543SOL     OW23527   4.178   3.316   0.595
 7543SOL    HW123528   4.241   3.388   0.565
 7543SOL    HW223529   4.093   3.358   0.626
 7544SOL     OW23530   2.300   2.079   3.240
 7544SOL    HW123531   2.237   2.024   3.186
 7544SOL    HW223532   2.248   2.137   3.303
 7545SOL     OW23533   5.160   0.232   3.361
 7545SOL    HW123534   5.105   0.217   3.444
 7545SOL    HW223535   5.179   0.330   3.350
 7546SOL     OW23536   4.768   0.888   6.833
 7546SOL    HW123537   4.801   0.815   6.892
 7546SOL    HW223538   4.836   0.961   6.828
 7547SOL     OW23539   3.344   0.441   0.496
 7547SOL    HW123540   3.371   0.389   0.414
 7547SOL    HW223541   3.343   0.379   0.575
 7548SOL     OW23542   1.792   2.464   1.917
 7548SOL    HW123543   1.831   2.464   2.009
 7548SOL    HW223544   1.861   2.435   1.851
 7549SOL     OW23545   5.431   2.235   3.307
 7549SOL    HW123546   5.415   2.287   3.223
 7549SOL    HW223547   5.373   2.269   3.380
 7550SOL     OW23548   2.201   5.729   3.150
 7550SOL    HW123549   2.207   5.746   3.052
 7550SOL    HW223550   2.105   5.732   3.178
 7551SOL     OW23551   5.264   2.895   6.329
 7551SOL    HW123552   5.330   2.826   6.356
 7551SOL    HW223553   5.271   2.911   6.231
 7552SOL     OW23554   2.763   5.011   4.345
 7552SOL    HW123555   2.759   5.065   4.429
 7552SOL    HW223556   2.858   5.001   4.316
 7553SOL     OW23557   3.620   5.711   5.878
 7553SOL    HW123558   3.719   5.702   5.895
 7553SOL    HW223559   3.593   5.644   5.810
 7554SOL     OW23560   6.089   0.964   6.971
 7554SOL    HW123561   6.108   1.053   6.930
 7554SOL    HW223562   6.043   0.906   6.905
 7555SOL     OW23563   0.463   6.290   5.498
 7555SOL    HW123564   0.371   6.330   5.499
 7555SOL    HW223565   0.525   6.352   5.450
 7556SOL     OW23566   0.415   2.689   4.482
 7556SOL    HW123567   0.362   2.725   4.405
 7556SOL    HW223568   0.451   2.764   4.536
 7557SOL     OW23569   5.006   4.518   6.611
 7557SOL    HW123570   4.989   4.504   6.514
 7557SOL    HW223571   4.958   4.448   6.664
 7558SOL     OW23572   1.793   3.204   3.205
 7558SOL    HW123573   1.730   3.273   3.170
 7558SOL    HW223574   1.788   3.200   3.304
 7559SOL     OW23575   0.145   4.395   0.902
 7559SOL    HW123576   0.079   4.468   0.919
 7559SOL    HW223577   0.236   4.434   0.892
 7560SOL     OW23578   5.363   6.958   0.639
 7560SOL    HW123579   5.433   7.009   0.689
 7560SOL    HW223580   5.405   6.878   0.595
 7561SOL     OW23581   6.618   2.962   0.597
 7561SOL    HW123582   6.601   3.039   0.535
 7561SOL    HW223583   6.584   2.985   0.689
 7562SOL     OW23584   5.541   6.426   5.155
 7562SOL    HW123585   5.601   6.502   5.181
 7562SOL    HW223586   5.448   6.446   5.184
 7563SOL     OW23587   2.623   0.843   2.112
 7563SOL    HW123588   2.711   0.849   2.158
 7563SOL    HW223589   2.592   0.934   2.085
 7564SOL     OW23590   5.167   0.023   3.192
 7564SOL    HW123591   5.084   0.025   3.137
 7564SOL    HW223592   5.174   0.109   3.244
 7565SOL     OW23593   4.626   4.778   6.858
 7565SOL    HW123594   4.634   4.771   6.758
 7565SOL    HW223595   4.652   4.870   6.886
 7566SOL     OW23596   1.088   5.891   4.504
 7566SOL    HW123597   1.020   5.846   4.447
 7566SOL    HW223598   1.098   5.840   4.590
 7567SOL     OW23599   3.081   4.675   0.275
 7567SOL    HW123600   3.038   4.617   0.206
 7567SOL    HW223601   3.015   4.694   0.348
 7568SOL     OW23602   4.511   5.571   3.735
 7568SOL    HW123603   4.416   5.554   3.763
 7568SOL    HW223604   4.573   5.526   3.800
 7569SOL     OW23605   3.755   6.439   0.625
 7569SOL    HW123606   3.834   6.433   0.687
 7569SOL    HW223607   3.773   6.508   0.555
 7570SOL     OW23608   5.749   5.436   3.619
 7570SOL    HW123609   5.686   5.439   3.697
 7570SOL    HW223610   5.842   5.418   3.652
 7571SOL     OW23611   5.351   4.336   1.496
 7571SOL    HW123612   5.320   4.311   1.404
 7571SOL    HW223613   5.272   4.338   1.558
 7572SOL     OW23614   3.145   0.922   4.828
 7572SOL    HW123615   3.171   0.854   4.897
 7572SOL    HW223616   3.066   0.974   4.861
 7573SOL     OW23617   1.136   6.380   4.250
 7573SOL    HW123618   1.218   6.334   4.216
 7573SOL    HW223619   1.091   6.323   4.318
 7574SOL     OW23620   5.296   6.360   2.821
 7574SOL    HW123621   5.388   6.346   2.782
 7574SOL    HW223622   5.254   6.440   2.777
 7575SOL     OW23623   3.810   1.423   5.400
 7575SOL    HW123624   3.756   1.506   5.390
 7575SOL    HW223625   3.887   1.440   5.461
 7576SOL     OW23626   6.311   3.406   0.636
 7576SOL    HW123627   6.406   3.377   0.638
 7576SOL    HW223628   6.296   3.468   0.559
 7577SOL     OW23629   6.291   1.082   5.072
 7577SOL    HW123630   6.366   1.105   5.134
 7577SOL    HW223631   6.328   1.056   4.983
 7578SOL     OW23632   2.279   5.123   4.783
 7578SOL    HW123633   2.275   5.069   4.867
 7578SOL    HW223634   2.210   5.090   4.718
 7579SOL     OW23635   3.733   1.940   2.478
 7579SOL    HW123636   3.674   1.894   2.412
 7579SOL    HW223637   3.781   2.015   2.433
 7580SOL     OW23638   2.129   4.377   2.839
 7580SOL    HW123639   2.218   4.414   2.867
 7580SOL    HW223640   2.141   4.316   2.761
 7581SOL     OW23641   5.502   0.845   0.689
 7581SOL    HW123642   5.485   0.752   0.721
 7581SOL    HW223643   5.495   0.909   0.766
 7582SOL     OW23644   2.945   1.207   1.067
 7582SOL    HW123645   2.899   1.129   1.024
 7582SOL    HW223646   2.949   1.284   1.004
 7583SOL     OW23647   5.412   3.649   2.205
 7583SOL    HW123648   5.407   3.549   2.208
 7583SOL    HW223649   5.484   3.681   2.266
 7584SOL     OW23650   3.016   0.143   1.123
 7584SOL    HW123651   3.102   0.092   1.120
 7584SOL    HW223652   2.951   0.095   1.181
 7585SOL     OW23653   1.464   4.678   6.510
 7585SOL    HW123654   1.520   4.760   6.502
 7585SOL    HW223655   1.499   4.620   6.583
 7586SOL     OW23656   3.191   0.783   2.886
 7586SOL    HW123657   3.229   0.833   2.808
 7586SOL    HW223658   3.164   0.691   2.857
 7587SOL     OW23659   1.106   1.731   6.065
 7587SOL    HW123660   1.101   1.724   6.165
 7587SOL    HW223661   1.126   1.826   6.040
 7588SOL     OW23662   0.360   4.806   2.716
 7588SOL    HW123663   0.343   4.711   2.689
 7588SOL    HW223664   0.337   4.867   2.640
 7589SOL     OW23665   6.305   5.622   0.364
 7589SOL    HW123666   6.298   5.533   0.320
 7589SOL    HW223667   6.307   5.694   0.294
 7590SOL     OW23668   2.492   1.226   6.133
 7590SOL    HW123669   2.575   1.260   6.089
 7590SOL    HW223670   2.416   1.230   6.068
 7591SOL     OW23671   6.814   4.651   6.607
 7591SOL    HW123672   6.799   4.561   6.568
 7591SOL    HW223673   6.825   4.642   6.706
 7592SOL     OW23674   5.710   5.121   6.503
 7592SOL    HW123675   5.760   5.035   6.512
 7592SOL    HW223676   5.630   5.108   6.445
 7593SOL     OW23677   5.490   2.329   0.322
 7593SOL    HW123678   5.547   2.370   0.393
 7593SOL    HW223679   5.395   2.357   0.336
 7594SOL     OW23680   1.322   6.085   3.802
 7594SOL    HW123681   1.414   6.096   3.764
 7594SOL    HW223682   1.298   5.988   3.803
 7595SOL     OW23683   6.560   3.044   6.640
 7595SOL    HW123684   6.643   2.994   6.618
 7595SOL    HW223685   6.501   3.048   6.559
 7596SOL     OW23686   4.926   4.571   1.820
 7596SOL    HW123687   4.859   4.501   1.846
 7596SOL    HW223688   4.995   4.579   1.892
 7597SOL     OW23689   3.833   5.250   1.593
 7597SOL    HW123690   3.829   5.159   1.634
 7597SOL    HW223691   3.853   5.242   1.495
 7598SOL     OW23692   7.017   0.766   3.462
 7598SOL    HW123693   0.000   0.716   3.376
 7598SOL    HW223694   0.052   0.847   3.459
 7599SOL     OW23695   6.368   2.028   2.573
 7599SOL    HW123696   6.403   2.056   2.662
 7599SOL    HW223697   6.361   1.928   2.570
 7600SOL     OW23698   2.015   1.254   1.694
 7600SOL    HW123699   2.108   1.291   1.693
 7600SOL    HW223700   1.983   1.247   1.789
 7601SOL     OW23701   1.646   6.179   4.162
 7601SOL    HW123702   1.657   6.267   4.207
 7601SOL    HW223703   1.573   6.127   4.207
 7602SOL     OW23704   0.980   4.235   4.761
 7602SOL    HW123705   1.003   4.160   4.700
 7602SOL    HW223706   1.043   4.311   4.746
 7603SOL     OW23707   1.392   6.530   1.640
 7603SOL    HW123708   1.437   6.503   1.725
 7603SOL    HW223709   1.454   6.588   1.586
 7604SOL     OW23710   4.441   6.198   5.162
 7604SOL    HW123711   4.447   6.099   5.164
 7604SOL    HW223712   4.403   6.228   5.075
 7605SOL     OW23713   6.776   4.182   0.112
 7605SOL    HW123714   6.759   4.242   0.034
 7605SOL    HW223715   6.790   4.088   0.080
 7606SOL     OW23716   6.219   2.411   2.404
 7606SOL    HW123717   6.164   2.477   2.456
 7606SOL    HW223718   6.162   2.369   2.334
 7607SOL     OW23719   4.945   0.331   6.761
 7607SOL    HW123720   4.884   0.258   6.732
 7607SOL    HW223721   4.967   0.389   6.683
 7608SOL     OW23722   2.909   3.611   4.181
 7608SOL    HW123723   2.855   3.615   4.097
 7608SOL    HW223724   2.922   3.704   4.216
 7609SOL     OW23725   1.098   3.132   3.901
 7609SOL    HW123726   1.038   3.088   3.968
 7609SOL    HW223727   1.176   3.072   3.883
 7610SOL     OW23728   5.575   0.182   0.551
 7610SOL    HW123729   5.615   0.272   0.565
 7610SOL    HW223730   5.626   0.114   0.605
 7611SOL     OW23731   1.400   1.667   0.123
 7611SOL    HW123732   1.486   1.707   0.093
 7611SOL    HW223733   1.325   1.731   0.105
 7612SOL     OW23734   4.159   2.310   3.825
 7612SOL    HW123735   4.171   2.403   3.857
 7612SOL    HW223736   4.166   2.246   3.902
 7613SOL     OW23737   5.023   0.969   1.591
 7613SOL    HW123738   5.090   1.007   1.528
 7613SOL    HW223739   5.020   1.025   1.674
 7614SOL     OW23740   3.825   2.468   0.841
 7614SOL    HW123741   3.910   2.520   0.853
 7614SOL    HW223742   3.848   2.374   0.814
 7615SOL     OW23743   3.699   4.887   6.166
 7615SOL    HW123744   3.614   4.867   6.215
 7615SOL    HW223745   3.739   4.971   6.204
 7616SOL     OW23746   6.579   3.773   3.095
 7616SOL    HW123747   6.571   3.718   3.011
 7616SOL    HW223748   6.499   3.755   3.153
 7617SOL     OW23749   3.181   4.947   3.075
 7617SOL    HW123750   3.267   4.997   3.078
 7617SOL    HW223751   3.144   4.939   3.167
 7618SOL     OW23752   2.249   2.428   6.486
 7618SOL    HW123753   2.300   2.387   6.562
 7618SOL    HW223754   2.188   2.499   6.523
 7619SOL     OW23755   6.421   3.670   5.475
 7619SOL    HW123756   6.372   3.586   5.455
 7619SOL    HW223757   6.375   3.747   5.431
 7620SOL     OW23758   4.022   6.945   1.160
 7620SOL    HW123759   4.061   6.911   1.074
 7620SOL    HW223760   4.078   6.914   1.236
 7621SOL     OW23761   2.442   0.721   1.314
 7621SOL    HW123762   2.417   0.812   1.280
 7621SOL    HW223763   2.434   0.719   1.413
 7622SOL     OW23764   4.166   3.036   1.028
 7622SOL    HW123765   4.182   3.087   0.944
 7622SOL    HW223766   4.111   3.091   1.090
 7623SOL     OW23767   4.555   0.048   5.549
 7623SOL    HW123768   4.599   7.014   5.616
 7623SOL    HW223769   4.575   0.144   5.569
 7624SOL     OW23770   0.809   1.251   2.982
 7624SOL    HW123771   0.785   1.305   3.063
 7624SOL    HW223772   0.870   1.305   2.924
 7625SOL     OW23773   4.921   0.673   1.108
 7625SOL    HW123774   4.973   0.735   1.166
 7625SOL    HW223775   4.972   0.655   1.024
 7626SOL     OW23776   1.659   6.393   4.302
 7626SOL    HW123777   1.738   6.454   4.311
 7626SOL    HW223778   1.596   6.408   4.379
 7627SOL     OW23779   6.667   2.547   0.969
 7627SOL    HW123780   6.655   2.582   0.876
 7627SOL    HW223781   6.724   2.611   1.021
 7628SOL     OW23782   2.999   1.441   0.901
 7628SOL    HW123783   2.917   1.470   0.853
 7628SOL    HW223784   3.076   1.438   0.838
 7629SOL     OW23785   6.860   5.230   2.986
 7629SOL    HW123786   6.847   5.249   2.889
 7629SOL    HW223787   6.814   5.301   3.040
 7630SOL     OW23788   6.343   0.575   2.287
 7630SOL    HW123789   6.295   0.506   2.233
 7630SOL    HW223790   6.334   0.553   2.384
 7631SOL     OW23791   0.259   1.708   4.066
 7631SOL    HW123792   0.248   1.612   4.094
 7631SOL    HW223793   0.274   1.764   4.147
 7632SOL     OW23794   4.771   2.387   0.662
 7632SOL    HW123795   4.748   2.452   0.589
 7632SOL    HW223796   4.692   2.328   0.678
 7633SOL     OW23797   5.316   3.518   6.616
 7633SOL    HW123798   5.382   3.547   6.685
 7633SOL    HW223799   5.283   3.598   6.566
 7634SOL     OW23800   2.084   0.785   2.304
 7634SOL    HW123801   2.071   0.767   2.206
 7634SOL    HW223802   2.001   0.761   2.353
 7635SOL     OW23803   2.476   5.172   5.563
 7635SOL    HW123804   2.522   5.116   5.632
 7635SOL    HW223805   2.502   5.267   5.574
 7636SOL     OW23806   0.882   0.716   4.376
 7636SOL    HW123807   0.839   0.640   4.328
 7636SOL    HW223808   0.932   0.773   4.311
 7637SOL     OW23809   1.333   6.221   4.120
 7637SOL    HW123810   1.381   6.134   4.133
 7637SOL    HW223811   1.261   6.209   4.051
 7638SOL     OW23812   5.150   5.236   1.802
 7638SOL    HW123813   5.213   5.313   1.796
 7638SOL    HW223814   5.126   5.220   1.898
 7639SOL     OW23815   0.777   1.705   5.600
 7639SOL    HW123816   0.821   1.793   5.618
 7639SOL    HW223817   0.844   1.632   5.605
 7640SOL     OW23818   2.530   1.653   0.335
 7640SOL    HW123819   2.578   1.590   0.274
 7640SOL    HW223820   2.505   1.736   0.285
 7641SOL     OW23821   5.896   3.572   2.139
 7641SOL    HW123822   5.811   3.519   2.134
 7641SOL    HW223823   5.925   3.598   2.047
 7642SOL     OW23824   2.394   1.925   2.207
 7642SOL    HW123825   2.478   1.970   2.238
 7642SOL    HW223826   2.323   1.936   2.277
 7643SOL     OW23827   5.110   2.853   2.832
 7643SOL    HW123828   5.076   2.779   2.890
 7643SOL    HW223829   5.032   2.897   2.786
 7644SOL     OW23830   0.124   3.318   3.115
 7644SOL    HW123831   0.219   3.285   3.115
 7644SOL    HW223832   0.091   3.323   3.210
 7645SOL     OW23833   4.291   4.330   0.126
 7645SOL    HW123834   4.344   4.313   0.209
 7645SOL    HW223835   4.345   4.301   0.046
 7646SOL     OW23836   2.070   2.378   2.342
 7646SOL    HW123837   2.160   2.334   2.344
 7646SOL    HW223838   2.053   2.417   2.251
 7647SOL     OW23839   2.458   3.913   1.678
 7647SOL    HW123840   2.474   4.009   1.657
 7647SOL    HW223841   2.513   3.856   1.616
 7648SOL     OW23842   4.159   1.387   4.090
 7648SOL    HW123843   4.110   1.302   4.068
 7648SOL    HW223844   4.139   1.413   4.185
 7649SOL     OW23845   2.795   0.587   2.209
 7649SOL    HW123846   2.700   0.555   2.212
 7649SOL    HW223847   2.808   0.661   2.275
 7650SOL     OW23848   6.537   3.714   1.880
 7650SOL    HW123849   6.447   3.753   1.902
 7650SOL    HW223850   6.582   3.771   1.812
 7651SOL     OW23851   3.309   1.072   6.737
 7651SOL    HW123852   3.322   0.981   6.699
 7651SOL    HW223853   3.214   1.082   6.768
 7652SOL     OW23854   0.513   3.707   2.929
 7652SOL    HW123855   0.595   3.682   2.979
 7652SOL    HW223856   0.436   3.653   2.960
 7653SOL     OW23857   2.504   2.200   1.902
 7653SOL    HW123858   2.576   2.251   1.855
 7653SOL    HW223859   2.431   2.177   1.837
 7654SOL     OW23860   5.260   3.448   3.796
 7654SOL    HW123861   5.188   3.379   3.781
 7654SOL    HW223862   5.262   3.510   3.718
 7655SOL     OW23863   3.444   6.323   4.795
 7655SOL    HW123864   3.428   6.259   4.720
 7655SOL    HW223865   3.523   6.293   4.849
 7656SOL     OW23866   6.889   6.277   5.505
 7656SOL    HW123867   6.936   6.189   5.504
 7656SOL    HW223868   6.818   6.276   5.575
 7657SOL     OW23869   3.367   1.779   3.916
 7657SOL    HW123870   3.357   1.878   3.907
 7657SOL    HW223871   3.464   1.755   3.911
 7658SOL     OW23872   3.904   1.145   5.988
 7658SOL    HW123873   3.840   1.072   6.011
 7658SOL    HW223874   3.859   1.212   5.929
 7659SOL     OW23875   5.692   6.895   0.533
 7659SOL    HW123876   5.723   6.922   0.624
 7659SOL    HW223877   5.729   6.958   0.465
 7660SOL     OW23878   5.679   5.628   2.674
 7660SOL    HW123879   5.721   5.615   2.764
 7660SOL    HW223880   5.599   5.687   2.684
 7661SOL     OW23881   6.701   2.719   3.653
 7661SOL    HW123882   6.680   2.747   3.747
 7661SOL    HW223883   6.666   2.787   3.589
 7662SOL     OW23884   0.591   4.554   2.255
 7662SOL    HW123885   0.577   4.644   2.296
 7662SOL    HW223886   0.652   4.563   2.176
 7663SOL     OW23887   0.153   4.663   6.335
 7663SOL    HW123888   0.219   4.676   6.260
 7663SOL    HW223889   0.177   4.580   6.385
 7664SOL     OW23890   2.873   5.462   3.672
 7664SOL    HW123891   2.849   5.365   3.669
 7664SOL    HW223892   2.790   5.517   3.678
 7665SOL     OW23893   2.739   0.492   4.594
 7665SOL    HW123894   2.799   0.527   4.666
 7665SOL    HW223895   2.679   0.565   4.562
 7666SOL     OW23896   1.555   0.541   1.249
 7666SOL    HW123897   1.548   0.442   1.264
 7666SOL    HW223898   1.580   0.587   1.334
 7667SOL     OW23899   4.924   6.856   0.038
 7667SOL    HW123900   4.890   6.921   6.994
 7667SOL    HW223901   4.887   6.879   0.128
 7668SOL     OW23902   3.824   4.428   0.873
 7668SOL    HW123903   3.764   4.400   0.798
 7668SOL    HW223904   3.906   4.372   0.873
 7669SOL     OW23905   4.858   0.149   3.829
 7669SOL    HW123906   4.767   0.190   3.822
 7669SOL    HW223907   4.893   0.160   3.922
 7670SOL     OW23908   1.622   5.471   0.790
 7670SOL    HW123909   1.596   5.535   0.862
 7670SOL    HW223910   1.616   5.516   0.701
 7671SOL     OW23911   6.094   2.431   3.772
 7671SOL    HW123912   6.175   2.460   3.823
 7671SOL    HW223913   6.111   2.442   3.674
 7672SOL     OW23914   5.574   1.016   3.413
 7672SOL    HW123915   5.529   0.979   3.331
 7672SOL    HW223916   5.663   0.972   3.425
 7673SOL     OW23917   0.732   4.458   0.612
 7673SOL    HW123918   0.822   4.500   0.600
 7673SOL    HW223919   0.735   4.363   0.581
 7674SOL     OW23920   6.258   1.757   5.003
 7674SOL    HW123921   6.296   1.779   5.093
 7674SOL    HW223922   6.207   1.672   5.008
 7675SOL     OW23923   4.370   6.837   2.928
 7675SOL    HW123924   4.272   6.848   2.939
 7675SOL    HW223925   4.408   6.792   3.009
 7676SOL     OW23926   1.404   0.557   0.198
 7676SOL    HW123927   1.315   0.524   0.168
 7676SOL    HW223928   1.393   0.633   0.261
 7677SOL     OW23929   1.472   3.407   2.825
 7677SOL    HW123930   1.562   3.363   2.828
 7677SOL    HW223931   1.413   3.365   2.894
 7678SOL     OW23932   0.189   0.439   0.713
 7678SOL    HW123933   0.105   0.493   0.706
 7678SOL    HW223934   0.217   0.408   0.622
 7679SOL     OW23935   0.712   5.075   5.072
 7679SOL    HW123936   0.707   5.054   4.974
 7679SOL    HW223937   0.772   5.009   5.117
 7680SOL     OW23938   3.407   3.690   0.331
 7680SOL    HW123939   3.421   3.747   0.412
 7680SOL    HW223940   3.339   3.620   0.351
 7681SOL     OW23941   2.958   1.535   6.757
 7681SOL    HW123942   2.863   1.523   6.786
 7681SOL    HW223943   3.009   1.584   6.828
 7682SOL     OW23944   2.892   6.940   2.334
 7682SOL    HW123945   2.865   7.016   2.275
 7682SOL    HW223946   2.865   6.960   2.428
 7683SOL     OW23947   5.862   2.452   2.699
 7683SOL    HW123948   5.857   2.359   2.733
 7683SOL    HW223949   5.845   2.453   2.601
 7684SOL     OW23950   4.181   1.939   6.149
 7684SOL    HW123951   4.204   2.033   6.126
 7684SOL    HW223952   4.094   1.914   6.105
 7685SOL     OW23953   3.614   3.146   0.889
 7685SOL    HW123954   3.631   3.239   0.923
 7685SOL    HW223955   3.541   3.104   0.944
 7686SOL     OW23956   4.476   6.698   3.770
 7686SOL    HW123957   4.541   6.774   3.773
 7686SOL    HW223958   4.479   6.648   3.857
 7687SOL     OW23959   5.140   5.371   5.404
 7687SOL    HW123960   5.131   5.450   5.465
 7687SOL    HW223961   5.070   5.303   5.428
 7688SOL     OW23962   0.082   6.666   4.426
 7688SOL    HW123963   0.015   6.630   4.361
 7688SOL    HW223964   0.174   6.660   4.386
 7689SOL     OW23965   4.776   6.661   4.914
 7689SOL    HW123966   4.739   6.702   4.997
 7689SOL    HW223967   4.804   6.567   4.932
 7690SOL     OW23968   6.051   4.521   3.120
 7690SOL    HW123969   6.141   4.523   3.164
 7690SOL    HW223970   6.047   4.444   3.056
 7691SOL     OW23971   5.184   3.235   4.499
 7691SOL    HW123972   5.100   3.270   4.542
 7691SOL    HW223973   5.184   3.135   4.502
 7692SOL     OW23974   1.902   6.662   1.680
 7692SOL    HW123975   1.993   6.650   1.717
 7692SOL    HW223976   1.886   6.759   1.661
 7693SOL     OW23977   4.482   1.213   6.516
 7693SOL    HW123978   4.473   1.311   6.533
 7693SOL    HW223979   4.576   1.184   6.536
 7694SOL     OW23980   7.023   5.045   4.352
 7694SOL    HW123981   0.029   5.002   4.267
 7694SOL    HW223982   6.938   5.002   4.383
 7695SOL     OW23983   4.555   6.606   1.041
 7695SOL    HW123984   4.514   6.697   1.053
 7695SOL    HW223985   4.635   6.613   0.981
 7696SOL     OW23986   6.884   3.233   4.941
 7696SOL    HW123987   6.967   3.177   4.936
 7696SOL    HW223988   6.904   3.324   4.904
 7697SOL     OW23989   2.474   1.357   2.938
 7697SOL    HW123990   2.397   1.339   2.999
 7697SOL    HW223991   2.453   1.435   2.880
 7698SOL     OW23992   6.428   2.884   5.635
 7698SOL    HW123993   6.488   2.812   5.600
 7698SOL    HW223994   6.441   2.893   5.734
 7699SOL     OW23995   2.839   5.705   0.207
 7699SOL    HW123996   2.804   5.798   0.220
 7699SOL    HW223997   2.939   5.708   0.202
 7700SOL     OW23998   5.072   6.824   5.166
 7700SOL    HW123999   5.065   6.728   5.192
 7700SOL    HW224000   5.168   6.853   5.171
 7701SOL     OW24001   0.053   1.501   4.140
 7701SOL    HW124002   0.067   1.486   4.042
 7701SOL    HW224003   0.112   1.439   4.192
 7702SOL     OW24004   3.068   6.102   6.023
 7702SOL    HW124005   2.980   6.120   6.066
 7702SOL    HW224006   3.058   6.106   5.923
 7703SOL     OW24007   0.578   1.629   5.766
 7703SOL    HW124008   0.522   1.712   5.763
 7703SOL    HW224009   0.653   1.637   5.701
 7704SOL     OW24010   3.928   4.487   6.883
 7704SOL    HW124011   3.928   4.419   6.809
 7704SOL    HW224012   3.960   4.443   6.967
 7705SOL     OW24013   3.504   5.160   5.072
 7705SOL    HW124014   3.444   5.091   5.033
 7705SOL    HW224015   3.504   5.151   5.172
 7706SOL     OW24016   6.692   0.709   5.042
 7706SOL    HW124017   6.603   0.715   5.086
 7706SOL    HW224018   6.728   0.801   5.024
 7707SOL     OW24019   6.776   5.541   6.494
 7707SOL    HW124020   6.821   5.479   6.429
 7707SOL    HW224021   6.781   5.502   6.586
 7708SOL     OW24022   5.007   6.921   4.636
 7708SOL    HW124023   4.927   6.971   4.669
 7708SOL    HW224024   5.011   6.832   4.681
 7709SOL     OW24025   4.538   2.101   1.944
 7709SOL    HW124026   4.530   2.186   1.892
 7709SOL    HW224027   4.466   2.037   1.916
 7710SOL     OW24028   2.366   0.297   0.211
 7710SOL    HW124029   2.352   0.364   0.283
 7710SOL    HW224030   2.448   0.244   0.230
 7711SOL     OW24031   5.605   6.562   5.663
 7711SOL    HW124032   5.655   6.593   5.743
 7711SOL    HW224033   5.658   6.581   5.581
 7712SOL     OW24034   5.921   5.296   0.789
 7712SOL    HW124035   5.951   5.210   0.831
 7712SOL    HW224036   5.827   5.286   0.757
 7713SOL     OW24037   1.385   4.178   6.361
 7713SOL    HW124038   1.361   4.102   6.300
 7713SOL    HW224039   1.302   4.223   6.393
 7714SOL     OW24040   6.343   4.387   4.100
 7714SOL    HW124041   6.359   4.310   4.038
 7714SOL    HW224042   6.307   4.354   4.187
 7715SOL     OW24043   4.728   0.005   1.284
 7715SOL    HW124044   4.808   0.041   1.332
 7715SOL    HW224045   4.696   0.072   1.217
 7716SOL     OW24046   4.712   2.248   3.262
 7716SOL    HW124047   4.792   2.193   3.284
 7716SOL    HW224048   4.737   2.318   3.195
 7717SOL     OW24049   3.088   1.828   5.476
 7717SOL    HW124050   3.121   1.889   5.405
 7717SOL    HW224051   3.008   1.777   5.442
 7718SOL     OW24052   2.746   1.176   3.568
 7718SOL    HW124053   2.658   1.171   3.519
 7718SOL    HW224054   2.767   1.087   3.607
 7719SOL     OW24055   6.886   1.760   4.839
 7719SOL    HW124056   6.801   1.808   4.862
 7719SOL    HW224057   6.908   1.775   4.743
 7720SOL     OW24058   6.128   6.169   1.447
 7720SOL    HW124059   6.144   6.260   1.486
 7720SOL    HW224060   6.205   6.144   1.389
 7721SOL     OW24061   2.298   4.077   3.309
 7721SOL    HW124062   2.332   3.989   3.276
 7721SOL    HW224063   2.227   4.062   3.378
 7722SOL     OW24064   6.211   4.097   3.694
 7722SOL    HW124065   6.132   4.156   3.676
 7722SOL    HW224066   6.279   4.109   3.622
 7723SOL     OW24067   6.711   3.341   0.821
 7723SOL    HW124068   6.667   3.256   0.848
 7723SOL    HW224069   6.794   3.355   0.874
 7724SOL     OW24070   1.310   4.519   1.154
 7724SOL    HW124071   1.332   4.449   1.085
 7724SOL    HW224072   1.308   4.609   1.110
 7725SOL     OW24073   5.999   2.963   3.617
 7725SOL    HW124074   5.948   3.046   3.637
 7725SOL    HW224075   5.949   2.907   3.551
 7726SOL     OW24076   0.608   4.756   3.346
 7726SOL    HW124077   0.525   4.789   3.391
 7726SOL    HW224078   0.612   4.793   3.253
 7727SOL     OW24079   6.615   2.474   3.254
 7727SOL    HW124080   6.703   2.505   3.290
 7727SOL    HW224081   6.610   2.495   3.156
 7728SOL     OW24082   1.773   2.938   3.278
 7728SOL    HW124083   1.683   2.914   3.314
 7728SOL    HW224084   1.770   3.029   3.237
 7729SOL     OW24085   5.125   2.845   1.536
 7729SOL    HW124086   5.222   2.830   1.555
 7729SOL    HW224087   5.084   2.760   1.501
 7730SOL     OW24088   5.094   6.975   2.762
 7730SOL    HW124089   5.156   0.019   2.802
 7730SOL    HW224090   5.145   6.915   2.701
 7731SOL     OW24091   6.061   1.258   6.911
 7731SOL    HW124092   5.972   1.302   6.897
 7731SOL    HW224093   6.114   1.261   6.827
 7732SOL     OW24094   4.299   6.044   0.417
 7732SOL    HW124095   4.360   5.986   0.473
 7732SOL    HW224096   4.297   6.009   0.323
 7733SOL     OW24097   3.862   0.200   1.893
 7733SOL    HW124098   3.885   0.270   1.960
 7733SOL    HW224099   3.771   0.163   1.913
 7734SOL     OW24100   1.730   2.328   3.629
 7734SOL    HW124101   1.702   2.333   3.724
 7734SOL    HW224102   1.670   2.385   3.573
 7735SOL     OW24103   5.268   4.329   6.422
 7735SOL    HW124104   5.246   4.410   6.367
 7735SOL    HW224105   5.203   4.256   6.401
 7736SOL     OW24106   5.919   4.810   0.272
 7736SOL    HW124107   5.955   4.726   0.312
 7736SOL    HW224108   5.923   4.804   0.172
 7737SOL     OW24109   4.702   1.623   0.776
 7737SOL    HW124110   4.728   1.656   0.867
 7737SOL    HW224111   4.623   1.562   0.785
 7738SOL     OW24112   3.042   5.413   0.094
 7738SOL    HW124113   2.988   5.473   0.154
 7738SOL    HW224114   2.985   5.385   0.016
 7739SOL     OW24115   6.989   2.159   0.995
 7739SOL    HW124116   6.943   2.199   0.916
 7739SOL    HW224117   6.924   2.149   1.070
 7740SOL     OW24118   6.902   0.296   2.523
 7740SOL    HW124119   6.966   0.350   2.578
 7740SOL    HW224120   6.903   0.202   2.554
 7741SOL     OW24121   1.246   6.129   4.452
 7741SOL    HW124122   1.192   6.049   4.477
 7741SOL    HW224123   1.304   6.107   4.373
 7742SOL     OW24124   6.203   1.761   3.804
 7742SOL    HW124125   6.247   1.765   3.894
 7742SOL    HW224126   6.245   1.828   3.743
 7743SOL     OW24127   4.690   2.684   4.576
 7743SOL    HW124128   4.595   2.700   4.549
 7743SOL    HW224129   4.692   2.635   4.663
 7744SOL     OW24130   6.672   0.223   3.334
 7744SOL    HW124131   6.745   0.288   3.354
 7744SOL    HW224132   6.585   0.272   3.326
 7745SOL     OW24133   3.996   2.997   6.273
 7745SOL    HW124134   3.920   2.943   6.236
 7745SOL    HW224135   4.002   3.084   6.224
 7746SOL     OW24136   1.845   0.775   0.125
 7746SOL    HW124137   1.810   0.750   0.215
 7746SOL    HW224138   1.943   0.792   0.131
 7747SOL     OW24139   5.478   6.395   0.814
 7747SOL    HW124140   5.473   6.495   0.821
 7747SOL    HW224141   5.387   6.356   0.833
 7748SOL     OW24142   2.732   4.324   6.258
 7748SOL    HW124143   2.827   4.295   6.269
 7748SOL    HW224144   2.716   4.350   6.163
 7749SOL     OW24145   5.491   2.464   5.627
 7749SOL    HW124146   5.567   2.438   5.567
 7749SOL    HW224147   5.405   2.431   5.588
 7750SOL     OW24148   0.396   5.845   1.932
 7750SOL    HW124149   0.305   5.867   1.968
 7750SOL    HW224150   0.466   5.881   1.992
 7751SOL     OW24151   0.743   2.983   2.264
 7751SOL    HW124152   0.827   2.984   2.318
 7751SOL    HW224153   0.746   3.055   2.195
 7752SOL     OW24154   4.228   1.802   4.625
 7752SOL    HW124155   4.268   1.847   4.545
 7752SOL    HW224156   4.130   1.791   4.612
 7753SOL     OW24157   2.757   1.540   5.078
 7753SOL    HW124158   2.722   1.479   5.006
 7753SOL    HW224159   2.808   1.487   5.145
 7754SOL     OW24160   4.767   6.128   1.826
 7754SOL    HW124161   4.817   6.195   1.882
 7754SOL    HW224162   4.790   6.036   1.857
 7755SOL     OW24163   0.970   4.113   6.172
 7755SOL    HW124164   0.962   4.023   6.129
 7755SOL    HW224165   1.066   4.132   6.193
 7756SOL     OW24166   3.239   5.742   1.497
 7756SOL    HW124167   3.274   5.835   1.493
 7756SOL    HW224168   3.280   5.687   1.425
 7757SOL     OW24169   0.283   4.589   2.314
 7757SOL    HW124170   0.357   4.606   2.378
 7757SOL    HW224171   0.195   4.598   2.361
 7758SOL     OW24172   1.347   1.005   5.075
 7758SOL    HW124173   1.392   1.086   5.039
 7758SOL    HW224174   1.248   1.020   5.080
 7759SOL     OW24175   2.916   2.400   6.482
 7759SOL    HW124176   2.827   2.430   6.447
 7759SOL    HW224177   2.905   2.314   6.532
 7760SOL     OW24178   4.351   3.325   1.245
 7760SOL    HW124179   4.262   3.295   1.280
 7760SOL    HW224180   4.411   3.245   1.237
 7761SOL     OW24181   4.831   5.498   4.759
 7761SOL    HW124182   4.866   5.467   4.848
 7761SOL    HW224183   4.796   5.420   4.708
 7762SOL     OW24184   6.261   1.188   2.755
 7762SOL    HW124185   6.306   1.186   2.666
 7762SOL    HW224186   6.254   1.095   2.791
 7763SOL     OW24187   2.493   0.151   4.199
 7763SOL    HW124188   2.444   0.065   4.189
 7763SOL    HW224189   2.432   0.220   4.236
 7764SOL     OW24190   3.012   3.815   5.441
 7764SOL    HW124191   3.032   3.724   5.477
 7764SOL    HW224192   2.991   3.807   5.343
 7765SOL     OW24193   0.155   3.175   4.875
 7765SOL    HW124194   0.111   3.094   4.914
 7765SOL    HW224195   0.194   3.151   4.785
 7766SOL     OW24196   6.300   3.695   6.143
 7766SOL    HW124197   6.350   3.764   6.195
 7766SOL    HW224198   6.355   3.665   6.065
 7767SOL     OW24199   3.111   0.688   3.627
 7767SOL    HW124200   3.119   0.781   3.663
 7767SOL    HW224201   3.018   0.655   3.642
 7768SOL     OW24202   4.601   5.316   3.283
 7768SOL    HW124203   4.571   5.344   3.374
 7768SOL    HW224204   4.598   5.217   3.275
 7769SOL     OW24205   3.582   2.539   5.404
 7769SOL    HW124206   3.592   2.540   5.503
 7769SOL    HW224207   3.643   2.470   5.365
 7770SOL     OW24208   1.968   3.378   4.871
 7770SOL    HW124209   1.914   3.415   4.946
 7770SOL    HW224210   2.026   3.304   4.904
 7771SOL     OW24211   2.707   2.359   6.100
 7771SOL    HW124212   2.805   2.365   6.118
 7771SOL    HW224213   2.658   2.352   6.187
 7772SOL     OW24214   4.946   6.323   1.948
 7772SOL    HW124215   4.962   6.408   1.899
 7772SOL    HW224216   5.033   6.285   1.978
 7773SOL     OW24217   3.422   6.518   6.971
 7773SOL    HW124218   3.461   6.502   0.038
 7773SOL    HW224219   3.336   6.467   6.963
 7774SOL     OW24220   4.280   1.559   2.687
 7774SOL    HW124221   4.298   1.465   2.658
 7774SOL    HW224222   4.203   1.596   2.635
 7775SOL     OW24223   3.242   0.887   0.034
 7775SOL    HW124224   3.244   0.877   0.134
 7775SOL    HW224225   3.199   0.806   7.018
 7776SOL     OW24226   1.759   0.892   4.935
 7776SOL    HW124227   1.713   0.903   5.023
 7776SOL    HW224228   1.856   0.872   4.951
 7777SOL     OW24229   6.091   5.428   3.516
 7777SOL    HW124230   6.066   5.403   3.609
 7777SOL    HW224231   6.028   5.386   3.451
 7778SOL     OW24232   6.724   4.974   2.448
 7778SOL    HW124233   6.668   4.892   2.436
 7778SOL    HW224234   6.785   4.961   2.526
 7779SOL     OW24235   3.903   5.736   2.375
 7779SOL    HW124236   3.871   5.642   2.390
 7779SOL    HW224237   3.825   5.794   2.349
 7780SOL     OW24238   6.102   6.298   4.509
 7780SOL    HW124239   6.113   6.314   4.411
 7780SOL    HW224240   6.016   6.250   4.525
 7781SOL     OW24241   1.483   2.438   0.645
 7781SOL    HW124242   1.549   2.446   0.571
 7781SOL    HW224243   1.477   2.343   0.676
 7782SOL     OW24244   5.846   3.560   4.062
 7782SOL    HW124245   5.799   3.603   3.985
 7782SOL    HW224246   5.929   3.611   4.083
 7783SOL     OW24247   1.185   7.015   5.169
 7783SOL    HW124248   1.250   6.943   5.146
 7783SOL    HW224249   1.132   0.015   5.088
 7784SOL     OW24250   1.727   2.524   2.597
 7784SOL    HW124251   1.753   2.620   2.596
 7784SOL    HW224252   1.660   2.509   2.670
 7785SOL     OW24253   0.661   0.012   2.512
 7785SOL    HW124254   0.589   0.028   2.579
 7785SOL    HW224255   0.649   6.946   2.471
 7786SOL     OW24256   4.175   0.658   6.558
 7786SOL    HW124257   4.275   0.664   6.568
 7786SOL    HW224258   4.143   0.730   6.497
 7787SOL     OW24259   1.930   2.506   1.400
 7787SOL    HW124260   1.892   2.534   1.311
 7787SOL    HW224261   1.947   2.408   1.399
 7788SOL     OW24262   0.042   4.447   1.561
 7788SOL    HW124263   0.098   4.385   1.615
 7788SOL    HW224264   0.044   4.538   1.601
 7789SOL     OW24265   3.444   2.000   6.096
 7789SOL    HW124266   3.384   2.080   6.091
 7789SOL    HW224267   3.504   1.999   6.016
 7790SOL     OW24268   4.496   4.737   1.769
 7790SOL    HW124269   4.501   4.772   1.676
 7790SOL    HW224270   4.462   4.643   1.768
 7791SOL     OW24271   2.825   5.141   2.009
 7791SOL    HW124272   2.901   5.181   1.957
 7791SOL    HW224273   2.850   5.138   2.106
 7792SOL     OW24274   0.795   1.524   2.534
 7792SOL    HW124275   0.809   1.541   2.631
 7792SOL    HW224276   0.726   1.452   2.523
 7793SOL     OW24277   4.710   0.731   6.231
 7793SOL    HW124278   4.798   0.684   6.234
 7793SOL    HW224279   4.722   0.821   6.189
 7794SOL     OW24280   0.871   6.764   2.927
 7794SOL    HW124281   0.821   6.814   2.998
 7794SOL    HW224282   0.941   6.824   2.887
 7795SOL     OW24283   2.877   5.510   6.656
 7795SOL    HW124284   2.880   5.466   6.746
 7795SOL    HW224285   2.836   5.601   6.665
 7796SOL     OW24286   4.024   3.867   6.492
 7796SOL    HW124287   4.120   3.894   6.490
 7796SOL    HW224288   4.001   3.816   6.409
 7797SOL     OW24289   0.861   6.147   2.382
 7797SOL    HW124290   0.761   6.139   2.381
 7797SOL    HW224291   0.897   6.124   2.291
 7798SOL     OW24292   1.239   3.540   0.708
 7798SOL    HW124293   1.152   3.571   0.670
 7798SOL    HW224294   1.300   3.512   0.634
 7799SOL     OW24295   2.430   5.508   3.073
 7799SOL    HW124296   2.484   5.566   3.133
 7799SOL    HW224297   2.342   5.488   3.116
 7800SOL     OW24298   0.390   6.765   1.941
 7800SOL    HW124299   0.462   6.721   1.993
 7800SOL    HW224300   0.338   6.696   1.890
 7801SOL     OW24301   1.321   2.412   2.494
 7801SOL    HW124302   1.243   2.473   2.474
 7801SOL    HW224303   1.290   2.317   2.495
 7802SOL     OW24304   6.961   3.705   4.327
 7802SOL    HW124305   6.902   3.637   4.282
 7802SOL    HW224306   6.932   3.716   4.422
 7803SOL     OW24307   4.205   2.982   5.575
 7803SOL    HW124308   4.196   2.926   5.492
 7803SOL    HW224309   4.197   2.924   5.655
 7804SOL     OW24310   3.171   2.014   5.279
 7804SOL    HW124311   3.164   2.111   5.304
 7804SOL    HW224312   3.175   2.005   5.180
 7805SOL     OW24313   5.795   2.997   0.861
 7805SOL    HW124314   5.893   2.984   0.851
 7805SOL    HW224315   5.767   3.079   0.812
 7806SOL     OW24316   6.908   2.422   5.788
 7806SOL    HW124317   6.862   2.333   5.796
 7806SOL    HW224318   6.982   2.427   5.855
 7807SOL     OW24319   2.119   4.710   6.242
 7807SOL    HW124320   2.178   4.704   6.161
 7807SOL    HW224321   2.060   4.791   6.234
 7808SOL     OW24322   4.952   3.816   2.956
 7808SOL    HW124323   4.944   3.827   2.857
 7808SOL    HW224324   4.899   3.888   3.002
 7809SOL     OW24325   5.270   4.604   3.366
 7809SOL    HW124326   5.296   4.526   3.308
 7809SOL    HW224327   5.310   4.687   3.329
 7810SOL     OW24328   3.568   6.560   5.420
 7810SOL    HW124329   3.624   6.505   5.357
 7810SOL    HW224330   3.556   6.509   5.506
 7811SOL     OW24331   1.280   6.032   2.935
 7811SOL    HW124332   1.269   5.933   2.929
 7811SOL    HW224333   1.377   6.055   2.928
 7812SOL     OW24334   2.898   1.923   5.934
 7812SOL    HW124335   2.846   1.843   5.966
 7812SOL    HW224336   2.836   1.987   5.889
 7813SOL     OW24337   5.952   0.558   0.570
 7813SOL    HW124338   5.942   0.609   0.484
 7813SOL    HW224339   6.019   0.605   0.629
 7814SOL     OW24340   6.986   3.209   1.974
 7814SOL    HW124341   7.002   3.126   1.920
 7814SOL    HW224342   6.888   3.227   1.978
 7815SOL     OW24343   6.338   3.878   5.319
 7815SOL    HW124344   6.397   3.957   5.302
 7815SOL    HW224345   6.243   3.903   5.303
 7816SOL     OW24346   0.381   0.416   5.295
 7816SOL    HW124347   0.395   0.359   5.214
 7816SOL    HW224348   0.467   0.424   5.345
 7817SOL     OW24349   3.066   3.006   6.585
 7817SOL    HW124350   3.097   2.939   6.517
 7817SOL    HW224351   3.143   3.062   6.614
 7818SOL     OW24352   5.736   0.941   2.489
 7818SOL    HW124353   5.764   0.901   2.577
 7818SOL    HW224354   5.638   0.963   2.492
 7819SOL     OW24355   1.570   3.813   3.833
 7819SOL    HW124356   1.552   3.740   3.899
 7819SOL    HW224357   1.559   3.902   3.877
 7820SOL     OW24358   1.990   7.002   6.135
 7820SOL    HW124359   2.001   6.932   6.207
 7820SOL    HW224360   1.972   6.957   6.048
 7821SOL     OW24361   5.254   5.520   6.582
 7821SOL    HW124362   5.229   5.425   6.601
 7821SOL    HW224363   5.188   5.560   6.517
 7822SOL     OW24364   0.523   0.190   4.750
 7822SOL    HW124365   0.603   0.247   4.765
 7822SOL    HW224366   0.468   0.188   4.834
 7823SOL     OW24367   2.007   3.384   5.598
 7823SOL    HW124368   2.101   3.389   5.632
 7823SOL    HW224369   1.995   3.452   5.525
 7824SOL     OW24370   5.136   2.616   3.346
 7824SOL    HW124371   5.041   2.647   3.354
 7824SOL    HW224372   5.179   2.618   3.436
 7825SOL     OW24373   3.525   3.719   2.504
 7825SOL    HW124374   3.471   3.800   2.483
 7825SOL    HW224375   3.584   3.737   2.583
 7826SOL     OW24376   6.908   0.015   1.081
 7826SOL    HW124377   6.867   0.006   0.991
 7826SOL    HW224378   6.904   6.951   1.129
 7827SOL     OW24379   5.000   4.550   0.777
 7827SOL    HW124380   4.975   4.457   0.752
 7827SOL    HW224381   4.957   4.574   0.864
 7828SOL     OW24382   0.646   5.447   0.927
 7828SOL    HW124383   0.653   5.476   0.832
 7828SOL    HW224384   0.693   5.513   0.985
 7829SOL     OW24385   3.867   2.953   2.382
 7829SOL    HW124386   3.930   3.018   2.339
 7829SOL    HW224387   3.867   2.867   2.331
 7830SOL     OW24388   5.857   2.797   6.870
 7830SOL    HW124389   5.947   2.825   6.905
 7830SOL    HW224390   5.787   2.820   6.938
 7831SOL     OW24391   1.618   2.466   6.934
 7831SOL    HW124392   1.688   2.446   6.866
 7831SOL    HW224393   1.527   2.446   6.897
 7832SOL     OW24394   2.617   2.593   5.672
 7832SOL    HW124395   2.570   2.519   5.625
 7832SOL    HW224396   2.711   2.565   5.695
 7833SOL     OW24397   1.022   6.544   0.721
 7833SOL    HW124398   0.963   6.511   0.795
 7833SOL    HW224399   1.115   6.554   0.754
 7834SOL     OW24400   0.490   0.673   1.275
 7834SOL    HW124401   0.408   0.616   1.269
 7834SOL    HW224402   0.553   0.634   1.342
 7835SOL     OW24403   2.247   2.550   5.234
 7835SOL    HW124404   2.152   2.568   5.209
 7835SOL    HW224405   2.297   2.636   5.243
 7836SOL     OW24406   2.098   6.600   0.234
 7836SOL    HW124407   2.013   6.645   0.261
 7836SOL    HW224408   2.103   6.597   0.134
 7837SOL     OW24409   5.963   0.322   2.771
 7837SOL    HW124410   5.866   0.342   2.758
 7837SOL    HW224411   5.984   0.232   2.732
 7838SOL     OW24412   3.917   0.183   3.868
 7838SOL    HW124413   3.866   0.184   3.953
 7838SOL    HW224414   4.014   0.168   3.888
 7839SOL     OW24415   6.390   4.895   4.208
 7839SOL    HW124416   6.291   4.903   4.199
 7839SOL    HW224417   6.415   4.799   4.217
 7840SOL     OW24418   5.577   3.236   5.326
 7840SOL    HW124419   5.491   3.246   5.276
 7840SOL    HW224420   5.650   3.282   5.275
 7841SOL     OW24421   0.913   1.900   6.403
 7841SOL    HW124422   0.949   1.817   6.360
 7841SOL    HW224423   0.876   1.878   6.493
 7842SOL     OW24424   3.213   0.976   3.109
 7842SOL    HW124425   3.274   0.961   3.187
 7842SOL    HW224426   3.243   0.920   3.032
 7843SOL     OW24427   5.330   3.277   0.983
 7843SOL    HW124428   5.290   3.230   1.062
 7843SOL    HW224429   5.256   3.313   0.926
 7844SOL     OW24430   4.507   1.192   4.001
 7844SOL    HW124431   4.476   1.194   3.906
 7844SOL    HW224432   4.600   1.155   4.004
 7845SOL     OW24433   0.107   1.037   4.454
 7845SOL    HW124434   0.103   1.035   4.354
 7845SOL    HW224435   0.054   1.115   4.488
 7846SOL     OW24436   3.103   6.745   2.367
 7846SOL    HW124437   3.068   6.652   2.379
 7846SOL    HW224438   3.027   6.809   2.366
 7847SOL     OW24439   6.923   0.605   0.084
 7847SOL    HW124440   6.905   0.600   7.010
 7847SOL    HW224441   6.956   0.696   0.108
 7848SOL     OW24442   4.877   4.626   1.039
 7848SOL    HW124443   4.825   4.629   1.125
 7848SOL    HW224444   4.970   4.659   1.056
 7849SOL     OW24445   6.113   3.910   5.025
 7849SOL    HW124446   6.211   3.887   5.023
 7849SOL    HW224447   6.061   3.840   4.977
 7850SOL     OW24448   1.147   0.931   4.471
 7850SOL    HW124449   1.060   0.979   4.480
 7850SOL    HW224450   1.151   0.887   4.381
 7851SOL     OW24451   5.615   6.709   0.008
 7851SOL    HW124452   5.600   6.726   6.935
 7851SOL    HW224453   5.692   6.646   0.019
 7852SOL     OW24454   2.486   5.846   6.715
 7852SOL    HW124455   2.513   5.766   6.661
 7852SOL    HW224456   2.552   5.858   6.790
 7853SOL     OW24457   2.764   3.413   0.439
 7853SOL    HW124458   2.679   3.360   0.444
 7853SOL    HW224459   2.791   3.424   0.343
 7854SOL     OW24460   3.449   4.073   2.774
 7854SOL    HW124461   3.545   4.066   2.750
 7854SOL    HW224462   3.436   4.049   2.870
 7855SOL     OW24463   4.049   6.200   5.876
 7855SOL    HW124464   4.096   6.152   5.950
 7855SOL    HW224465   3.987   6.269   5.915
 7856SOL     OW24466   4.781   3.034   6.302
 7856SOL    HW124467   4.869   2.990   6.321
 7856SOL    HW224468   4.708   2.984   6.349
 7857SOL     OW24469   0.019   1.786   5.347
 7857SOL    HW124470   0.115   1.768   5.366
 7857SOL    HW224471   0.009   1.823   5.255
 7858SOL     OW24472   5.936   3.991   3.328
 7858SOL    HW124473   5.910   3.984   3.424
 7858SOL    HW224474   5.919   4.084   3.296
 7859SOL     OW24475   1.195   5.640   6.987
 7859SOL    HW124476   1.148   5.591   6.914
 7859SOL    HW224477   1.151   5.620   0.050
 7860SOL     OW24478   4.124   0.165   2.119
 7860SOL    HW124479   4.153   0.230   2.049
 7860SOL    HW224480   4.060   0.100   2.079
 7861SOL     OW24481   5.271   4.086   0.503
 7861SOL    HW124482   5.295   3.989   0.498
 7861SOL    HW224483   5.301   4.132   0.419
 7862SOL     OW24484   3.035   4.571   1.682
 7862SOL    HW124485   3.098   4.636   1.725
 7862SOL    HW224486   2.954   4.559   1.739
 7863SOL     OW24487   6.916   5.843   1.847
 7863SOL    HW124488   6.975   5.919   1.822
 7863SOL    HW224489   6.912   5.777   1.772
 7864SOL     OW24490   0.450   5.222   5.029
 7864SOL    HW124491   0.544   5.228   5.065
 7864SOL    HW224492   0.452   5.180   4.938
 7865SOL     OW24493   3.244   0.121   3.201
 7865SOL    HW124494   3.249   0.130   3.301
 7865SOL    HW224495   3.322   0.167   3.159
 7866SOL     OW24496   2.850   2.351   4.193
 7866SOL    HW124497   2.909   2.312   4.122
 7866SOL    HW224498   2.845   2.450   4.181
 7867SOL     OW24499   5.532   4.083   1.928
 7867SOL    HW124500   5.546   4.173   1.968
 7867SOL    HW224501   5.520   4.015   2.001
 7868SOL     OW24502   4.945   0.091   0.875
 7868SOL    HW124503   5.045   0.099   0.867
 7868SOL    HW224504   4.913   0.157   0.943
 7869SOL     OW24505   0.407   3.362   1.910
 7869SOL    HW124506   0.334   3.371   1.978
 7869SOL    HW224507   0.405   3.441   1.849
 7870SOL     OW24508   0.027   6.075   3.990
 7870SOL    HW124509   0.020   5.977   3.976
 7870SOL    HW224510   6.962   6.118   3.973
 7871SOL     OW24511   5.475   2.663   2.964
 7871SOL    HW124512   5.462   2.734   2.895
 7871SOL    HW224513   5.445   2.575   2.926
 7872SOL     OW24514   6.589   2.966   3.271
 7872SOL    HW124515   6.565   2.983   3.175
 7872SOL    HW224516   6.550   3.038   3.329
 7873SOL     OW24517   0.152   4.822   5.428
 7873SOL    HW124518   0.251   4.811   5.417
 7873SOL    HW224519   0.126   4.799   5.522
 7874SOL     OW24520   5.674   1.175   0.358
 7874SOL    HW124521   5.758   1.180   0.303
 7874SOL    HW224522   5.603   1.229   0.314
 7875SOL     OW24523   4.414   2.978   6.809
 7875SOL    HW124524   4.404   2.883   6.837
 7875SOL    HW224525   4.512   3.000   6.800
 7876SOL     OW24526   6.409   0.651   4.245
 7876SOL    HW124527   6.330   0.709   4.225
 7876SOL    HW224528   6.482   0.670   4.179
 7877SOL     OW24529   0.199   2.043   2.550
 7877SOL    HW124530   0.252   2.098   2.485
 7877SOL    HW224531   0.260   2.010   2.623
 7878SOL     OW24532   4.868   4.108   1.734
 7878SOL    HW124533   4.778   4.148   1.716
 7878SOL    HW224534   4.935   4.151   1.674
 7879SOL     OW24535   5.101   0.446   3.887
 7879SOL    HW124536   5.089   0.368   3.949
 7879SOL    HW224537   5.167   0.510   3.927
 7880SOL     OW24538   0.541   0.120   6.546
 7880SOL    HW124539   0.448   0.110   6.580
 7880SOL    HW224540   0.554   0.214   6.512
 7881SOL     OW24541   0.099   4.973   3.825
 7881SOL    HW124542   0.170   4.903   3.831
 7881SOL    HW224543   0.140   5.060   3.799
 7882SOL     OW24544   6.986   4.079   2.330
 7882SOL    HW124545   7.002   4.158   2.389
 7882SOL    HW224546   6.925   4.106   2.255
 7883SOL     OW24547   3.545   1.534   4.194
 7883SOL    HW124548   3.526   1.631   4.180
 7883SOL    HW224549   3.543   1.486   4.107
 7884SOL     OW24550   0.271   3.620   3.960
 7884SOL    HW124551   0.303   3.677   4.037
 7884SOL    HW224552   0.348   3.602   3.899
 7885SOL     OW24553   6.023   5.467   3.031
 7885SOL    HW124554   6.073   5.492   3.114
 7885SOL    HW224555   6.076   5.400   2.979
 7886SOL     OW24556   4.949   3.185   2.836
 7886SOL    HW124557   4.967   3.092   2.803
 7886SOL    HW224558   5.036   3.234   2.847
 7887SOL     OW24559   2.356   3.249   0.794
 7887SOL    HW124560   2.388   3.329   0.743
 7887SOL    HW224561   2.256   3.249   0.795
 7888SOL     OW24562   5.640   2.213   4.532
 7888SOL    HW124563   5.587   2.158   4.467
 7888SOL    HW224564   5.637   2.309   4.505
 7889SOL     OW24565   5.864   5.485   0.190
 7889SOL    HW124566   5.805   5.438   0.256
 7889SOL    HW224567   5.809   5.517   0.114
 7890SOL     OW24568   1.081   3.435   4.473
 7890SOL    HW124569   1.002   3.443   4.535
 7890SOL    HW224570   1.162   3.474   4.517
 7891SOL     OW24571   0.592   1.371   4.372
 7891SOL    HW124572   0.534   1.377   4.453
 7891SOL    HW224573   0.620   1.276   4.359
 7892SOL     OW24574   0.499   2.512   5.843
 7892SOL    HW124575   0.419   2.554   5.800
 7892SOL    HW224576   0.581   2.561   5.815
 7893SOL     OW24577   6.228   0.614   0.381
 7893SOL    HW124578   6.213   0.701   0.428
 7893SOL    HW224579   6.300   0.563   0.428
 7894SOL     OW24580   3.320   1.513   6.092
 7894SOL    HW124581   3.403   1.458   6.103
 7894SOL    HW224582   3.309   1.539   5.997
 7895SOL     OW24583   4.364   6.671   4.053
 7895SOL    HW124584   4.292   6.602   4.043
 7895SOL    HW224585   4.326   6.762   4.035
 7896SOL     OW24586   2.915   2.230   0.930
 7896SOL    HW124587   2.841   2.231   0.862
 7896SOL    HW224588   2.916   2.318   0.979
 7897SOL     OW24589   3.675   3.595   0.207
 7897SOL    HW124590   3.645   3.528   0.139
 7897SOL    HW224591   3.600   3.659   0.225
 7898SOL     OW24592   5.237   0.304   3.686
 7898SOL    HW124593   5.336   0.298   3.694
 7898SOL    HW224594   5.203   0.372   3.751
 7899SOL     OW24595   6.014   4.370   2.534
 7899SOL    HW124596   6.097   4.425   2.539
 7899SOL    HW224597   5.971   4.366   2.624
 7900SOL     OW24598   0.535   4.529   1.323
 7900SOL    HW124599   0.602   4.567   1.386
 7900SOL    HW224600   0.524   4.431   1.339
 7901SOL     OW24601   6.388   1.264   6.163
 7901SOL    HW124602   6.437   1.321   6.229
 7901SOL    HW224603   6.393   1.168   6.191
 7902SOL     OW24604   0.783   6.623   3.276
 7902SOL    HW124605   0.825   6.591   3.192
 7902SOL    HW224606   0.774   6.547   3.341
 7903SOL     OW24607   2.701   2.441   5.314
 7903SOL    HW124608   2.768   2.505   5.352
 7903SOL    HW224609   2.697   2.452   5.215
 7904SOL     OW24610   4.855   1.375   2.158
 7904SOL    HW124611   4.911   1.444   2.204
 7904SOL    HW224612   4.914   1.313   2.106
 7905SOL     OW24613   5.852   0.948   0.683
 7905SOL    HW124614   5.813   0.932   0.592
 7905SOL    HW224615   5.840   0.866   0.739
 7906SOL     OW24616   2.226   5.595   0.664
 7906SOL    HW124617   2.261   5.673   0.715
 7906SOL    HW224618   2.254   5.602   0.568
 7907SOL     OW24619   6.461   0.375   2.782
 7907SOL    HW124620   6.545   0.415   2.746
 7907SOL    HW224621   6.412   0.443   2.836
 7908SOL     OW24622   0.648   0.131   6.865
 7908SOL    HW124623   0.628   0.221   6.825
 7908SOL    HW224624   0.725   0.140   6.929
 7909SOL     OW24625   5.785   4.388   1.863
 7909SOL    HW124626   5.772   4.289   1.849
 7909SOL    HW224627   5.751   4.437   1.783
 7910SOL     OW24628   1.373   3.561   0.445
 7910SOL    HW124629   1.443   3.493   0.420
 7910SOL    HW224630   1.284   3.532   0.409
 7911SOL     OW24631   0.631   4.026   1.037
 7911SOL    HW124632   0.725   4.037   1.067
 7911SOL    HW224633   0.581   3.969   1.102
 7912SOL     OW24634   5.698   5.985   0.732
 7912SOL    HW124635   5.603   5.976   0.763
 7912SOL    HW224636   5.706   5.949   0.640
 7913SOL     OW24637   0.709   3.740   0.922
 7913SOL    HW124638   0.753   3.829   0.936
 7913SOL    HW224639   0.632   3.731   0.985
 7914SOL     OW24640   6.560   5.621   4.847
 7914SOL    HW124641   6.658   5.634   4.859
 7914SOL    HW224642   6.537   5.627   4.750
 7915SOL     OW24643   3.738   6.417   2.737
 7915SOL    HW124644   3.833   6.411   2.707
 7915SOL    HW224645   3.735   6.422   2.837
 7916SOL     OW24646   1.630   0.807   4.294
 7916SOL    HW124647   1.563   0.736   4.272
 7916SOL    HW224648   1.653   0.858   4.211
 7917SOL     OW24649   3.909   3.594   1.002
 7917SOL    HW124650   3.947   3.644   1.080
 7917SOL    HW224651   3.950   3.503   0.998
 7918SOL     OW24652   2.139   1.863   4.584
 7918SOL    HW124653   2.173   1.771   4.604
 7918SOL    HW224654   2.175   1.927   4.652
 7919SOL     OW24655   1.558   6.036   2.916
 7919SOL    HW124656   1.601   6.116   2.959
 7919SOL    HW224657   1.628   5.981   2.871
 7920SOL     OW24658   5.111   0.627   0.917
 7920SOL    HW124659   5.194   0.615   0.970
 7920SOL    HW224660   5.131   0.681   0.835
 7921SOL     OW24661   4.907   1.883   1.964
 7921SOL    HW124662   4.976   1.846   2.026
 7921SOL    HW224663   4.817   1.876   2.007
 7922SOL     OW24664   1.239   5.614   1.335
 7922SOL    HW124665   1.332   5.637   1.362
 7922SOL    HW224666   1.194   5.694   1.297
 7923SOL     OW24667   4.420   1.983   0.532
 7923SOL    HW124668   4.350   2.032   0.481
 7923SOL    HW224669   4.465   1.917   0.472
 7924SOL     OW24670   6.738   0.026   0.860
 7924SOL    HW124671   6.677   7.013   0.929
 7924SOL    HW224672   6.765   0.119   0.886
 7925SOL     OW24673   1.848   6.198   0.222
 7925SOL    HW124674   1.920   6.207   0.290
 7925SOL    HW224675   1.762   6.231   0.260
 7926SOL     OW24676   4.337   5.548   6.858
 7926SOL    HW124677   4.403   5.490   6.904
 7926SOL    HW224678   4.370   5.570   6.766
 7927SOL     OW24679   4.878   0.623   1.807
 7927SOL    HW124680   4.842   0.542   1.760
 7927SOL    HW224681   4.828   0.636   1.893
 7928SOL     OW24682   6.794   1.314   3.594
 7928SOL    HW124683   6.729   1.241   3.617
 7928SOL    HW224684   6.777   1.345   3.500
 7929SOL     OW24685   3.296   4.856   5.833
 7929SOL    HW124686   3.316   4.837   5.737
 7929SOL    HW224687   3.340   4.787   5.890
 7930SOL     OW24688   4.475   6.188   5.710
 7930SOL    HW124689   4.455   6.223   5.801
 7930SOL    HW224690   4.559   6.229   5.676
 7931SOL     OW24691   3.914   2.498   0.568
 7931SOL    HW124692   3.864   2.496   0.655
 7931SOL    HW224693   3.853   2.471   0.494
 7932SOL     OW24694   1.513   5.650   2.905
 7932SOL    HW124695   1.604   5.611   2.917
 7932SOL    HW224696   1.521   5.738   2.858
 7933SOL     OW24697   0.559   0.754   6.312
 7933SOL    HW124698   0.470   0.729   6.349
 7933SOL    HW224699   0.630   0.731   6.379
 7934SOL     OW24700   0.986   4.571   0.897
 7934SOL    HW124701   0.961   4.482   0.937
 7934SOL    HW224702   0.909   4.634   0.907
 7935SOL     OW24703   4.814   2.920   3.549
 7935SOL    HW124704   4.822   2.941   3.452
 7935SOL    HW224705   4.830   3.003   3.602
 7936SOL     OW24706   2.874   6.221   4.182
 7936SOL    HW124707   2.918   6.282   4.247
 7936SOL    HW224708   2.929   6.138   4.171
 7937SOL     OW24709   3.598   0.485   0.051
 7937SOL    HW124710   3.592   0.585   0.051
 7937SOL    HW224711   3.681   0.457   0.004
 7938SOL     OW24712   3.626   6.547   4.440
 7938SOL    HW124713   3.579   6.582   4.359
 7938SOL    HW224714   3.560   6.504   4.501
 7939SOL     OW24715   0.562   1.490   3.756
 7939SOL    HW124716   0.626   1.441   3.815
 7939SOL    HW224717   0.502   1.425   3.710
 7940SOL     OW24718   5.039   0.969   3.038
 7940SOL    HW124719   5.038   0.873   3.012
 7940SOL    HW224720   5.013   0.977   3.135
 7941SOL     OW24721   3.732   6.758   1.784
 7941SOL    HW124722   3.712   6.782   1.879
 7941SOL    HW224723   3.753   6.841   1.732
 7942SOL     OW24724   1.423   4.680   1.562
 7942SOL    HW124725   1.375   4.710   1.644
 7942SOL    HW224726   1.357   4.653   1.492
 7943SOL     OW24727   1.467   5.872   6.357
 7943SOL    HW124728   1.443   5.783   6.395
 7943SOL    HW224729   1.496   5.934   6.430
 7944SOL     OW24730   1.972   2.854   0.864
 7944SOL    HW124731   1.885   2.853   0.813
 7944SOL    HW224732   1.963   2.799   0.947
 7945SOL     OW24733   5.788   4.550   2.837
 7945SOL    HW124734   5.846   4.476   2.871
 7945SOL    HW224735   5.699   4.513   2.809
 7946SOL     OW24736   4.100   1.354   6.075
 7946SOL    HW124737   4.031   1.295   6.119
 7946SOL    HW224738   4.169   1.380   6.143
 7947SOL     OW24739   0.729   3.190   5.437
 7947SOL    HW124740   0.649   3.131   5.438
 7947SOL    HW224741   0.787   3.168   5.515
 7948SOL     OW24742   1.002   4.594   2.125
 7948SOL    HW124743   1.009   4.519   2.190
 7948SOL    HW224744   0.916   4.588   2.074
 7949SOL     OW24745   3.315   5.489   6.366
 7949SOL    HW124746   3.277   5.397   6.356
 7949SOL    HW224747   3.270   5.536   6.442
 7950SOL     OW24748   5.192   5.407   5.148
 7950SOL    HW124749   5.179   5.395   5.246
 7950SOL    HW224750   5.117   5.463   5.111
 7951SOL     OW24751   2.673   5.397   3.360
 7951SOL    HW124752   2.674   5.342   3.443
 7951SOL    HW224753   2.601   5.466   3.366
 7952SOL     OW24754   5.121   3.433   6.939
 7952SOL    HW124755   5.180   3.394   7.010
 7952SOL    HW224756   5.144   3.392   6.851
 7953SOL     OW24757   2.499   0.918   0.854
 7953SOL    HW124758   2.417   0.968   0.881
 7953SOL    HW224759   2.571   0.983   0.829
 7954SOL     OW24760   3.192   3.255   6.594
 7954SOL    HW124761   3.121   3.312   6.554
 7954SOL    HW224762   3.279   3.273   6.548
 7955SOL     OW24763   1.818   1.284   6.963
 7955SOL    HW124764   1.831   1.187   6.983
 7955SOL    HW224765   1.903   1.322   6.929
 7956SOL     OW24766   6.281   6.174   0.963
 7956SOL    HW124767   6.346   6.146   0.893
 7956SOL    HW224768   6.201   6.113   0.961
 7957SOL     OW24769   4.529   0.610   5.373
 7957SOL    HW124770   4.568   0.540   5.432
 7957SOL    HW224771   4.580   0.614   5.287
 7958SOL     OW24772   5.755   2.408   0.422
 7958SOL    HW124773   5.738   2.382   0.327
 7958SOL    HW224774   5.817   2.342   0.465
 7959SOL     OW24775   5.771   1.582   6.286
 7959SOL    HW124776   5.820   1.617   6.206
 7959SOL    HW224777   5.675   1.570   6.263
 7960SOL     OW24778   0.700   0.094   5.750
 7960SOL    HW124779   0.690   0.003   5.711
 7960SOL    HW224780   0.652   0.160   5.693
 7961SOL     OW24781   0.139   6.911   0.568
 7961SOL    HW124782   0.041   6.928   0.584
 7961SOL    HW224783   0.155   6.896   0.471
 7962SOL     OW24784   5.537   0.223   5.994
 7962SOL    HW124785   5.472   0.165   5.945
 7962SOL    HW224786   5.617   0.169   6.021
 7963SOL     OW24787   0.139   4.936   4.766
 7963SOL    HW124788   0.067   4.874   4.734
 7963SOL    HW224789   0.097   5.022   4.797
 7964SOL     OW24790   6.106   3.990   2.636
 7964SOL    HW124791   6.176   3.940   2.687
 7964SOL    HW224792   6.148   4.068   2.589
 7965SOL     OW24793   3.745   2.346   6.587
 7965SOL    HW124794   3.801   2.290   6.648
 7965SOL    HW224795   3.766   2.443   6.604
 7966SOL     OW24796   4.925   3.856   5.194
 7966SOL    HW124797   4.847   3.919   5.192
 7966SOL    HW224798   4.896   3.765   5.165
 7967SOL     OW24799   1.635   4.328   2.453
 7967SOL    HW124800   1.662   4.279   2.537
 7967SOL    HW224801   1.586   4.411   2.478
 7968SOL     OW24802   6.708   2.678   4.353
 7968SOL    HW124803   6.706   2.656   4.255
 7968SOL    HW224804   6.801   2.702   4.380
 7969SOL     OW24805   4.631   5.222   0.242
 7969SOL    HW124806   4.637   5.293   0.312
 7969SOL    HW224807   4.536   5.214   0.211
 7970SOL     OW24808   5.707   2.909   2.222
 7970SOL    HW124809   5.693   2.889   2.125
 7970SOL    HW224810   5.803   2.893   2.246
 7971SOL     OW24811   2.578   0.878   0.021
 7971SOL    HW124812   2.525   0.794   0.012
 7971SOL    HW224813   2.575   0.909   0.116
 7972SOL     OW24814   3.559   3.601   2.934
 7972SOL    HW124815   3.631   3.551   2.981
 7972SOL    HW224816   3.498   3.537   2.887
 7973SOL     OW24817   6.679   3.862   2.634
 7973SOL    HW124818   6.758   3.917   2.661
 7973SOL    HW224819   6.676   3.854   2.535
 7974SOL     OW24820   6.644   2.171   5.947
 7974SOL    HW124821   6.590   2.111   5.888
 7974SOL    HW224822   6.621   2.152   6.043
 7975SOL     OW24823   4.953   0.419   1.273
 7975SOL    HW124824   4.918   0.498   1.222
 7975SOL    HW224825   5.051   0.431   1.288
 7976SOL     OW24826   0.814   0.046   6.573
 7976SOL    HW124827   0.725   0.090   6.584
 7976SOL    HW224828   0.844   0.009   6.661
 7977SOL     OW24829   5.704   5.826   2.466
 7977SOL    HW124830   5.700   5.730   2.495
 7977SOL    HW224831   5.650   5.882   2.528
 7978SOL     OW24832   0.312   4.077   1.136
 7978SOL    HW124833   0.404   4.046   1.158
 7978SOL    HW224834   0.252   3.998   1.121
 7979SOL     OW24835   1.350   2.978   4.760
 7979SOL    HW124836   1.345   3.050   4.692
 7979SOL    HW224837   1.438   2.931   4.753
 7980SOL     OW24838   4.003   5.612   6.781
 7980SOL    HW124839   4.024   5.598   6.878
 7980SOL    HW224840   3.980   5.525   6.739
 7981SOL     OW24841   1.449   4.319   2.920
 7981SOL    HW124842   1.392   4.237   2.915
 7981SOL    HW224843   1.544   4.294   2.937
 7982SOL     OW24844   6.818   1.786   5.455
 7982SOL    HW124845   6.784   1.719   5.521
 7982SOL    HW224846   6.909   1.758   5.424
 7983SOL     OW24847   4.643   1.557   2.180
 7983SOL    HW124848   4.736   1.519   2.186
 7983SOL    HW224849   4.593   1.513   2.106
 7984SOL     OW24850   0.707   1.727   2.364
 7984SOL    HW124851   0.769   1.761   2.293
 7984SOL    HW224852   0.749   1.649   2.410
 7985SOL     OW24853   2.615   2.037   5.322
 7985SOL    HW124854   2.637   2.133   5.306
 7985SOL    HW224855   2.603   2.022   5.420
 7986SOL     OW24856   2.710   1.282   3.827
 7986SOL    HW124857   2.780   1.245   3.889
 7986SOL    HW224858   2.728   1.250   3.734
 7987SOL     OW24859   1.148   3.445   0.317
 7987SOL    HW124860   1.057   3.485   0.319
 7987SOL    HW224861   1.144   3.350   0.346
 7988SOL     OW24862   0.251   1.333   0.584
 7988SOL    HW124863   0.320   1.325   0.511
 7988SOL    HW224864   0.282   1.280   0.664
 7989SOL     OW24865   0.471   4.868   0.301
 7989SOL    HW124866   0.540   4.854   0.372
 7989SOL    HW224867   0.497   4.816   0.219
 7990SOL     OW24868   3.241   5.551   5.324
 7990SOL    HW124869   3.290   5.627   5.366
 7990SOL    HW224870   3.220   5.573   5.229
 7991SOL     OW24871   6.142   2.043   4.653
 7991SOL    HW124872   6.081   1.980   4.605
 7991SOL    HW224873   6.236   2.030   4.622
 7992SOL     OW24874   2.702   0.585   0.645
 7992SOL    HW124875   2.622   0.615   0.697
 7992SOL    HW224876   2.756   0.522   0.700
 7993SOL     OW24877   6.740   5.931   0.758
 7993SOL    HW124878   6.701   5.951   0.848
 7993SOL    HW224879   6.742   6.015   0.704
 7994SOL     OW24880   5.508   0.250   3.019
 7994SOL    HW124881   5.522   0.298   3.106
 7994SOL    HW224882   5.521   0.314   2.944
 7995SOL     OW24883   6.994   4.450   1.301
 7995SOL    HW124884   6.967   4.468   1.396
 7995SOL    HW224885   0.064   4.416   1.298
 7996SOL     OW24886   3.410   1.115   2.491
 7996SOL    HW124887   3.478   1.047   2.464
 7996SOL    HW224888   3.444   1.207   2.471
 7997SOL     OW24889   0.553   2.481   0.303
 7997SOL    HW124890   0.523   2.533   0.223
 7997SOL    HW224891   0.601   2.398   0.272
 7998SOL     OW24892   2.253   1.251   0.616
 7998SOL    HW124893   2.334   1.265   0.673
 7998SOL    HW224894   2.200   1.174   0.653
 7999SOL     OW24895   0.537   0.547   5.053
 7999SOL    HW124896   0.624   0.574   5.012
 7999SOL    HW224897   0.498   0.625   5.103
 8000SOL     OW24898   5.144   5.446   6.937
 8000SOL    HW124899   5.130   5.452   6.838
 8000SOL    HW224900   5.236   5.478   6.960
 8001SOL     OW24901   4.916   6.617   1.094
 8001SOL    HW124902   4.845   6.635   1.026
 8001SOL    HW224903   5.002   6.593   1.048
 8002SOL     OW24904   1.065   6.788   5.327
 8002SOL    HW124905   1.073   6.715   5.259
 8002SOL    HW224906   1.095   6.875   5.287
 8003SOL     OW24907   2.772   6.427   2.725
 8003SOL    HW124908   2.791   6.493   2.798
 8003SOL    HW224909   2.765   6.476   2.637
 8004SOL     OW24910   1.267   2.931   3.876
 8004SOL    HW124911   1.252   2.857   3.942
 8004SOL    HW224912   1.331   2.900   3.805
 8005SOL     OW24913   2.755   0.691   3.529
 8005SOL    HW124914   2.806   0.626   3.472
 8005SOL    HW224915   2.671   0.718   3.483
 8006SOL     OW24916   3.304   4.867   5.172
 8006SOL    HW124917   3.301   4.899   5.077
 8006SOL    HW224918   3.397   4.836   5.194
 8007SOL     OW24919   6.277   0.463   6.566
 8007SOL    HW124920   6.345   0.452   6.639
 8007SOL    HW224921   6.323   0.488   6.481
 8008SOL     OW24922   5.372   0.039   5.933
 8008SOL    HW124923   5.299   7.024   5.989
 8008SOL    HW224924   5.446   6.996   5.922
 8009SOL     OW24925   4.863   1.343   6.945
 8009SOL    HW124926   4.825   1.404   6.876
 8009SOL    HW224927   4.871   1.251   6.908
 8010SOL     OW24928   2.683   2.267   5.526
 8010SOL    HW124929   2.613   2.321   5.572
 8010SOL    HW224930   2.712   2.313   5.442
 8011SOL     OW24931   4.135   1.846   2.125
 8011SOL    HW124932   4.193   1.767   2.148
 8011SOL    HW224933   4.039   1.821   2.134
 8012SOL     OW24934   0.592   2.611   5.588
 8012SOL    HW124935   0.674   2.646   5.543
 8012SOL    HW224936   0.512   2.664   5.559
 8013SOL     OW24937   2.495   2.585   2.675
 8013SOL    HW124938   2.537   2.652   2.736
 8013SOL    HW224939   2.549   2.577   2.591
 8014SOL     OW24940   1.862   1.055   2.657
 8014SOL    HW124941   1.894   1.038   2.564
 8014SOL    HW224942   1.910   1.134   2.695
 8015SOL     OW24943   2.298   6.960   5.569
 8015SOL    HW124944   2.206   6.929   5.591
 8015SOL    HW224945   2.318   6.942   5.473
 8016SOL     OW24946   4.638   1.464   4.783
 8016SOL    HW124947   4.567   1.534   4.791
 8016SOL    HW224948   4.600   1.383   4.740
 8017SOL     OW24949   6.831   6.797   1.150
 8017SOL    HW124950   6.750   6.855   1.141
 8017SOL    HW224951   6.818   6.713   1.097
 8018SOL     OW24952   4.306   2.353   0.213
 8018SOL    HW124953   4.271   2.265   0.181
 8018SOL    HW224954   4.250   2.427   0.175
 8019SOL     OW24955   2.430   3.270   1.468
 8019SOL    HW124956   2.504   3.243   1.406
 8019SOL    HW224957   2.468   3.289   1.559
 8020SOL     OW24958   0.265   0.058   5.281
 8020SOL    HW124959   0.232   0.140   5.328
 8020SOL    HW224960   0.267   0.074   5.182
 8021SOL     OW24961   1.152   2.637   2.194
 8021SOL    HW124962   1.217   2.561   2.191
 8021SOL    HW224963   1.119   2.656   2.101
 8022SOL     OW24964   4.264   1.514   1.721
 8022SOL    HW124965   4.282   1.583   1.651
 8022SOL    HW224966   4.270   1.556   1.812
 8023SOL     OW24967   4.489   5.811   3.240
 8023SOL    HW124968   4.535   5.722   3.232
 8023SOL    HW224969   4.504   5.849   3.331
 8024SOL     OW24970   2.184   6.912   6.429
 8024SOL    HW124971   2.104   6.954   6.386
 8024SOL    HW224972   2.267   6.960   6.400
 8025SOL     OW24973   1.675   5.106   1.367
 8025SOL    HW124974   1.643   5.079   1.277
 8025SOL    HW224975   1.737   5.037   1.404
 8026SOL     OW24976   1.199   5.783   6.668
 8026SOL    HW124977   1.173   5.854   6.734
 8026SOL    HW224978   1.161   5.696   6.698
 8027SOL     OW24979   3.544   0.146   0.023
 8027SOL    HW124980   3.454   0.109   0.046
 8027SOL    HW224981   3.549   0.161   6.948
 8028SOL     OW24982   3.016   5.745   5.092
 8028SOL    HW124983   3.097   5.687   5.083
 8028SOL    HW224984   2.937   5.688   5.118
 8029SOL     OW24985   6.363   0.180   0.846
 8029SOL    HW124986   6.299   0.185   0.770
 8029SOL    HW224987   6.455   0.203   0.814
 8030SOL     OW24988   0.355   4.036   0.465
 8030SOL    HW124989   0.356   4.103   0.539
 8030SOL    HW224990   0.295   3.959   0.490
 8031SOL     OW24991   6.686   1.358   2.538
 8031SOL    HW124992   6.762   1.423   2.528
 8031SOL    HW224993   6.718   1.279   2.591
 8032SOL     OW24994   5.450   3.017   1.353
 8032SOL    HW124995   5.517   3.092   1.354
 8032SOL    HW224996   5.418   3.000   1.446
 8033SOL     OW24997   4.266   3.611   0.750
 8033SOL    HW124998   4.233   3.606   0.656
 8033SOL    HW224999   4.286   3.518   0.783
 8034SOL     OW25000   5.602   0.389   5.353
 8034SOL    HW125001   5.520   0.443   5.333
 8034SOL    HW225002   5.620   0.327   5.277
 8035SOL     OW25003   5.610   2.070   2.800
 8035SOL    HW125004   5.543   2.145   2.794
 8035SOL    HW225005   5.700   2.108   2.819
 8036SOL     OW25006   6.133   2.483   3.507
 8036SOL    HW125007   6.231   2.464   3.518
 8036SOL    HW225008   6.113   2.501   3.411
 8037SOL     OW25009   1.547   2.467   5.811
 8037SOL    HW125010   1.556   2.378   5.767
 8037SOL    HW225011   1.562   2.539   5.744
 8038SOL     OW25012   0.167   5.448   2.851
 8038SOL    HW125013   0.083   5.435   2.797
 8038SOL    HW225014   0.241   5.394   2.811
 8039SOL     OW25015   1.117   2.290   5.307
 8039SOL    HW125016   1.192   2.335   5.260
 8039SOL    HW225017   1.057   2.246   5.240
 8040SOL     OW25018   2.233   5.991   5.793
 8040SOL    HW125019   2.218   6.046   5.874
 8040SOL    HW225020   2.329   5.963   5.789
 8041SOL     OW25021   3.520   1.379   3.251
 8041SOL    HW125022   3.429   1.355   3.215
 8041SOL    HW225023   3.578   1.298   3.250
 8042SOL     OW25024   4.078   4.238   5.583
 8042SOL    HW125025   4.082   4.309   5.512
 8042SOL    HW225026   3.983   4.208   5.594
 8043SOL     OW25027   5.484   5.019   0.162
 8043SOL    HW125028   5.385   5.021   0.158
 8043SOL    HW225029   5.517   5.081   0.233
 8044SOL     OW25030   3.327   3.925   1.465
 8044SOL    HW125031   3.356   4.001   1.524
 8044SOL    HW225032   3.397   3.853   1.467
 8045SOL     OW25033   0.448   1.278   2.814
 8045SOL    HW125034   0.419   1.288   2.909
 8045SOL    HW225035   0.388   1.214   2.767
 8046SOL     OW25036   0.856   5.324   2.054
 8046SOL    HW125037   0.892   5.231   2.047
 8046SOL    HW225038   0.913   5.377   2.116
 8047SOL     OW25039   3.648   6.976   6.354
 8047SOL    HW125040   3.624   6.892   6.307
 8047SOL    HW225041   3.711   6.956   6.430
 8048SOL     OW25042   3.705   3.121   0.047
 8048SOL    HW125043   3.763   3.106   0.126
 8048SOL    HW225044   3.609   3.122   0.075
 8049SOL     OW25045   1.677   1.297   0.800
 8049SOL    HW125046   1.607   1.346   0.747
 8049SOL    HW225047   1.754   1.359   0.818
 8050SOL     OW25048   0.970   4.469   5.759
 8050SOL    HW125049   0.959   4.413   5.841
 8050SOL    HW225050   0.981   4.409   5.679
 8051SOL     OW25051   3.652   5.452   4.002
 8051SOL    HW125052   3.629   5.549   4.012
 8051SOL    HW225053   3.572   5.396   4.022
 8052SOL     OW25054   2.222   2.827   2.545
 8052SOL    HW125055   2.147   2.763   2.565
 8052SOL    HW225056   2.290   2.781   2.487
 8053SOL     OW25057   2.594   2.828   6.257
 8053SOL    HW125058   2.622   2.751   6.200
 8053SOL    HW225059   2.502   2.811   6.294
 8054SOL     OW25060   5.236   3.797   5.280
 8054SOL    HW125061   5.139   3.819   5.269
 8054SOL    HW225062   5.284   3.876   5.319
 8055SOL     OW25063   6.962   0.172   5.868
 8055SOL    HW125064   6.965   0.225   5.952
 8055SOL    HW225065   0.020   0.115   5.861
 8056SOL     OW25066   2.434   1.151   4.617
 8056SOL    HW125067   2.353   1.093   4.617
 8056SOL    HW225068   2.406   1.246   4.633
 8057SOL     OW25069   2.502   2.527   2.316
 8057SOL    HW125070   2.541   2.489   2.399
 8057SOL    HW225071   2.546   2.486   2.236
 8058SOL     OW25072   3.063   6.731   2.902
 8058SOL    HW125073   3.100   6.782   2.980
 8058SOL    HW225074   3.137   6.711   2.838
 8059SOL     OW25075   2.715   3.101   6.306
 8059SOL    HW125076   2.641   3.035   6.300
 8059SOL    HW225077   2.762   3.092   6.394
 8060SOL     OW25078   6.388   0.030   5.831
 8060SOL    HW125079   6.299   0.068   5.854
 8060SOL    HW225080   6.459   0.078   5.882
 8061SOL     OW25081   0.077   1.129   1.762
 8061SOL    HW125082   0.104   1.033   1.752
 8061SOL    HW225083   0.039   1.143   1.854
 8062SOL     OW25084   4.429   5.869   5.768
 8062SOL    HW125085   4.403   5.965   5.753
 8062SOL    HW225086   4.470   5.860   5.859
 8063SOL     OW25087   3.648   6.148   3.114
 8063SOL    HW125088   3.656   6.098   3.200
 8063SOL    HW225089   3.663   6.085   3.037
 8064SOL     OW25090   5.636   2.150   0.640
 8064SOL    HW125091   5.683   2.110   0.561
 8064SOL    HW225092   5.591   2.077   0.692
 8065SOL     OW25093   3.014   5.697   5.604
 8065SOL    HW125094   2.979   5.742   5.686
 8065SOL    HW225095   2.948   5.706   5.530
 8066SOL     OW25096   0.426   0.174   4.483
 8066SOL    HW125097   0.457   0.172   4.578
 8066SOL    HW225098   0.407   0.081   4.452
 8067SOL     OW25099   4.941   3.161   3.613
 8067SOL    HW125100   4.897   3.241   3.655
 8067SOL    HW225101   4.995   3.190   3.535
 8068SOL     OW25102   6.544   4.108   1.232
 8068SOL    HW125103   6.521   4.128   1.137
 8068SOL    HW225104   6.504   4.178   1.291
 8069SOL     OW25105   2.701   4.719   2.519
 8069SOL    HW125106   2.679   4.669   2.436
 8069SOL    HW225107   2.798   4.747   2.516
 8070SOL     OW25108   5.128   4.946   6.831
 8070SOL    HW125109   5.091   5.025   6.881
 8070SOL    HW225110   5.068   4.867   6.845
 8071SOL     OW25111   2.814   6.979   5.461
 8071SOL    HW125112   2.816   0.055   5.469
 8071SOL    HW225113   2.899   6.941   5.498
 8072SOL     OW25114   1.937   2.651   6.316
 8072SOL    HW125115   1.896   2.741   6.304
 8072SOL    HW225116   2.005   2.655   6.390
 8073SOL     OW25117   3.514   0.163   6.795
 8073SOL    HW125118   3.539   0.182   6.700
 8073SOL    HW225119   3.422   0.198   6.813
 8074SOL     OW25120   1.448   1.164   6.681
 8074SOL    HW125121   1.509   1.206   6.614
 8074SOL    HW225122   1.450   1.217   6.765
 8075SOL     OW25123   0.583   6.480   0.553
 8075SOL    HW125124   0.633   6.545   0.610
 8075SOL    HW225125   0.647   6.423   0.502
 8076SOL     OW25126   0.280   6.361   0.512
 8076SOL    HW125127   0.311   6.455   0.498
 8076SOL    HW225128   0.345   6.298   0.468
 8077SOL     OW25129   4.255   5.337   0.906
 8077SOL    HW125130   4.204   5.418   0.876
 8077SOL    HW225131   4.191   5.263   0.927
 8078SOL     OW25132   0.571   0.430   2.004
 8078SOL    HW125133   0.629   0.349   1.991
 8078SOL    HW225134   0.613   0.509   1.959
 8079SOL     OW25135   1.564   2.398   5.036
 8079SOL    HW125136   1.574   2.497   5.045
 8079SOL    HW225137   1.642   2.362   4.986
 8080SOL     OW25138   0.954   3.428   3.244
 8080SOL    HW125139   0.959   3.519   3.286
 8080SOL    HW225140   0.968   3.436   3.145
 8081SOL     OW25141   6.352   5.856   4.659
 8081SOL    HW125142   6.432   5.800   4.637
 8081SOL    HW225143   6.295   5.867   4.577
 8082SOL     OW25144   3.741   1.906   1.887
 8082SOL    HW125145   3.735   1.976   1.959
 8082SOL    HW225146   3.770   1.949   1.802
 8083SOL     OW25147   5.914   2.618   5.059
 8083SOL    HW125148   5.987   2.562   5.098
 8083SOL    HW225149   5.828   2.567   5.059
 8084SOL     OW25150   2.495   0.614   6.349
 8084SOL    HW125151   2.544   0.617   6.436
 8084SOL    HW225152   2.490   0.706   6.310
 8085SOL     OW25153   0.771   6.299   4.742
 8085SOL    HW125154   0.722   6.233   4.799
 8085SOL    HW225155   0.863   6.264   4.724
 8086SOL     OW25156   0.005   1.426   2.117
 8086SOL    HW125157   6.937   1.460   2.137
 8086SOL    HW225158   0.038   1.468   2.033
 8087SOL     OW25159   1.063   0.882   0.530
 8087SOL    HW125160   1.027   0.820   0.461
 8087SOL    HW225161   1.140   0.934   0.493
 8088SOL     OW25162   5.598   6.866   5.287
 8088SOL    HW125163   5.563   6.867   5.380
 8088SOL    HW225164   5.658   6.787   5.274
 8089SOL     OW25165   5.352   2.330   6.102
 8089SOL    HW125166   5.402   2.334   6.015
 8089SOL    HW225167   5.418   2.323   6.177
 8090SOL     OW25168   4.318   1.789   5.767
 8090SOL    HW125169   4.296   1.881   5.734
 8090SOL    HW225170   4.234   1.735   5.773
 8091SOL     OW25171   1.357   4.540   4.959
 8091SOL    HW125172   1.271   4.521   4.912
 8091SOL    HW225173   1.421   4.581   4.894
 8092SOL     OW25174   5.000   2.303   5.868
 8092SOL    HW125175   4.917   2.309   5.813
 8092SOL    HW225176   5.031   2.395   5.892
 8093SOL     OW25177   3.946   6.581   2.158
 8093SOL    HW125178   3.948   6.681   2.164
 8093SOL    HW225179   3.856   6.552   2.126
 8094SOL     OW25180   1.285   3.721   3.739
 8094SOL    HW125181   1.272   3.622   3.745
 8094SOL    HW225182   1.383   3.742   3.748
 8095SOL     OW25183   1.058   4.125   5.797
 8095SOL    HW125184   1.078   4.177   5.880
 8095SOL    HW225185   1.116   4.043   5.795
 8096SOL     OW25186   1.052   6.291   2.139
 8096SOL    HW125187   1.014   6.379   2.167
 8096SOL    HW225188   0.986   6.242   2.081
 8097SOL     OW25189   3.552   5.452   5.078
 8097SOL    HW125190   3.499   5.367   5.084
 8097SOL    HW225191   3.639   5.434   5.032
 8098SOL     OW25192   1.047   5.611   4.965
 8098SOL    HW125193   1.110   5.622   5.043
 8098SOL    HW225194   0.992   5.529   4.979
 8099SOL     OW25195   2.960   5.620   4.223
 8099SOL    HW125196   3.017   5.602   4.303
 8099SOL    HW225197   2.979   5.711   4.188
 8100SOL     OW25198   0.235   0.571   6.134
 8100SOL    HW125199   0.160   0.597   6.073
 8100SOL    HW225200   0.319   0.615   6.103
 8101SOL     OW25201   2.512   6.096   1.968
 8101SOL    HW125202   2.544   6.133   2.055
 8101SOL    HW225203   2.523   5.996   1.968
 8102SOL     OW25204   0.980   2.707   4.273
 8102SOL    HW125205   1.060   2.650   4.288
 8102SOL    HW225206   0.932   2.722   4.360
 8103SOL     OW25207   3.236   1.328   2.378
 8103SOL    HW125208   3.321   1.314   2.428
 8103SOL    HW225209   3.236   1.418   2.335
 8104SOL     OW25210   2.377   6.807   0.067
 8104SOL    HW125211   2.392   6.761   7.004
 8104SOL    HW225212   2.365   6.905   0.052
 8105SOL     OW25213   6.774   1.773   2.344
 8105SOL    HW125214   6.799   1.704   2.277
 8105SOL    HW225215   6.792   1.737   2.436
 8106SOL     OW25216   2.158   6.049   4.771
 8106SOL    HW125217   2.091   6.080   4.703
 8106SOL    HW225218   2.118   6.055   4.862
 8107SOL     OW25219   1.776   5.368   5.075
 8107SOL    HW125220   1.830   5.448   5.103
 8107SOL    HW225221   1.795   5.292   5.137
 8108SOL     OW25222   0.251   1.214   6.647
 8108SOL    HW125223   0.255   1.114   6.637
 8108SOL    HW225224   0.306   1.241   6.726
 8109SOL     OW25225   6.458   3.135   0.026
 8109SOL    HW125226   6.494   3.170   6.964
 8109SOL    HW225227   6.532   3.124   0.092
 8110SOL     OW25228   4.253   5.174   0.485
 8110SOL    HW125229   4.217   5.084   0.462
 8110SOL    HW225230   4.181   5.243   0.470
 8111SOL     OW25231   5.791   1.238   3.060
 8111SOL    HW125232   5.745   1.202   3.142
 8111SOL    HW225233   5.739   1.211   2.979
 8112SOL     OW25234   0.706   2.885   5.570
 8112SOL    HW125235   0.666   2.903   5.660
 8112SOL    HW225236   0.787   2.828   5.580
 8113SOL     OW25237   6.049   2.840   0.963
 8113SOL    HW125238   6.067   2.775   1.037
 8113SOL    HW225239   6.077   2.800   0.876
 8114SOL     OW25240   2.135   4.283   1.642
 8114SOL    HW125241   2.091   4.371   1.626
 8114SOL    HW225242   2.075   4.209   1.609
 8115SOL     OW25243   2.609   0.241   6.894
 8115SOL    HW125244   2.613   0.275   6.800
 8115SOL    HW225245   2.701   0.236   6.931
 8116SOL     OW25246   3.147   4.896   1.246
 8116SOL    HW125247   3.057   4.930   1.220
 8116SOL    HW225248   3.147   4.796   1.241
 8117SOL     OW25249   2.758   0.020   3.039
 8117SOL    HW125250   2.855   0.045   3.039
 8117SOL    HW225251   2.708   0.078   3.104
 8118SOL     OW25252   6.183   3.303   0.311
 8118SOL    HW125253   6.227   3.390   0.335
 8118SOL    HW225254   6.149   3.259   0.394
 8119SOL     OW25255   5.955   5.653   6.219
 8119SOL    HW125256   5.909   5.646   6.308
 8119SOL    HW225257   6.054   5.654   6.233
 8120SOL     OW25258   2.123   6.203   1.186
 8120SOL    HW125259   2.176   6.272   1.138
 8120SOL    HW225260   2.028   6.233   1.192
 8121SOL     OW25261   1.245   3.284   2.984
 8121SOL    HW125262   1.186   3.225   2.929
 8121SOL    HW225263   1.190   3.357   3.025
 8122SOL     OW25264   0.577   4.365   2.429
 8122SOL    HW125265   0.587   4.433   2.356
 8122SOL    HW225266   0.656   4.304   2.428
 8123SOL     OW25267   0.651   2.276   5.901
 8123SOL    HW125268   0.741   2.321   5.898
 8123SOL    HW225269   0.579   2.345   5.894
 8124SOL     OW25270   5.992   4.818   4.019
 8124SOL    HW125271   5.914   4.756   4.011
 8124SOL    HW225272   5.995   4.878   3.939
 8125SOL     OW25273   1.069   6.924   2.763
 8125SOL    HW125274   1.141   6.917   2.693
 8125SOL    HW225275   1.012   7.004   2.745
 8126SOL     OW25276   3.849   4.936   4.380
 8126SOL    HW125277   3.751   4.956   4.375
 8126SOL    HW225278   3.888   4.936   4.288
 8127SOL     OW25279   3.046   2.900   0.418
 8127SOL    HW125280   2.977   2.973   0.420
 8127SOL    HW225281   3.084   2.888   0.509
 8128SOL     OW25282   3.381   2.780   2.095
 8128SOL    HW125283   3.310   2.779   2.165
 8128SOL    HW225284   3.422   2.871   2.090
 8129SOL     OW25285   1.534   2.831   0.264
 8129SOL    HW125286   1.577   2.743   0.286
 8129SOL    HW225287   1.597   2.885   0.208
 8130SOL     OW25288   1.458   5.680   6.546
 8130SOL    HW125289   1.493   5.604   6.601
 8130SOL    HW225290   1.376   5.717   6.590
 8131SOL     OW25291   2.014   3.507   1.097
 8131SOL    HW125292   2.028   3.525   0.999
 8131SOL    HW225293   2.032   3.411   1.116
 8132SOL     OW25294   6.756   6.805   4.485
 8132SOL    HW125295   6.790   6.899   4.493
 8132SOL    HW225296   6.834   6.742   4.477
 8133SOL     OW25297   3.422   4.770   0.899
 8133SOL    HW125298   3.437   4.679   0.859
 8133SOL    HW225299   3.399   4.835   0.826
 8134SOL     OW25300   6.217   0.441   4.916
 8134SOL    HW125301   6.255   0.502   4.846
 8134SOL    HW225302   6.192   0.495   4.997
 8135SOL     OW25303   2.495   6.827   1.615
 8135SOL    HW125304   2.578   6.871   1.648
 8135SOL    HW225305   2.514   6.782   1.527
 8136SOL     OW25306   4.506   4.925   2.611
 8136SOL    HW125307   4.437   4.993   2.633
 8136SOL    HW225308   4.597   4.967   2.612
 8137SOL     OW25309   3.969   1.701   4.811
 8137SOL    HW125310   3.994   1.655   4.897
 8137SOL    HW225311   3.955   1.632   4.740
 8138SOL     OW25312   5.416   0.867   1.528
 8138SOL    HW125313   5.454   0.817   1.451
 8138SOL    HW225314   5.490   0.906   1.583
 8139SOL     OW25315   1.233   1.137   2.624
 8139SOL    HW125316   1.138   1.140   2.591
 8139SOL    HW225317   1.250   1.050   2.670
 8140SOL     OW25318   3.898   1.461   3.775
 8140SOL    HW125319   3.994   1.433   3.784
 8140SOL    HW225320   3.852   1.445   3.862
 8141SOL     OW25321   4.022   5.337   5.398
 8141SOL    HW125322   3.954   5.336   5.325
 8141SOL    HW225323   4.063   5.428   5.403
 8142SOL     OW25324   5.812   5.023   0.379
 8142SOL    HW125325   5.849   5.019   0.472
 8142SOL    HW225326   5.847   4.947   0.325
 8143SOL     OW25327   5.721   4.329   6.032
 8143SOL    HW125328   5.723   4.414   5.978
 8143SOL    HW225329   5.814   4.297   6.048
 8144SOL     OW25330   5.376   6.501   6.933
 8144SOL    HW125331   5.354   6.405   6.919
 8144SOL    HW225332   5.384   6.520   0.007
 8145SOL     OW25333   6.021   5.580   2.244
 8145SOL    HW125334   6.005   5.667   2.291
 8145SOL    HW225335   6.048   5.510   2.311
 8146SOL     OW25336   3.479   1.224   5.762
 8146SOL    HW125337   3.478   1.178   5.674
 8146SOL    HW225338   3.566   1.272   5.773
 8147SOL     OW25339   5.282   1.970   4.406
 8147SOL    HW125340   5.218   1.894   4.399
 8147SOL    HW225341   5.339   1.974   4.324
 8148SOL     OW25342   5.697   2.819   3.037
 8148SOL    HW125343   5.599   2.795   3.038
 8148SOL    HW225344   5.748   2.746   2.993
 8149SOL     OW25345   4.642   5.044   3.235
 8149SOL    HW125346   4.625   4.961   3.288
 8149SOL    HW225347   4.571   5.054   3.165
 8150SOL     OW25348   1.160   5.216   6.689
 8150SOL    HW125349   1.099   5.230   6.611
 8150SOL    HW225350   1.251   5.193   6.656
 8151SOL     OW25351   1.245   2.012   5.171
 8151SOL    HW125352   1.258   2.037   5.267
 8151SOL    HW225353   1.316   2.055   5.115
 8152SOL     OW25354   2.142   0.730   3.248
 8152SOL    HW125355   2.053   0.734   3.294
 8152SOL    HW225356   2.182   0.640   3.261
 8153SOL     OW25357   2.728   6.308   0.658
 8153SOL    HW125358   2.751   6.402   0.683
 8153SOL    HW225359   2.630   6.301   0.641
 8154SOL     OW25360   1.790   6.524   3.552
 8154SOL    HW125361   1.692   6.503   3.554
 8154SOL    HW225362   1.838   6.467   3.618
 8155SOL     OW25363   3.325   3.413   3.235
 8155SOL    HW125364   3.362   3.325   3.205
 8155SOL    HW225365   3.335   3.480   3.162
 8156SOL     OW25366   5.881   0.648   4.848
 8156SOL    HW125367   5.960   0.634   4.787
 8156SOL    HW225368   5.848   0.560   4.881
 8157SOL     OW25369   5.778   4.343   6.895
 8157SOL    HW125370   5.699   4.286   6.873
 8157SOL    HW225371   5.858   4.312   6.843
 8158SOL     OW25372   1.732   5.700   1.957
 8158SOL    HW125373   1.661   5.686   1.889
 8158SOL    HW225374   1.692   5.740   2.039
 8159SOL     OW25375   2.126   5.711   2.232
 8159SOL    HW125376   2.171   5.793   2.266
 8159SOL    HW225377   2.188   5.633   2.241
 8160SOL     OW25378   4.154   2.269   1.763
 8160SOL    HW125379   4.113   2.347   1.716
 8160SOL    HW225380   4.095   2.241   1.839
 8161SOL     OW25381   4.720   1.294   0.516
 8161SOL    HW125382   4.654   1.297   0.441
 8161SOL    HW225383   4.692   1.224   0.582
 8162SOL     OW25384   5.345   6.595   1.208
 8162SOL    HW125385   5.347   6.678   1.263
 8162SOL    HW225386   5.268   6.599   1.144
 8163SOL     OW25387   2.238   4.340   4.968
 8163SOL    HW125388   2.317   4.400   4.979
 8163SOL    HW225389   2.262   4.247   4.996
 8164SOL     OW25390   4.418   2.295   1.789
 8164SOL    HW125391   4.437   2.364   1.720
 8164SOL    HW225392   4.319   2.282   1.797
 8165SOL     OW25393   2.030   4.211   1.234
 8165SOL    HW125394   1.975   4.294   1.230
 8165SOL    HW225395   2.108   4.225   1.294
 8166SOL     OW25396   2.751   0.127   1.476
 8166SOL    HW125397   2.826   0.133   1.542
 8166SOL    HW225398   2.679   0.191   1.502
 8167SOL     OW25399   5.775   2.446   3.828
 8167SOL    HW125400   5.787   2.426   3.731
 8167SOL    HW225401   5.831   2.382   3.882
 8168SOL     OW25402   3.472   0.914   2.967
 8168SOL    HW125403   3.551   0.973   2.949
 8168SOL    HW225404   3.492   0.821   2.938
 8169SOL     OW25405   4.038   3.338   6.436
 8169SOL    HW125406   4.085   3.411   6.387
 8169SOL    HW225407   3.990   3.378   6.515
 8170SOL     OW25408   1.199   5.895   4.171
 8170SOL    HW125409   1.147   5.818   4.208
 8170SOL    HW225410   1.144   5.978   4.176
 8171SOL     OW25411   1.277   2.580   5.578
 8171SOL    HW125412   1.197   2.520   5.585
 8171SOL    HW225413   1.360   2.524   5.577
 8172SOL     OW25414   0.324   6.276   0.886
 8172SOL    HW125415   0.307   6.375   0.889
 8172SOL    HW225416   0.400   6.258   0.822
 8173SOL     OW25417   4.187   2.577   0.117
 8173SOL    HW125418   4.116   2.593   0.050
 8173SOL    HW225419   4.152   2.597   0.209
 8174SOL     OW25420   5.670   0.790   1.866
 8174SOL    HW125421   5.588   0.733   1.866
 8174SOL    HW225422   5.648   0.880   1.828
 8175SOL     OW25423   0.664   2.651   6.209
 8175SOL    HW125424   0.624   2.663   6.300
 8175SOL    HW225425   0.764   2.643   6.218
 8176SOL     OW25426   2.752   5.291   2.426
 8176SOL    HW125427   2.681   5.282   2.357
 8176SOL    HW225428   2.739   5.222   2.498
 8177SOL     OW25429   6.482   6.480   4.827
 8177SOL    HW125430   6.470   6.553   4.760
 8177SOL    HW225431   6.524   6.401   4.783
 8178SOL     OW25432   1.808   6.454   6.454
 8178SOL    HW125433   1.826   6.379   6.518
 8178SOL    HW225434   1.883   6.459   6.388
 8179SOL     OW25435   3.656   2.422   0.418
 8179SOL    HW125436   3.660   2.365   0.500
 8179SOL    HW225437   3.618   2.511   0.441
 8180SOL     OW25438   6.258   6.463   4.964
 8180SOL    HW125439   6.222   6.391   4.905
 8180SOL    HW225440   6.358   6.465   4.958
 8181SOL     OW25441   2.717   2.240   3.153
 8181SOL    HW125442   2.809   2.212   3.126
 8181SOL    HW225443   2.717   2.271   3.248
 8182SOL     OW25444   4.110   2.232   5.321
 8182SOL    HW125445   4.116   2.331   5.308
 8182SOL    HW225446   4.021   2.209   5.363
 8183SOL     OW25447   1.779   3.493   4.396
 8183SOL    HW125448   1.683   3.513   4.416
 8183SOL    HW225449   1.809   3.415   4.451
 8184SOL     OW25450   6.790   6.665   5.539
 8184SOL    HW125451   6.874   6.611   5.531
 8184SOL    HW225452   6.748   6.649   5.628
 8185SOL     OW25453   2.744   1.188   2.262
 8185SOL    HW125454   2.825   1.218   2.311
 8185SOL    HW225455   2.770   1.146   2.175
 8186SOL     OW25456   3.366   5.825   5.893
 8186SOL    HW125457   3.316   5.745   5.861
 8186SOL    HW225458   3.464   5.808   5.887
 8187SOL     OW25459   2.094   1.709   4.946
 8187SOL    HW125460   1.996   1.690   4.933
 8187SOL    HW225461   2.146   1.625   4.934
 8188SOL     OW25462   6.013   2.612   3.307
 8188SOL    HW125463   6.093   2.669   3.285
 8188SOL    HW225464   5.970   2.582   3.222
 8189SOL     OW25465   6.519   4.132   2.278
 8189SOL    HW125466   6.423   4.140   2.255
 8189SOL    HW225467   6.532   4.156   2.375
 8190SOL     OW25468   4.993   3.445   3.511
 8190SOL    HW125469   4.946   3.498   3.440
 8190SOL    HW225470   4.953   3.464   3.600
 8191SOL     OW25471   0.698   4.774   3.946
 8191SOL    HW125472   0.682   4.821   3.860
 8191SOL    HW225473   0.614   4.730   3.977
 8192SOL     OW25474   2.233   4.736   1.762
 8192SOL    HW125475   2.256   4.830   1.784
 8192SOL    HW225476   2.134   4.722   1.773
 8193SOL     OW25477   3.955   6.703   5.563
 8193SOL    HW125478   3.917   6.741   5.647
 8193SOL    HW225479   3.948   6.770   5.489
 8194SOL     OW25480   0.246   0.837   6.887
 8194SOL    HW125481   0.178   0.900   6.851
 8194SOL    HW225482   0.331   0.845   6.834
 8195SOL     OW25483   6.785   6.175   0.667
 8195SOL    HW125484   6.739   6.263   0.659
 8195SOL    HW225485   6.884   6.188   0.656
 8196SOL     OW25486   2.858   6.778   6.295
 8196SOL    HW125487   2.884   6.777   6.198
 8196SOL    HW225488   2.762   6.805   6.303
 8197SOL     OW25489   0.575   0.338   6.255
 8197SOL    HW125490   0.567   0.239   6.240
 8197SOL    HW225491   0.543   0.386   6.173
 8198SOL     OW25492   2.953   6.579   3.236
 8198SOL    HW125493   2.873   6.638   3.225
 8198SOL    HW225494   2.979   6.542   3.147
 8199SOL     OW25495   6.573   3.710   0.375
 8199SOL    HW125496   6.607   3.718   0.468
 8199SOL    HW225497   6.506   3.783   0.358
 8200SOL     OW25498   5.078   4.717   0.527
 8200SOL    HW125499   5.114   4.651   0.461
 8200SOL    HW225500   5.051   4.669   0.610
 8201SOL     OW25501   6.257   0.417   3.230
 8201SOL    HW125502   6.325   0.402   3.301
 8201SOL    HW225503   6.173   0.453   3.271
 8202SOL     OW25504   1.590   3.415   3.465
 8202SOL    HW125505   1.576   3.461   3.377
 8202SOL    HW225506   1.607   3.484   3.536
 8203SOL     OW25507   5.677   3.223   1.352
 8203SOL    HW125508   5.770   3.230   1.389
 8203SOL    HW225509   5.676   3.254   1.257
 8204SOL     OW25510   3.102   0.080   1.948
 8204SOL    HW125511   3.095   0.118   2.040
 8204SOL    HW225512   3.090   7.005   1.951
 8205SOL     OW25513   5.641   5.392   2.010
 8205SOL    HW125514   5.732   5.434   2.008
 8205SOL    HW225515   5.612   5.371   1.917
 8206SOL     OW25516   4.659   2.032   4.530
 8206SOL    HW125517   4.642   2.131   4.531
 8206SOL    HW225518   4.652   1.996   4.623
 8207SOL     OW25519   2.529   6.226   6.792
 8207SOL    HW125520   2.580   6.152   6.749
 8207SOL    HW225521   2.464   6.189   6.859
 8208SOL     OW25522   1.789   4.679   0.901
 8208SOL    HW125523   1.782   4.779   0.896
 8208SOL    HW225524   1.711   4.637   0.854
 8209SOL     OW25525   0.266   6.982   4.958
 8209SOL    HW125526   0.167   6.981   4.973
 8209SOL    HW225527   0.295   0.051   4.934
 8210SOL     OW25528   2.863   1.622   6.518
 8210SOL    HW125529   2.845   1.720   6.514
 8210SOL    HW225530   2.913   1.600   6.601
 8211SOL     OW25531   3.057   3.159   4.566
 8211SOL    HW125532   3.106   3.126   4.647
 8211SOL    HW225533   3.001   3.238   4.592
 8212SOL     OW25534   2.998   0.373   1.313
 8212SOL    HW125535   2.994   0.290   1.257
 8212SOL    HW225536   3.092   0.386   1.344
 8213SOL     OW25537   4.626   4.239   1.674
 8213SOL    HW125538   4.645   4.337   1.683
 8213SOL    HW225539   4.574   4.208   1.754
 8214SOL     OW25540   4.463   6.146   4.282
 8214SOL    HW125541   4.474   6.246   4.290
 8214SOL    HW225542   4.507   6.101   4.360
 8215SOL     OW25543   4.324   6.825   0.472
 8215SOL    HW125544   4.250   6.783   0.420
 8215SOL    HW225545   4.286   6.890   0.539
 8216SOL     OW25546   5.699   4.803   1.357
 8216SOL    HW125547   5.664   4.763   1.442
 8216SOL    HW225548   5.674   4.745   1.280
 8217SOL     OW25549   2.863   6.334   3.729
 8217SOL    HW125550   2.818   6.357   3.815
 8217SOL    HW225551   2.799   6.285   3.669
 8218SOL     OW25552   2.770   6.925   4.838
 8218SOL    HW125553   2.694   6.923   4.904
 8218SOL    HW225554   2.796   7.020   4.821
 8219SOL     OW25555   3.870   4.093   1.085
 8219SOL    HW125556   3.843   4.012   1.136
 8219SOL    HW225557   3.842   4.085   0.989
 8220SOL     OW25558   3.716   3.422   4.149
 8220SOL    HW125559   3.774   3.423   4.067
 8220SOL    HW225560   3.757   3.480   4.220
 8221SOL     OW25561   5.255   3.686   3.312
 8221SOL    HW125562   5.252   3.778   3.349
 8221SOL    HW225563   5.171   3.668   3.261
 8222SOL     OW25564   6.295   3.547   0.384
 8222SOL    HW125565   6.223   3.616   0.381
 8222SOL    HW225566   6.382   3.588   0.357
 8223SOL     OW25567   0.877   5.954   5.530
 8223SOL    HW125568   0.955   5.898   5.557
 8223SOL    HW225569   0.795   5.922   5.579
 8224SOL     OW25570   5.270   2.014   0.583
 8224SOL    HW125571   5.347   2.003   0.645
 8224SOL    HW225572   5.304   2.019   0.489
 8225SOL     OW25573   5.235   1.318   0.360
 8225SOL    HW125574   5.280   1.313   0.449
 8225SOL    HW225575   5.158   1.382   0.365
 8226SOL     OW25576   4.205   0.113   0.400
 8226SOL    HW125577   4.267   0.070   0.333
 8226SOL    HW225578   4.125   0.148   0.352
 8227SOL     OW25579   4.913   2.351   3.066
 8227SOL    HW125580   4.888   2.288   2.992
 8227SOL    HW225581   4.995   2.402   3.039
 8228SOL     OW25582   2.340   0.410   4.628
 8228SOL    HW125583   2.339   0.510   4.633
 8228SOL    HW225584   2.422   0.375   4.674
 8229SOL     OW25585   4.630   3.960   0.545
 8229SOL    HW125586   4.547   3.980   0.597
 8229SOL    HW225587   4.708   3.952   0.607
 8230SOL     OW25588   5.910   0.239   6.329
 8230SOL    HW125589   5.880   0.333   6.347
 8230SOL    HW225590   5.968   0.207   6.404
 8231SOL     OW25591   2.742   1.690   2.587
 8231SOL    HW125592   2.771   1.631   2.512
 8231SOL    HW225593   2.788   1.662   2.671
 8232SOL     OW25594   3.865   5.755   2.967
 8232SOL    HW125595   3.825   5.743   2.876
 8232SOL    HW225596   3.946   5.697   2.975
 8233SOL     OW25597   0.620   1.032   6.253
 8233SOL    HW125598   0.595   0.936   6.269
 8233SOL    HW225599   0.711   1.036   6.212
 8234SOL     OW25600   1.120   2.306   0.971
 8234SOL    HW125601   1.076   2.325   0.883
 8234SOL    HW225602   1.212   2.344   0.970
 8235SOL     OW25603   1.195   6.097   1.363
 8235SOL    HW125604   1.151   6.046   1.436
 8235SOL    HW225605   1.277   6.142   1.398
 8236SOL     OW25606   0.332   6.143   1.677
 8236SOL    HW125607   0.279   6.212   1.627
 8236SOL    HW225608   0.417   6.124   1.628
 8237SOL     OW25609   4.075   4.941   0.410
 8237SOL    HW125610   4.032   5.006   0.347
 8237SOL    HW225611   4.082   4.851   0.366
 8238SOL     OW25612   0.930   4.252   0.392
 8238SOL    HW125613   0.863   4.190   0.432
 8238SOL    HW225614   0.887   4.307   0.320
 8239SOL     OW25615   1.819   1.328   5.093
 8239SOL    HW125616   1.872   1.382   5.027
 8239SOL    HW225617   1.752   1.387   5.137
 8240SOL     OW25618   3.193   3.355   4.807
 8240SOL    HW125619   3.200   3.418   4.729
 8240SOL    HW225620   3.216   3.263   4.777
 8241SOL     OW25621   1.706   4.009   5.983
 8241SOL    HW125622   1.682   4.101   6.013
 8241SOL    HW225623   1.803   4.006   5.958
 8242SOL     OW25624   0.711   2.917   3.172
 8242SOL    HW125625   0.720   2.999   3.116
 8242SOL    HW225626   0.618   2.913   3.210
 8243SOL     OW25627   0.758   5.886   4.579
 8243SOL    HW125628   0.810   5.932   4.652
 8243SOL    HW225629   0.741   5.791   4.605
 8244SOL     OW25630   0.593   1.115   4.474
 8244SOL    HW125631   0.571   1.019   4.459
 8244SOL    HW225632   0.642   1.125   4.560
 8245SOL     OW25633   5.302   1.922   3.081
 8245SOL    HW125634   5.312   1.848   3.147
 8245SOL    HW225635   5.220   1.976   3.103
 8246SOL     OW25636   2.004   5.311   7.022
 8246SOL    HW125637   1.988   5.351   6.932
 8246SOL    HW225638   2.077   5.361   0.045
 8247SOL     OW25639   3.041   5.189   3.316
 8247SOL    HW125640   3.039   5.236   3.227
 8247SOL    HW225641   3.081   5.098   3.305
 8248SOL     OW25642   6.672   4.798   3.130
 8248SOL    HW125643   6.651   4.793   3.228
 8248SOL    HW225644   6.612   4.865   3.087
 8249SOL     OW25645   3.497   1.742   6.489
 8249SOL    HW125646   3.446   1.657   6.502
 8249SOL    HW225647   3.556   1.758   6.567
 8250SOL     OW25648   1.014   1.406   0.112
 8250SOL    HW125649   1.069   1.358   0.181
 8250SOL    HW225650   1.074   1.446   0.043
 8251SOL     OW25651   0.605   2.101   4.534
 8251SOL    HW125652   0.517   2.140   4.561
 8251SOL    HW225653   0.673   2.174   4.528
 8252SOL     OW25654   1.220   2.384   6.214
 8252SOL    HW125655   1.136   2.365   6.163
 8252SOL    HW225656   1.211   2.351   6.308
 8253SOL     OW25657   4.452   5.825   0.262
 8253SOL    HW125658   4.470   5.819   0.360
 8253SOL    HW225659   4.478   5.916   0.229
 8254SOL     OW25660   5.182   4.490   6.201
 8254SOL    HW125661   5.219   4.407   6.159
 8254SOL    HW225662   5.237   4.569   6.175
 8255SOL     OW25663   1.513   6.987   6.162
 8255SOL    HW125664   1.501   7.003   6.065
 8255SOL    HW225665   1.588   6.923   6.176
 8256SOL     OW25666   0.921   5.163   4.685
 8256SOL    HW125667   0.991   5.206   4.742
 8256SOL    HW225668   0.862   5.106   4.742
 8257SOL     OW25669   5.434   3.690   3.073
 8257SOL    HW125670   5.386   3.758   3.017
 8257SOL    HW225671   5.431   3.717   3.169
 8258SOL     OW25672   6.907   3.681   1.752
 8258SOL    HW125673   6.965   3.600   1.750
 8258SOL    HW225674   6.811   3.654   1.754
 8259SOL     OW25675   5.355   1.640   4.194
 8259SOL    HW125676   5.333   1.737   4.180
 8259SOL    HW225677   5.414   1.631   4.274
 8260SOL     OW25678   4.358   1.309   1.272
 8260SOL    HW125679   4.323   1.372   1.341
 8260SOL    HW225680   4.443   1.268   1.305
 8261SOL     OW25681   5.684   0.728   2.309
 8261SOL    HW125682   5.696   0.812   2.362
 8261SOL    HW225683   5.598   0.684   2.335
 8262SOL     OW25684   5.468   3.919   1.700
 8262SOL    HW125685   5.503   3.953   1.613
 8262SOL    HW225686   5.468   3.993   1.767
 8263SOL     OW25687   6.526   2.431   5.947
 8263SOL    HW125688   6.556   2.336   5.958
 8263SOL    HW225689   6.539   2.480   6.033
 8264SOL     OW25690   3.020   0.112   3.067
 8264SOL    HW125691   3.039   0.120   2.969
 8264SOL    HW225692   3.106   0.117   3.119
 8265SOL     OW25693   5.224   6.585   0.161
 8265SOL    HW125694   5.125   6.592   0.170
 8265SOL    HW225695   5.266   6.674   0.176
 8266SOL     OW25696   2.379   1.081   3.666
 8266SOL    HW125697   2.304   1.019   3.642
 8266SOL    HW225698   2.420   1.117   3.583
 8267SOL     OW25699   1.667   4.187   2.710
 8267SOL    HW125700   1.749   4.130   2.703
 8267SOL    HW225701   1.588   4.129   2.730
 8268SOL     OW25702   3.766   5.151   6.233
 8268SOL    HW125703   3.822   5.159   6.316
 8268SOL    HW225704   3.670   5.166   6.257
 8269SOL     OW25705   5.961   2.748   3.985
 8269SOL    HW125706   6.002   2.708   3.903
 8269SOL    HW225707   6.032   2.763   4.053
 8270SOL     OW25708   3.707   6.907   6.893
 8270SOL    HW125709   3.634   6.853   6.852
 8270SOL    HW225710   3.681   6.934   6.986
 8271SOL     OW25711   3.453   6.256   6.479
 8271SOL    HW125712   3.409   6.272   6.567
 8271SOL    HW225713   3.385   6.223   6.413
 8272SOL     OW25714   0.813   0.293   2.012
 8272SOL    HW125715   0.845   0.277   2.106
 8272SOL    HW225716   0.882   0.259   1.948
 8273SOL     OW25717   4.114   0.477   6.757
 8273SOL    HW125718   4.155   0.535   6.686
 8273SOL    HW225719   4.049   0.413   6.715
 8274SOL     OW25720   5.254   6.437   5.468
 8274SOL    HW125721   5.247   6.445   5.369
 8274SOL    HW225722   5.317   6.362   5.491
 8275SOL     OW25723   5.578   0.386   3.240
 8275SOL    HW125724   5.605   0.339   3.324
 8275SOL    HW225725   5.573   0.485   3.257
 8276SOL     OW25726   0.028   1.782   6.377
 8276SOL    HW125727   6.996   1.766   6.296
 8276SOL    HW225728   0.047   1.880   6.385
 8277SOL     OW25729   1.491   6.771   6.826
 8277SOL    HW125730   1.493   6.814   6.916
 8277SOL    HW225731   1.416   6.706   6.822
 8278SOL     OW25732   3.349   1.243   0.193
 8278SOL    HW125733   3.419   1.305   0.228
 8278SOL    HW225734   3.304   1.284   0.114
 8279SOL     OW25735   4.307   5.644   5.136
 8279SOL    HW125736   4.304   5.641   5.036
 8279SOL    HW225737   4.403   5.645   5.166
 8280SOL     OW25738   5.394   3.539   0.658
 8280SOL    HW125739   5.428   3.596   0.733
 8280SOL    HW225740   5.390   3.444   0.689
 8281SOL     OW25741   3.043   5.019   0.308
 8281SOL    HW125742   3.057   5.019   0.407
 8281SOL    HW225743   3.106   5.085   0.266
 8282SOL     OW25744   3.048   2.675   0.809
 8282SOL    HW125745   3.140   2.708   0.789
 8282SOL    HW225746   2.990   2.752   0.836
 8283SOL     OW25747   0.225   5.650   3.463
 8283SOL    HW125748   0.230   5.745   3.494
 8283SOL    HW225749   0.136   5.632   3.422
 8284SOL     OW25750   2.971   1.857   1.672
 8284SOL    HW125751   3.055   1.819   1.633
 8284SOL    HW225752   2.897   1.848   1.606
 8285SOL     OW25753   2.706   4.603   6.401
 8285SOL    HW125754   2.711   4.506   6.377
 8285SOL    HW225755   2.796   4.635   6.431
 8286SOL     OW25756   5.673   1.923   5.604
 8286SOL    HW125757   5.653   1.842   5.548
 8286SOL    HW225758   5.592   1.981   5.608
 8287SOL     OW25759   1.966   0.116   3.875
 8287SOL    HW125760   1.919   0.103   3.963
 8287SOL    HW225761   2.000   0.028   3.843
 8288SOL     OW25762   2.642   0.461   3.042
 8288SOL    HW125763   2.588   0.445   2.959
 8288SOL    HW225764   2.724   0.405   3.039
 8289SOL     OW25765   6.966   1.014   5.735
 8289SOL    HW125766   0.028   0.968   5.717
 8289SOL    HW225767   6.892   0.965   5.689
 8290SOL     OW25768   4.606   2.663   1.818
 8290SOL    HW125769   4.562   2.746   1.783
 8290SOL    HW225770   4.673   2.629   1.752
 8291SOL     OW25771   3.862   5.394   6.580
 8291SOL    HW125772   3.827   5.377   6.672
 8291SOL    HW225773   3.786   5.420   6.520
 8292SOL     OW25774   0.718   3.106   4.590
 8292SOL    HW125775   0.738   3.107   4.492
 8292SOL    HW225776   0.683   3.195   4.617
 8293SOL     OW25777   2.830   4.786   3.739
 8293SOL    HW125778   2.783   4.750   3.820
 8293SOL    HW225779   2.920   4.820   3.765
 8294SOL     OW25780   4.593   3.397   5.732
 8294SOL    HW125781   4.640   3.368   5.815
 8294SOL    HW225782   4.615   3.493   5.712
 8295SOL     OW25783   5.273   4.333   2.504
 8295SOL    HW125784   5.182   4.348   2.543
 8295SOL    HW225785   5.305   4.241   2.527
 8296SOL     OW25786   3.965   6.008   2.013
 8296SOL    HW125787   3.988   6.103   2.030
 8296SOL    HW225788   3.879   5.986   2.058
 8297SOL     OW25789   5.619   4.448   3.541
 8297SOL    HW125790   5.673   4.368   3.515
 8297SOL    HW225791   5.635   4.522   3.476
 8298SOL     OW25792   6.814   6.795   6.351
 8298SOL    HW125793   6.912   6.811   6.363
 8298SOL    HW225794   6.799   6.746   6.265
 8299SOL     OW25795   0.528   3.601   1.084
 8299SOL    HW125796   0.453   3.542   1.112
 8299SOL    HW225797   0.611   3.577   1.136
 8300SOL     OW25798   5.482   4.903   2.840
 8300SOL    HW125799   5.577   4.874   2.851
 8300SOL    HW225800   5.422   4.838   2.886
 8301SOL     OW25801   4.963   6.614   0.193
 8301SOL    HW125802   4.967   6.690   0.129
 8301SOL    HW225803   4.868   6.592   0.214
 8302SOL     OW25804   3.441   6.782   5.201
 8302SOL    HW125805   3.450   6.867   5.254
 8302SOL    HW225806   3.495   6.789   5.118
 8303SOL     OW25807   0.276   5.717   2.918
 8303SOL    HW125808   0.250   5.621   2.907
 8303SOL    HW225809   0.277   5.762   2.828
 8304SOL     OW25810   6.029   4.250   3.027
 8304SOL    HW125811   5.994   4.266   2.935
 8304SOL    HW225812   6.050   4.153   3.039
 8305SOL     OW25813   4.990   6.663   4.740
 8305SOL    HW125814   4.917   6.680   4.806
 8305SOL    HW225815   5.036   6.577   4.763
 8306SOL     OW25816   6.457   1.178   2.123
 8306SOL    HW125817   6.436   1.155   2.218
 8306SOL    HW225818   6.519   1.110   2.085
 8307SOL     OW25819   1.647   3.384   3.107
 8307SOL    HW125820   1.685   3.383   3.014
 8307SOL    HW225821   1.641   3.478   3.139
 8308SOL     OW25822   1.531   5.236   0.912
 8308SOL    HW125823   1.435   5.212   0.897
 8308SOL    HW225824   1.553   5.319   0.861
 8309SOL     OW25825   6.518   5.110   4.709
 8309SOL    HW125826   6.582   5.048   4.754
 8309SOL    HW225827   6.485   5.069   4.624
 8310SOL     OW25828   1.750   0.033   0.675
 8310SOL    HW125829   1.804   0.098   0.729
 8310SOL    HW225830   1.680   7.016   0.732
 8311SOL     OW25831   5.270   6.402   3.346
 8311SOL    HW125832   5.280   6.463   3.268
 8311SOL    HW225833   5.311   6.444   3.427
 8312SOL     OW25834   5.534   1.607   0.231
 8312SOL    HW125835   5.530   1.649   0.140
 8312SOL    HW225836   5.451   1.628   0.281
 8313SOL     OW25837   5.433   2.420   5.257
 8313SOL    HW125838   5.398   2.392   5.346
 8313SOL    HW225839   5.533   2.426   5.261
 8314SOL     OW25840   4.757   6.389   4.172
 8314SOL    HW125841   4.773   6.398   4.073
 8314SOL    HW225842   4.834   6.342   4.214
 8315SOL     OW25843   3.479   4.191   4.701
 8315SOL    HW125844   3.541   4.124   4.661
 8315SOL    HW225845   3.497   4.282   4.663
 8316SOL     OW25846   2.046   1.941   6.342
 8316SOL    HW125847   1.985   1.874   6.385
 8316SOL    HW225848   1.991   2.013   6.299
 8317SOL     OW25849   1.582   2.073   3.596
 8317SOL    HW125850   1.547   1.986   3.630
 8317SOL    HW225851   1.666   2.097   3.645
 8318SOL     OW25852   4.446   0.384   6.516
 8318SOL    HW125853   4.370   0.329   6.553
 8318SOL    HW225854   4.512   0.402   6.588
 8319SOL     OW25855   1.347   6.338   6.776
 8319SOL    HW125856   1.340   6.424   6.827
 8319SOL    HW225857   1.443   6.314   6.766
 8320SOL     OW25858   2.974   3.101   5.128
 8320SOL    HW125859   2.980   3.185   5.075
 8320SOL    HW225860   2.897   3.046   5.095
 8321SOL     OW25861   0.106   6.788   1.061
 8321SOL    HW125862   0.102   6.881   1.097
 8321SOL    HW225863   0.159   6.731   1.124
 8322SOL     OW25864   0.582   6.915   0.546
 8322SOL    HW125865   0.652   6.865   0.596
 8322SOL    HW225866   0.531   6.852   0.488
 8323SOL     OW25867   5.728   4.519   0.937
 8323SOL    HW125868   5.781   4.509   0.853
 8323SOL    HW225869   5.784   4.493   1.015
 8324SOL     OW25870   5.079   5.381   6.148
 8324SOL    HW125871   5.126   5.469   6.159
 8324SOL    HW225872   5.092   5.348   6.055
 8325SOL     OW25873   1.787   5.776   6.576
 8325SOL    HW125874   1.740   5.697   6.616
 8325SOL    HW225875   1.720   5.839   6.537
 8326SOL     OW25876   1.584   3.270   0.108
 8326SOL    HW125877   1.527   3.193   0.080
 8326SOL    HW225878   1.677   3.258   0.074
 8327SOL     OW25879   0.780   6.782   4.625
 8327SOL    HW125880   0.820   6.732   4.548
 8327SOL    HW225881   0.713   6.848   4.591
 8328SOL     OW25882   0.754   0.099   0.576
 8328SOL    HW125883   0.681   0.031   0.564
 8328SOL    HW225884   0.839   0.052   0.601
 8329SOL     OW25885   1.870   2.981   4.790
 8329SOL    HW125886   1.944   3.020   4.735
 8329SOL    HW225887   1.829   3.052   4.847
 8330SOL     OW25888   3.941   1.185   0.200
 8330SOL    HW125889   3.956   1.230   0.112
 8330SOL    HW225890   3.849   1.147   0.203
 8331SOL     OW25891   1.884   2.275   5.942
 8331SOL    HW125892   1.861   2.227   5.857
 8331SOL    HW225893   1.961   2.337   5.926
 8332SOL     OW25894   6.318   5.458   1.266
 8332SOL    HW125895   6.336   5.360   1.257
 8332SOL    HW225896   6.228   5.472   1.309
 8333SOL     OW25897   2.142   4.152   0.236
 8333SOL    HW125898   2.170   4.171   0.142
 8333SOL    HW225899   2.153   4.055   0.255
 8334SOL     OW25900   3.847   2.214   6.348
 8334SOL    HW125901   3.787   2.268   6.407
 8334SOL    HW225902   3.792   2.165   6.281
 8335SOL     OW25903   5.256   3.942   6.354
 8335SOL    HW125904   5.229   3.851   6.387
 8335SOL    HW225905   5.179   4.005   6.362
 8336SOL     OW25906   0.772   4.087   3.676
 8336SOL    HW125907   0.809   4.179   3.689
 8336SOL    HW225908   0.722   4.060   3.758
 8337SOL     OW25909   0.940   1.083   4.372
 8337SOL    HW125910   0.843   1.082   4.347
 8337SOL    HW225911   0.994   1.116   4.294
 8338SOL     OW25912   4.177   5.590   1.504
 8338SOL    HW125913   4.198   5.533   1.583
 8338SOL    HW225914   4.223   5.678   1.512
 8339SOL     OW25915   6.133   0.352   1.490
 8339SOL    HW125916   6.038   0.360   1.520
 8339SOL    HW225917   6.140   0.380   1.394
 8340SOL     OW25918   6.249   1.988   6.560
 8340SOL    HW125919   6.309   1.978   6.640
 8340SOL    HW225920   6.287   1.934   6.484
 8341SOL     OW25921   3.642   0.676   1.063
 8341SOL    HW125922   3.634   0.583   1.098
 8341SOL    HW225923   3.696   0.731   1.126
 8342SOL     OW25924   4.558   0.426   0.299
 8342SOL    HW125925   4.634   0.368   0.327
 8342SOL    HW225926   4.480   0.411   0.360
 8343SOL     OW25927   5.329   3.661   4.210
 8343SOL    HW125928   5.385   3.735   4.173
 8343SOL    HW225929   5.262   3.632   4.142
 8344SOL     OW25930   1.320   5.132   5.284
 8344SOL    HW125931   1.403   5.090   5.248
 8344SOL    HW225932   1.324   5.132   5.384
 8345SOL     OW25933   4.655   0.826   3.619
 8345SOL    HW125934   4.644   0.748   3.680
 8345SOL    HW225935   4.676   0.793   3.527
 8346SOL     OW25936   6.072   3.935   5.304
 8346SOL    HW125937   5.993   3.886   5.341
 8346SOL    HW225938   6.065   3.940   5.205
 8347SOL     OW25939   2.273   0.455   6.759
 8347SOL    HW125940   2.204   0.471   6.830
 8347SOL    HW225941   2.244   0.499   6.674
 8348SOL     OW25942   3.255   5.902   2.037
 8348SOL    HW125943   3.223   5.873   1.946
 8348SOL    HW225944   3.242   5.827   2.102
 8349SOL     OW25945   0.159   6.784   2.400
 8349SOL    HW125946   0.104   6.757   2.479
 8349SOL    HW225947   0.101   6.834   2.335
 8350SOL     OW25948   2.119   0.328   0.471
 8350SOL    HW125949   2.053   0.396   0.441
 8350SOL    HW225950   2.212   0.366   0.463
 8351SOL     OW25951   0.065   3.338   3.378
 8351SOL    HW125952   0.083   3.317   3.474
 8351SOL    HW225953   6.991   3.338   3.361
 8352SOL     OW25954   3.046   6.082   1.748
 8352SOL    HW125955   2.994   6.117   1.826
 8352SOL    HW225956   3.012   5.991   1.723
 8353SOL     OW25957   1.341   4.844   2.263
 8353SOL    HW125958   1.368   4.747   2.262
 8353SOL    HW225959   1.291   4.864   2.347
 8354SOL     OW25960   3.693   0.583   3.107
 8354SOL    HW125961   3.699   0.483   3.107
 8354SOL    HW225962   3.758   0.620   3.174
 8355SOL     OW25963   2.529   6.606   6.457
 8355SOL    HW125964   2.607   6.595   6.517
 8355SOL    HW225965   2.500   6.516   6.423
 8356SOL     OW25966   1.978   5.587   0.843
 8356SOL    HW125967   1.988   5.611   0.939
 8356SOL    HW225968   2.068   5.581   0.800
 8357SOL     OW25969   4.719   6.306   5.680
 8357SOL    HW125970   4.813   6.274   5.682
 8357SOL    HW225971   4.718   6.406   5.691
 8358SOL     OW25972   0.818   1.169   5.115
 8358SOL    HW125973   0.799   1.253   5.064
 8358SOL    HW225974   0.810   1.187   5.213
 8359SOL     OW25975   4.058   2.373   5.579
 8359SOL    HW125976   3.972   2.414   5.549
 8359SOL    HW225977   4.133   2.406   5.522
 8360SOL     OW25978   4.399   0.830   1.388
 8360SOL    HW125979   4.405   0.818   1.289
 8360SOL    HW225980   4.447   0.755   1.434
 8361SOL     OW25981   4.102   0.972   0.280
 8361SOL    HW125982   4.072   0.905   0.212
 8361SOL    HW225983   4.124   1.058   0.234
 8362SOL     OW25984   6.705   4.404   1.480
 8362SOL    HW125985   6.620   4.353   1.470
 8362SOL    HW225986   6.774   4.367   1.419
 8363SOL     OW25987   2.831   3.285   0.187
 8363SOL    HW125988   2.913   3.283   0.130
 8363SOL    HW225989   2.754   3.321   0.134
 8364SOL     OW25990   0.192   3.353   4.274
 8364SOL    HW125991   0.271   3.310   4.231
 8364SOL    HW225992   0.219   3.390   4.363
 8365SOL     OW25993   1.258   1.989   2.302
 8365SOL    HW125994   1.346   1.999   2.254
 8365SOL    HW225995   1.207   2.075   2.296
 8366SOL     OW25996   4.922   4.862   2.362
 8366SOL    HW125997   5.006   4.817   2.333
 8366SOL    HW225998   4.873   4.895   2.281
 8367SOL     OW25999   3.604   5.083   4.225
 8367SOL    HW126000   3.688   5.137   4.220
 8367SOL    HW226001   3.526   5.144   4.234
 8368SOL     OW26002   6.363   6.423   6.774
 8368SOL    HW126003   6.412   6.510   6.785
 8368SOL    HW226004   6.362   6.375   6.861
 8369SOL     OW26005   2.548   6.700   1.372
 8369SOL    HW126006   2.563   6.768   1.300
 8369SOL    HW226007   2.621   6.632   1.370
 8370SOL     OW26008   2.557   3.641   6.689
 8370SOL    HW126009   2.563   3.699   6.771
 8370SOL    HW226010   2.463   3.609   6.678
 8371SOL     OW26011   1.748   4.586   6.030
 8371SOL    HW126012   1.680   4.542   6.089
 8371SOL    HW226013   1.831   4.532   6.028
 8372SOL     OW26014   2.583   6.042   2.640
 8372SOL    HW126015   2.599   6.106   2.715
 8372SOL    HW226016   2.525   6.086   2.571
 8373SOL     OW26017   6.798   1.211   4.228
 8373SOL    HW126018   6.760   1.255   4.147
 8373SOL    HW226019   6.731   1.215   4.303
 8374SOL     OW26020   1.154   0.490   4.100
 8374SOL    HW126021   1.091   0.474   4.176
 8374SOL    HW226022   1.183   0.402   4.063
 8375SOL     OW26023   3.226   0.733   5.021
 8375SOL    HW126024   3.282   0.673   4.964
 8375SOL    HW226025   3.283   0.772   5.094
 8376SOL     OW26026   2.118   0.484   2.762
 8376SOL    HW126027   2.124   0.404   2.822
 8376SOL    HW226028   2.199   0.542   2.776
 8377SOL     OW26029   4.769   4.972   0.228
 8377SOL    HW126030   4.726   5.062   0.236
 8377SOL    HW226031   4.793   4.938   0.318
 8378SOL     OW26032   5.447   6.420   3.909
 8378SOL    HW126033   5.460   6.472   3.825
 8378SOL    HW226034   5.475   6.326   3.895
 8379SOL     OW26035   5.937   1.300   1.187
 8379SOL    HW126036   5.886   1.261   1.264
 8379SOL    HW226037   6.031   1.265   1.188
 8380SOL     OW26038   6.587   5.687   0.415
 8380SOL    HW126039   6.624   5.654   0.502
 8380SOL    HW226040   6.496   5.726   0.429
 8381SOL     OW26041   0.449   1.831   2.374
 8381SOL    HW126042   0.542   1.795   2.381
 8381SOL    HW226043   0.396   1.774   2.312
 8382SOL     OW26044   1.988   0.682   1.255
 8382SOL    HW126045   2.054   0.650   1.187
 8382SOL    HW226046   2.011   0.775   1.283
 8383SOL     OW26047   2.993   6.641   6.490
 8383SOL    HW126048   2.924   6.691   6.437
 8383SOL    HW226049   3.041   6.705   6.550
 8384SOL     OW26050   0.509   3.130   2.406
 8384SOL    HW126051   0.586   3.067   2.418
 8384SOL    HW226052   0.426   3.088   2.443
 8385SOL     OW26053   3.885   3.387   1.626
 8385SOL    HW126054   3.883   3.477   1.669
 8385SOL    HW226055   3.820   3.327   1.674
 8386SOL     OW26056   2.594   6.131   2.215
 8386SOL    HW126057   2.584   6.209   2.278
 8386SOL    HW226058   2.680   6.085   2.232
 8387SOL     OW26059   1.601   1.384   2.467
 8387SOL    HW126060   1.502   1.384   2.452
 8387SOL    HW226061   1.622   1.347   2.557
 8388SOL     OW26062   3.938   6.470   1.456
 8388SOL    HW126063   3.898   6.405   1.520
 8388SOL    HW226064   3.942   6.430   1.365
 8389SOL     OW26065   0.494   2.301   4.149
 8389SOL    HW126066   0.415   2.354   4.176
 8389SOL    HW226067   0.464   2.216   4.105
 8390SOL     OW26068   3.501   0.719   5.826
 8390SOL    HW126069   3.542   0.809   5.838
 8390SOL    HW226070   3.523   0.684   5.735
 8391SOL     OW26071   5.402   5.799   0.958
 8391SOL    HW126072   5.481   5.742   0.934
 8391SOL    HW226073   5.401   5.880   0.900
 8392SOL     OW26074   5.311   6.277   5.873
 8392SOL    HW126075   5.331   6.367   5.833
 8392SOL    HW226076   5.274   6.289   5.965
 8393SOL     OW26077   6.880   5.997   3.006
 8393SOL    HW126078   6.848   5.983   2.913
 8393SOL    HW226079   6.980   5.992   3.008
 8394SOL     OW26080   0.807   2.059   2.849
 8394SOL    HW126081   0.848   2.082   2.937
 8394SOL    HW226082   0.826   1.964   2.826
 8395SOL     OW26083   0.243   5.888   6.017
 8395SOL    HW126084   0.310   5.962   6.018
 8395SOL    HW226085   0.282   5.806   6.060
 8396SOL     OW26086   4.624   3.214   1.557
 8396SOL    HW126087   4.612   3.115   1.544
 8396SOL    HW226088   4.584   3.240   1.645
 8397SOL     OW26089   2.395   5.884   3.327
 8397SOL    HW126090   2.396   5.980   3.297
 8397SOL    HW226091   2.322   5.835   3.279
 8398SOL     OW26092   4.951   2.284   0.823
 8398SOL    HW126093   4.901   2.313   0.742
 8398SOL    HW226094   4.947   2.184   0.831
 8399SOL     OW26095   5.731   5.882   0.422
 8399SOL    HW126096   5.668   5.823   0.372
 8399SOL    HW226097   5.748   5.965   0.369
 8400SOL     OW26098   6.332   0.736   3.359
 8400SOL    HW126099   6.428   0.750   3.383
 8400SOL    HW226100   6.319   0.754   3.261
 8401SOL     OW26101   2.875   4.110   6.640
 8401SOL    HW126102   2.797   4.050   6.620
 8401SOL    HW226103   2.897   4.163   6.558
 8402SOL     OW26104   4.230   2.093   0.117
 8402SOL    HW126105   4.312   2.036   0.111
 8402SOL    HW226106   4.220   2.146   0.033
 8403SOL     OW26107   1.859   1.554   4.467
 8403SOL    HW126108   1.943   1.503   4.480
 8403SOL    HW226109   1.780   1.495   4.484
 8404SOL     OW26110   4.294   4.965   5.553
 8404SOL    HW126111   4.236   5.034   5.596
 8404SOL    HW226112   4.376   5.008   5.516
 8405SOL     OW26113   0.605   2.534   5.150
 8405SOL    HW126114   0.595   2.620   5.100
 8405SOL    HW226115   0.696   2.496   5.134
 8406SOL     OW26116   5.598   3.380   1.614
 8406SOL    HW126117   5.642   3.300   1.572
 8406SOL    HW226118   5.519   3.407   1.558
 8407SOL     OW26119   4.843   4.079   2.625
 8407SOL    HW126120   4.902   3.998   2.626
 8407SOL    HW226121   4.838   4.115   2.532
 8408SOL     OW26122   4.889   2.168   4.935
 8408SOL    HW126123   4.896   2.261   4.899
 8408SOL    HW226124   4.873   2.104   4.860
 8409SOL     OW26125   0.424   2.251   3.895
 8409SOL    HW126126   0.460   2.315   3.963
 8409SOL    HW226127   0.342   2.290   3.853
 8410SOL     OW26128   3.953   0.058   1.505
 8410SOL    HW126129   3.995   0.086   1.591
 8410SOL    HW226130   4.003   7.005   1.466
 8411SOL     OW26131   1.745   3.262   4.115
 8411SOL    HW126132   1.799   3.334   4.072
 8411SOL    HW226133   1.791   3.232   4.199
 8412SOL     OW26134   5.948   2.020   3.939
 8412SOL    HW126135   5.913   2.007   3.846
 8412SOL    HW226136   6.044   1.991   3.942
 8413SOL     OW26137   3.377   4.929   0.666
 8413SOL    HW126138   3.313   5.000   0.696
 8413SOL    HW226139   3.398   4.943   0.569
 8414SOL     OW26140   4.072   6.332   2.917
 8414SOL    HW126141   4.145   6.400   2.927
 8414SOL    HW226142   4.028   6.344   2.828
 8415SOL     OW26143   6.922   3.985   2.718
 8415SOL    HW126144   7.016   3.981   2.684
 8415SOL    HW226145   6.894   4.081   2.725
 8416SOL     OW26146   5.462   3.987   2.684
 8416SOL    HW126147   5.427   3.990   2.590
 8416SOL    HW226148   5.475   3.892   2.711
 8417SOL     OW26149   2.474   6.057   6.090
 8417SOL    HW126150   2.376   6.052   6.111
 8417SOL    HW226151   2.525   6.065   6.176
 8418SOL     OW26152   6.470   5.382   2.541
 8418SOL    HW126153   6.398   5.389   2.610
 8418SOL    HW226154   6.486   5.285   2.518
 8419SOL     OW26155   4.569   0.363   3.675
 8419SOL    HW126156   4.625   0.437   3.714
 8419SOL    HW226157   4.572   0.284   3.735
 8420SOL     OW26158   4.204   1.180   6.507
 8420SOL    HW126159   4.196   1.101   6.568
 8420SOL    HW226160   4.301   1.195   6.486
 8421SOL     OW26161   2.466   6.781   2.001
 8421SOL    HW126162   2.557   6.750   1.977
 8421SOL    HW226163   2.405   6.703   2.011
 8422SOL     OW26164   4.049   6.458   1.030
 8422SOL    HW126165   4.132   6.512   1.013
 8422SOL    HW226166   3.969   6.518   1.026
 8423SOL     OW26167   3.323   4.141   1.241
 8423SOL    HW126168   3.317   4.068   1.310
 8423SOL    HW226169   3.295   4.105   1.152
 8424SOL     OW26170   3.541   1.647   2.554
 8424SOL    HW126171   3.480   1.651   2.634
 8424SOL    HW226172   3.516   1.719   2.490
 8425SOL     OW26173   6.125   4.450   0.177
 8425SOL    HW126174   6.068   4.496   0.244
 8425SOL    HW226175   6.068   4.411   0.105
 8426SOL     OW26176   3.952   3.300   3.057
 8426SOL    HW126177   3.870   3.323   3.110
 8426SOL    HW226178   4.015   3.377   3.057
 8427SOL     OW26179   2.271   3.681   6.401
 8427SOL    HW126180   2.229   3.655   6.314
 8427SOL    HW226181   2.371   3.683   6.391
 8428SOL     OW26182   6.255   4.135   2.225
 8428SOL    HW126183   6.251   4.037   2.246
 8428SOL    HW226184   6.162   4.171   2.221
 8429SOL     OW26185   2.266   6.666   2.620
 8429SOL    HW126186   2.344   6.641   2.563
 8429SOL    HW226187   2.185   6.616   2.591
 8430SOL     OW26188   4.623   4.727   3.350
 8430SOL    HW126189   4.685   4.691   3.420
 8430SOL    HW226190   4.615   4.660   3.275
 8431SOL     OW26191   3.745   4.408   1.185
 8431SOL    HW126192   3.645   4.397   1.186
 8431SOL    HW226193   3.777   4.404   1.090
 8432SOL     OW26194   4.102   6.856   0.271
 8432SOL    HW126195   4.123   6.763   0.244
 8432SOL    HW226196   4.173   6.918   0.237
 8433SOL     OW26197   1.173   2.003   6.026
 8433SOL    HW126198   1.089   2.050   6.053
 8433SOL    HW226199   1.235   2.069   5.984
 8434SOL     OW26200   5.313   0.116   5.340
 8434SOL    HW126201   5.332   0.064   5.256
 8434SOL    HW226202   5.331   0.058   5.419
 8435SOL     OW26203   4.481   1.651   1.256
 8435SOL    HW126204   4.457   1.746   1.236
 8435SOL    HW226205   4.538   1.615   1.182
 8436SOL     OW26206   4.064   4.419   1.655
 8436SOL    HW126207   4.157   4.438   1.685
 8436SOL    HW226208   4.042   4.474   1.575
 8437SOL     OW26209   0.328   1.130   1.188
 8437SOL    HW126210   0.367   1.038   1.196
 8437SOL    HW226211   0.401   1.198   1.191
 8438SOL     OW26212   1.419   6.831   1.786
 8438SOL    HW126213   1.324   6.804   1.797
 8438SOL    HW226214   1.434   6.921   1.827
 8439SOL     OW26215   0.270   5.835   2.651
 8439SOL    HW126216   0.208   5.890   2.595
 8439SOL    HW226217   0.296   5.752   2.600
 8440SOL     OW26218   0.328   1.053   2.607
 8440SOL    HW126219   0.414   1.015   2.574
 8440SOL    HW226220   0.316   1.029   2.704
 8441SOL     OW26221   5.072   5.663   6.423
 8441SOL    HW126222   5.007   5.594   6.456
 8441SOL    HW226223   5.028   5.719   6.353
 8442SOL     OW26224   2.117   4.833   0.030
 8442SOL    HW126225   2.114   4.930   0.008
 8442SOL    HW226226   2.202   4.811   0.078
 8443SOL     OW26227   1.938   0.686   2.717
 8443SOL    HW126228   1.940   0.744   2.798
 8443SOL    HW226229   2.001   0.609   2.729
 8444SOL     OW26230   3.470   6.132   3.372
 8444SOL    HW126231   3.466   6.176   3.462
 8444SOL    HW226232   3.387   6.153   3.320
 8445SOL     OW26233   4.031   4.837   2.205
 8445SOL    HW126234   4.034   4.830   2.305
 8445SOL    HW226235   3.936   4.826   2.175
 8446SOL     OW26236   5.835   4.561   2.484
 8446SOL    HW126237   5.888   4.476   2.489
 8446SOL    HW226238   5.880   4.631   2.540
 8447SOL     OW26239   4.539   2.446   2.007
 8447SOL    HW126240   4.469   2.396   1.956
 8447SOL    HW226241   4.586   2.510   1.945
 8448SOL     OW26242   0.945   3.199   6.577
 8448SOL    HW126243   1.042   3.199   6.556
 8448SOL    HW226244   0.928   3.149   6.662
 8449SOL     OW26245   1.615   2.891   4.724
 8449SOL    HW126246   1.604   2.833   4.643
 8449SOL    HW226247   1.710   2.920   4.732
 8450SOL     OW26248   2.354   5.076   2.299
 8450SOL    HW126249   2.276   5.115   2.347
 8450SOL    HW226250   2.361   4.978   2.318
 8451SOL     OW26251   3.400   2.817   0.891
 8451SOL    HW126252   3.366   2.787   0.802
 8451SOL    HW226253   3.498   2.797   0.897
 8452SOL     OW26254   6.615   6.115   0.434
 8452SOL    HW126255   6.651   6.108   0.527
 8452SOL    HW226256   6.591   6.211   0.415
 8453SOL     OW26257   6.487   4.186   6.377
 8453SOL    HW126258   6.457   4.232   6.293
 8453SOL    HW226259   6.461   4.242   6.456
 8454SOL     OW26260   1.499   0.283   4.211
 8454SOL    HW126261   1.423   0.305   4.272
 8454SOL    HW226262   1.582   0.267   4.265
 8455SOL     OW26263   4.984   1.219   1.331
 8455SOL    HW126264   4.969   1.204   1.234
 8455SOL    HW226265   5.030   1.307   1.345
 8456SOL     OW26266   5.536   5.906   2.941
 8456SOL    HW126267   5.477   5.949   3.010
 8456SOL    HW226268   5.480   5.849   2.880
 8457SOL     OW26269   0.122   5.921   6.333
 8457SOL    HW126270   0.144   5.978   6.253
 8457SOL    HW226271   0.205   5.901   6.384
 8458SOL     OW26272   1.265   1.562   0.715
 8458SOL    HW126273   1.336   1.500   0.681
 8458SOL    HW226274   1.275   1.651   0.671
 8459SOL     OW26275   3.208   5.669   2.194
 8459SOL    HW126276   3.159   5.587   2.223
 8459SOL    HW226277   3.282   5.643   2.132
 8460SOL     OW26278   4.442   1.503   0.864
 8460SOL    HW126279   4.406   1.584   0.818
 8460SOL    HW226280   4.367   1.443   0.890
 8461SOL     OW26281   6.387   4.155   1.733
 8461SOL    HW126282   6.464   4.143   1.671
 8461SOL    HW226283   6.334   4.070   1.736
 8462SOL     OW26284   2.934   5.065   6.818
 8462SOL    HW126285   3.019   5.084   6.867
 8462SOL    HW226286   2.880   4.998   6.869
 8463SOL     OW26287   6.495   1.293   6.992
 8463SOL    HW126288   6.506   1.334   0.059
 8463SOL    HW226289   6.470   1.197   7.002
 8464SOL     OW26290   0.140   3.499   0.214
 8464SOL    HW126291   0.181   3.511   0.124
 8464SOL    HW226292   0.197   3.542   0.284
 8465SOL     OW26293   4.006   3.224   1.171
 8465SOL    HW126294   4.003   3.294   1.242
 8465SOL    HW226295   3.960   3.141   1.203
 8466SOL     OW26296   6.055   0.820   5.884
 8466SOL    HW126297   6.050   0.723   5.859
 8466SOL    HW226298   5.998   0.837   5.964
 8467SOL     OW26299   3.577   1.015   1.071
 8467SOL    HW126300   3.643   1.041   1.000
 8467SOL    HW226301   3.606   0.929   1.114
 8468SOL     OW26302   6.176   3.164   0.644
 8468SOL    HW126303   6.088   3.198   0.677
 8468SOL    HW226304   6.241   3.240   0.637
 8469SOL     OW26305   4.124   3.053   5.929
 8469SOL    HW126306   4.145   3.103   6.013
 8469SOL    HW226307   4.068   3.111   5.870
 8470SOL     OW26308   1.617   5.248   1.588
 8470SOL    HW126309   1.639   5.203   1.501
 8470SOL    HW226310   1.526   5.220   1.618
 8471SOL     OW26311   3.661   2.073   5.109
 8471SOL    HW126312   3.594   2.121   5.166
 8471SOL    HW226313   3.627   1.981   5.088
 8472SOL     OW26314   5.929   1.393   6.009
 8472SOL    HW126315   6.025   1.373   5.991
 8472SOL    HW226316   5.921   1.479   6.059
 8473SOL     OW26317   4.710   4.788   6.345
 8473SOL    HW126318   4.637   4.780   6.413
 8473SOL    HW226319   4.704   4.713   6.280
 8474SOL     OW26320   3.761   3.697   2.673
 8474SOL    HW126321   3.787   3.625   2.738
 8474SOL    HW226322   3.809   3.782   2.696
 8475SOL     OW26323   6.748   2.911   2.115
 8475SOL    HW126324   6.733   2.816   2.144
 8475SOL    HW226325   6.662   2.950   2.082
 8476SOL     OW26326   6.134   6.887   1.987
 8476SOL    HW126327   6.087   6.883   1.899
 8476SOL    HW226328   6.174   6.978   2.000
 8477SOL     OW26329   6.149   6.422   1.577
 8477SOL    HW126330   6.114   6.473   1.498
 8477SOL    HW226331   6.072   6.400   1.638
 8478SOL     OW26332   6.420   0.052   5.305
 8478SOL    HW126333   6.356   6.999   5.311
 8478SOL    HW226334   6.514   0.016   5.307
 8479SOL     OW26335   0.573   2.770   1.527
 8479SOL    HW126336   0.597   2.835   1.600
 8479SOL    HW226337   0.632   2.786   1.447
 8480SOL     OW26338   4.898   4.339   0.470
 8480SOL    HW126339   4.977   4.389   0.434
 8480SOL    HW226340   4.910   4.323   0.568
 8481SOL     OW26341   4.058   2.108   3.663
 8481SOL    HW126342   4.096   2.196   3.689
 8481SOL    HW226343   4.116   2.065   3.594
 8482SOL     OW26344   4.402   1.045   0.566
 8482SOL    HW126345   4.489   1.015   0.604
 8482SOL    HW226346   4.412   1.057   0.467
 8483SOL     OW26347   3.068   5.180   3.612
 8483SOL    HW126348   3.023   5.237   3.543
 8483SOL    HW226349   3.049   5.217   3.703
 8484SOL     OW26350   5.667   5.825   3.997
 8484SOL    HW126351   5.623   5.803   3.910
 8484SOL    HW226352   5.682   5.741   4.049
 8485SOL     OW26353   2.704   2.790   0.335
 8485SOL    HW126354   2.654   2.863   0.382
 8485SOL    HW226355   2.750   2.828   0.254
 8486SOL     OW26356   0.934   1.207   2.590
 8486SOL    HW126357   0.854   1.196   2.649
 8486SOL    HW226358   0.905   1.212   2.494
 8487SOL     OW26359   6.237   1.716   5.913
 8487SOL    HW126360   6.222   1.621   5.942
 8487SOL    HW226361   6.307   1.719   5.843
 8488SOL     OW26362   5.083   4.497   1.601
 8488SOL    HW126363   5.030   4.546   1.671
 8488SOL    HW226364   5.057   4.531   1.510
 8489SOL     OW26365   4.867   1.241   1.663
 8489SOL    HW126366   4.827   1.317   1.714
 8489SOL    HW226367   4.936   1.276   1.600
 8490SOL     OW26368   2.151   0.273   0.063
 8490SOL    HW126369   2.136   0.359   0.014
 8490SOL    HW226370   2.238   0.277   0.111
 8491SOL     OW26371   3.233   5.475   2.455
 8491SOL    HW126372   3.234   5.575   2.450
 8491SOL    HW226373   3.153   5.445   2.506
 8492SOL     OW26374   6.531   5.738   4.372
 8492SOL    HW126375   6.608   5.802   4.375
 8492SOL    HW226376   6.456   5.779   4.320
 8493SOL     OW26377   3.929   0.587   7.023
 8493SOL    HW126378   3.880   0.510   6.981
 8493SOL    HW226379   4.027   0.575   7.010
 8494SOL     OW26380   6.461   5.239   2.274
 8494SOL    HW126381   6.372   5.271   2.243
 8494SOL    HW226382   6.451   5.191   2.361
 8495SOL     OW26383   6.564   5.521   0.165
 8495SOL    HW126384   6.605   5.574   0.239
 8495SOL    HW226385   6.501   5.579   0.113
 8496SOL     OW26386   5.164   2.526   2.542
 8496SOL    HW126387   5.089   2.469   2.577
 8496SOL    HW226388   5.176   2.509   2.445
 8497SOL     OW26389   6.115   0.980   4.006
 8497SOL    HW126390   6.119   0.883   3.985
 8497SOL    HW226391   6.022   1.013   3.995
 8498SOL     OW26392   4.992   0.656   4.378
 8498SOL    HW126393   4.989   0.556   4.387
 8498SOL    HW226394   4.955   0.698   4.460
 8499SOL     OW26395   6.456   6.738   6.129
 8499SOL    HW126396   6.499   6.682   6.200
 8499SOL    HW226397   6.360   6.753   6.153
 8500SOL     OW26398   1.521   0.786   4.728
 8500SOL    HW126399   1.469   0.757   4.808
 8500SOL    HW226400   1.614   0.811   4.756
 8501SOL     OW26401   1.011   2.253   6.095
 8501SOL    HW126402   0.932   2.215   6.142
 8501SOL    HW226403   0.981   2.304   6.014
 8502SOL     OW26404   0.630   2.868   6.965
 8502SOL    HW126405   0.624   2.950   6.907
 8502SOL    HW226406   0.726   2.843   6.977
 8503SOL     OW26407   5.599   0.374   4.160
 8503SOL    HW126408   5.662   0.328   4.223
 8503SOL    HW226409   5.593   0.321   4.075
 8504SOL     OW26410   1.830   5.745   2.257
 8504SOL    HW126411   1.778   5.817   2.304
 8504SOL    HW226412   1.919   5.782   2.228
 8505SOL     OW26413   5.443   3.083   2.658
 8505SOL    HW126414   5.483   3.153   2.717
 8505SOL    HW226415   5.501   3.070   2.577
 8506SOL     OW26416   1.925   0.123   0.102
 8506SOL    HW126417   2.025   0.131   0.104
 8506SOL    HW226418   1.894   0.082   0.188
 8507SOL     OW26419   4.503   6.273   5.993
 8507SOL    HW126420   4.593   6.317   5.994
 8507SOL    HW226421   4.440   6.325   6.049
 8508SOL     OW26422   3.462   1.870   0.065
 8508SOL    HW126423   3.377   1.834   0.025
 8508SOL    HW226424   3.442   1.957   0.110
 8509SOL     OW26425   5.518   0.900   3.789
 8509SOL    HW126426   5.547   0.931   3.880
 8509SOL    HW226427   5.421   0.922   3.776
 8510SOL     OW26428   6.696   2.290   4.611
 8510SOL    HW126429   6.712   2.196   4.579
 8510SOL    HW226430   6.626   2.333   4.554
 8511SOL     OW26431   5.759   2.876   1.944
 8511SOL    HW126432   5.799   2.919   1.862
 8511SOL    HW226433   5.758   2.777   1.932
 8512SOL     OW26434   1.878   7.016   4.783
 8512SOL    HW126435   1.808   7.002   4.854
 8512SOL    HW226436   1.923   6.929   4.764
 8513SOL     OW26437   5.339   5.718   6.345
 8513SOL    HW126438   5.241   5.701   6.334
 8513SOL    HW226439   5.387   5.631   6.357
 8514SOL     OW26440   2.283   5.757   3.754
 8514SOL    HW126441   2.377   5.784   3.729
 8514SOL    HW226442   2.263   5.790   3.846
 8515SOL     OW26443   4.901   2.047   1.274
 8515SOL    HW126444   4.880   2.032   1.370
 8515SOL    HW226445   4.844   2.121   1.238
 8516SOL     OW26446   0.031   1.929   2.209
 8516SOL    HW126447   0.115   1.975   2.179
 8516SOL    HW226448   6.977   1.964   2.156
 8517SOL     OW26449   2.334   2.659   6.700
 8517SOL    HW126450   2.391   2.576   6.695
 8517SOL    HW226451   2.390   2.739   6.678
 8518SOL     OW26452   3.909   5.658   0.378
 8518SOL    HW126453   3.923   5.728   0.308
 8518SOL    HW226454   3.867   5.577   0.336
 8519SOL     OW26455   1.200   5.294   2.786
 8519SOL    HW126456   1.289   5.337   2.770
 8519SOL    HW226457   1.166   5.322   2.876
 8520SOL     OW26458   3.537   0.869   0.371
 8520SOL    HW126459   3.565   0.870   0.467
 8520SOL    HW226460   3.592   0.803   0.321
 8521SOL     OW26461   1.193   6.149   6.253
 8521SOL    HW126462   1.197   6.110   6.161
 8521SOL    HW226463   1.133   6.093   6.310
 8522SOL     OW26464   1.562   5.715   4.947
 8522SOL    HW126465   1.659   5.692   4.938
 8522SOL    HW226466   1.550   5.778   5.025
 8523SOL     OW26467   1.475   0.056   6.679
 8523SOL    HW126468   1.513   7.000   6.634
 8523SOL    HW226469   1.549   0.116   6.710
 8524SOL     OW26470   1.090   2.832   6.238
 8524SOL    HW126471   1.159   2.866   6.301
 8524SOL    HW226472   1.079   2.896   6.163
 8525SOL     OW26473   5.838   3.138   2.663
 8525SOL    HW126474   5.815   3.221   2.714
 8525SOL    HW226475   5.936   3.121   2.670
 8526SOL     OW26476   1.821   3.001   2.439
 8526SOL    HW126477   1.908   3.045   2.461
 8526SOL    HW226478   1.805   3.007   2.340
 8527SOL     OW26479   4.402   0.887   4.486
 8527SOL    HW126480   4.488   0.867   4.441
 8527SOL    HW226481   4.329   0.895   4.417
 8528SOL     OW26482   4.647   2.408   6.655
 8528SOL    HW126483   4.675   2.500   6.682
 8528SOL    HW226484   4.728   2.353   6.634
 8529SOL     OW26485   0.111   4.945   0.088
 8529SOL    HW126486   0.160   4.943   0.176
 8529SOL    HW226487   0.173   4.917   0.015
 8530SOL     OW26488   1.561   3.625   5.560
 8530SOL    HW126489   1.559   3.713   5.514
 8530SOL    HW226490   1.569   3.552   5.492
 8531SOL     OW26491   4.507   4.845   2.880
 8531SOL    HW126492   4.499   4.945   2.888
 8531SOL    HW226493   4.521   4.821   2.784
 8532SOL     OW26494   1.975   3.938   5.980
 8532SOL    HW126495   2.073   3.922   5.967
 8532SOL    HW226496   1.929   3.850   5.996
 8533SOL     OW26497   3.480   0.299   5.401
 8533SOL    HW126498   3.542   0.375   5.384
 8533SOL    HW226499   3.391   0.335   5.430
 8534SOL     OW26500   1.460   2.723   3.071
 8534SOL    HW126501   1.554   2.698   3.095
 8534SOL    HW226502   1.407   2.738   3.155
 8535SOL     OW26503   0.105   2.280   4.353
 8535SOL    HW126504   0.081   2.184   4.338
 8535SOL    HW226505   0.053   2.316   4.430
 8536SOL     OW26506   0.233   1.824   5.808
 8536SOL    HW126507   0.235   1.904   5.868
 8536SOL    HW226508   0.326   1.787   5.800
 8537SOL     OW26509   5.480   0.526   2.026
 8537SOL    HW126510   5.502   0.479   1.941
 8537SOL    HW226511   5.381   0.535   2.035
 8538SOL     OW26512   5.884   1.208   4.739
 8538SOL    HW126513   5.927   1.247   4.658
 8538SOL    HW226514   5.785   1.204   4.725
 8539SOL     OW26515   6.918   3.489   2.506
 8539SOL    HW126516   6.924   3.538   2.593
 8539SOL    HW226517   6.859   3.540   2.443
 8540SOL     OW26518   4.691   0.498   6.956
 8540SOL    HW126519   4.759   0.562   6.990
 8540SOL    HW226520   4.601   0.523   6.993
 8541SOL     OW26521   3.411   0.074   5.235
 8541SOL    HW126522   3.339   0.099   5.169
 8541SOL    HW226523   3.443   0.156   5.281
 8542SOL     OW26524   1.201   4.762   6.649
 8542SOL    HW126525   1.294   4.727   6.663
 8542SOL    HW226526   1.198   4.817   6.566
 8543SOL     OW26527   2.316   1.937   6.397
 8543SOL    HW126528   2.220   1.934   6.425
 8543SOL    HW226529   2.356   1.847   6.406
 8544SOL     OW26530   5.731   4.380   5.689
 8544SOL    HW126531   5.632   4.378   5.705
 8544SOL    HW226532   5.756   4.467   5.647
 8545SOL     OW26533   2.950   0.475   6.592
 8545SOL    HW126534   3.037   0.505   6.630
 8545SOL    HW226535   2.961   0.384   6.550
 8546SOL     OW26536   5.340   6.906   1.141
 8546SOL    HW126537   5.409   6.974   1.117
 8546SOL    HW226538   5.253   6.931   1.100
 8547SOL     OW26539   6.290   5.986   5.350
 8547SOL    HW126540   6.241   5.908   5.389
 8547SOL    HW226541   6.244   6.071   5.376
 8548SOL     OW26542   0.337   2.987   5.811
 8548SOL    HW126543   0.340   3.079   5.772
 8548SOL    HW226544   0.243   2.967   5.841
 8549SOL     OW26545   1.835   0.206   3.655
 8549SOL    HW126546   1.886   0.200   3.740
 8549SOL    HW226547   1.895   0.181   3.578
 8550SOL     OW26548   6.822   4.064   6.094
 8550SOL    HW126549   6.795   4.034   6.186
 8550SOL    HW226550   6.897   4.006   6.062
 8551SOL     OW26551   1.915   1.448   6.377
 8551SOL    HW126552   1.885   1.464   6.471
 8551SOL    HW226553   1.870   1.367   6.340
 8552SOL     OW26554   2.898   1.800   3.321
 8552SOL    HW126555   2.977   1.855   3.294
 8552SOL    HW226556   2.929   1.716   3.363
 8553SOL     OW26557   4.850   3.456   6.966
 8553SOL    HW126558   4.809   3.374   6.928
 8553SOL    HW226559   4.949   3.455   6.951
 8554SOL     OW26560   1.689   1.109   1.006
 8554SOL    HW126561   1.657   1.159   1.086
 8554SOL    HW226562   1.685   1.168   0.926
 8555SOL     OW26563   4.361   1.572   4.010
 8555SOL    HW126564   4.273   1.538   4.045
 8555SOL    HW226565   4.398   1.640   4.073
 8556SOL     OW26566   2.120   6.228   0.360
 8556SOL    HW126567   2.187   6.302   0.370
 8556SOL    HW226568   2.160   6.155   0.303
 8557SOL     OW26569   0.295   0.511   6.990
 8557SOL    HW126570   0.259   0.559   0.046
 8557SOL    HW226571   0.390   0.485   7.007
 8558SOL     OW26572   3.234   5.776   4.528
 8558SOL    HW126573   3.167   5.836   4.485
 8558SOL    HW226574   3.252   5.808   4.621
 8559SOL     OW26575   1.414   4.918   2.628
 8559SOL    HW126576   1.474   4.841   2.606
 8559SOL    HW226577   1.324   4.903   2.587
 8560SOL     OW26578   3.208   4.488   1.498
 8560SOL    HW126579   3.236   4.396   1.526
 8560SOL    HW226580   3.136   4.520   1.559
 8561SOL     OW26581   4.733   0.738   2.304
 8561SOL    HW126582   4.739   0.834   2.330
 8561SOL    HW226583   4.755   0.680   2.382
 8562SOL     OW26584   5.095   1.552   6.644
 8562SOL    HW126585   5.001   1.549   6.679
 8562SOL    HW226586   5.140   1.465   6.663
 8563SOL     OW26587   2.579   5.081   1.917
 8563SOL    HW126588   2.649   5.114   1.981
 8563SOL    HW226589   2.522   5.012   1.963
 8564SOL     OW26590   4.189   0.478   7.019
 8564SOL    HW126591   4.162   0.472   6.923
 8564SOL    HW226592   4.284   0.509   0.001
 8565SOL     OW26593   2.327   4.671   0.868
 8565SOL    HW126594   2.231   4.694   0.880
 8565SOL    HW226595   2.375   4.683   0.955
 8566SOL     OW26596   3.473   1.371   2.484
 8566SOL    HW126597   3.518   1.421   2.409
 8566SOL    HW226598   3.434   1.437   2.548
 8567SOL     OW26599   2.168   2.928   2.206
 8567SOL    HW126600   2.224   2.854   2.169
 8567SOL    HW226601   2.087   2.890   2.250
 8568SOL     OW26602   6.158   0.238   6.492
 8568SOL    HW126603   6.116   0.199   6.574
 8568SOL    HW226604   6.214   0.317   6.518
 8569SOL     OW26605   4.620   2.094   6.247
 8569SOL    HW126606   4.590   2.070   6.154
 8569SOL    HW226607   4.720   2.095   6.250
 8570SOL     OW26608   1.618   2.361   3.224
 8570SOL    HW126609   1.531   2.384   3.180
 8570SOL    HW226610   1.674   2.443   3.232
 8571SOL     OW26611   1.256   0.880   2.721
 8571SOL    HW126612   1.170   0.835   2.699
 8571SOL    HW226613   1.332   0.820   2.696
 8572SOL     OW26614   2.815   4.578   5.549
 8572SOL    HW126615   2.868   4.529   5.480
 8572SOL    HW226616   2.842   4.546   5.640
 8573SOL     OW26617   4.254   6.291   0.309
 8573SOL    HW126618   4.253   6.206   0.362
 8573SOL    HW226619   4.174   6.292   0.248
 8574SOL     OW26620   5.318   0.970   4.910
 8574SOL    HW126621   5.269   0.914   4.843
 8574SOL    HW226622   5.410   0.989   4.877
 8575SOL     OW26623   3.204   6.033   3.530
 8575SOL    HW126624   3.176   5.990   3.444
 8575SOL    HW226625   3.151   6.116   3.545
 8576SOL     OW26626   1.348   4.746   3.372
 8576SOL    HW126627   1.308   4.779   3.287
 8576SOL    HW226628   1.327   4.649   3.383
 8577SOL     OW26629   1.512   1.711   0.831
 8577SOL    HW126630   1.495   1.613   0.837
 8577SOL    HW226631   1.597   1.727   0.782
 8578SOL     OW26632   6.857   6.610   6.097
 8578SOL    HW126633   6.947   6.567   6.091
 8578SOL    HW226634   6.793   6.547   6.141
 8579SOL     OW26635   3.221   6.160   2.723
 8579SOL    HW126636   3.267   6.218   2.791
 8579SOL    HW226637   3.243   6.064   2.741
 8580SOL     OW26638   2.448   0.514   1.110
 8580SOL    HW126639   2.489   0.427   1.136
 8580SOL    HW226640   2.457   0.579   1.186
 8581SOL     OW26641   3.265   5.062   1.625
 8581SOL    HW126642   3.343   5.108   1.668
 8581SOL    HW226643   3.257   5.092   1.530
 8582SOL     OW26644   3.823   4.741   5.982
 8582SOL    HW126645   3.779   4.752   5.893
 8582SOL    HW226646   3.768   4.786   6.052
 8583SOL     OW26647   4.641   0.572   2.870
 8583SOL    HW126648   4.568   0.608   2.811
 8583SOL    HW226649   4.601   0.515   2.941
 8584SOL     OW26650   6.536   1.619   4.731
 8584SOL    HW126651   6.560   1.708   4.770
 8584SOL    HW226652   6.437   1.616   4.714
 8585SOL     OW26653   4.993   2.285   2.320
 8585SOL    HW126654   5.080   2.306   2.276
 8585SOL    HW226655   4.933   2.238   2.256
 8586SOL     OW26656   6.415   5.994   0.308
 8586SOL    HW126657   6.503   6.033   0.337
 8586SOL    HW226658   6.347   6.007   0.380
 8587SOL     OW26659   1.028   1.845   6.877
 8587SOL    HW126660   1.077   1.924   6.841
 8587SOL    HW226661   1.038   1.768   6.815
 8588SOL     OW26662   2.208   1.600   6.853
 8588SOL    HW126663   2.238   1.662   6.780
 8588SOL    HW226664   2.285   1.545   6.884
 8589SOL     OW26665   6.510   2.344   6.807
 8589SOL    HW126666   6.459   2.423   6.772
 8589SOL    HW226667   6.609   2.364   6.803
 8590SOL     OW26668   1.296   1.241   3.892
 8590SOL    HW126669   1.255   1.308   3.953
 8590SOL    HW226670   1.308   1.154   3.940
 8591SOL     OW26671   6.368   4.048   6.652
 8591SOL    HW126672   6.344   3.954   6.679
 8591SOL    HW226673   6.289   4.092   6.610
 8592SOL     OW26674   1.032   1.809   5.704
 8592SOL    HW126675   1.051   1.799   5.802
 8592SOL    HW226676   1.081   1.738   5.653
 8593SOL     OW26677   4.174   1.389   0.310
 8593SOL    HW126678   4.108   1.337   0.365
 8593SOL    HW226679   4.184   1.345   0.221
 8594SOL     OW26680   6.436   3.131   5.497
 8594SOL    HW126681   6.439   3.045   5.548
 8594SOL    HW226682   6.449   3.113   5.400
 8595SOL     OW26683   6.137   6.692   2.377
 8595SOL    HW126684   6.107   6.639   2.457
 8595SOL    HW226685   6.234   6.714   2.387
 8596SOL     OW26686   0.930   1.633   3.974
 8596SOL    HW126687   0.977   1.632   3.886
 8596SOL    HW226688   0.922   1.540   4.009
 8597SOL     OW26689   5.630   3.399   6.879
 8597SOL    HW126690   5.559   3.465   6.855
 8597SOL    HW226691   5.587   3.312   6.904
 8598SOL     OW26692   5.951   6.783   4.077
 8598SOL    HW126693   5.870   6.811   4.129
 8598SOL    HW226694   6.003   6.864   4.049
 8599SOL     OW26695   0.547   3.420   3.985
 8599SOL    HW126696   0.527   3.480   3.908
 8599SOL    HW226697   0.596   3.339   3.953
 8600SOL     OW26698   4.271   2.278   1.175
 8600SOL    HW126699   4.346   2.222   1.140
 8600SOL    HW226700   4.281   2.372   1.142
 8601SOL     OW26701   0.915   6.539   3.049
 8601SOL    HW126702   0.911   6.632   3.013
 8601SOL    HW226703   1.009   6.505   3.042
 8602SOL     OW26704   2.713   6.638   5.307
 8602SOL    HW126705   2.629   6.589   5.329
 8602SOL    HW226706   2.709   6.669   5.212
 8603SOL     OW26707   0.259   0.289   0.185
 8603SOL    HW126708   0.340   0.238   0.216
 8603SOL    HW226709   0.253   0.284   0.086
 8604SOL     OW26710   0.220   4.603   5.885
 8604SOL    HW126711   0.185   4.657   5.808
 8604SOL    HW226712   0.273   4.662   5.946
 8605SOL     OW26713   6.965   5.595   4.410
 8605SOL    HW126714   0.000   5.536   4.464
 8605SOL    HW226715   6.960   5.686   4.452
 8606SOL     OW26716   1.600   2.536   0.403
 8606SOL    HW126717   1.590   2.476   0.324
 8606SOL    HW226718   1.690   2.581   0.400
 8607SOL     OW26719   2.516   4.231   1.347
 8607SOL    HW126720   2.542   4.191   1.259
 8607SOL    HW226721   2.575   4.194   1.419
 8608SOL     OW26722   2.182   5.231   2.879
 8608SOL    HW126723   2.252   5.174   2.922
 8608SOL    HW226724   2.101   5.175   2.861
 8609SOL     OW26725   4.772   1.247   4.301
 8609SOL    HW126726   4.674   1.253   4.321
 8609SOL    HW226727   4.820   1.321   4.348
 8610SOL     OW26728   0.321   6.080   3.211
 8610SOL    HW126729   0.415   6.114   3.202
 8610SOL    HW226730   0.321   5.981   3.201
 8611SOL     OW26731   3.246   1.588   5.087
 8611SOL    HW126732   3.280   1.495   5.071
 8611SOL    HW226733   3.159   1.600   5.039
 8612SOL     OW26734   3.868   4.017   4.009
 8612SOL    HW126735   3.898   4.079   3.937
 8612SOL    HW226736   3.826   4.071   4.083
 8613SOL     OW26737   4.024   3.056   1.569
 8613SOL    HW126738   3.936   3.087   1.605
 8613SOL    HW226739   4.088   3.043   1.645
 8614SOL     OW26740   1.490   2.043   2.818
 8614SOL    HW126741   1.516   1.951   2.847
 8614SOL    HW226742   1.466   2.042   2.721
 8615SOL     OW26743   4.185   1.446   4.623
 8615SOL    HW126744   4.232   1.385   4.559
 8615SOL    HW226745   4.103   1.483   4.581
 8616SOL     OW26746   4.736   4.162   2.855
 8616SOL    HW126747   4.765   4.138   2.763
 8616SOL    HW226748   4.663   4.231   2.850
 8617SOL     OW26749   3.175   0.312   3.898
 8617SOL    HW126750   3.163   0.333   3.800
 8617SOL    HW226751   3.229   0.229   3.908
 8618SOL     OW26752   5.742   4.777   0.628
 8618SOL    HW126753   5.763   4.683   0.652
 8618SOL    HW226754   5.826   4.831   0.625
 8619SOL     OW26755   5.034   4.930   0.723
 8619SOL    HW126756   5.129   4.918   0.754
 8619SOL    HW226757   4.982   4.847   0.744
 8620SOL     OW26758   1.835   0.405   4.933
 8620SOL    HW126759   1.919   0.428   4.983
 8620SOL    HW226760   1.771   0.481   4.939
 8621SOL     OW26761   5.665   2.830   1.543
 8621SOL    HW126762   5.738   2.851   1.477
 8621SOL    HW226763   5.703   2.779   1.620
 8622SOL     OW26764   6.592   5.076   2.731
 8622SOL    HW126765   6.572   5.063   2.828
 8622SOL    HW226766   6.647   5.158   2.719
 8623SOL     OW26767   0.636   3.671   4.088
 8623SOL    HW126768   0.589   3.584   4.076
 8623SOL    HW226769   0.697   3.687   4.010
 8624SOL     OW26770   2.940   4.031   5.014
 8624SOL    HW126771   2.964   3.997   4.923
 8624SOL    HW226772   2.861   4.091   5.007
 8625SOL     OW26773   4.311   2.682   5.622
 8625SOL    HW126774   4.389   2.727   5.577
 8625SOL    HW226775   4.290   2.729   5.707
 8626SOL     OW26776   4.077   4.287   0.794
 8626SOL    HW126777   4.130   4.202   0.780
 8626SOL    HW226778   4.044   4.319   0.705
 8627SOL     OW26779   1.720   0.649   2.057
 8627SOL    HW126780   1.741   0.561   2.099
 8627SOL    HW226781   1.621   0.663   2.059
 8628SOL     OW26782   0.784   6.157   0.849
 8628SOL    HW126783   0.841   6.157   0.767
 8628SOL    HW226784   0.796   6.071   0.898
 8629SOL     OW26785   6.509   6.660   5.450
 8629SOL    HW126786   6.506   6.661   5.350
 8629SOL    HW226787   6.603   6.649   5.481
 8630SOL     OW26788   5.297   3.307   2.502
 8630SOL    HW126789   5.197   3.308   2.502
 8630SOL    HW226790   5.328   3.237   2.566
 8631SOL     OW26791   2.578   6.908   0.342
 8631SOL    HW126792   2.659   6.915   0.399
 8631SOL    HW226793   2.606   6.891   0.247
 8632SOL     OW26794   5.296   4.674   5.445
 8632SOL    HW126795   5.267   4.769   5.452
 8632SOL    HW226796   5.356   4.663   5.366
 8633SOL     OW26797   5.488   4.055   6.244
 8633SOL    HW126798   5.508   4.152   6.229
 8633SOL    HW226799   5.398   4.047   6.288
 8634SOL     OW26800   4.561   3.474   0.200
 8634SOL    HW126801   4.631   3.506   0.137
 8634SOL    HW226802   4.577   3.514   0.290
 8635SOL     OW26803   5.700   2.467   6.104
 8635SOL    HW126804   5.608   2.457   6.143
 8635SOL    HW226805   5.741   2.551   6.137
 8636SOL     OW26806   5.040   6.976   1.128
 8636SOL    HW126807   5.001   6.938   1.212
 8636SOL    HW226808   4.967   7.012   1.071
 8637SOL     OW26809   1.454   2.045   0.421
 8637SOL    HW126810   1.551   2.024   0.405
 8637SOL    HW226811   1.407   1.963   0.452
 8638SOL     OW26812   4.675   2.307   4.556
 8638SOL    HW126813   4.684   2.291   4.654
 8638SOL    HW226814   4.763   2.288   4.511
 8639SOL     OW26815   3.460   4.148   6.838
 8639SOL    HW126816   3.440   4.135   6.935
 8639SOL    HW226817   3.376   4.144   6.785
 8640SOL     OW26818   2.752   3.205   1.472
 8640SOL    HW126819   2.827   3.139   1.464
 8640SOL    HW226820   2.684   3.170   1.537
 8641SOL     OW26821   4.157   6.478   2.477
 8641SOL    HW126822   4.125   6.571   2.494
 8641SOL    HW226823   4.177   6.466   2.380
 8642SOL     OW26824   1.346   5.815   3.819
 8642SOL    HW126825   1.294   5.770   3.892
 8642SOL    HW226826   1.296   5.807   3.733
 8643SOL     OW26827   3.942   5.926   1.269
 8643SOL    HW126828   4.038   5.947   1.251
 8643SOL    HW226829   3.902   5.880   1.189
 8644SOL     OW26830   6.700   1.691   6.721
 8644SOL    HW126831   6.793   1.669   6.691
 8644SOL    HW226832   6.675   1.633   6.799
 8645SOL     OW26833   5.679   3.961   2.327
 8645SOL    HW126834   5.657   4.038   2.387
 8645SOL    HW226835   5.728   3.891   2.380
 8646SOL     OW26836   0.228   2.274   5.046
 8646SOL    HW126837   0.265   2.340   5.112
 8646SOL    HW226838   0.144   2.234   5.083
 8647SOL     OW26839   2.649   5.472   1.766
 8647SOL    HW126840   2.606   5.486   1.677
 8647SOL    HW226841   2.579   5.478   1.838
 8648SOL     OW26842   5.235   5.339   0.240
 8648SOL    HW126843   5.266   5.346   0.334
 8648SOL    HW226844   5.146   5.293   0.237
 8649SOL     OW26845   4.445   0.482   1.499
 8649SOL    HW126846   4.375   0.543   1.537
 8649SOL    HW226847   4.433   0.474   1.400
 8650SOL     OW26848   1.937   6.812   4.489
 8650SOL    HW126849   1.960   6.730   4.542
 8650SOL    HW226850   1.972   6.893   4.537
 8651SOL     OW26851   3.583   1.829   1.266
 8651SOL    HW126852   3.632   1.742   1.257
 8651SOL    HW226853   3.500   1.814   1.321
 8652SOL     OW26854   1.044   2.847   3.625
 8652SOL    HW126855   0.971   2.864   3.691
 8652SOL    HW226856   1.012   2.866   3.533
 8653SOL     OW26857   6.912   1.449   6.125
 8653SOL    HW126858   6.927   1.436   6.027
 8653SOL    HW226859   6.974   1.391   6.177
 8654SOL     OW26860   0.401   4.528   1.627
 8654SOL    HW126861   0.433   4.505   1.719
 8654SOL    HW226862   0.412   4.448   1.568
 8655SOL     OW26863   0.648   0.510   4.526
 8655SOL    HW126864   0.631   0.575   4.600
 8655SOL    HW226865   0.567   0.503   4.468
 8656SOL     OW26866   4.547   0.163   1.117
 8656SOL    HW126867   4.511   0.110   1.039
 8656SOL    HW226868   4.475   0.172   1.186
 8657SOL     OW26869   4.678   1.303   3.456
 8657SOL    HW126870   4.640   1.277   3.367
 8657SOL    HW226871   4.750   1.239   3.481
 8658SOL     OW26872   6.728   4.500   0.564
 8658SOL    HW126873   6.805   4.555   0.529
 8658SOL    HW226874   6.758   4.406   0.578
 8659SOL     OW26875   4.367   0.932   2.634
 8659SOL    HW126876   4.431   0.998   2.595
 8659SOL    HW226877   4.273   0.961   2.615
 8660SOL     OW26878   6.446   3.684   1.554
 8660SOL    HW126879   6.477   3.769   1.594
 8660SOL    HW226880   6.387   3.635   1.619
 8661SOL     OW26881   6.282   3.887   2.807
 8661SOL    HW126882   6.370   3.855   2.839
 8661SOL    HW226883   6.225   3.912   2.886
 8662SOL     OW26884   2.504   4.600   3.404
 8662SOL    HW126885   2.425   4.658   3.384
 8662SOL    HW226886   2.572   4.610   3.332
 8663SOL     OW26887   3.926   5.411   2.643
 8663SOL    HW126888   3.912   5.322   2.687
 8663SOL    HW226889   3.913   5.403   2.545
 8664SOL     OW26890   3.263   5.913   4.171
 8664SOL    HW126891   3.311   5.841   4.220
 8664SOL    HW226892   3.327   5.963   4.113
 8665SOL     OW26893   5.834   2.962   6.613
 8665SOL    HW126894   5.737   2.980   6.628
 8665SOL    HW226895   5.859   2.874   6.652
 8666SOL     OW26896   4.680   6.581   2.618
 8666SOL    HW126897   4.660   6.505   2.680
 8666SOL    HW226898   4.596   6.634   2.603
 8667SOL     OW26899   5.126   2.029   3.741
 8667SOL    HW126900   5.201   1.973   3.705
 8667SOL    HW226901   5.101   2.098   3.674
 8668SOL     OW26902   5.025   2.511   5.060
 8668SOL    HW126903   4.964   2.469   4.993
 8668SOL    HW226904   5.007   2.609   5.064
 8669SOL     OW26905   5.970   6.152   5.637
 8669SOL    HW126906   5.925   6.224   5.690
 8669SOL    HW226907   5.951   6.063   5.680
 8670SOL     OW26908   6.093   3.993   6.015
 8670SOL    HW126909   6.033   3.934   6.070
 8670SOL    HW226910   6.087   3.966   5.919
 8671SOL     OW26911   6.781   2.068   2.646
 8671SOL    HW126912   6.870   2.112   2.647
 8671SOL    HW226913   6.730   2.096   2.565
 8672SOL     OW26914   0.807   0.832   3.396
 8672SOL    HW126915   0.851   0.913   3.436
 8672SOL    HW226916   0.708   0.846   3.393
 8673SOL     OW26917   0.706   1.174   0.977
 8673SOL    HW126918   0.791   1.152   1.024
 8673SOL    HW226919   0.680   1.097   0.918
 8674SOL     OW26920   6.598   4.603   3.768
 8674SOL    HW126921   6.672   4.668   3.754
 8674SOL    HW226922   6.634   4.518   3.807
 8675SOL     OW26923   3.877   2.119   5.472
 8675SOL    HW126924   3.944   2.066   5.524
 8675SOL    HW226925   3.797   2.062   5.453
 8676SOL     OW26926   5.361   1.564   0.636
 8676SOL    HW126927   5.336   1.546   0.541
 8676SOL    HW226928   5.315   1.500   0.696
 8677SOL     OW26929   2.136   6.646   6.152
 8677SOL    HW126930   2.085   6.708   6.212
 8677SOL    HW226931   2.196   6.700   6.092
 8678SOL     OW26932   1.484   1.935   1.045
 8678SOL    HW126933   1.399   1.975   1.011
 8678SOL    HW226934   1.516   1.866   0.979
 8679SOL     OW26935   1.582   1.591   4.889
 8679SOL    HW126936   1.525   1.557   4.963
 8679SOL    HW226937   1.525   1.638   4.822
 8680SOL     OW26938   6.243   1.326   6.706
 8680SOL    HW126939   6.330   1.294   6.667
 8680SOL    HW226940   6.255   1.418   6.743
 8681SOL     OW26941   5.419   5.914   1.743
 8681SOL    HW126942   5.468   5.954   1.820
 8681SOL    HW226943   5.466   5.936   1.657
 8682SOL     OW26944   1.260   0.811   1.083
 8682SOL    HW126945   1.252   0.855   0.994
 8682SOL    HW226946   1.176   0.760   1.103
 8683SOL     OW26947   1.725   4.111   4.545
 8683SOL    HW126948   1.738   4.016   4.516
 8683SOL    HW226949   1.704   4.168   4.466
 8684SOL     OW26950   0.932   3.788   4.502
 8684SOL    HW126951   1.024   3.750   4.515
 8684SOL    HW226952   0.879   3.727   4.444
 8685SOL     OW26953   5.208   2.322   5.153
 8685SOL    HW126954   5.294   2.365   5.182
 8685SOL    HW226955   5.154   2.388   5.101
 8686SOL     OW26956   0.468   5.241   2.963
 8686SOL    HW126957   0.545   5.187   2.927
 8686SOL    HW226958   0.472   5.334   2.925
 8687SOL     OW26959   5.418   3.972   4.884
 8687SOL    HW126960   5.471   3.931   4.959
 8687SOL    HW226961   5.325   3.935   4.884
 8688SOL     OW26962   0.540   3.942   6.191
 8688SOL    HW126963   0.493   4.002   6.126
 8688SOL    HW226964   0.628   3.915   6.152
 8689SOL     OW26965   4.124   3.532   6.749
 8689SOL    HW126966   4.100   3.599   6.819
 8689SOL    HW226967   4.193   3.571   6.688
 8690SOL     OW26968   1.580   2.098   3.330
 8690SOL    HW126969   1.590   2.101   3.429
 8690SOL    HW226970   1.604   2.188   3.292
 8691SOL     OW26971   3.322   2.544   5.381
 8691SOL    HW126972   3.292   2.489   5.304
 8691SOL    HW226973   3.422   2.547   5.383
 8692SOL     OW26974   4.346   1.795   5.292
 8692SOL    HW126975   4.332   1.717   5.231
 8692SOL    HW226976   4.349   1.879   5.238
 8693SOL     OW26977   6.539   0.019   6.686
 8693SOL    HW126978   6.511   0.107   6.726
 8693SOL    HW226979   6.586   0.036   6.599
 8694SOL     OW26980   6.345   3.279   4.167
 8694SOL    HW126981   6.402   3.340   4.111
 8694SOL    HW226982   6.249   3.292   4.142
 8695SOL     OW26983   3.811   4.229   5.944
 8695SOL    HW126984   3.783   4.134   5.932
 8695SOL    HW226985   3.784   4.260   6.036
 8696SOL     OW26986   3.187   5.601   6.129
 8696SOL    HW126987   3.213   5.535   6.060
 8696SOL    HW226988   3.218   5.570   6.219
 8697SOL     OW26989   1.413   3.263   5.759
 8697SOL    HW126990   1.337   3.208   5.794
 8697SOL    HW226991   1.460   3.213   5.687
 8698SOL     OW26992   5.579   5.617   5.156
 8698SOL    HW126993   5.581   5.658   5.247
 8698SOL    HW226994   5.672   5.615   5.118
 8699SOL     OW26995   1.183   2.832   0.016
 8699SOL    HW126996   1.134   2.887   6.972
 8699SOL    HW226997   1.162   2.867   0.107
 8700SOL     OW26998   0.928   6.759   4.861
 8700SOL    HW126999   0.852   6.706   4.899
 8700SOL    HW227000   0.903   6.794   4.771
 8701SOL     OW27001   0.561   2.575   0.685
 8701SOL    HW127002   0.578   2.515   0.763
 8701SOL    HW227003   0.496   2.531   0.623
 8702SOL     OW27004   5.404   4.981   1.911
 8702SOL    HW127005   5.349   5.035   1.974
 8702SOL    HW227006   5.407   5.026   1.822
 8703SOL     OW27007   2.736   5.315   1.370
 8703SOL    HW127008   2.776   5.379   1.304
 8703SOL    HW227009   2.771   5.223   1.354
 8704SOL     OW27010   0.777   0.498   4.228
 8704SOL    HW127011   0.695   0.454   4.265
 8704SOL    HW227012   0.857   0.439   4.244
 8705SOL     OW27013   4.377   2.793   0.172
 8705SOL    HW127014   4.389   2.852   0.092
 8705SOL    HW227015   4.336   2.707   0.144
 8706SOL     OW27016   4.597   2.894   6.463
 8706SOL    HW127017   4.611   2.823   6.533
 8706SOL    HW227018   4.506   2.883   6.422
 8707SOL     OW27019   1.804   2.334   4.894
 8707SOL    HW127020   1.823   2.254   4.837
 8707SOL    HW227021   1.825   2.417   4.843
 8708SOL     OW27022   6.320   2.279   1.455
 8708SOL    HW127023   6.405   2.273   1.402
 8708SOL    HW227024   6.273   2.364   1.433
 8709SOL     OW27025   6.571   0.266   5.854
 8709SOL    HW127026   6.532   0.265   5.762
 8709SOL    HW227027   6.635   0.190   5.864
 8710SOL     OW27028   2.619   1.132   3.116
 8710SOL    HW127029   2.566   1.211   3.086
 8710SOL    HW227030   2.567   1.049   3.100
 8711SOL     OW27031   1.739   0.668   1.771
 8711SOL    HW127032   1.830   0.684   1.733
 8711SOL    HW227033   1.744   0.666   1.871
 8712SOL     OW27034   1.856   3.688   5.969
 8712SOL    HW127035   1.826   3.636   5.889
 8712SOL    HW227036   1.779   3.697   6.033
 8713SOL     OW27037   0.266   5.130   1.704
 8713SOL    HW127038   0.293   5.226   1.699
 8713SOL    HW227039   0.203   5.110   1.629
 8714SOL     OW27040   0.198   6.013   6.850
 8714SOL    HW127041   0.221   6.030   6.945
 8714SOL    HW227042   0.112   5.962   6.845
 8715SOL     OW27043   2.152   3.219   1.565
 8715SOL    HW127044   2.240   3.227   1.517
 8715SOL    HW227045   2.168   3.205   1.662
 8716SOL     OW27046   6.688   6.715   1.825
 8716SOL    HW127047   6.683   6.811   1.799
 8716SOL    HW227048   6.616   6.664   1.778
 8717SOL     OW27049   2.903   4.096   1.061
 8717SOL    HW127050   2.933   4.183   1.101
 8717SOL    HW227051   2.877   4.110   0.966
 8718SOL     OW27052   2.291   4.328   6.720
 8718SOL    HW127053   2.325   4.419   6.697
 8718SOL    HW227054   2.191   4.331   6.727
 8719SOL     OW27055   4.312   0.177   5.425
 8719SOL    HW127056   4.290   0.259   5.478
 8719SOL    HW227057   4.391   0.130   5.466
 8720SOL     OW27058   6.668   4.724   4.993
 8720SOL    HW127059   6.612   4.763   4.919
 8720SOL    HW227060   6.622   4.739   5.080
 8721SOL     OW27061   0.493   0.429   6.494
 8721SOL    HW127062   0.531   0.388   6.411
 8721SOL    HW227063   0.567   0.456   6.554
 8722SOL     OW27064   3.295   1.717   1.348
 8722SOL    HW127065   3.255   1.652   1.284
 8722SOL    HW227066   3.240   1.801   1.350
 8723SOL     OW27067   4.620   0.319   2.482
 8723SOL    HW127068   4.592   0.311   2.387
 8723SOL    HW227069   4.547   0.364   2.535
 8724SOL     OW27070   4.262   1.066   4.693
 8724SOL    HW127071   4.238   1.128   4.619
 8724SOL    HW227072   4.326   0.997   4.658
 8725SOL     OW27073   0.032   6.573   3.705
 8725SOL    HW127074   0.021   6.539   3.799
 8725SOL    HW227075   0.066   6.667   3.708
 8726SOL     OW27076   0.527   0.941   0.906
 8726SOL    HW127077   0.548   0.936   1.004
 8726SOL    HW227078   0.543   0.852   0.864
 8727SOL     OW27079   4.483   5.486   6.093
 8727SOL    HW127080   4.476   5.388   6.111
 8727SOL    HW227081   4.393   5.521   6.068
 8728SOL     OW27082   6.832   0.444   3.340
 8728SOL    HW127083   6.780   0.460   3.425
 8728SOL    HW227084   6.880   0.527   3.314
 8729SOL     OW27085   3.858   6.663   6.589
 8729SOL    HW127086   3.819   6.597   6.525
 8729SOL    HW227087   3.958   6.660   6.584
 8730SOL     OW27088   4.250   5.365   1.980
 8730SOL    HW127089   4.252   5.315   2.066
 8730SOL    HW227090   4.283   5.306   1.906
 8731SOL     OW27091   0.355   1.628   3.433
 8731SOL    HW127092   0.294   1.572   3.490
 8731SOL    HW227093   0.312   1.642   3.344
 8732SOL     OW27094   5.815   6.584   0.535
 8732SOL    HW127095   5.874   6.590   0.616
 8732SOL    HW227096   5.774   6.673   0.516
 8733SOL     OW27097   6.365   5.631   1.746
 8733SOL    HW127098   6.419   5.613   1.664
 8733SOL    HW227099   6.320   5.720   1.737
 8734SOL     OW27100   0.165   3.904   2.236
 8734SOL    HW127101   0.232   3.919   2.310
 8734SOL    HW227102   0.088   3.966   2.249
 8735SOL     OW27103   1.032   3.823   5.501
 8735SOL    HW127104   1.013   3.836   5.404
 8735SOL    HW227105   1.060   3.728   5.517
 8736SOL     OW27106   1.038   6.175   3.468
 8736SOL    HW127107   1.066   6.260   3.424
 8736SOL    HW227108   1.116   6.114   3.477
 8737SOL     OW27109   1.709   6.544   0.132
 8737SOL    HW127110   1.809   6.546   0.128
 8737SOL    HW227111   1.674   6.637   0.141
 8738SOL     OW27112   1.127   2.613   3.543
 8738SOL    HW127113   1.058   2.561   3.594
 8738SOL    HW227114   1.125   2.709   3.571
 8739SOL     OW27115   4.826   4.219   5.701
 8739SOL    HW127116   4.775   4.141   5.664
 8739SOL    HW227117   4.795   4.303   5.657
 8740SOL     OW27118   2.470   0.812   5.343
 8740SOL    HW127119   2.489   0.730   5.396
 8740SOL    HW227120   2.426   0.880   5.402
 8741SOL     OW27121   0.956   0.134   2.686
 8741SOL    HW127122   0.932   0.194   2.610
 8741SOL    HW227123   0.897   0.154   2.764
 8742SOL     OW27124   2.426   1.552   2.749
 8742SOL    HW127125   2.461   1.514   2.663
 8742SOL    HW227126   2.355   1.620   2.729
 8743SOL     OW27127   0.344   1.839   1.951
 8743SOL    HW127128   0.297   1.751   1.942
 8743SOL    HW227129   0.342   1.868   2.047
 8744SOL     OW27130   3.193   4.478   6.362
 8744SOL    HW127131   3.183   4.577   6.353
 8744SOL    HW227132   3.269   4.447   6.305
 8745SOL     OW27133   5.780   1.187   5.587
 8745SOL    HW127134   5.841   1.262   5.613
 8745SOL    HW227135   5.739   1.206   5.498
 8746SOL     OW27136   4.394   5.123   4.947
 8746SOL    HW127137   4.426   5.059   4.877
 8746SOL    HW227138   4.294   5.127   4.945
 8747SOL     OW27139   0.192   0.458   1.627
 8747SOL    HW127140   0.268   0.481   1.687
 8747SOL    HW227141   0.115   0.520   1.646
 8748SOL     OW27142   6.908   1.994   3.454
 8748SOL    HW127143   6.989   2.045   3.425
 8748SOL    HW227144   6.933   1.900   3.476
 8749SOL     OW27145   2.732   1.113   4.689
 8749SOL    HW127146   2.662   1.163   4.639
 8749SOL    HW227147   2.759   1.032   4.636
 8750SOL     OW27148   4.027   2.934   6.721
 8750SOL    HW127149   3.980   3.002   6.664
 8750SOL    HW227150   4.044   2.851   6.668
 8751SOL     OW27151   1.367   6.256   1.511
 8751SOL    HW127152   1.404   6.199   1.584
 8751SOL    HW227153   1.367   6.351   1.540
 8752SOL     OW27154   5.469   3.620   6.855
 8752SOL    HW127155   5.547   3.670   6.894
 8752SOL    HW227156   5.384   3.660   6.887
 8753SOL     OW27157   2.582   3.046   0.323
 8753SOL    HW127158   2.643   3.124   0.333
 8753SOL    HW227159   2.596   3.004   0.233
 8754SOL     OW27160   2.190   5.096   6.980
 8754SOL    HW127161   2.239   5.126   6.899
 8754SOL    HW227162   2.102   5.142   6.985
 8755SOL     OW27163   6.668   2.659   2.135
 8755SOL    HW127164   6.684   2.596   2.059
 8755SOL    HW227165   6.581   2.635   2.179
 8756SOL     OW27166   1.578   1.720   2.056
 8756SOL    HW127167   1.645   1.648   2.039
 8756SOL    HW227168   1.486   1.680   2.059
 8757SOL     OW27169   5.511   6.307   5.583
 8757SOL    HW127170   5.530   6.403   5.602
 8757SOL    HW227171   5.585   6.268   5.528
 8758SOL     OW27172   3.436   5.623   4.888
 8758SOL    HW127173   3.506   5.578   4.943
 8758SOL    HW227174   3.444   5.722   4.898
 8759SOL     OW27175   5.848   0.696   0.357
 8759SOL    HW127176   5.901   0.724   0.276
 8759SOL    HW227177   5.826   0.776   0.412
 8760SOL     OW27178   2.466   2.667   4.237
 8760SOL    HW127179   2.387   2.697   4.184
 8760SOL    HW227180   2.436   2.633   4.326
 8761SOL     OW27181   4.682   1.218   2.309
 8761SOL    HW127182   4.596   1.241   2.264
 8761SOL    HW227183   4.754   1.281   2.278
 8762SOL     OW27184   1.464   4.579   2.781
 8762SOL    HW127185   1.470   4.486   2.816
 8762SOL    HW227186   1.541   4.596   2.719
 8763SOL     OW27187   0.895   0.876   6.157
 8763SOL    HW127188   0.959   0.942   6.195
 8763SOL    HW227189   0.858   0.819   6.231
 8764SOL     OW27190   2.728   4.974   5.391
 8764SOL    HW127191   2.784   5.016   5.462
 8764SOL    HW227192   2.761   4.881   5.374
 8765SOL     OW27193   5.228   0.700   4.703
 8765SOL    HW127194   5.300   0.634   4.724
 8765SOL    HW227195   5.141   0.667   4.740
 8766SOL     OW27196   4.926   5.791   5.989
 8766SOL    HW127197   4.857   5.732   5.946
 8766SOL    HW227198   4.942   5.871   5.930
 8767SOL     OW27199   2.403   0.911   4.147
 8767SOL    HW127200   2.432   0.967   4.224
 8767SOL    HW227201   2.441   0.947   4.063
 8768SOL     OW27202   6.050   1.938   6.786
 8768SOL    HW127203   6.005   1.849   6.778
 8768SOL    HW227204   6.100   1.959   6.702
 8769SOL     OW27205   6.284   0.213   0.126
 8769SOL    HW127206   6.228   0.286   0.166
 8769SOL    HW227207   6.378   0.221   0.159
 8770SOL     OW27208   5.279   3.519   0.375
 8770SOL    HW127209   5.278   3.576   0.293
 8770SOL    HW227210   5.358   3.542   0.431
 8771SOL     OW27211   0.294   3.611   0.397
 8771SOL    HW127212   0.270   3.697   0.442
 8771SOL    HW227213   0.328   3.546   0.465
 8772SOL     OW27214   5.627   0.006   4.269
 8772SOL    HW127215   5.625   0.035   4.173
 8772SOL    HW227216   5.581   0.075   4.325
 8773SOL     OW27217   6.969   1.259   3.838
 8773SOL    HW127218   6.926   1.339   3.879
 8773SOL    HW227219   6.942   1.251   3.742
 8774SOL     OW27220   1.837   1.774   1.002
 8774SOL    HW127221   1.763   1.708   0.992
 8774SOL    HW227222   1.925   1.727   1.005
 8775SOL     OW27223   5.700   1.973   4.075
 8775SOL    HW127224   5.706   1.885   4.122
 8775SOL    HW227225   5.788   1.993   4.031
 8776SOL     OW27226   4.236   3.118   0.761
 8776SOL    HW127227   4.166   3.051   0.735
 8776SOL    HW227228   4.227   3.200   0.705
 8777SOL     OW27229   0.297   1.860   3.558
 8777SOL    HW127230   0.316   1.772   3.516
 8777SOL    HW227231   0.288   1.848   3.657
 8778SOL     OW27232   3.244   4.956   6.858
 8778SOL    HW127233   3.263   5.038   6.911
 8778SOL    HW227234   3.319   4.890   6.871
 8779SOL     OW27235   4.836   4.721   3.876
 8779SOL    HW127236   4.905   4.741   3.806
 8779SOL    HW227237   4.828   4.622   3.887
 8780SOL     OW27238   5.811   4.906   3.713
 8780SOL    HW127239   5.838   4.831   3.653
 8780SOL    HW227240   5.756   4.870   3.789
 8781SOL     OW27241   3.342   6.856   1.581
 8781SOL    HW127242   3.298   6.768   1.598
 8781SOL    HW227243   3.273   6.923   1.554
 8782SOL     OW27244   5.256   1.866   1.782
 8782SOL    HW127245   5.196   1.946   1.787
 8782SOL    HW227246   5.349   1.897   1.758
 8783SOL     OW27247   5.173   3.839   4.823
 8783SOL    HW127248   5.222   3.784   4.756
 8783SOL    HW227249   5.074   3.828   4.810
 8784SOL     OW27250   5.860   0.626   0.873
 8784SOL    HW127251   5.930   0.659   0.810
 8784SOL    HW227252   5.857   0.526   0.869
 8785SOL     OW27253   0.476   5.045   6.315
 8785SOL    HW127254   0.503   4.955   6.352
 8785SOL    HW227255   0.384   5.067   6.346
 8786SOL     OW27256   4.520   1.508   2.446
 8786SOL    HW127257   4.428   1.535   2.419
 8786SOL    HW227258   4.582   1.520   2.368
 8787SOL     OW27259   3.628   6.230   0.947
 8787SOL    HW127260   3.544   6.189   0.982
 8787SOL    HW227261   3.703   6.164   0.955
 8788SOL     OW27262   0.416   0.048   4.183
 8788SOL    HW127263   0.485   0.007   4.242
 8788SOL    HW227264   0.329   0.054   4.233
 8789SOL     OW27265   6.750   3.188   5.827
 8789SOL    HW127266   6.745   3.204   5.728
 8789SOL    HW227267   6.732   3.273   5.875
 8790SOL     OW27268   5.711   3.314   6.033
 8790SOL    HW127269   5.799   3.273   6.057
 8790SOL    HW227270   5.726   3.409   6.005
 8791SOL     OW27271   3.610   5.851   5.344
 8791SOL    HW127272   3.700   5.840   5.302
 8791SOL    HW227273   3.615   5.916   5.419
 8792SOL     OW27274   5.122   5.326   0.959
 8792SOL    HW127275   5.117   5.227   0.969
 8792SOL    HW227276   5.042   5.368   1.002
 8793SOL     OW27277   6.938   5.096   4.066
 8793SOL    HW127278   6.988   5.183   4.068
 8793SOL    HW227279   7.002   5.022   4.045
 8794SOL     OW27280   0.368   0.742   2.335
 8794SOL    HW127281   0.442   0.792   2.379
 8794SOL    HW227282   0.403   0.655   2.301
 8795SOL     OW27283   1.254   5.850   6.139
 8795SOL    HW127284   1.268   5.933   6.085
 8795SOL    HW227285   1.306   5.857   6.224
 8796SOL     OW27286   6.763   3.998   3.226
 8796SOL    HW127287   6.670   4.023   3.255
 8796SOL    HW227288   6.766   3.994   3.126
 8797SOL     OW27289   4.446   0.053   4.078
 8797SOL    HW127290   4.521   7.021   4.115
 8797SOL    HW227291   4.362   7.024   4.079
 8798SOL     OW27292   3.240   6.350   5.724
 8798SOL    HW127293   3.324   6.297   5.734
 8798SOL    HW227294   3.250   6.437   5.773
 8799SOL     OW27295   1.411   5.605   2.563
 8799SOL    HW127296   1.446   5.696   2.582
 8799SOL    HW227297   1.440   5.543   2.636
 8800SOL     OW27298   6.756   5.636   6.020
 8800SOL    HW127299   6.845   5.638   6.064
 8800SOL    HW227300   6.718   5.728   6.016
 8801SOL     OW27301   5.872   3.114   5.562
 8801SOL    HW127302   5.893   3.058   5.641
 8801SOL    HW227303   5.950   3.115   5.499
 8802SOL     OW27304   1.241   6.401   6.173
 8802SOL    HW127305   1.314   6.395   6.105
 8802SOL    HW227306   1.226   6.312   6.215
 8803SOL     OW27307   6.082   6.771   6.962
 8803SOL    HW127308   6.104   6.816   6.876
 8803SOL    HW227309   6.163   6.723   6.996
 8804SOL     OW27310   1.863   5.989   2.514
 8804SOL    HW127311   1.776   6.038   2.512
 8804SOL    HW227312   1.909   5.998   2.426
 8805SOL     OW27313   5.526   5.075   3.295
 8805SOL    HW127314   5.609   5.088   3.242
 8805SOL    HW227315   5.520   5.145   3.366
 8806SOL     OW27316   2.167   0.605   1.032
 8806SOL    HW127317   2.156   0.661   0.949
 8806SOL    HW227318   2.264   0.584   1.045
 8807SOL     OW27319   5.310   2.563   1.541
 8807SOL    HW127320   5.235   2.514   1.496
 8807SOL    HW227321   5.354   2.624   1.475
 8808SOL     OW27322   2.215   2.661   0.211
 8808SOL    HW127323   2.224   2.671   0.310
 8808SOL    HW227324   2.157   2.581   0.192
 8809SOL     OW27325   0.104   3.865   3.037
 8809SOL    HW127326   0.166   3.796   3.074
 8809SOL    HW227327   0.127   3.883   2.941
 8810SOL     OW27328   1.090   1.013   6.278
 8810SOL    HW127329   1.157   0.990   6.208
 8810SOL    HW227330   1.111   1.104   6.315
 8811SOL     OW27331   3.757   5.615   2.714
 8811SOL    HW127332   3.675   5.591   2.663
 8811SOL    HW227333   3.834   5.561   2.680
 8812SOL     OW27334   5.000   1.428   6.320
 8812SOL    HW127335   4.903   1.431   6.344
 8812SOL    HW227336   5.047   1.362   6.378
 8813SOL     OW27337   1.812   4.104   3.355
 8813SOL    HW127338   1.725   4.150   3.336
 8813SOL    HW227339   1.836   4.046   3.278
 8814SOL     OW27340   4.977   0.125   6.090
 8814SOL    HW127341   5.014   0.049   6.037
 8814SOL    HW227342   4.974   0.100   6.187
 8815SOL     OW27343   5.918   1.678   6.891
 8815SOL    HW127344   6.001   1.691   6.945
 8815SOL    HW227345   5.891   1.581   6.894
 8816SOL     OW27346   0.927   6.609   4.422
 8816SOL    HW127347   0.921   6.509   4.420
 8816SOL    HW227348   1.022   6.637   4.437
 8817SOL     OW27349   1.536   2.855   3.380
 8817SOL    HW127350   1.442   2.823   3.374
 8817SOL    HW227351   1.541   2.931   3.445
 8818SOL     OW27352   1.558   0.536   4.155
 8818SOL    HW127353   1.514   0.574   4.074
 8818SOL    HW227354   1.541   0.437   4.158
 8819SOL     OW27355   5.713   3.842   6.020
 8819SOL    HW127356   5.639   3.854   6.086
 8819SOL    HW227357   5.711   3.916   5.953
 8820SOL     OW27358   2.935   0.365   4.938
 8820SOL    HW127359   3.004   0.296   4.959
 8820SOL    HW227360   2.932   0.434   5.010
 8821SOL     OW27361   0.227   4.443   6.468
 8821SOL    HW127362   0.140   4.429   6.516
 8821SOL    HW227363   0.292   4.373   6.497
 8822SOL     OW27364   6.537   6.764   4.262
 8822SOL    HW127365   6.585   6.744   4.347
 8822SOL    HW227366   6.441   6.782   4.281
 8823SOL     OW27367   4.093   0.997   2.571
 8823SOL    HW127368   4.010   1.000   2.626
 8823SOL    HW227369   4.074   1.033   2.479
 8824SOL     OW27370   2.262   0.764   2.499
 8824SOL    HW127371   2.187   0.747   2.436
 8824SOL    HW227372   2.264   0.860   2.524
 8825SOL     OW27373   7.000   5.852   0.166
 8825SOL    HW127374   6.946   5.798   0.102
 8825SOL    HW227375   6.942   5.923   0.207
 8826SOL     OW27376   1.466   3.873   0.597
 8826SOL    HW127377   1.548   3.906   0.551
 8826SOL    HW227378   1.389   3.932   0.576
 8827SOL     OW27379   4.434   0.120   2.040
 8827SOL    HW127380   4.395   0.142   2.129
 8827SOL    HW227381   4.368   0.067   1.986
 8828SOL     OW27382   3.171   3.260   6.025
 8828SOL    HW127383   3.259   3.212   6.025
 8828SOL    HW227384   3.100   3.200   6.061
 8829SOL     OW27385   6.586   1.427   2.181
 8829SOL    HW127386   6.563   1.416   2.278
 8829SOL    HW227387   6.555   1.347   2.131
 8830SOL     OW27388   3.031   0.930   3.775
 8830SOL    HW127389   2.936   0.910   3.750
 8830SOL    HW227390   3.064   1.008   3.723
 8831SOL     OW27391   0.284   2.240   2.401
 8831SOL    HW127392   0.231   2.313   2.358
 8831SOL    HW227393   0.382   2.258   2.391
 8832SOL     OW27394   5.865   0.806   3.986
 8832SOL    HW127395   5.823   0.749   3.915
 8832SOL    HW227396   5.964   0.790   3.986
 8833SOL     OW27397   3.986   2.803   1.415
 8833SOL    HW127398   3.920   2.731   1.437
 8833SOL    HW227399   3.969   2.882   1.475
 8834SOL     OW27400   5.362   4.299   5.380
 8834SOL    HW127401   5.358   4.257   5.471
 8834SOL    HW227402   5.282   4.358   5.367
 8835SOL     OW27403   7.013   0.559   5.688
 8835SOL    HW127404   6.967   0.550   5.600
 8835SOL    HW227405   6.994   0.478   5.744
 8836SOL     OW27406   4.703   1.939   1.087
 8836SOL    HW127407   4.786   1.940   1.142
 8836SOL    HW227408   4.628   1.980   1.139
 8837SOL     OW27409   4.843   0.210   1.098
 8837SOL    HW127410   4.864   0.287   1.159
 8837SOL    HW227411   4.744   0.202   1.087
 8838SOL     OW27412   0.604   3.738   2.611
 8838SOL    HW127413   0.565   3.820   2.652
 8838SOL    HW227414   0.608   3.666   2.680
 8839SOL     OW27415   5.119   5.286   3.482
 8839SOL    HW127416   5.067   5.206   3.452
 8839SOL    HW227417   5.161   5.330   3.403
 8840SOL     OW27418   6.935   0.860   1.224
 8840SOL    HW127419   6.913   0.803   1.145
 8840SOL    HW227420   6.957   0.952   1.193
 8841SOL     OW27421   3.009   1.401   1.445
 8841SOL    HW127422   2.928   1.350   1.418
 8841SOL    HW227423   2.993   1.499   1.431
 8842SOL     OW27424   3.501   2.865   4.356
 8842SOL    HW127425   3.408   2.872   4.391
 8842SOL    HW227426   3.564   2.850   4.432
 8843SOL     OW27427   2.259   5.434   6.823
 8843SOL    HW127428   2.245   5.430   6.922
 8843SOL    HW227429   2.187   5.382   6.777
 8844SOL     OW27430   4.355   2.163   5.461
 8844SOL    HW127431   4.271   2.180   5.409
 8844SOL    HW227432   4.412   2.245   5.458
 8845SOL     OW27433   0.114   4.940   1.806
 8845SOL    HW127434   0.039   4.979   1.859
 8845SOL    HW227435   0.168   5.014   1.766
 8846SOL     OW27436   5.968   4.512   4.466
 8846SOL    HW127437   5.910   4.593   4.469
 8846SOL    HW227438   6.024   4.514   4.383
 8847SOL     OW27439   2.689   1.831   3.493
 8847SOL    HW127440   2.773   1.837   3.440
 8847SOL    HW227441   2.610   1.839   3.432
 8848SOL     OW27442   3.666   1.550   0.858
 8848SOL    HW127443   3.656   1.524   0.762
 8848SOL    HW227444   3.741   1.615   0.868
 8849SOL     OW27445   2.328   4.817   4.569
 8849SOL    HW127446   2.403   4.841   4.630
 8849SOL    HW227447   2.279   4.738   4.606
 8850SOL     OW27448   3.045   0.840   1.686
 8850SOL    HW127449   2.996   0.788   1.617
 8850SOL    HW227450   3.067   0.931   1.650
 8851SOL     OW27451   0.283   4.953   2.508
 8851SOL    HW127452   0.239   4.922   2.423
 8851SOL    HW227453   0.358   5.015   2.486
 8852SOL     OW27454   4.980   2.779   5.025
 8852SOL    HW127455   4.926   2.843   4.971
 8852SOL    HW227456   5.028   2.829   5.097
 8853SOL     OW27457   4.285   1.157   5.728
 8853SOL    HW127458   4.382   1.130   5.723
 8853SOL    HW227459   4.242   1.112   5.806
 8854SOL     OW27460   1.164   2.014   6.680
 8854SOL    HW127461   1.224   2.093   6.695
 8854SOL    HW227462   1.215   1.942   6.633
 8855SOL     OW27463   6.127   4.916   6.837
 8855SOL    HW127464   6.226   4.905   6.838
 8855SOL    HW227465   6.099   4.960   6.752
 8856SOL     OW27466   5.884   0.820   4.287
 8856SOL    HW127467   5.845   0.843   4.198
 8856SOL    HW227468   5.812   0.785   4.347
 8857SOL     OW27469   0.099   2.651   4.212
 8857SOL    HW127470   0.032   2.607   4.152
 8857SOL    HW227471   0.051   2.704   4.282
 8858SOL     OW27472   0.091   3.548   6.684
 8858SOL    HW127473   0.005   3.596   6.697
 8858SOL    HW227474   0.146   3.597   6.616
 8859SOL     OW27475   2.200   5.436   5.491
 8859SOL    HW127476   2.237   5.420   5.583
 8859SOL    HW227477   2.228   5.361   5.431
 8860SOL     OW27478   1.121   2.230   2.235
 8860SOL    HW127479   1.185   2.286   2.183
 8860SOL    HW227480   1.034   2.226   2.188
 8861SOL     OW27481   3.284   3.846   0.128
 8861SOL    HW127482   3.215   3.794   0.077
 8861SOL    HW227483   3.330   3.786   0.193
 8862SOL     OW27484   6.284   2.133   3.895
 8862SOL    HW127485   6.246   2.055   3.945
 8862SOL    HW227486   6.216   2.206   3.889
 8863SOL     OW27487   2.276   5.649   5.103
 8863SOL    HW127488   2.262   5.655   5.004
 8863SOL    HW227489   2.321   5.562   5.124
 8864SOL     OW27490   1.270   2.293   6.660
 8864SOL    HW127491   1.193   2.351   6.631
 8864SOL    HW227492   1.336   2.286   6.585
 8865SOL     OW27493   3.571   2.409   6.189
 8865SOL    HW127494   3.603   2.372   6.102
 8865SOL    HW227495   3.552   2.334   6.252
 8866SOL     OW27496   3.812   6.371   4.533
 8866SOL    HW127497   3.831   6.314   4.453
 8866SOL    HW227498   3.765   6.454   4.505
 8867SOL     OW27499   0.048   3.066   3.932
 8867SOL    HW127500   7.020   3.139   3.977
 8867SOL    HW227501   0.029   3.067   3.834
 8868SOL     OW27502   4.101   3.872   0.117
 8868SOL    HW127503   4.058   3.962   0.112
 8868SOL    HW227504   4.193   3.876   0.076
 8869SOL     OW27505   5.381   2.481   3.697
 8869SOL    HW127506   5.412   2.570   3.665
 8869SOL    HW227507   5.455   2.436   3.748
 8870SOL     OW27508   4.229   1.265   0.699
 8870SOL    HW127509   4.280   1.189   0.659
 8870SOL    HW227510   4.248   1.270   0.797
 8871SOL     OW27511   2.617   1.929   3.980
 8871SOL    HW127512   2.664   1.888   3.902
 8871SOL    HW227513   2.674   1.921   4.062
 8872SOL     OW27514   1.939   3.346   4.605
 8872SOL    HW127515   1.938   3.333   4.704
 8872SOL    HW227516   2.025   3.313   4.567
 8873SOL     OW27517   0.057   5.838   4.481
 8873SOL    HW127518   0.030   5.915   4.537
 8873SOL    HW227519   0.096   5.871   4.395
 8874SOL     OW27520   2.738   0.883   0.582
 8874SOL    HW127521   2.738   0.887   0.482
 8874SOL    HW227522   2.722   0.788   0.612
 8875SOL     OW27523   2.024   2.567   4.479
 8875SOL    HW127524   1.966   2.538   4.403
 8875SOL    HW227525   2.113   2.522   4.473
 8876SOL     OW27526   1.342   6.907   4.505
 8876SOL    HW127527   1.419   6.938   4.560
 8876SOL    HW227528   1.352   6.809   4.487
 8877SOL     OW27529   2.689   6.601   4.782
 8877SOL    HW127530   2.764   6.539   4.758
 8877SOL    HW227531   2.604   6.569   4.739
 8878SOL     OW27532   6.235   4.459   6.844
 8878SOL    HW127533   6.239   4.533   6.776
 8878SOL    HW227534   6.288   4.485   6.925
 8879SOL     OW27535   5.010   6.555   5.185
 8879SOL    HW127536   4.988   6.513   5.097
 8879SOL    HW227537   4.927   6.563   5.240
 8880SOL     OW27538   6.996   4.903   5.236
 8880SOL    HW127539   0.032   4.869   5.308
 8880SOL    HW227540   6.908   4.931   5.274
 8881SOL     OW27541   6.200   0.658   0.972
 8881SOL    HW127542   6.298   0.675   0.959
 8881SOL    HW227543   6.168   0.708   1.052
 8882SOL     OW27544   5.819   1.812   6.414
 8882SOL    HW127545   5.809   1.809   6.513
 8882SOL    HW227546   5.800   1.722   6.375
 8883SOL     OW27547   6.440   1.055   5.649
 8883SOL    HW127548   6.361   1.089   5.597
 8883SOL    HW227549   6.429   0.958   5.668
 8884SOL     OW27550   6.927   0.140   6.227
 8884SOL    HW127551   6.919   0.041   6.212
 8884SOL    HW227552   6.966   0.157   6.317
 8885SOL     OW27553   5.205   4.073   1.744
 8885SOL    HW127554   5.276   4.008   1.717
 8885SOL    HW227555   5.165   4.044   1.831
 8886SOL     OW27556   3.111   0.014   6.769
 8886SOL    HW127557   3.023   0.050   6.736
 8886SOL    HW227558   3.167   0.090   6.804
 8887SOL     OW27559   2.736   1.786   1.102
 8887SOL    HW127560   2.664   1.795   1.171
 8887SOL    HW227561   2.800   1.863   1.111
 8888SOL     OW27562   3.153   1.593   1.998
 8888SOL    HW127563   3.112   1.639   1.919
 8888SOL    HW227564   3.247   1.568   1.977
 8889SOL     OW27565   3.511   0.138   4.836
 8889SOL    HW127566   3.541   0.159   4.744
 8889SOL    HW227567   3.587   0.148   4.900
 8890SOL     OW27568   1.054   4.953   4.603
 8890SOL    HW127569   1.011   5.041   4.625
 8890SOL    HW227570   1.151   4.957   4.625
 8891SOL     OW27571   4.426   2.651   6.522
 8891SOL    HW127572   4.518   2.629   6.556
 8891SOL    HW227573   4.361   2.583   6.555
 8892SOL     OW27574   1.695   6.217   2.495
 8892SOL    HW127575   1.595   6.217   2.504
 8892SOL    HW227576   1.720   6.260   2.408
 8893SOL     OW27577   0.552   1.325   1.195
 8893SOL    HW127578   0.591   1.388   1.262
 8893SOL    HW227579   0.623   1.296   1.130
 8894SOL     OW27580   4.142   2.761   6.197
 8894SOL    HW127581   4.066   2.714   6.151
 8894SOL    HW227582   4.116   2.856   6.214
 8895SOL     OW27583   1.088   6.792   2.203
 8895SOL    HW127584   1.166   6.758   2.151
 8895SOL    HW227585   1.073   6.889   2.183
 8896SOL     OW27586   1.447   3.320   4.798
 8896SOL    HW127587   1.469   3.239   4.853
 8896SOL    HW227588   1.479   3.307   4.704
 8897SOL     OW27589   1.120   2.537   1.305
 8897SOL    HW127590   1.118   2.637   1.297
 8897SOL    HW227591   1.077   2.510   1.391
 8898SOL     OW27592   5.466   3.862   4.015
 8898SOL    HW127593   5.457   3.946   4.069
 8898SOL    HW227594   5.395   3.860   3.945
 8899SOL     OW27595   1.543   4.346   6.968
 8899SOL    HW127596   1.633   4.332   7.009
 8899SOL    HW227597   1.472   4.310   0.004
 8900SOL     OW27598   6.206   1.919   4.053
 8900SOL    HW127599   6.155   1.907   4.139
 8900SOL    HW227600   6.266   1.840   4.040
 8901SOL     OW27601   1.827   6.774   2.792
 8901SOL    HW127602   1.837   6.680   2.759
 8901SOL    HW227603   1.899   6.793   2.859
 8902SOL     OW27604   1.540   5.554   5.908
 8902SOL    HW127605   1.520   5.457   5.918
 8902SOL    HW227606   1.613   5.566   5.842
 8903SOL     OW27607   2.179   1.394   3.439
 8903SOL    HW127608   2.080   1.398   3.452
 8903SOL    HW227609   2.224   1.452   3.506
 8904SOL     OW27610   1.387   6.550   3.289
 8904SOL    HW127611   1.384   6.453   3.262
 8904SOL    HW227612   1.362   6.607   3.211
 8905SOL     OW27613   2.643   3.896   5.255
 8905SOL    HW127614   2.553   3.910   5.214
 8905SOL    HW227615   2.647   3.943   5.343
 8906SOL     OW27616   6.627   5.844   5.627
 8906SOL    HW127617   6.692   5.844   5.551
 8906SOL    HW227618   6.548   5.900   5.603
 8907SOL     OW27619   3.315   2.804   5.501
 8907SOL    HW127620   3.309   2.712   5.462
 8907SOL    HW227621   3.402   2.846   5.474
 8908SOL     OW27622   0.554   2.942   1.234
 8908SOL    HW127623   0.483   2.872   1.239
 8908SOL    HW227624   0.545   2.994   1.149
 8909SOL     OW27625   2.176   0.598   6.532
 8909SOL    HW127626   2.107   0.539   6.489
 8909SOL    HW227627   2.139   0.691   6.542
 8910SOL     OW27628   3.084   3.692   7.018
 8910SOL    HW127629   3.019   3.696   6.941
 8910SOL    HW227630   3.156   3.626   6.998
 8911SOL     OW27631   3.934   2.106   3.924
 8911SOL    HW127632   3.969   2.135   3.836
 8911SOL    HW227633   3.834   2.099   3.920
 8912SOL     OW27634   4.561   2.908   5.771
 8912SOL    HW127635   4.549   2.828   5.829
 8912SOL    HW227636   4.601   2.881   5.684
 8913SOL     OW27637   5.400   4.024   1.153
 8913SOL    HW127638   5.410   3.958   1.079
 8913SOL    HW227639   5.305   4.055   1.157
 8914SOL     OW27640   4.045   1.981   4.819
 8914SOL    HW127641   4.007   2.045   4.752
 8914SOL    HW227642   4.034   1.888   4.786
 8915SOL     OW27643   1.403   4.585   2.279
 8915SOL    HW127644   1.403   4.511   2.211
 8915SOL    HW227645   1.494   4.590   2.321
 8916SOL     OW27646   6.816   3.232   2.486
 8916SOL    HW127647   6.872   3.310   2.516
 8916SOL    HW227648   6.847   3.202   2.397
 8917SOL     OW27649   6.132   5.265   6.548
 8917SOL    HW127650   6.115   5.168   6.563
 8917SOL    HW227651   6.118   5.315   6.634
 8918SOL     OW27652   5.331   5.476   6.149
 8918SOL    HW127653   5.335   5.395   6.207
 8918SOL    HW227654   5.419   5.487   6.103
 8919SOL     OW27655   2.743   4.884   0.652
 8919SOL    HW127656   2.733   4.966   0.709
 8919SOL    HW227657   2.689   4.809   0.692
 8920SOL     OW27658   6.281   5.770   5.615
 8920SOL    HW127659   6.339   5.722   5.549
 8920SOL    HW227660   6.204   5.712   5.640
 8921SOL     OW27661   1.529   0.013   4.055
 8921SOL    HW127662   1.533   0.105   4.016
 8921SOL    HW227663   1.555   0.017   4.152
 8922SOL     OW27664   0.268   4.266   6.880
 8922SOL    HW127665   0.361   4.240   6.855
 8922SOL    HW227666   0.269   4.313   6.969
 8923SOL     OW27667   2.104   4.728   5.620
 8923SOL    HW127668   2.185   4.672   5.607
 8923SOL    HW227669   2.102   4.762   5.714
 8924SOL     OW27670   2.756   5.369   5.408
 8924SOL    HW127671   2.748   5.295   5.340
 8924SOL    HW227672   2.853   5.389   5.423
 8925SOL     OW27673   0.021   6.887   2.052
 8925SOL    HW127674   0.120   6.899   2.063
 8925SOL    HW227675   6.998   6.966   2.090
 8926SOL     OW27676   5.220   2.251   0.725
 8926SOL    HW127677   5.126   2.272   0.753
 8926SOL    HW227678   5.226   2.155   0.696
 8927SOL     OW27679   2.298   2.335   4.716
 8927SOL    HW127680   2.393   2.360   4.737
 8927SOL    HW227681   2.238   2.368   4.789
 8928SOL     OW27682   0.843   6.979   5.432
 8928SOL    HW127683   0.803   6.953   5.344
 8928SOL    HW227684   0.939   6.954   5.434
 8929SOL     OW27685   5.656   3.747   3.606
 8929SOL    HW127686   5.637   3.755   3.704
 8929SOL    HW227687   5.588   3.687   3.564
 8930SOL     OW27688   0.988   4.958   5.062
 8930SOL    HW127689   1.077   4.913   5.060
 8930SOL    HW227690   0.923   4.901   5.111
 8931SOL     OW27691   4.632   1.318   0.948
 8931SOL    HW127692   4.602   1.225   0.967
 8931SOL    HW227693   4.569   1.360   0.882
 8932SOL     OW27694   0.039   6.966   0.198
 8932SOL    HW127695   6.964   6.973   0.193
 8932SOL    HW227696   0.080   7.003   0.115
 8933SOL     OW27697   1.473   0.536   5.136
 8933SOL    HW127698   1.428   0.476   5.202
 8933SOL    HW227699   1.405   0.596   5.094
 8934SOL     OW27700   3.594   5.958   2.912
 8934SOL    HW127701   3.501   5.974   2.945
 8934SOL    HW227702   3.625   5.868   2.942
 8935SOL     OW27703   5.020   2.147   3.505
 8935SOL    HW127704   4.971   2.233   3.492
 8935SOL    HW227705   5.118   2.164   3.501
 8936SOL     OW27706   1.022   5.100   2.063
 8936SOL    HW127707   1.051   5.004   2.070
 8936SOL    HW227708   1.076   5.155   2.126
 8937SOL     OW27709   4.850   0.137   4.106
 8937SOL    HW127710   4.939   0.143   4.152
 8937SOL    HW227711   4.801   0.057   4.140
 8938SOL     OW27712   6.297   0.894   1.533
 8938SOL    HW127713   6.342   0.956   1.597
 8938SOL    HW227714   6.224   0.845   1.581
 8939SOL     OW27715   0.032   3.057   3.680
 8939SOL    HW127716   6.959   3.062   3.658
 8939SOL    HW227717   0.073   2.980   3.631
 8940SOL     OW27718   6.344   2.965   0.774
 8940SOL    HW127719   6.273   2.983   0.707
 8940SOL    HW227720   6.328   2.876   0.817
 8941SOL     OW27721   4.088   2.752   1.729
 8941SOL    HW127722   4.185   2.738   1.749
 8941SOL    HW227723   4.063   2.847   1.749
 8942SOL     OW27724   5.643   4.861   4.538
 8942SOL    HW127725   5.568   4.842   4.600
 8942SOL    HW227726   5.608   4.870   4.444
 8943SOL     OW27727   4.673   3.676   6.928
 8943SOL    HW127728   4.732   3.599   6.951
 8943SOL    HW227729   4.662   3.734   7.009
 8944SOL     OW27730   5.787   5.845   4.621
 8944SOL    HW127731   5.696   5.825   4.586
 8944SOL    HW227732   5.780   5.870   4.718
 8945SOL     OW27733   5.485   4.618   4.808
 8945SOL    HW127734   5.436   4.665   4.734
 8945SOL    HW227735   5.569   4.577   4.772
 8946SOL     OW27736   5.030   1.043   5.444
 8946SOL    HW127737   5.047   1.137   5.473
 8946SOL    HW227738   5.021   1.040   5.345
 8947SOL     OW27739   1.787   5.283   6.579
 8947SOL    HW127740   1.809   5.236   6.493
 8947SOL    HW227741   1.758   5.215   6.647
 8948SOL     OW27742   6.733   0.958   2.581
 8948SOL    HW127743   6.669   0.890   2.617
 8948SOL    HW227744   6.700   0.991   2.492
 8949SOL     OW27745   3.919   6.976   0.657
 8949SOL    HW127746   3.866   6.933   0.730
 8949SOL    HW227747   3.858   0.007   0.599
 8950SOL     OW27748   4.000   3.631   0.254
 8950SOL    HW127749   4.025   3.725   0.232
 8950SOL    HW227750   3.969   3.584   0.171
 8951SOL     OW27751   1.927   2.132   4.746
 8951SOL    HW127752   2.024   2.115   4.763
 8951SOL    HW227753   1.903   2.100   4.655
 8952SOL     OW27754   1.692   3.662   4.170
 8952SOL    HW127755   1.730   3.603   4.241
 8952SOL    HW227756   1.705   3.758   4.197
 8953SOL     OW27757   1.199   4.622   1.389
 8953SOL    HW127758   1.105   4.588   1.391
 8953SOL    HW227759   1.252   4.569   1.322
 8954SOL     OW27760   1.760   4.993   5.690
 8954SOL    HW127761   1.718   4.999   5.599
 8954SOL    HW227762   1.860   4.988   5.680
 8955SOL     OW27763   5.557   2.478   4.457
 8955SOL    HW127764   5.594   2.536   4.384
 8955SOL    HW227765   5.493   2.412   4.417
 8956SOL     OW27766   0.740   5.348   6.532
 8956SOL    HW127767   0.650   5.306   6.521
 8956SOL    HW227768   0.808   5.295   6.481
 8957SOL     OW27769   0.599   6.025   3.267
 8957SOL    HW127770   0.540   6.019   3.348
 8957SOL    HW227771   0.646   6.114   3.267
 8958SOL     OW27772   1.582   3.450   5.352
 8958SOL    HW127773   1.506   3.431   5.290
 8958SOL    HW227774   1.651   3.378   5.344
 8959SOL     OW27775   0.031   2.425   3.125
 8959SOL    HW127776   0.005   2.478   3.205
 8959SOL    HW227777   0.077   2.341   3.154
 8960SOL     OW27778   5.587   4.579   3.045
 8960SOL    HW127779   5.653   4.597   2.972
 8960SOL    HW227780   5.634   4.578   3.133
 8961SOL     OW27781   2.184   0.533   5.476
 8961SOL    HW127782   2.150   0.627   5.481
 8961SOL    HW227783   2.113   0.472   5.442
 8962SOL     OW27784   0.073   5.978   2.496
 8962SOL    HW127785   0.035   6.046   2.432
 8962SOL    HW227786   0.055   6.008   2.589
 8963SOL     OW27787   5.005   0.044   4.415
 8963SOL    HW127788   4.933   0.112   4.426
 8963SOL    HW227789   5.001   7.002   4.490
 8964SOL     OW27790   1.035   3.146   4.215
 8964SOL    HW127791   1.128   3.109   4.220
 8964SOL    HW227792   0.979   3.086   4.157
 8965SOL     OW27793   3.673   5.845   6.484
 8965SOL    HW127794   3.634   5.887   6.565
 8965SOL    HW227795   3.632   5.885   6.402
 8966SOL     OW27796   4.508   5.521   5.378
 8966SOL    HW127797   4.446   5.510   5.456
 8966SOL    HW227798   4.466   5.481   5.296
 8967SOL     OW27799   3.046   6.992   4.201
 8967SOL    HW127800   3.045   0.037   4.273
 8967SOL    HW227801   3.077   0.010   4.115
 8968SOL     OW27802   4.072   5.171   2.344
 8968SOL    HW127803   4.123   5.112   2.282
 8968SOL    HW227804   3.974   5.160   2.327
 8969SOL     OW27805   0.990   0.486   2.472
 8969SOL    HW127806   0.949   0.553   2.409
 8969SOL    HW227807   0.922   0.418   2.497
 8970SOL     OW27808   2.096   0.757   4.501
 8970SOL    HW127809   2.118   0.682   4.440
 8970SOL    HW227810   1.998   0.776   4.496
 8971SOL     OW27811   3.759   5.409   0.321
 8971SOL    HW127812   3.789   5.339   0.387
 8971SOL    HW227813   3.664   5.389   0.294
 8972SOL     OW27814   6.269   4.499   0.429
 8972SOL    HW127815   6.213   4.494   0.346
 8972SOL    HW227816   6.223   4.452   0.504
 8973SOL     OW27817   1.253   2.818   3.267
 8973SOL    HW127818   1.198   2.825   3.183
 8973SOL    HW227819   1.236   2.898   3.324
 8974SOL     OW27820   2.211   4.178   4.527
 8974SOL    HW127821   2.216   4.126   4.613
 8974SOL    HW227822   2.247   4.121   4.453
 8975SOL     OW27823   6.789   6.051   6.173
 8975SOL    HW127824   6.755   5.977   6.115
 8975SOL    HW227825   6.837   6.012   6.252
 8976SOL     OW27826   6.741   6.576   2.244
 8976SOL    HW127827   6.799   6.627   2.180
 8976SOL    HW227828   6.656   6.551   2.199
 8977SOL     OW27829   6.739   5.003   6.369
 8977SOL    HW127830   6.772   5.088   6.328
 8977SOL    HW227831   6.802   4.929   6.348
 8978SOL     OW27832   5.736   5.855   6.619
 8978SOL    HW127833   5.809   5.920   6.598
 8978SOL    HW227834   5.662   5.903   6.667
 8979SOL     OW27835   1.225   4.793   5.485
 8979SOL    HW127836   1.321   4.764   5.489
 8979SOL    HW227837   1.178   4.760   5.567
 8980SOL     OW27838   3.519   0.261   5.783
 8980SOL    HW127839   3.487   0.341   5.834
 8980SOL    HW227840   3.517   0.282   5.685
 8981SOL     OW27841   4.638   2.967   0.157
 8981SOL    HW127842   4.558   2.955   0.215
 8981SOL    HW227843   4.640   3.060   0.120
 8982SOL     OW27844   0.640   1.385   1.631
 8982SOL    HW127845   0.540   1.392   1.620
 8982SOL    HW227846   0.661   1.307   1.690
 8983SOL     OW27847   1.645   6.594   2.286
 8983SOL    HW127848   1.696   6.514   2.256
 8983SOL    HW227849   1.619   6.583   2.382
 8984SOL     OW27850   6.718   0.366   3.906
 8984SOL    HW127851   6.808   0.400   3.881
 8984SOL    HW227852   6.714   0.352   4.005
 8985SOL     OW27853   5.027   2.635   1.054
 8985SOL    HW127854   5.110   2.673   1.095
 8985SOL    HW227855   4.949   2.652   1.114
 8986SOL     OW27856   7.000   5.292   0.080
 8986SOL    HW127857   6.974   5.198   0.101
 8986SOL    HW227858   0.033   5.293   7.022
 8987SOL     OW27859   1.997   0.701   1.952
 8987SOL    HW127860   1.960   0.611   1.975
 8987SOL    HW227861   1.999   0.713   1.853
 8988SOL     OW27862   1.675   5.384   2.111
 8988SOL    HW127863   1.643   5.378   2.017
 8988SOL    HW227864   1.774   5.400   2.112
 8989SOL     OW27865   5.642   1.516   2.340
 8989SOL    HW127866   5.560   1.560   2.303
 8989SOL    HW227867   5.683   1.457   2.269
 8990SOL     OW27868   3.766   0.605   1.696
 8990SOL    HW127869   3.838   0.608   1.766
 8990SOL    HW227870   3.679   0.633   1.737
 8991SOL     OW27871   2.090   2.593   0.780
 8991SOL    HW127872   2.077   2.654   0.702
 8991SOL    HW227873   2.024   2.518   0.776
 8992SOL     OW27874   0.736   3.917   0.298
 8992SOL    HW127875   0.683   3.997   0.271
 8992SOL    HW227876   0.739   3.910   0.398
 8993SOL     OW27877   6.289   3.615   3.714
 8993SOL    HW127878   6.379   3.584   3.683
 8993SOL    HW227879   6.262   3.695   3.660
 8994SOL     OW27880   1.172   5.018   2.909
 8994SOL    HW127881   1.267   4.988   2.899
 8994SOL    HW227882   1.160   5.106   2.863
 8995SOL     OW27883   2.177   4.041   4.762
 8995SOL    HW127884   2.226   4.070   4.844
 8995SOL    HW227885   2.181   3.942   4.754
 8996SOL     OW27886   0.705   4.224   2.112
 8996SOL    HW127887   0.681   4.293   2.180
 8996SOL    HW227888   0.802   4.200   2.122
 8997SOL     OW27889   4.365   1.561   5.880
 8997SOL    HW127890   4.355   1.654   5.843
 8997SOL    HW227891   4.277   1.515   5.878
 8998SOL     OW27892   0.917   2.601   6.267
 8998SOL    HW127893   0.969   2.687   6.265
 8998SOL    HW227894   0.972   2.530   6.311
 8999SOL     OW27895   6.086   1.278   4.474
 8999SOL    HW127896   6.150   1.306   4.402
 8999SOL    HW227897   6.040   1.194   4.447
 9000SOL     OW27898   3.042   4.179   0.696
 9000SOL    HW127899   3.101   4.258   0.680
 9000SOL    HW227900   2.959   4.208   0.745
 9001SOL     OW27901   1.312   4.281   3.606
 9001SOL    HW127902   1.338   4.270   3.702
 9001SOL    HW227903   1.306   4.378   3.584
 9002SOL     OW27904   5.149   4.450   5.369
 9002SOL    HW127905   5.084   4.442   5.444
 9002SOL    HW227906   5.208   4.529   5.384
 9003SOL     OW27907   5.518   2.312   6.316
 9003SOL    HW127908   5.504   2.222   6.276
 9003SOL    HW227909   5.598   2.311   6.375
 9004SOL     OW27910   4.519   6.071   1.342
 9004SOL    HW127911   4.534   5.972   1.348
 9004SOL    HW227912   4.540   6.113   1.430
 9005SOL     OW27913   4.954   2.071   2.930
 9005SOL    HW127914   5.014   2.050   2.853
 9005SOL    HW227915   4.998   2.043   3.015
 9006SOL     OW27916   1.549   6.284   1.255
 9006SOL    HW127917   1.480   6.239   1.197
 9006SOL    HW227918   1.505   6.319   1.338
 9007SOL     OW27919   2.742   6.530   4.460
 9007SOL    HW127920   2.699   6.619   4.471
 9007SOL    HW227921   2.814   6.518   4.528
 9008SOL     OW27922   6.492   4.826   2.369
 9008SOL    HW127923   6.479   4.815   2.270
 9008SOL    HW227924   6.434   4.901   2.401
 9009SOL     OW27925   3.685   6.479   1.004
 9009SOL    HW127926   3.730   6.479   1.093
 9009SOL    HW227927   3.652   6.387   0.983
 9010SOL     OW27928   1.170   6.402   4.902
 9010SOL    HW127929   1.073   6.398   4.927
 9010SOL    HW227930   1.192   6.493   4.867
 9011SOL     OW27931   4.495   2.162   0.964
 9011SOL    HW127932   4.544   2.242   0.927
 9011SOL    HW227933   4.516   2.082   0.908
 9012SOL     OW27934   6.788   5.483   1.239
 9012SOL    HW127935   6.751   5.527   1.158
 9012SOL    HW227936   6.799   5.551   1.312
 9013SOL     OW27937   5.358   5.929   3.376
 9013SOL    HW127938   5.313   5.988   3.443
 9013SOL    HW227939   5.344   5.834   3.401
 9014SOL     OW27940   2.599   0.986   1.208
 9014SOL    HW127941   2.643   0.985   1.298
 9014SOL    HW227942   2.636   0.913   1.152
 9015SOL     OW27943   0.424   0.850   5.744
 9015SOL    HW127944   0.338   0.799   5.745
 9015SOL    HW227945   0.418   0.925   5.809
 9016SOL     OW27946   6.821   6.300   6.671
 9016SOL    HW127947   6.766   6.356   6.733
 9016SOL    HW227948   6.776   6.296   6.581
 9017SOL     OW27949   6.797   3.109   3.559
 9017SOL    HW127950   6.806   3.166   3.478
 9017SOL    HW227951   6.708   3.063   3.558
 9018SOL     OW27952   3.739   2.323   5.309
 9018SOL    HW127953   3.649   2.296   5.273
 9018SOL    HW227954   3.792   2.241   5.330
 9019SOL     OW27955   1.886   0.342   1.089
 9019SOL    HW127956   1.825   0.416   1.061
 9019SOL    HW227957   1.841   0.287   1.160
 9020SOL     OW27958   0.549   5.083   3.299
 9020SOL    HW127959   0.617   5.090   3.372
 9020SOL    HW227960   0.557   4.994   3.254
 9021SOL     OW27961   6.839   5.632   4.866
 9021SOL    HW127962   6.901   5.703   4.900
 9021SOL    HW227963   6.888   5.575   4.800
 9022SOL     OW27964   3.130   0.642   6.968
 9022SOL    HW127965   3.042   0.595   6.958
 9022SOL    HW227966   3.195   0.581   7.013
 9023SOL     OW27967   3.188   3.010   3.334
 9023SOL    HW127968   3.203   2.939   3.403
 9023SOL    HW227969   3.267   3.013   3.272
 9024SOL     OW27970   1.723   6.444   0.452
 9024SOL    HW127971   1.797   6.407   0.508
 9024SOL    HW227972   1.754   6.525   0.403
 9025SOL     OW27973   5.958   4.967   0.600
 9025SOL    HW127974   5.954   4.982   0.699
 9025SOL    HW227975   6.037   4.910   0.578
 9026SOL     OW27976   3.307   2.865   5.173
 9026SOL    HW127977   3.238   2.793   5.176
 9026SOL    HW227978   3.389   2.833   5.220
 9027SOL     OW27979   2.163   2.708   3.486
 9027SOL    HW127980   2.105   2.788   3.470
 9027SOL    HW227981   2.113   2.640   3.539
 9028SOL     OW27982   2.639   4.688   4.569
 9028SOL    HW127983   2.591   4.601   4.580
 9028SOL    HW227984   2.618   4.727   4.479
 9029SOL     OW27985   5.052   5.646   3.178
 9029SOL    HW127986   4.994   5.723   3.204
 9029SOL    HW227987   5.015   5.604   3.095
 9030SOL     OW27988   2.565   1.138   1.554
 9030SOL    HW127989   2.486   1.137   1.493
 9030SOL    HW227990   2.548   1.080   1.633
 9031SOL     OW27991   2.464   6.688   6.853
 9031SOL    HW127992   2.444   6.591   6.837
 9031SOL    HW227993   2.420   6.743   6.781
 9032SOL     OW27994   1.923   1.542   2.009
 9032SOL    HW127995   2.020   1.558   1.991
 9032SOL    HW227996   1.897   1.583   2.096
 9033SOL     OW27997   1.052   3.575   2.591
 9033SOL    HW127998   0.996   3.561   2.509
 9033SOL    HW227999   1.141   3.529   2.579
 9034SOL     OW28000   3.097   6.490   6.066
 9034SOL    HW128001   3.182   6.497   6.014
 9034SOL    HW228002   3.023   6.531   6.013
 9035SOL     OW28003   6.845   1.500   4.901
 9035SOL    HW128004   6.873   1.592   4.871
 9035SOL    HW228005   6.750   1.503   4.932
 9036SOL     OW28006   1.548   1.705   5.172
 9036SOL    HW128007   1.567   1.766   5.095
 9036SOL    HW228008   1.457   1.663   5.160
 9037SOL     OW28009   2.106   3.682   6.140
 9037SOL    HW128010   2.081   3.703   6.045
 9037SOL    HW228011   2.070   3.754   6.200
 9038SOL     OW28012   5.776   6.504   5.439
 9038SOL    HW128013   5.759   6.407   5.454
 9038SOL    HW228014   5.873   6.523   5.453
 9039SOL     OW28015   1.903   5.427   5.510
 9039SOL    HW128016   1.907   5.344   5.454
 9039SOL    HW228017   1.995   5.461   5.526
 9040SOL     OW28018   2.215   1.039   2.594
 9040SOL    HW128019   2.198   1.083   2.506
 9040SOL    HW228020   2.287   1.088   2.643
 9041SOL     OW28021   1.826   3.430   6.862
 9041SOL    HW128022   1.752   3.484   6.823
 9041SOL    HW228023   1.911   3.449   6.813
 9042SOL     OW28024   3.127   4.896   3.565
 9042SOL    HW128025   3.122   4.844   3.650
 9042SOL    HW228026   3.126   4.994   3.584
 9043SOL     OW28027   0.010   2.308   6.124
 9043SOL    HW128028   0.020   2.403   6.092
 9043SOL    HW228029   7.016   2.249   6.046
 9044SOL     OW28030   6.196   6.000   0.455
 9044SOL    HW128031   6.125   5.931   0.442
 9044SOL    HW228032   6.221   6.005   0.552
 9045SOL     OW28033   3.398   6.385   4.283
 9045SOL    HW128034   3.373   6.403   4.378
 9045SOL    HW228035   3.342   6.441   4.222
 9046SOL     OW28036   3.493   4.157   5.147
 9046SOL    HW128037   3.533   4.067   5.164
 9046SOL    HW228038   3.395   4.154   5.165
 9047SOL     OW28039   1.202   4.806   5.158
 9047SOL    HW128040   1.220   4.708   5.152
 9047SOL    HW228041   1.225   4.839   5.249
 9048SOL     OW28042   0.819   2.769   4.511
 9048SOL    HW128043   0.812   2.687   4.569
 9048SOL    HW228044   0.731   2.815   4.508
 9049SOL     OW28045   5.285   5.431   5.824
 9049SOL    HW128046   5.294   5.370   5.746
 9049SOL    HW228047   5.365   5.419   5.884
 9050SOL     OW28048   0.392   5.361   5.912
 9050SOL    HW128049   0.453   5.312   5.974
 9050SOL    HW228050   0.367   5.449   5.953
 9051SOL     OW28051   5.303   6.513   6.081
 9051SOL    HW128052   5.309   6.557   5.991
 9051SOL    HW228053   5.394   6.481   6.108
 9052SOL     OW28054   2.144   5.231   5.134
 9052SOL    HW128055   2.165   5.295   5.059
 9052SOL    HW228056   2.160   5.137   5.103
 9053SOL     OW28057   3.212   1.662   3.467
 9053SOL    HW128058   3.197   1.708   3.555
 9053SOL    HW228059   3.242   1.729   3.399
 9054SOL     OW28060   3.170   0.314   0.914
 9054SOL    HW128061   3.122   0.255   0.979
 9054SOL    HW228062   3.213   0.390   0.962
 9055SOL     OW28063   1.426   2.280   3.619
 9055SOL    HW128064   1.489   2.203   3.626
 9055SOL    HW228065   1.446   2.332   3.536
 9056SOL     OW28066   5.386   1.369   2.855
 9056SOL    HW128067   5.430   1.395   2.769
 9056SOL    HW228068   5.443   1.399   2.932
 9057SOL     OW28069   4.897   5.820   6.258
 9057SOL    HW128070   4.916   5.809   6.161
 9057SOL    HW228071   4.801   5.799   6.277
 9058SOL     OW28072   1.542   3.179   4.582
 9058SOL    HW128073   1.588   3.105   4.631
 9058SOL    HW228074   1.454   3.146   4.548
 9059SOL     OW28075   0.382   1.477   2.167
 9059SOL    HW128076   0.340   1.563   2.195
 9059SOL    HW228077   0.422   1.431   2.246
 9060SOL     OW28078   0.406   4.851   0.989
 9060SOL    HW128079   0.334   4.918   1.006
 9060SOL    HW228080   0.489   4.879   1.038
 9061SOL     OW28081   5.337   4.779   2.101
 9061SOL    HW128082   5.341   4.858   2.040
 9061SOL    HW228083   5.420   4.724   2.090
 9062SOL     OW28084   0.578   5.704   3.527
 9062SOL    HW128085   0.603   5.641   3.454
 9062SOL    HW228086   0.576   5.655   3.614
 9063SOL     OW28087   3.575   1.468   1.645
 9063SOL    HW128088   3.592   1.424   1.557
 9063SOL    HW228089   3.643   1.540   1.660
 9064SOL     OW28090   0.782   5.163   3.462
 9064SOL    HW128091   0.864   5.207   3.497
 9064SOL    HW228092   0.714   5.233   3.439
 9065SOL     OW28093   2.338   4.577   5.296
 9065SOL    HW128094   2.380   4.638   5.363
 9065SOL    HW228095   2.388   4.491   5.292
 9066SOL     OW28096   4.787   4.754   5.437
 9066SOL    HW128097   4.838   4.763   5.523
 9066SOL    HW228098   4.765   4.657   5.422
 9067SOL     OW28099   0.549   6.911   4.418
 9067SOL    HW128100   0.619   6.863   4.366
 9067SOL    HW228101   0.499   6.845   4.474
 9068SOL     OW28102   4.916   6.947   4.952
 9068SOL    HW128103   4.968   6.908   5.028
 9068SOL    HW228104   4.825   6.906   4.949
 9069SOL     OW28105   5.032   1.739   1.547
 9069SOL    HW128106   5.091   1.810   1.510
 9069SOL    HW228107   5.004   1.676   1.474
 9070SOL     OW28108   1.402   1.911   6.214
 9070SOL    HW128109   1.323   1.881   6.160
 9070SOL    HW228110   1.414   2.010   6.204
 9071SOL     OW28111   4.883   1.531   5.612
 9071SOL    HW128112   4.879   1.555   5.515
 9071SOL    HW228113   4.868   1.614   5.666
 9072SOL     OW28114   4.775   1.012   2.693
 9072SOL    HW128115   4.693   1.004   2.638
 9072SOL    HW228116   4.811   1.105   2.686
 9073SOL     OW28117   4.704   1.356   6.359
 9073SOL    HW128118   4.641   1.430   6.337
 9073SOL    HW228119   4.719   1.300   6.278
 9074SOL     OW28120   1.859   0.096   2.179
 9074SOL    HW128121   1.858   0.191   2.209
 9074SOL    HW228122   1.916   0.042   2.242
 9075SOL     OW28123   6.597   6.613   1.354
 9075SOL    HW128124   6.613   6.711   1.366
 9075SOL    HW228125   6.642   6.582   1.271
 9076SOL     OW28126   6.805   0.810   1.966
 9076SOL    HW128127   6.870   0.779   1.897
 9076SOL    HW228128   6.786   0.736   2.030
 9077SOL     OW28129   6.181   1.483   6.344
 9077SOL    HW128130   6.281   1.479   6.354
 9077SOL    HW228131   6.151   1.414   6.278
 9078SOL     OW28132   5.178   5.704   6.808
 9078SOL    HW128133   5.213   5.703   6.715
 9078SOL    HW228134   5.223   5.633   6.862
 9079SOL     OW28135   1.480   0.594   6.426
 9079SOL    HW128136   1.501   0.665   6.493
 9079SOL    HW228137   1.382   0.592   6.408
 9080SOL     OW28138   5.613   3.675   1.547
 9080SOL    HW128139   5.531   3.707   1.595
 9080SOL    HW228140   5.638   3.584   1.579
 9081SOL     OW28141   4.096   2.055   0.645
 9081SOL    HW128142   4.165   2.018   0.583
 9081SOL    HW228143   4.092   2.155   0.633
 9082SOL     OW28144   2.778   6.099   5.770
 9082SOL    HW128145   2.739   6.135   5.855
 9082SOL    HW228146   2.708   6.050   5.719
 9083SOL     OW28147   4.077   5.308   0.103
 9083SOL    HW128148   4.072   5.329   0.006
 9083SOL    HW228149   3.997   5.253   0.130
 9084SOL     OW28150   0.405   2.783   6.012
 9084SOL    HW128151   0.407   2.863   5.952
 9084SOL    HW228152   0.450   2.707   5.967
 9085SOL     OW28153   2.684   5.156   0.015
 9085SOL    HW128154   2.691   5.085   6.969
 9085SOL    HW228155   2.666   5.113   0.104
 9086SOL     OW28156   6.714   4.214   0.625
 9086SOL    HW128157   6.651   4.168   0.562
 9086SOL    HW228158   6.782   4.148   0.657
 9087SOL     OW28159   6.149   0.812   1.208
 9087SOL    HW128160   6.072   0.792   1.268
 9087SOL    HW228161   6.226   0.845   1.262
 9088SOL     OW28162   6.900   6.989   0.612
 9088SOL    HW128163   6.822   6.992   0.550
 9088SOL    HW228164   6.869   7.004   0.706
 9089SOL     OW28165   4.911   5.640   3.841
 9089SOL    HW128166   4.864   5.722   3.874
 9089SOL    HW228167   4.851   5.561   3.850
 9090SOL     OW28168   5.721   6.578   4.698
 9090SOL    HW128169   5.767   6.578   4.787
 9090SOL    HW228170   5.680   6.489   4.681
 9091SOL     OW28171   2.290   1.937   1.573
 9091SOL    HW128172   2.335   1.856   1.609
 9091SOL    HW228173   2.358   2.005   1.546
 9092SOL     OW28174   1.253   6.481   5.729
 9092SOL    HW128175   1.227   6.555   5.667
 9092SOL    HW228176   1.309   6.415   5.680
 9093SOL     OW28177   2.134   5.142   0.631
 9093SOL    HW128178   2.088   5.162   0.718
 9093SOL    HW228179   2.217   5.197   0.625
 9094SOL     OW28180   0.381   5.354   2.029
 9094SOL    HW128181   0.476   5.365   2.001
 9094SOL    HW228182   0.368   5.264   2.070
 9095SOL     OW28183   3.568   3.436   6.786
 9095SOL    HW128184   3.474   3.434   6.750
 9095SOL    HW228185   3.608   3.345   6.778
 9096SOL     OW28186   5.883   2.681   2.871
 9096SOL    HW128187   5.879   2.609   2.802
 9096SOL    HW228188   5.857   2.768   2.829
 9097SOL     OW28189   1.120   4.170   6.758
 9097SOL    HW128190   1.174   4.250   6.733
 9097SOL    HW228191   1.096   4.119   6.676
 9098SOL     OW28192   3.933   4.013   2.198
 9098SOL    HW128193   3.997   4.063   2.257
 9098SOL    HW228194   3.859   3.975   2.253
 9099SOL     OW28195   2.695   3.577   1.210
 9099SOL    HW128196   2.597   3.579   1.196
 9099SOL    HW228197   2.734   3.666   1.187
 9100SOL     OW28198   1.015   3.039   0.799
 9100SOL    HW128199   1.107   3.002   0.784
 9100SOL    HW228200   0.954   2.966   0.828
 9101SOL     OW28201   1.538   2.571   2.183
 9101SOL    HW128202   1.530   2.644   2.252
 9101SOL    HW228203   1.515   2.608   2.093
 9102SOL     OW28204   3.906   5.550   1.922
 9102SOL    HW128205   3.965   5.563   2.002
 9102SOL    HW228206   3.884   5.639   1.882
 9103SOL     OW28207   6.895   3.939   1.019
 9103SOL    HW128208   6.943   4.026   1.006
 9103SOL    HW228209   6.829   3.947   1.093
 9104SOL     OW28210   4.619   6.443   1.483
 9104SOL    HW128211   4.687   6.450   1.410
 9104SOL    HW228212   4.665   6.420   1.569
 9105SOL     OW28213   1.473   1.496   6.558
 9105SOL    HW128214   1.439   1.558   6.487
 9105SOL    HW228215   1.529   1.425   6.516
 9106SOL     OW28216   5.613   4.937   6.948
 9106SOL    HW128217   5.628   4.838   6.955
 9106SOL    HW228218   5.543   4.964   7.013
 9107SOL     OW28219   3.514   0.062   0.717
 9107SOL    HW128220   3.599   0.109   0.697
 9107SOL    HW228221   3.437   0.123   0.700
 9108SOL     OW28222   4.451   5.295   5.161
 9108SOL    HW128223   4.413   5.264   5.073
 9108SOL    HW228224   4.386   5.275   5.234
 9109SOL     OW28225   3.352   2.088   3.854
 9109SOL    HW128226   3.411   2.146   3.797
 9109SOL    HW228227   3.265   2.075   3.808
 9110SOL     OW28228   1.714   4.225   3.787
 9110SOL    HW128229   1.663   4.139   3.783
 9110SOL    HW228230   1.780   4.227   3.712
 9111SOL     OW28231   3.968   4.466   1.401
 9111SOL    HW128232   3.992   4.398   1.332
 9111SOL    HW228233   3.872   4.493   1.389
 9112SOL     OW28234   0.337   4.361   2.116
 9112SOL    HW128235   0.379   4.287   2.169
 9112SOL    HW228236   0.344   4.447   2.166
 9113SOL     OW28237   5.180   0.201   0.291
 9113SOL    HW128238   5.218   0.243   0.209
 9113SOL    HW228239   5.084   0.225   0.300
 9114SOL     OW28240   2.420   4.899   2.017
 9114SOL    HW128241   2.480   4.897   2.097
 9114SOL    HW228242   2.330   4.862   2.042
 9115SOL     OW28243   1.308   4.979   4.733
 9115SOL    HW128244   1.300   5.005   4.829
 9115SOL    HW228245   1.394   4.931   4.719
 9116SOL     OW28246   6.977   1.677   6.649
 9116SOL    HW128247   0.030   1.654   6.709
 9116SOL    HW228248   7.008   1.736   6.575
 9117SOL     OW28249   6.333   2.547   6.757
 9117SOL    HW128250   6.343   2.642   6.727
 9117SOL    HW228251   6.236   2.523   6.758
 9118SOL     OW28252   0.017   6.376   1.300
 9118SOL    HW128253   0.053   6.285   1.320
 9118SOL    HW228254   7.018   6.381   1.203
 9119SOL     OW28255   5.712   0.487   2.165
 9119SOL    HW128256   5.726   0.568   2.223
 9119SOL    HW228257   5.626   0.496   2.114
 9120SOL     OW28258   5.752   1.213   5.887
 9120SOL    HW128259   5.789   1.274   5.957
 9120SOL    HW228260   5.768   1.252   5.796
 9121SOL     OW28261   0.275   2.663   5.735
 9121SOL    HW128262   0.230   2.743   5.773
 9121SOL    HW228263   0.293   2.679   5.637
 9122SOL     OW28264   1.724   2.649   3.155
 9122SOL    HW128265   1.705   2.730   3.211
 9122SOL    HW228266   1.771   2.676   3.071
 9123SOL     OW28267   2.637   6.470   6.114
 9123SOL    HW128268   2.731   6.491   6.143
 9123SOL    HW228269   2.572   6.509   6.179
 9124SOL     OW28270   6.577   5.999   5.295
 9124SOL    HW128271   6.597   5.945   5.214
 9124SOL    HW228272   6.487   5.974   5.330
 9125SOL     OW28273   5.031   4.239   3.535
 9125SOL    HW128274   5.022   4.338   3.547
 9125SOL    HW228275   5.024   4.216   3.438
 9126SOL     OW28276   5.634   1.019   1.719
 9126SOL    HW128277   5.611   1.115   1.705
 9126SOL    HW228278   5.729   1.012   1.750
 9127SOL     OW28279   5.554   0.416   6.316
 9127SOL    HW128280   5.516   0.488   6.258
 9127SOL    HW228281   5.515   0.328   6.289
 9128SOL     OW28282   3.733   1.872   5.409
 9128SOL    HW128283   3.821   1.884   5.364
 9128SOL    HW228284   3.685   1.794   5.370
 9129SOL     OW28285   1.610   2.436   6.488
 9129SOL    HW128286   1.635   2.482   6.404
 9129SOL    HW228287   1.554   2.496   6.545
 9130SOL     OW28288   6.811   4.613   0.227
 9130SOL    HW128289   6.882   4.544   0.239
 9130SOL    HW228290   6.721   4.571   0.242
 9131SOL     OW28291   0.527   4.358   4.389
 9131SOL    HW128292   0.440   4.319   4.357
 9131SOL    HW228293   0.515   4.394   4.481
 9132SOL     OW28294   6.555   3.573   3.641
 9132SOL    HW128295   6.624   3.505   3.665
 9132SOL    HW228296   6.595   3.665   3.648
 9133SOL     OW28297   2.333   4.433   1.206
 9133SOL    HW128298   2.296   4.396   1.291
 9133SOL    HW228299   2.433   4.427   1.207
 9134SOL     OW28300   3.866   6.957   0.305
 9134SOL    HW128301   3.959   6.921   0.295
 9134SOL    HW228302   3.862   0.025   0.265
 9135SOL     OW28303   6.305   6.782   2.878
 9135SOL    HW128304   6.269   6.793   2.785
 9135SOL    HW228305   6.347   6.867   2.908
 9136SOL     OW28306   5.071   4.977   5.712
 9136SOL    HW128307   5.004   5.050   5.700
 9136SOL    HW228308   5.122   4.963   5.627
 9137SOL     OW28309   5.413   1.614   1.408
 9137SOL    HW128310   5.490   1.627   1.345
 9137SOL    HW228311   5.328   1.641   1.363
 9138SOL     OW28312   6.032   4.733   6.119
 9138SOL    HW128313   6.023   4.832   6.128
 9138SOL    HW228314   6.128   4.708   6.116
 9139SOL     OW28315   3.119   1.104   6.007
 9139SOL    HW128316   3.208   1.143   6.032
 9139SOL    HW228317   3.131   1.042   5.930
 9140SOL     OW28318   6.320   2.432   2.921
 9140SOL    HW128319   6.288   2.384   2.839
 9140SOL    HW228320   6.286   2.385   3.002
 9141SOL     OW28321   5.389   0.444   6.017
 9141SOL    HW128322   5.434   0.527   5.982
 9141SOL    HW228323   5.455   0.369   6.018
 9142SOL     OW28324   0.282   3.360   5.320
 9142SOL    HW128325   0.372   3.389   5.352
 9142SOL    HW228326   0.263   3.401   5.231
 9143SOL     OW28327   4.351   3.196   0.341
 9143SOL    HW128328   4.304   3.259   0.403
 9143SOL    HW228329   4.367   3.240   0.253
 9144SOL     OW28330   1.946   6.170   5.950
 9144SOL    HW128331   2.025   6.146   6.007
 9144SOL    HW228332   1.963   6.257   5.904
 9145SOL     OW28333   0.336   4.629   0.805
 9145SOL    HW128334   0.390   4.571   0.744
 9145SOL    HW228335   0.390   4.649   0.887
 9146SOL     OW28336   5.560   2.572   1.737
 9146SOL    HW128337   5.544   2.474   1.741
 9146SOL    HW228338   5.481   2.617   1.695
 9147SOL     OW28339   4.747   6.433   3.895
 9147SOL    HW128340   4.763   6.524   3.934
 9147SOL    HW228341   4.716   6.444   3.800
 9148SOL     OW28342   5.775   6.344   2.424
 9148SOL    HW128343   5.727   6.283   2.361
 9148SOL    HW228344   5.724   6.429   2.433
 9149SOL     OW28345   4.911   3.047   4.066
 9149SOL    HW128346   4.883   3.014   3.975
 9149SOL    HW228347   4.850   3.010   4.135
 9150SOL     OW28348   4.594   6.327   2.734
 9150SOL    HW128349   4.587   6.242   2.681
 9150SOL    HW228350   4.503   6.366   2.747
 9151SOL     OW28351   1.531   4.109   1.737
 9151SOL    HW128352   1.629   4.091   1.736
 9151SOL    HW228353   1.514   4.205   1.716
 9152SOL     OW28354   2.444   5.874   4.217
 9152SOL    HW128355   2.528   5.911   4.177
 9152SOL    HW228356   2.460   5.779   4.246
 9153SOL     OW28357   1.382   2.375   6.875
 9153SOL    HW128358   1.329   2.456   6.900
 9153SOL    HW228359   1.344   2.334   6.792
 9154SOL     OW28360   2.847   6.170   6.335
 9154SOL    HW128361   2.876   6.260   6.301
 9154SOL    HW228362   2.826   6.110   6.257
 9155SOL     OW28363   2.016   3.518   6.704
 9155SOL    HW128364   2.038   3.615   6.700
 9155SOL    HW228365   2.044   3.474   6.618
 9156SOL     OW28366   3.106   2.433   1.548
 9156SOL    HW128367   3.186   2.483   1.513
 9156SOL    HW228368   3.128   2.336   1.552
 9157SOL     OW28369   5.983   4.798   5.420
 9157SOL    HW128370   5.985   4.740   5.501
 9157SOL    HW228371   6.069   4.789   5.370
 9158SOL     OW28372   6.937   3.857   4.633
 9158SOL    HW128373   6.910   3.950   4.658
 9158SOL    HW228374   6.856   3.799   4.625
 9159SOL     OW28375   0.255   5.776   3.178
 9159SOL    HW128376   0.266   5.742   3.085
 9159SOL    HW228377   0.256   5.699   3.242
 9160SOL     OW28378   0.231   6.700   5.680
 9160SOL    HW128379   0.261   6.672   5.771
 9160SOL    HW228380   0.159   6.768   5.687
 9161SOL     OW28381   4.972   4.230   4.912
 9161SOL    HW128382   5.017   4.165   4.972
 9161SOL    HW228383   4.876   4.241   4.940
 9162SOL     OW28384   5.074   2.329   3.281
 9162SOL    HW128385   5.006   2.321   3.208
 9162SOL    HW228386   5.081   2.425   3.309
 9163SOL     OW28387   2.236   2.780   4.093
 9163SOL    HW128388   2.179   2.713   4.046
 9163SOL    HW228389   2.224   2.870   4.051
 9164SOL     OW28390   2.801   0.640   6.737
 9164SOL    HW128391   2.839   0.599   6.820
 9164SOL    HW228392   2.835   0.592   6.657
 9165SOL     OW28393   6.283   0.601   5.684
 9165SOL    HW128394   6.287   0.579   5.782
 9165SOL    HW228395   6.213   0.545   5.641
 9166SOL     OW28396   4.816   6.426   1.278
 9166SOL    HW128397   4.884   6.427   1.351
 9166SOL    HW228398   4.853   6.474   1.198
 9167SOL     OW28399   1.696   3.152   6.072
 9167SOL    HW128400   1.683   3.219   6.000
 9167SOL    HW228401   1.793   3.149   6.097
 9168SOL     OW28402   2.488   0.092   5.945
 9168SOL    HW128403   2.466   7.023   5.974
 9168SOL    HW228404   2.481   0.098   5.846
 9169SOL     OW28405   0.057   0.720   5.089
 9169SOL    HW128406   0.005   0.635   5.086
 9169SOL    HW228407   7.022   0.797   5.064
 9170SOL     OW28408   0.182   5.050   6.612
 9170SOL    HW128409   0.189   5.016   6.518
 9170SOL    HW228410   0.091   5.032   6.648
 9171SOL     OW28411   3.214   5.948   6.978
 9171SOL    HW128412   3.213   5.850   6.956
 9171SOL    HW228413   3.290   5.993   6.930
 9172SOL     OW28414   3.398   1.133   4.828
 9172SOL    HW128415   3.416   1.163   4.735
 9172SOL    HW228416   3.328   1.061   4.827
 9173SOL     OW28417   5.460   4.973   4.738
 9173SOL    HW128418   5.365   4.945   4.725
 9173SOL    HW228419   5.470   5.016   4.828
 9174SOL     OW28420   6.042   3.825   0.712
 9174SOL    HW128421   6.050   3.737   0.665
 9174SOL    HW228422   6.085   3.819   0.802
 9175SOL     OW28423   2.509   6.234   5.253
 9175SOL    HW128424   2.586   6.174   5.229
 9175SOL    HW228425   2.447   6.241   5.175
 9176SOL     OW28426   1.765   1.054   5.237
 9176SOL    HW128427   1.858   1.090   5.232
 9176SOL    HW228428   1.708   1.117   5.289
 9177SOL     OW28429   1.017   4.405   4.030
 9177SOL    HW128430   1.005   4.306   4.029
 9177SOL    HW228431   0.959   4.447   3.960
 9178SOL     OW28432   2.097   4.770   0.738
 9178SOL    HW128433   2.028   4.715   0.691
 9178SOL    HW228434   2.070   4.866   0.736
 9179SOL     OW28435   2.375   5.082   4.028
 9179SOL    HW128436   2.309   5.108   4.098
 9179SOL    HW228437   2.433   5.009   4.063
 9180SOL     OW28438   6.167   2.263   3.130
 9180SOL    HW128439   6.093   2.288   3.192
 9180SOL    HW228440   6.130   2.253   3.038
 9181SOL     OW28441   4.547   2.550   3.068
 9181SOL    HW128442   4.504   2.500   2.993
 9181SOL    HW228443   4.514   2.515   3.156
 9182SOL     OW28444   2.909   0.200   2.493
 9182SOL    HW128445   2.814   0.177   2.516
 9182SOL    HW228446   2.914   0.298   2.473
 9183SOL     OW28447   5.482   6.084   0.554
 9183SOL    HW128448   5.533   6.165   0.526
 9183SOL    HW228449   5.486   6.015   0.481
 9184SOL     OW28450   5.175   0.925   0.476
 9184SOL    HW128451   5.149   0.986   0.551
 9184SOL    HW228452   5.225   0.978   0.406
 9185SOL     OW28453   4.166   6.991   5.500
 9185SOL    HW128454   4.098   7.004   5.428
 9185SOL    HW228455   4.235   0.039   5.494
 9186SOL     OW28456   6.245   1.757   4.464
 9186SOL    HW128457   6.307   1.835   4.477
 9186SOL    HW228458   6.219   1.721   4.553
 9187SOL     OW28459   2.363   0.031   1.335
 9187SOL    HW128460   2.288   6.989   1.323
 9187SOL    HW228461   2.330   0.123   1.315
 9188SOL     OW28462   2.367   6.433   1.657
 9188SOL    HW128463   2.458   6.410   1.622
 9188SOL    HW228464   2.303   6.360   1.632
 9189SOL     OW28465   5.425   6.074   2.487
 9189SOL    HW128466   5.493   6.081   2.559
 9189SOL    HW228467   5.364   6.153   2.491
 9190SOL     OW28468   1.747   5.332   0.483
 9190SOL    HW128469   1.683   5.275   0.534
 9190SOL    HW228470   1.721   5.333   0.387
 9191SOL     OW28471   5.932   1.202   5.280
 9191SOL    HW128472   5.865   1.152   5.225
 9191SOL    HW228473   6.008   1.141   5.302
 9192SOL     OW28474   0.304   3.892   4.488
 9192SOL    HW128475   0.280   3.832   4.564
 9192SOL    HW228476   0.278   3.986   4.508
 9193SOL     OW28477   4.376   3.819   6.952
 9193SOL    HW128478   4.378   3.741   7.015
 9193SOL    HW228479   4.420   3.793   6.866
 9194SOL     OW28480   3.543   0.678   3.491
 9194SOL    HW128481   3.515   0.627   3.573
 9194SOL    HW228482   3.523   0.775   3.504
 9195SOL     OW28483   1.941   2.359   4.302
 9195SOL    HW128484   2.007   2.305   4.354
 9195SOL    HW228485   1.936   2.326   4.209
 9196SOL     OW28486   4.112   1.205   5.186
 9196SOL    HW128487   4.062   1.128   5.227
 9196SOL    HW228488   4.180   1.170   5.121
 9197SOL     OW28489   1.992   4.505   1.597
 9197SOL    HW128490   1.904   4.547   1.620
 9197SOL    HW228491   2.049   4.572   1.549
 9198SOL     OW28492   6.382   5.328   5.173
 9198SOL    HW128493   6.298   5.274   5.177
 9198SOL    HW228494   6.413   5.336   5.078
 9199SOL     OW28495   0.566   3.422   6.438
 9199SOL    HW128496   0.651   3.393   6.394
 9199SOL    HW228497   0.570   3.520   6.457
 9200SOL     OW28498   2.334   6.747   1.117
 9200SOL    HW128499   2.278   6.689   1.057
 9200SOL    HW228500   2.288   6.758   1.205
 9201SOL     OW28501   0.501   3.386   0.314
 9201SOL    HW128502   0.587   3.338   0.301
 9201SOL    HW228503   0.425   3.328   0.284
 9202SOL     OW28504   2.458   6.692   3.771
 9202SOL    HW128505   2.470   6.772   3.830
 9202SOL    HW228506   2.377   6.641   3.799
 9203SOL     OW28507   0.339   5.392   6.916
 9203SOL    HW128508   0.437   5.401   6.900
 9203SOL    HW228509   0.289   5.440   6.844
 9204SOL     OW28510   4.936   2.605   6.867
 9204SOL    HW128511   4.838   2.622   6.877
 9204SOL    HW228512   4.954   2.562   6.778
 9205SOL     OW28513   6.345   4.223   2.784
 9205SOL    HW128514   6.407   4.148   2.810
 9205SOL    HW228515   6.331   4.221   2.685
 9206SOL     OW28516   3.533   5.327   1.329
 9206SOL    HW128517   3.480   5.246   1.304
 9206SOL    HW228518   3.525   5.342   1.428
 9207SOL     OW28519   4.307   5.192   0.195
 9207SOL    HW128520   4.309   5.180   0.294
 9207SOL    HW228521   4.222   5.238   0.168
 9208SOL     OW28522   5.999   4.223   4.497
 9208SOL    HW128523   5.934   4.299   4.498
 9208SOL    HW228524   5.955   4.142   4.457
 9209SOL     OW28525   3.026   1.291   0.351
 9209SOL    HW128526   2.989   1.253   0.436
 9209SOL    HW228527   3.095   1.228   0.314
 9210SOL     OW28528   6.475   1.563   3.225
 9210SOL    HW128529   6.536   1.568   3.146
 9210SOL    HW228530   6.391   1.516   3.199
 9211SOL     OW28531   6.937   2.542   4.033
 9211SOL    HW128532   6.932   2.635   3.998
 9211SOL    HW228533   6.845   2.509   4.054
 9212SOL     OW28534   4.062   5.186   4.694
 9212SOL    HW128535   3.995   5.112   4.706
 9212SOL    HW228536   4.056   5.221   4.600
 9213SOL     OW28537   6.076   3.097   5.303
 9213SOL    HW128538   6.144   3.034   5.266
 9213SOL    HW228539   5.987   3.052   5.306
 9214SOL     OW28540   6.730   5.569   5.751
 9214SOL    HW128541   6.689   5.656   5.723
 9214SOL    HW228542   6.736   5.566   5.851
 9215SOL     OW28543   0.872   2.319   0.360
 9215SOL    HW128544   0.849   2.258   0.436
 9215SOL    HW228545   0.813   2.298   0.282
 9216SOL     OW28546   2.725   0.075   3.343
 9216SOL    HW128547   2.791   0.131   3.294
 9216SOL    HW228548   2.642   0.129   3.359
 9217SOL     OW28549   0.366   0.998   6.082
 9217SOL    HW128550   0.324   0.981   6.171
 9217SOL    HW228551   0.461   1.026   6.094
 9218SOL     OW28552   3.903   6.532   0.354
 9218SOL    HW128553   3.856   6.447   0.378
 9218SOL    HW228554   3.835   6.602   0.330
 9219SOL     OW28555   0.524   2.932   0.200
 9219SOL    HW128556   0.432   2.970   0.190
 9219SOL    HW228557   0.572   2.938   0.112
 9220SOL     OW28558   3.380   6.148   1.243
 9220SOL    HW128559   3.380   6.240   1.205
 9220SOL    HW228560   3.432   6.087   1.183
 9221SOL     OW28561   3.718   0.672   4.195
 9221SOL    HW128562   3.785   0.728   4.146
 9221SOL    HW228563   3.630   0.719   4.195
 9222SOL     OW28564   2.537   0.371   6.638
 9222SOL    HW128565   2.599   0.447   6.624
 9222SOL    HW228566   2.449   0.404   6.673
 9223SOL     OW28567   1.872   2.156   5.108
 9223SOL    HW128568   1.826   2.235   5.067
 9223SOL    HW228569   1.966   2.152   5.074
 9224SOL     OW28570   3.009   5.320   4.367
 9224SOL    HW128571   3.065   5.400   4.392
 9224SOL    HW228572   2.936   5.308   4.434
 9225SOL     OW28573   3.387   6.549   6.546
 9225SOL    HW128574   3.396   6.632   6.491
 9225SOL    HW228575   3.305   6.500   6.519
 9226SOL     OW28576   5.693   6.461   1.348
 9226SOL    HW128577   5.646   6.449   1.261
 9226SOL    HW228578   5.753   6.382   1.365
 9227SOL     OW28579   1.088   4.946   3.541
 9227SOL    HW128580   1.021   4.938   3.467
 9227SOL    HW228581   1.174   4.905   3.512
 9228SOL     OW28582   1.293   0.726   5.713
 9228SOL    HW128583   1.242   0.811   5.722
 9228SOL    HW228584   1.384   0.738   5.755
 9229SOL     OW28585   1.853   5.701   4.277
 9229SOL    HW128586   1.812   5.626   4.226
 9229SOL    HW228587   1.942   5.673   4.314
 9230SOL     OW28588   5.813   0.252   2.376
 9230SOL    HW128589   5.869   0.179   2.338
 9230SOL    HW228590   5.753   0.290   2.305
 9231SOL     OW28591   2.006   3.163   4.252
 9231SOL    HW128592   2.060   3.246   4.268
 9231SOL    HW228593   2.030   3.094   4.320
 9232SOL     OW28594   3.538   5.021   1.345
 9232SOL    HW128595   3.535   4.945   1.409
 9232SOL    HW228596   3.484   4.998   1.264
 9233SOL     OW28597   6.099   5.324   1.597
 9233SOL    HW128598   6.198   5.314   1.605
 9233SOL    HW228599   6.069   5.399   1.657
 9234SOL     OW28600   3.206   5.545   4.066
 9234SOL    HW128601   3.115   5.570   4.035
 9234SOL    HW228602   3.237   5.609   4.136
 9235SOL     OW28603   1.893   1.769   3.087
 9235SOL    HW128604   1.948   1.786   3.170
 9235SOL    HW228605   1.895   1.671   3.066
 9236SOL     OW28606   3.639   4.158   5.493
 9236SOL    HW128607   3.706   4.144   5.566
 9236SOL    HW228608   3.671   4.231   5.432
 9237SOL     OW28609   1.552   4.402   4.628
 9237SOL    HW128610   1.557   4.385   4.530
 9237SOL    HW228611   1.588   4.323   4.678
 9238SOL     OW28612   4.234   2.191   6.061
 9238SOL    HW128613   4.187   2.219   5.977
 9238SOL    HW228614   4.323   2.237   6.067
 9239SOL     OW28615   0.147   3.811   1.057
 9239SOL    HW128616   0.065   3.834   1.003
 9239SOL    HW228617   0.130   3.835   1.153
 9240SOL     OW28618   5.828   1.648   0.559
 9240SOL    HW128619   5.824   1.676   0.463
 9240SOL    HW228620   5.816   1.549   0.564
 9241SOL     OW28621   6.489   5.588   6.389
 9241SOL    HW128622   6.586   5.564   6.392
 9241SOL    HW228623   6.439   5.535   6.459
 9242SOL     OW28624   0.128   5.101   0.675
 9242SOL    HW128625   0.115   5.126   0.771
 9242SOL    HW228626   0.041   5.109   0.626
 9243SOL     OW28627   6.389   5.391   3.332
 9243SOL    HW128628   6.305   5.438   3.306
 9243SOL    HW228629   6.468   5.448   3.308
 9244SOL     OW28630   4.731   5.953   6.605
 9244SOL    HW128631   4.831   5.953   6.606
 9244SOL    HW228632   4.697   5.908   6.687
 9245SOL     OW28633   1.433   5.288   2.500
 9245SOL    HW128634   1.405   5.214   2.439
 9245SOL    HW228635   1.374   5.290   2.580
 9246SOL     OW28636   6.021   4.759   3.377
 9246SOL    HW128637   6.050   4.854   3.391
 9246SOL    HW228638   5.974   4.751   3.289
 9247SOL     OW28639   0.741   0.229   2.820
 9247SOL    HW128640   0.704   0.315   2.856
 9247SOL    HW228641   0.672   0.184   2.763
 9248SOL     OW28642   2.321   2.452   6.000
 9248SOL    HW128643   2.387   2.400   5.945
 9248SOL    HW228644   2.293   2.534   5.948
 9249SOL     OW28645   5.299   2.314   5.490
 9249SOL    HW128646   5.265   2.304   5.583
 9249SOL    HW228647   5.261   2.242   5.432
 9250SOL     OW28648   5.102   3.998   4.515
 9250SOL    HW128649   5.029   3.999   4.583
 9250SOL    HW228650   5.102   3.911   4.466
 9251SOL     OW28651   3.972   1.753   3.045
 9251SOL    HW128652   4.038   1.827   3.059
 9251SOL    HW228653   3.880   1.792   3.037
 9252SOL     OW28654   6.816   0.150   4.472
 9252SOL    HW128655   6.725   0.173   4.506
 9252SOL    HW228656   6.822   0.175   4.375
 9253SOL     OW28657   3.221   6.253   6.277
 9253SOL    HW128658   3.156   6.262   6.201
 9253SOL    HW228659   3.195   6.315   6.350
 9254SOL     OW28660   5.187   3.661   1.375
 9254SOL    HW128661   5.092   3.648   1.402
 9254SOL    HW228662   5.245   3.598   1.427
 9255SOL     OW28663   5.288   2.858   0.056
 9255SOL    HW128664   5.278   2.811   6.992
 9255SOL    HW228665   5.240   2.945   0.053
 9256SOL     OW28666   4.433   4.583   2.955
 9256SOL    HW128667   4.359   4.606   3.017
 9256SOL    HW228668   4.468   4.667   2.912
 9257SOL     OW28669   1.012   4.079   2.568
 9257SOL    HW128670   0.996   4.052   2.663
 9257SOL    HW228671   1.009   3.999   2.509
 9258SOL     OW28672   3.322   3.258   4.036
 9258SOL    HW128673   3.365   3.330   4.091
 9258SOL    HW228674   3.257   3.300   3.972
 9259SOL     OW28675   0.717   2.289   1.556
 9259SOL    HW128676   0.805   2.250   1.585
 9259SOL    HW228677   0.701   2.268   1.460
 9260SOL     OW28678   4.797   2.456   5.552
 9260SOL    HW128679   4.812   2.365   5.590
 9260SOL    HW228680   4.875   2.515   5.573
 9261SOL     OW28681   4.222   0.236   6.543
 9261SOL    HW128682   4.210   0.139   6.566
 9261SOL    HW228683   4.145   0.289   6.578
 9262SOL     OW28684   5.819   2.028   5.786
 9262SOL    HW128685   5.760   1.980   5.722
 9262SOL    HW228686   5.788   2.012   5.880
 9263SOL     OW28687   5.849   4.242   1.585
 9263SOL    HW128688   5.762   4.290   1.588
 9263SOL    HW228689   5.862   4.189   1.669
 9264SOL     OW28690   6.150   3.777   0.329
 9264SOL    HW128691   6.081   3.834   0.373
 9264SOL    HW228692   6.123   3.758   0.235
 9265SOL     OW28693   3.069   1.714   0.513
 9265SOL    HW128694   3.156   1.763   0.512
 9265SOL    HW228695   3.083   1.622   0.550
 9266SOL     OW28696   2.747   6.072   3.110
 9266SOL    HW128697   2.730   6.169   3.089
 9266SOL    HW228698   2.810   6.065   3.187
 9267SOL     OW28699   0.320   4.270   4.255
 9267SOL    HW128700   0.237   4.237   4.300
 9267SOL    HW228701   0.330   4.224   4.166
 9268SOL     OW28702   0.923   6.573   2.678
 9268SOL    HW128703   0.898   6.641   2.746
 9268SOL    HW228704   1.020   6.550   2.687
 9269SOL     OW28705   2.986   2.474   0.013
 9269SOL    HW128706   2.978   2.561   6.988
 9269SOL    HW228707   3.067   2.477   0.072
 9270SOL     OW28708   6.080   0.063   5.619
 9270SOL    HW128709   6.006   0.111   5.573
 9270SOL    HW228710   6.068   6.988   5.608
 9271SOL     OW28711   1.825   6.204   1.199
 9271SOL    HW128712   1.832   6.219   1.100
 9271SOL    HW228713   1.729   6.198   1.225
 9272SOL     OW28714   3.112   4.319   5.850
 9272SOL    HW128715   3.095   4.353   5.942
 9272SOL    HW228716   3.125   4.220   5.853
 9273SOL     OW28717   4.451   5.829   3.742
 9273SOL    HW128718   4.474   5.732   3.738
 9273SOL    HW228719   4.363   5.841   3.789
 9274SOL     OW28720   5.443   2.026   6.627
 9274SOL    HW128721   5.474   1.933   6.643
 9274SOL    HW228722   5.500   2.090   6.680
 9275SOL     OW28723   0.979   1.124   0.174
 9275SOL    HW128724   0.910   1.139   0.244
 9275SOL    HW228725   0.973   1.196   0.105
 9276SOL     OW28726   2.580   4.831   4.343
 9276SOL    HW128727   2.488   4.871   4.343
 9276SOL    HW228728   2.648   4.903   4.351
 9277SOL     OW28729   3.515   3.365   0.429
 9277SOL    HW128730   3.610   3.397   0.432
 9277SOL    HW228731   3.464   3.419   0.362
 9278SOL     OW28732   1.674   1.655   3.997
 9278SOL    HW128733   1.714   1.711   3.925
 9278SOL    HW228734   1.730   1.661   4.080
 9279SOL     OW28735   4.334   0.601   2.307
 9279SOL    HW128736   4.393   0.630   2.232
 9279SOL    HW228737   4.276   0.526   2.276
 9280SOL     OW28738   1.543   6.915   3.606
 9280SOL    HW128739   1.549   7.011   3.634
 9280SOL    HW228740   1.490   6.864   3.673
 9281SOL     OW28741   2.618   3.139   0.877
 9281SOL    HW128742   2.669   3.081   0.813
 9281SOL    HW228743   2.527   3.157   0.840
 9282SOL     OW28744   4.880   1.952   4.386
 9282SOL    HW128745   4.799   1.953   4.445
 9282SOL    HW228746   4.862   2.007   4.304
 9283SOL     OW28747   6.249   1.433   2.864
 9283SOL    HW128748   6.213   1.498   2.798
 9283SOL    HW228749   6.237   1.340   2.830
 9284SOL     OW28750   3.597   4.681   0.086
 9284SOL    HW128751   3.596   4.675   0.186
 9284SOL    HW228752   3.657   4.609   0.049
 9285SOL     OW28753   5.701   2.860   0.061
 9285SOL    HW128754   5.736   2.790   0.123
 9285SOL    HW228755   5.654   2.932   0.114
 9286SOL     OW28756   5.644   6.988   5.864
 9286SOL    HW128757   5.678   7.024   5.777
 9286SOL    HW228758   5.707   6.918   5.899
 9287SOL     OW28759   3.596   5.725   1.221
 9287SOL    HW128760   3.514   5.672   1.204
 9287SOL    HW228761   3.674   5.683   1.173
 9288SOL     OW28762   4.273   1.448   6.270
 9288SOL    HW128763   4.285   1.480   6.364
 9288SOL    HW228764   4.217   1.513   6.220
 9289SOL     OW28765   4.452   1.841   2.286
 9289SOL    HW128766   4.529   1.838   2.224
 9289SOL    HW228767   4.456   1.926   2.339
 9290SOL     OW28768   4.224   1.613   5.507
 9290SOL    HW128769   4.238   1.530   5.452
 9290SOL    HW228770   4.249   1.693   5.453
 9291SOL     OW28771   1.972   0.557   5.214
 9291SOL    HW128772   2.015   0.643   5.241
 9291SOL    HW228773   2.034   0.506   5.155
 9292SOL     OW28774   6.390   3.057   6.413
 9292SOL    HW128775   6.300   3.100   6.408
 9292SOL    HW228776   6.381   2.963   6.445
 9293SOL     OW28777   5.590   4.169   0.798
 9293SOL    HW128778   5.560   4.252   0.846
 9293SOL    HW228779   5.654   4.194   0.726
 9294SOL     OW28780   3.725   6.219   0.012
 9294SOL    HW128781   3.749   6.301   6.984
 9294SOL    HW228782   3.675   6.155   6.978
 9295SOL     OW28783   5.154   1.551   3.134
 9295SOL    HW128784   5.105   1.495   3.201
 9295SOL    HW228785   5.155   1.504   3.046
 9296SOL     OW28786   6.395   6.485   6.417
 9296SOL    HW128787   6.302   6.464   6.387
 9296SOL    HW228788   6.392   6.540   6.500
 9297SOL     OW28789   0.278   0.523   1.347
 9297SOL    HW128790   0.197   0.582   1.357
 9297SOL    HW228791   0.287   0.466   1.428
 9298SOL     OW28792   2.196   6.315   5.626
 9298SOL    HW128793   2.248   6.281   5.704
 9298SOL    HW228794   2.229   6.272   5.542
 9299SOL     OW28795   1.297   2.845   4.375
 9299SOL    HW128796   1.324   2.781   4.303
 9299SOL    HW228797   1.296   2.797   4.463
 9300SOL     OW28798   6.471   5.017   4.454
 9300SOL    HW128799   6.567   5.001   4.431
 9300SOL    HW228800   6.415   5.000   4.373
 9301SOL     OW28801   5.051   4.378   3.261
 9301SOL    HW128802   5.112   4.418   3.329
 9301SOL    HW228803   5.066   4.279   3.255
 9302SOL     OW28804   2.379   2.768   3.800
 9302SOL    HW128805   2.419   2.727   3.882
 9302SOL    HW228806   2.448   2.772   3.728
 9303SOL     OW28807   4.047   6.466   0.687
 9303SOL    HW128808   4.052   6.552   0.638
 9303SOL    HW228809   4.022   6.483   0.782
 9304SOL     OW28810   3.752   3.901   0.259
 9304SOL    HW128811   3.799   3.812   0.257
 9304SOL    HW228812   3.701   3.913   0.174
 9305SOL     OW28813   5.493   2.004   1.702
 9305SOL    HW128814   5.569   1.940   1.694
 9305SOL    HW228815   5.504   2.077   1.634
 9306SOL     OW28816   0.593   4.769   4.444
 9306SOL    HW128817   0.544   4.750   4.530
 9306SOL    HW228818   0.614   4.683   4.398
 9307SOL     OW28819   1.431   2.700   0.929
 9307SOL    HW128820   1.519   2.716   0.974
 9307SOL    HW228821   1.441   2.710   0.830
 9308SOL     OW28822   0.920   3.963   1.008
 9308SOL    HW128823   1.012   3.964   0.969
 9308SOL    HW228824   0.925   3.936   1.104
 9309SOL     OW28825   3.782   4.993   5.342
 9309SOL    HW128826   3.774   4.917   5.407
 9309SOL    HW228827   3.713   5.062   5.364
 9310SOL     OW28828   4.521   6.282   6.302
 9310SOL    HW128829   4.580   6.202   6.299
 9310SOL    HW228830   4.427   6.255   6.284
 9311SOL     OW28831   5.882   4.500   1.179
 9311SOL    HW128832   5.840   4.422   1.225
 9311SOL    HW228833   5.929   4.558   1.246
 9312SOL     OW28834   1.857   4.453   0.292
 9312SOL    HW128835   1.838   4.410   0.203
 9312SOL    HW228836   1.882   4.549   0.277
 9313SOL     OW28837   6.649   1.222   1.821
 9313SOL    HW128838   6.688   1.207   1.730
 9313SOL    HW228839   6.570   1.283   1.815
 9314SOL     OW28840   3.936   5.150   6.452
 9314SOL    HW128841   3.925   5.248   6.469
 9314SOL    HW228842   3.869   5.099   6.507
 9315SOL     OW28843   6.327   0.232   5.555
 9315SOL    HW128844   6.363   0.204   5.466
 9315SOL    HW228845   6.285   0.153   5.600
 9316SOL     OW28846   4.509   5.911   4.767
 9316SOL    HW128847   4.445   5.953   4.831
 9316SOL    HW228848   4.465   5.835   4.721
 9317SOL     OW28849   5.837   5.962   2.885
 9317SOL    HW128850   5.750   5.995   2.922
 9317SOL    HW228851   5.864   5.878   2.932
 9318SOL     OW28852   6.788   0.808   5.598
 9318SOL    HW128853   6.702   0.774   5.638
 9318SOL    HW228854   6.833   0.734   5.548
 9319SOL     OW28855   0.400   2.924   6.446
 9319SOL    HW128856   0.423   3.021   6.453
 9319SOL    HW228857   0.357   2.906   6.357
 9320SOL     OW28858   3.923   2.562   5.799
 9320SOL    HW128859   3.886   2.477   5.761
 9320SOL    HW228860   3.975   2.610   5.729
 9321SOL     OW28861   6.209   0.127   2.238
 9321SOL    HW128862   6.253   0.113   2.326
 9321SOL    HW228863   6.117   0.088   2.240
 9322SOL     OW28864   0.090   6.097   6.101
 9322SOL    HW128865   0.155   6.029   6.067
 9322SOL    HW228866   0.029   6.126   6.027
 9323SOL     OW28867   1.356   6.957   5.658
 9323SOL    HW128868   1.447   6.931   5.625
 9323SOL    HW228869   1.365   7.018   5.736
 9324SOL     OW28870   1.927   5.132   0.380
 9324SOL    HW128871   1.916   5.058   0.446
 9324SOL    HW228872   1.888   5.216   0.417
 9325SOL     OW28873   5.157   1.713   1.303
 9325SOL    HW128874   5.096   1.767   1.246
 9325SOL    HW228875   5.174   1.624   1.260
 9326SOL     OW28876   2.779   6.847   0.545
 9326SOL    HW128877   2.702   6.828   0.606
 9326SOL    HW228878   2.863   6.855   0.599
 9327SOL     OW28879   4.914   6.866   3.423
 9327SOL    HW128880   5.012   6.863   3.403
 9327SOL    HW228881   4.888   6.960   3.447
 9328SOL     OW28882   3.945   1.427   6.713
 9328SOL    HW128883   3.919   1.513   6.670
 9328SOL    HW228884   3.889   1.353   6.675
 9329SOL     OW28885   6.796   2.796   3.281
 9329SOL    HW128886   6.708   2.842   3.269
 9329SOL    HW228887   6.862   2.833   3.214
 9330SOL     OW28888   0.449   6.109   0.324
 9330SOL    HW128889   0.543   6.144   0.319
 9330SOL    HW228890   0.427   6.084   0.418
 9331SOL     OW28891   0.609   1.138   6.540
 9331SOL    HW128892   0.622   1.201   6.463
 9331SOL    HW228893   0.512   1.115   6.548
 9332SOL     OW28894   3.097   4.036   3.499
 9332SOL    HW128895   3.057   4.074   3.416
 9332SOL    HW228896   3.081   3.937   3.502
 9333SOL     OW28897   4.988   4.037   0.511
 9333SOL    HW128898   4.931   4.102   0.562
 9333SOL    HW228899   5.080   4.074   0.500
 9334SOL     OW28900   3.695   0.308   3.131
 9334SOL    HW128901   3.779   0.259   3.110
 9334SOL    HW228902   3.680   0.309   3.230
 9335SOL     OW28903   1.295   1.612   6.723
 9335SOL    HW128904   1.324   1.706   6.704
 9335SOL    HW228905   1.361   1.548   6.683
 9336SOL     OW28906   2.890   6.420   6.246
 9336SOL    HW128907   2.916   6.477   6.324
 9336SOL    HW228908   2.953   6.437   6.171
 9337SOL     OW28909   4.979   0.573   2.647
 9337SOL    HW128910   4.924   0.654   2.668
 9337SOL    HW228911   4.967   0.505   2.719
 9338SOL     OW28912   4.384   0.285   2.314
 9338SOL    HW128913   4.379   0.209   2.379
 9338SOL    HW228914   4.296   0.332   2.311
 9339SOL     OW28915   5.760   0.073   0.732
 9339SOL    HW128916   5.854   0.039   0.735
 9339SOL    HW228917   5.757   0.165   0.772
 9340SOL     OW28918   5.173   3.553   5.443
 9340SOL    HW128919   5.209   3.646   5.433
 9340SOL    HW228920   5.247   3.487   5.431
 9341SOL     OW28921   1.478   5.706   6.852
 9341SOL    HW128922   1.397   5.675   6.902
 9341SOL    HW228923   1.559   5.695   6.910
 9342SOL     OW28924   2.695   0.236   4.472
 9342SOL    HW128925   2.724   0.311   4.531
 9342SOL    HW228926   2.598   0.217   4.487
 9343SOL     OW28927   6.120   4.947   4.522
 9343SOL    HW128928   6.123   4.975   4.426
 9343SOL    HW228929   6.176   5.009   4.577
 9344SOL     OW28930   5.199   6.179   0.441
 9344SOL    HW128931   5.177   6.130   0.525
 9344SOL    HW228932   5.239   6.268   0.464
 9345SOL     OW28933   6.336   2.722   2.617
 9345SOL    HW128934   6.260   2.659   2.603
 9345SOL    HW228935   6.393   2.724   2.534
 9346SOL     OW28936   5.925   0.252   1.190
 9346SOL    HW128937   5.934   0.189   1.114
 9346SOL    HW228938   6.012   0.300   1.205
 9347SOL     OW28939   1.747   5.917   1.332
 9347SOL    HW128940   1.747   6.004   1.284
 9347SOL    HW228941   1.718   5.844   1.269
 9348SOL     OW28942   4.135   5.815   0.866
 9348SOL    HW128943   4.117   5.804   0.768
 9348SOL    HW228944   4.094   5.900   0.898
 9349SOL     OW28945   0.584   6.826   2.317
 9349SOL    HW128946   0.684   6.826   2.326
 9349SOL    HW228947   0.558   6.770   2.238
 9350SOL     OW28948   0.735   2.908   6.038
 9350SOL    HW128949   0.741   2.993   6.089
 9350SOL    HW228950   0.709   2.833   6.099
 9351SOL     OW28951   3.199   2.319   6.701
 9351SOL    HW128952   3.135   2.249   6.667
 9351SOL    HW228953   3.227   2.378   6.626
 9352SOL     OW28954   2.484   3.849   6.912
 9352SOL    HW128955   2.407   3.801   6.954
 9352SOL    HW228956   2.456   3.942   6.887
 9353SOL     OW28957   1.123   5.635   1.994
 9353SOL    HW128958   1.081   5.624   2.083
 9353SOL    HW228959   1.076   5.577   1.927
 9354SOL     OW28960   6.485   2.083   6.704
 9354SOL    HW128961   6.571   2.058   6.660
 9354SOL    HW228962   6.479   2.182   6.713
 9355SOL     OW28963   0.586   1.588   4.708
 9355SOL    HW128964   0.503   1.532   4.701
 9355SOL    HW228965   0.565   1.683   4.688
 9356SOL     OW28966   4.320   6.988   1.815
 9356SOL    HW128967   4.372   6.904   1.798
 9356SOL    HW228968   4.315   0.017   1.731
 9357SOL     OW28969   0.976   2.156   6.918
 9357SOL    HW128970   1.073   2.170   6.899
 9357SOL    HW228971   0.964   2.134   7.015
 9358SOL     OW28972   0.819   3.715   2.443
 9358SOL    HW128973   0.827   3.616   2.439
 9358SOL    HW228974   0.739   3.740   2.497
 9359SOL     OW28975   1.995   6.388   5.798
 9359SOL    HW128976   2.053   6.379   5.717
 9359SOL    HW228977   1.944   6.474   5.793
 9360SOL     OW28978   1.610   6.874   6.513
 9360SOL    HW128979   1.555   6.891   6.430
 9360SOL    HW228980   1.597   6.780   6.542
 9361SOL     OW28981   1.885   5.982   3.702
 9361SOL    HW128982   1.970   5.962   3.652
 9361SOL    HW228983   1.867   6.080   3.698
 9362SOL     OW28984   2.640   0.918   2.426
 9362SOL    HW128985   2.544   0.907   2.402
 9362SOL    HW228986   2.648   0.976   2.507
 9363SOL     OW28987   3.059   5.113   2.521
 9363SOL    HW128988   3.038   5.023   2.558
 9363SOL    HW228989   2.984   5.144   2.462
 9364SOL     OW28990   1.781   2.477   2.228
 9364SOL    HW128991   1.689   2.510   2.209
 9364SOL    HW228992   1.787   2.448   2.324
 9365SOL     OW28993   3.375   1.818   4.258
 9365SOL    HW128994   3.410   1.821   4.351
 9365SOL    HW228995   3.292   1.762   4.255
 9366SOL     OW28996   3.460   5.949   0.630
 9366SOL    HW128997   3.490   5.862   0.670
 9366SOL    HW228998   3.480   5.948   0.532
 9367SOL     OW28999   5.704   0.320   0.871
 9367SOL    HW129000   5.662   0.334   0.961
 9367SOL    HW229001   5.662   0.382   0.805
 9368SOL     OW29002   3.535   0.869   2.436
 9368SOL    HW129003   3.587   0.860   2.352
 9368SOL    HW229004   3.492   0.781   2.459
 9369SOL     OW29005   1.177   4.934   6.453
 9369SOL    HW129006   1.134   4.955   6.365
 9369SOL    HW229007   1.148   5.001   6.521
 9370SOL     OW29008   4.396   2.011   4.757
 9370SOL    HW129009   4.326   1.975   4.696
 9370SOL    HW229010   4.438   1.937   4.809
 9371SOL     OW29011   3.389   6.045   1.482
 9371SOL    HW129012   3.456   5.972   1.465
 9371SOL    HW229013   3.379   6.100   1.400
 9372SOL     OW29014   4.850   6.797   1.752
 9372SOL    HW129015   4.776   6.768   1.692
 9372SOL    HW229016   4.915   6.854   1.701
 9373SOL     OW29017   6.735   1.564   0.327
 9373SOL    HW129018   6.776   1.607   0.246
 9373SOL    HW229019   6.789   1.484   0.353
 9374SOL     OW29020   0.347   4.904   5.856
 9374SOL    HW129021   0.276   4.865   5.797
 9374SOL    HW229022   0.331   5.002   5.867
 9375SOL     OW29023   0.265   1.599   6.232
 9375SOL    HW129024   0.181   1.646   6.261
 9375SOL    HW229025   0.293   1.534   6.303
 9376SOL     OW29026   2.115   3.915   2.215
 9376SOL    HW129027   2.176   3.969   2.156
 9376SOL    HW229028   2.130   3.818   2.198
 9377SOL     OW29029   2.336   5.906   2.458
 9377SOL    HW129030   2.379   5.913   2.368
 9377SOL    HW229031   2.339   5.811   2.489
 9378SOL     OW29032   3.579   0.368   3.809
 9378SOL    HW129033   3.655   0.413   3.857
 9378SOL    HW229034   3.609   0.280   3.773
 9379SOL     OW29035   4.390   6.672   4.392
 9379SOL    HW129036   4.385   6.759   4.343
 9379SOL    HW229037   4.314   6.614   4.364
 9380SOL     OW29038   4.741   5.587   6.958
 9380SOL    HW129039   4.833   5.569   6.993
 9380SOL    HW229040   4.674   5.541   7.015
 9381SOL     OW29041   5.746   2.164   5.090
 9381SOL    HW129042   5.728   2.146   4.993
 9381SOL    HW229043   5.707   2.090   5.145
 9382SOL     OW29044   3.658   0.545   4.433
 9382SOL    HW129045   3.670   0.567   4.337
 9382SOL    HW229046   3.746   0.518   4.472
 9383SOL     OW29047   4.824   4.071   3.585
 9383SOL    HW129048   4.898   4.137   3.595
 9383SOL    HW229049   4.790   4.073   3.491
 9384SOL     OW29050   1.721   0.290   1.899
 9384SOL    HW129051   1.805   0.340   1.920
 9384SOL    HW229052   1.648   0.355   1.879
 9385SOL     OW29053   4.142   1.381   3.808
 9385SOL    HW129054   4.209   1.439   3.763
 9385SOL    HW229055   4.164   1.374   3.905
 9386SOL     OW29056   4.207   6.460   5.850
 9386SOL    HW129057   4.198   6.537   5.787
 9386SOL    HW229058   4.168   6.378   5.808
 9387SOL     OW29059   3.910   2.209   6.759
 9387SOL    HW129060   3.989   2.153   6.733
 9387SOL    HW229061   3.932   2.261   6.842
 9388SOL     OW29062   1.937   6.911   4.251
 9388SOL    HW129063   1.914   7.008   4.257
 9388SOL    HW229064   1.957   6.876   4.343
 9389SOL     OW29065   3.469   5.174   1.780
 9389SOL    HW129066   3.416   5.166   1.864
 9389SOL    HW229067   3.535   5.099   1.775
 9390SOL     OW29068   4.484   5.136   5.874
 9390SOL    HW129069   4.526   5.073   5.809
 9390SOL    HW229070   4.385   5.118   5.879
 9391SOL     OW29071   1.230   6.627   4.318
 9391SOL    HW129072   1.165   6.686   4.271
 9391SOL    HW229073   1.216   6.532   4.288
 9392SOL     OW29074   5.543   4.440   2.769
 9392SOL    HW129075   5.546   4.429   2.670
 9392SOL    HW229076   5.448   4.446   2.799
 9393SOL     OW29077   2.973   6.672   5.376
 9393SOL    HW129078   2.883   6.667   5.334
 9393SOL    HW229079   2.965   6.659   5.475
 9394SOL     OW29080   4.733   6.964   0.856
 9394SOL    HW129081   4.668   6.992   0.927
 9394SOL    HW229082   4.817   7.018   0.864
 9395SOL     OW29083   2.648   2.046   0.607
 9395SOL    HW129084   2.645   1.956   0.564
 9395SOL    HW229085   2.718   2.047   0.679
 9396SOL     OW29086   1.145   6.288   6.587
 9396SOL    HW129087   1.235   6.290   6.629
 9396SOL    HW229088   1.130   6.200   6.542
 9397SOL     OW29089   3.958   0.270   6.653
 9397SOL    HW129090   3.907   0.238   6.573
 9397SOL    HW229091   3.938   0.210   6.731
 9398SOL     OW29092   0.309   1.432   6.856
 9398SOL    HW129093   0.398   1.454   6.895
 9398SOL    HW229094   0.238   1.483   6.905
 9399SOL     OW29095   1.986   2.697   3.956
 9399SOL    HW129096   1.935   2.771   4.000
 9399SOL    HW229097   1.938   2.667   3.874
 9400SOL     OW29098   5.775   1.372   0.565
 9400SOL    HW129099   5.803   1.327   0.481
 9400SOL    HW229100   5.733   1.305   0.627
 9401SOL     OW29101   0.350   1.978   2.961
 9401SOL    HW129102   0.253   1.993   2.942
 9401SOL    HW229103   0.406   2.037   2.902
 9402SOL     OW29104   1.395   5.781   3.174
 9402SOL    HW129105   1.492   5.805   3.170
 9402SOL    HW229106   1.386   5.683   3.186
 9403SOL     OW29107   6.514   2.791   1.681
 9403SOL    HW129108   6.608   2.803   1.651
 9403SOL    HW229109   6.497   2.695   1.702
 9404SOL     OW29110   2.065   3.118   0.877
 9404SOL    HW129111   2.054   3.019   0.865
 9404SOL    HW229112   1.976   3.162   0.870
 9405SOL     OW29113   0.207   5.134   5.538
 9405SOL    HW129114   0.246   5.089   5.457
 9405SOL    HW229115   0.253   5.099   5.620
 9406SOL     OW29116   0.015   2.829   0.052
 9406SOL    HW129117   6.985   2.912   0.042
 9406SOL    HW229118   0.061   2.808   6.990
 9407SOL     OW29119   1.600   4.951   5.421
 9407SOL    HW129120   1.595   5.051   5.426
 9407SOL    HW229121   1.643   4.925   5.334
 9408SOL     OW29122   6.893   4.620   4.325
 9408SOL    HW129123   6.912   4.630   4.227
 9408SOL    HW229124   6.949   4.547   4.363
 9409SOL     OW29125   6.882   5.160   2.042
 9409SOL    HW129126   6.960   5.195   2.094
 9409SOL    HW229127   6.851   5.229   1.977
 9410SOL     OW29128   3.915   1.127   1.690
 9410SOL    HW129129   3.947   1.089   1.777
 9410SOL    HW229130   3.956   1.217   1.676
 9411SOL     OW29131   3.120   3.374   3.889
 9411SOL    HW129132   3.164   3.448   3.839
 9411SOL    HW229133   3.099   3.299   3.826
 9412SOL     OW29134   6.405   6.922   1.690
 9412SOL    HW129135   6.311   6.955   1.701
 9412SOL    HW229136   6.404   6.822   1.690
 9413SOL     OW29137   4.247   4.814   3.940
 9413SOL    HW129138   4.207   4.795   3.850
 9413SOL    HW229139   4.325   4.753   3.955
 9414SOL     OW29140   2.242   2.442   4.434
 9414SOL    HW129141   2.267   2.405   4.523
 9414SOL    HW229142   2.294   2.395   4.363
 9415SOL     OW29143   3.613   1.325   1.911
 9415SOL    HW129144   3.626   1.382   1.829
 9415SOL    HW229145   3.701   1.286   1.938
 9416SOL     OW29146   6.417   5.234   6.346
 9416SOL    HW129147   6.446   5.276   6.431
 9416SOL    HW229148   6.443   5.137   6.346
 9417SOL     OW29149   3.991   6.267   1.958
 9417SOL    HW129150   3.935   6.339   1.917
 9417SOL    HW229151   4.059   6.308   2.018
 9418SOL     OW29152   3.312   2.145   4.295
 9418SOL    HW129153   3.384   2.159   4.363
 9418SOL    HW229154   3.354   2.122   4.207
 9419SOL     OW29155   2.160   2.798   6.871
 9419SOL    HW129156   2.072   2.786   6.826
 9419SOL    HW229157   2.221   2.722   6.847
 9420SOL     OW29158   5.661   3.745   6.980
 9420SOL    HW129159   5.604   3.799   0.018
 9420SOL    HW229160   5.749   3.791   6.969
 9421SOL     OW29161   3.444   6.175   5.768
 9421SOL    HW129162   3.408   6.138   5.854
 9421SOL    HW229163   3.489   6.102   5.716
 9422SOL     OW29164   2.678   5.647   4.719
 9422SOL    HW129165   2.737   5.717   4.759
 9422SOL    HW229166   2.661   5.668   4.623
 9423SOL     OW29167   4.676   5.084   3.530
 9423SOL    HW129168   4.738   5.082   3.609
 9423SOL    HW229169   4.721   5.040   3.452
 9424SOL     OW29170   5.563   0.748   4.650
 9424SOL    HW129171   5.582   0.678   4.719
 9424SOL    HW229172   5.539   0.834   4.696
 9425SOL     OW29173   6.769   5.327   0.353
 9425SOL    HW129174   6.780   5.422   0.323
 9425SOL    HW229175   6.675   5.312   0.382
 9426SOL     OW29176   6.835   2.421   6.302
 9426SOL    HW129177   6.896   2.364   6.247
 9426SOL    HW229178   6.782   2.363   6.364
 9427SOL     OW29179   4.171   5.493   3.443
 9427SOL    HW129180   4.253   5.445   3.472
 9427SOL    HW229181   4.184   5.592   3.456
 9428SOL     OW29182   6.493   6.784   5.858
 9428SOL    HW129183   6.471   6.776   5.955
 9428SOL    HW229184   6.477   6.878   5.828
 9429SOL     OW29185   2.340   1.978   3.957
 9429SOL    HW129186   2.347   1.986   3.858
 9429SOL    HW229187   2.426   1.944   3.994
 9430SOL     OW29188   6.956   1.781   4.583
 9430SOL    HW129189   6.973   1.879   4.593
 9430SOL    HW229190   7.009   1.745   4.507
 9431SOL     OW29191   0.233   5.163   5.838
 9431SOL    HW129192   0.150   5.201   5.795
 9431SOL    HW229193   0.294   5.238   5.863
 9432SOL     OW29194   6.507   1.131   4.160
 9432SOL    HW129195   6.541   1.079   4.082
 9432SOL    HW229196   6.489   1.225   4.132
 9433SOL     OW29197   4.572   5.615   2.976
 9433SOL    HW129198   4.617   5.636   3.063
 9433SOL    HW229199   4.493   5.557   2.993
 9434SOL     OW29200   5.247   5.315   4.171
 9434SOL    HW129201   5.217   5.234   4.221
 9434SOL    HW229202   5.169   5.377   4.159
 9435SOL     OW29203   0.438   2.682   1.990
 9435SOL    HW129204   0.416   2.718   1.900
 9435SOL    HW229205   0.458   2.584   1.982
 9436SOL     OW29206   1.818   0.462   3.011
 9436SOL    HW129207   1.893   0.521   2.982
 9436SOL    HW229208   1.803   0.391   2.942
 9437SOL     OW29209   6.424   5.924   4.905
 9437SOL    HW129210   6.344   5.935   4.964
 9437SOL    HW229211   6.395   5.907   4.811
 9438SOL     OW29212   3.691   5.964   2.642
 9438SOL    HW129213   3.635   5.926   2.569
 9438SOL    HW229214   3.646   5.950   2.730
 9439SOL     OW29215   1.279   2.962   0.738
 9439SOL    HW129216   1.333   3.015   0.672
 9439SOL    HW229217   1.272   2.867   0.707
 9440SOL     OW29218   2.212   5.451   3.271
 9440SOL    HW129219   2.176   5.392   3.344
 9440SOL    HW229220   2.212   5.546   3.302
 9441SOL     OW29221   7.013   6.372   4.610
 9441SOL    HW129222   0.049   6.449   4.591
 9441SOL    HW229223   6.918   6.400   4.594
 9442SOL     OW29224   4.344   3.495   0.508
 9442SOL    HW129225   4.440   3.466   0.507
 9442SOL    HW229226   4.340   3.594   0.491
 9443SOL     OW29227   1.726   4.236   3.026
 9443SOL    HW129228   1.677   4.293   3.091
 9443SOL    HW229229   1.816   4.276   3.008
 9444SOL     OW29230   0.847   4.465   6.831
 9444SOL    HW129231   0.919   4.523   6.871
 9444SOL    HW229232   0.870   4.369   6.845
 9445SOL     OW29233   7.003   1.253   4.527
 9445SOL    HW129234   0.011   1.294   4.612
 9445SOL    HW229235   6.911   1.287   4.506
 9446SOL     OW29236   6.527   4.995   3.016
 9446SOL    HW129237   6.516   5.015   3.113
 9446SOL    HW229238   6.444   5.022   2.967
 9447SOL     OW29239   5.185   4.354   2.041
 9447SOL    HW129240   5.086   4.364   2.049
 9447SOL    HW229241   5.210   4.345   1.945
 9448SOL     OW29242   5.792   0.072   5.194
 9448SOL    HW129243   5.841   0.034   5.115
 9448SOL    HW229244   5.749   7.022   5.245
 9449SOL     OW29245   5.999   0.233   1.902
 9449SOL    HW129246   5.969   0.272   1.815
 9449SOL    HW229247   6.095   0.206   1.896
 9450SOL     OW29248   2.138   5.726   4.036
 9450SOL    HW129249   2.160   5.634   4.068
 9450SOL    HW229250   2.049   5.726   3.991
 9451SOL     OW29251   3.725   6.260   6.423
 9451SOL    HW129252   3.628   6.267   6.447
 9451SOL    HW229253   3.737   6.189   6.353
 9452SOL     OW29254   6.455   4.065   0.158
 9452SOL    HW129255   6.516   4.054   0.080
 9452SOL    HW229256   6.489   4.139   0.217
 9453SOL     OW29257   4.389   5.893   2.920
 9453SOL    HW129258   4.344   5.982   2.915
 9453SOL    HW229259   4.439   5.887   3.006
 9454SOL     OW29260   4.973   3.482   0.369
 9454SOL    HW129261   5.069   3.485   0.399
 9454SOL    HW229262   4.952   3.564   0.317
 9455SOL     OW29263   3.073   2.075   2.291
 9455SOL    HW129264   2.984   2.043   2.325
 9455SOL    HW229265   3.059   2.154   2.230
 9456SOL     OW29266   6.988   3.042   1.744
 9456SOL    HW129267   0.039   2.977   1.757
 9456SOL    HW229268   6.980   3.064   1.647
 9457SOL     OW29269   0.311   5.448   3.645
 9457SOL    HW129270   0.278   5.475   3.735
 9457SOL    HW229271   0.284   5.517   3.578
 9458SOL     OW29272   5.938   3.399   0.220
 9458SOL    HW129273   5.907   3.323   0.277
 9458SOL    HW229274   6.038   3.402   0.220
 9459SOL     OW29275   4.494   4.893   5.088
 9459SOL    HW129276   4.587   4.875   5.120
 9459SOL    HW229277   4.490   4.983   5.045
 9460SOL     OW29278   1.484   1.812   2.975
 9460SOL    HW129279   1.574   1.797   3.014
 9460SOL    HW229280   1.418   1.750   3.019
 9461SOL     OW29281   0.946   2.278   2.683
 9461SOL    HW129282   0.916   2.370   2.658
 9461SOL    HW229283   1.010   2.283   2.760
 9462SOL     OW29284   1.472   1.489   4.263
 9462SOL    HW129285   1.549   1.478   4.325
 9462SOL    HW229286   1.502   1.540   4.182
 9463SOL     OW29287   5.587   5.572   1.069
 9463SOL    HW129288   5.634   5.487   1.048
 9463SOL    HW229289   5.492   5.552   1.095
 9464SOL     OW29290   0.807   0.977   1.586
 9464SOL    HW129291   0.855   0.927   1.513
 9464SOL    HW229292   0.750   1.048   1.545
 9465SOL     OW29293   6.487   4.607   0.722
 9465SOL    HW129294   6.536   4.680   0.770
 9465SOL    HW229295   6.551   4.552   0.670
 9466SOL     OW29296   2.921   5.079   5.952
 9466SOL    HW129297   3.013   5.070   5.989
 9466SOL    HW229298   2.855   5.037   6.015
 9467SOL     OW29299   2.360   3.579   1.192
 9467SOL    HW129300   2.363   3.505   1.125
 9467SOL    HW229301   2.326   3.662   1.148
 9468SOL     OW29302   6.140   2.007   0.540
 9468SOL    HW129303   6.191   2.028   0.456
 9468SOL    HW229304   6.063   2.069   0.549
 9469SOL     OW29305   1.193   6.373   1.267
 9469SOL    HW129306   1.190   6.427   1.351
 9469SOL    HW229307   1.202   6.276   1.290
 9470SOL     OW29308   3.610   4.379   0.615
 9470SOL    HW129309   3.694   4.336   0.582
 9470SOL    HW229310   3.534   4.314   0.607
 9471SOL     OW29311   6.145   3.334   4.979
 9471SOL    HW129312   6.206   3.327   4.900
 9471SOL    HW229313   6.051   3.345   4.948
 9472SOL     OW29314   1.495   2.995   6.190
 9472SOL    HW129315   1.472   2.931   6.117
 9472SOL    HW229316   1.558   3.064   6.155
 9473SOL     OW29317   3.373   5.104   0.071
 9473SOL    HW129318   3.323   5.184   0.104
 9473SOL    HW229319   3.353   5.026   0.131
 9474SOL     OW29320   5.855   2.877   1.323
 9474SOL    HW129321   5.836   2.843   1.231
 9474SOL    HW229322   5.899   2.966   1.317
 9475SOL     OW29323   4.606   4.074   5.922
 9475SOL    HW129324   4.624   4.131   5.842
 9475SOL    HW229325   4.668   3.996   5.922
 9476SOL     OW29326   3.683   4.007   6.243
 9476SOL    HW129327   3.774   3.987   6.206
 9476SOL    HW229328   3.616   3.947   6.199
 9477SOL     OW29329   2.204   4.242   1.037
 9477SOL    HW129330   2.136   4.199   1.096
 9477SOL    HW229331   2.254   4.312   1.088
 9478SOL     OW29332   5.336   2.091   0.317
 9478SOL    HW129333   5.277   2.097   0.237
 9478SOL    HW229334   5.391   2.174   0.324
 9479SOL     OW29335   3.868   0.685   1.452
 9479SOL    HW129336   3.809   0.656   1.527
 9479SOL    HW229337   3.934   0.752   1.485
 9480SOL     OW29338   6.628   6.816   0.016
 9480SOL    HW129339   6.597   6.728   7.007
 9480SOL    HW229340   6.549   6.870   0.047
 9481SOL     OW29341   4.085   1.188   3.308
 9481SOL    HW129342   4.050   1.095   3.300
 9481SOL    HW229343   4.018   1.245   3.356
 9482SOL     OW29344   6.337   6.510   0.252
 9482SOL    HW129345   6.244   6.493   0.219
 9482SOL    HW229346   6.333   6.546   0.346
 9483SOL     OW29347   0.011   0.618   0.699
 9483SOL    HW129348   0.018   0.692   0.766
 9483SOL    HW229349   6.942   0.615   0.661
 9484SOL     OW29350   3.956   6.101   5.183
 9484SOL    HW129351   4.000   6.162   5.117
 9484SOL    HW229352   3.892   6.154   5.239
 9485SOL     OW29353   6.992   1.402   6.854
 9485SOL    HW129354   6.895   1.417   6.873
 9485SOL    HW229355   0.021   1.474   6.897
 9486SOL     OW29356   5.211   5.653   0.248
 9486SOL    HW129357   5.221   5.629   0.152
 9486SOL    HW229358   5.180   5.574   0.300
 9487SOL     OW29359   2.891   3.458   3.535
 9487SOL    HW129360   2.943   3.374   3.549
 9487SOL    HW229361   2.822   3.467   3.606
 9488SOL     OW29362   1.251   1.783   0.549
 9488SOL    HW129363   1.159   1.818   0.531
 9488SOL    HW229364   1.282   1.728   0.472
 9489SOL     OW29365   4.889   4.160   0.239
 9489SOL    HW129366   4.967   4.116   0.195
 9489SOL    HW229367   4.921   4.224   0.309
 9490SOL     OW29368   5.749   3.868   4.123
 9490SOL    HW129369   5.651   3.877   4.143
 9490SOL    HW229370   5.773   3.928   4.047
 9491SOL     OW29371   4.967   6.280   2.791
 9491SOL    HW129372   4.915   6.339   2.729
 9491SOL    HW229373   4.986   6.193   2.745
 9492SOL     OW29374   4.881   2.407   4.831
 9492SOL    HW129375   4.885   2.379   4.735
 9492SOL    HW229376   4.800   2.464   4.846
 9493SOL     OW29377   4.119   6.995   2.897
 9493SOL    HW129378   4.079   0.018   2.975
 9493SOL    HW229379   4.177   0.034   2.846
 9494SOL     OW29380   5.560   2.375   2.063
 9494SOL    HW129381   5.479   2.318   2.046
 9494SOL    HW229382   5.572   2.388   2.161
 9495SOL     OW29383   1.138   1.084   2.218
 9495SOL    HW129384   1.238   1.086   2.219
 9495SOL    HW229385   1.103   1.178   2.215
 9496SOL     OW29386   4.955   2.362   1.932
 9496SOL    HW129387   4.904   2.323   1.856
 9496SOL    HW229388   4.894   2.381   2.008
 9497SOL     OW29389   5.169   5.000   4.751
 9497SOL    HW129390   5.198   5.001   4.847
 9497SOL    HW229391   5.195   5.086   4.707
 9498SOL     OW29392   0.158   5.733   3.822
 9498SOL    HW129393   0.087   5.773   3.880
 9498SOL    HW229394   0.116   5.699   3.738
 9499SOL     OW29395   6.261   6.181   5.780
 9499SOL    HW129396   6.257   6.239   5.861
 9499SOL    HW229397   6.175   6.188   5.730
 9500SOL     OW29398   4.070   0.995   1.005
 9500SOL    HW129399   4.104   1.078   0.961
 9500SOL    HW229400   3.970   0.996   1.007
 9501SOL     OW29401   1.468   3.111   4.989
 9501SOL    HW129402   1.442   3.090   5.083
 9501SOL    HW229403   1.447   3.033   4.930
 9502SOL     OW29404   5.919   5.078   5.125
 9502SOL    HW129405   5.852   5.097   5.197
 9502SOL    HW229406   5.950   4.983   5.134
 9503SOL     OW29407   0.882   2.793   7.016
 9503SOL    HW129408   0.938   2.733   6.959
 9503SOL    HW229409   0.893   2.767   0.088
 9504SOL     OW29410   6.686   5.215   1.708
 9504SOL    HW129411   6.688   5.191   1.805
 9504SOL    HW229412   6.734   5.144   1.655
 9505SOL     OW29413   4.076   5.017   5.264
 9505SOL    HW129414   4.026   5.029   5.350
 9505SOL    HW229415   4.019   5.049   5.189
 9506SOL     OW29416   2.743   1.521   1.093
 9506SOL    HW129417   2.774   1.613   1.118
 9506SOL    HW229418   2.776   1.499   1.001
 9507SOL     OW29419   5.253   0.212   2.006
 9507SOL    HW129420   5.184   0.151   1.967
 9507SOL    HW229421   5.325   0.228   1.938
 9508SOL     OW29422   5.230   1.653   2.818
 9508SOL    HW129423   5.297   1.688   2.884
 9508SOL    HW229424   5.193   1.567   2.852
 9509SOL     OW29425   6.307   0.068   3.095
 9509SOL    HW129426   6.225   0.113   3.059
 9509SOL    HW229427   6.297   0.055   3.193
 9510SOL     OW29428   0.785   2.466   3.274
 9510SOL    HW129429   0.800   2.398   3.346
 9510SOL    HW229430   0.857   2.536   3.279
 9511SOL     OW29431   1.754   1.769   0.659
 9511SOL    HW129432   1.843   1.727   0.674
 9511SOL    HW229433   1.767   1.861   0.622
 9512SOL     OW29434   6.643   1.897   1.138
 9512SOL    HW129435   6.701   1.972   1.172
 9512SOL    HW229436   6.547   1.921   1.151
 9513SOL     OW29437   3.869   5.108   0.132
 9513SOL    HW129438   3.845   5.016   0.100
 9513SOL    HW229439   3.787   5.166   0.131
 9514SOL     OW29440   3.197   3.324   0.662
 9514SOL    HW129441   3.160   3.290   0.749
 9514SOL    HW229442   3.129   3.384   0.619
 9515SOL     OW29443   1.749   5.221   3.996
 9515SOL    HW129444   1.725   5.249   3.903
 9515SOL    HW229445   1.669   5.229   4.055
 9516SOL     OW29446   6.642   3.983   0.479
 9516SOL    HW129447   6.649   3.927   0.561
 9516SOL    HW229448   6.549   3.977   0.443
 9517SOL     OW29449   1.285   4.779   0.326
 9517SOL    HW129450   1.286   4.874   0.357
 9517SOL    HW229451   1.206   4.732   0.365
 9518SOL     OW29452   1.368   1.264   0.137
 9518SOL    HW129453   1.329   1.179   0.102
 9518SOL    HW229454   1.298   1.313   0.190
 9519SOL     OW29455   1.306   2.441   5.183
 9519SOL    HW129456   1.329   2.524   5.234
 9519SOL    HW229457   1.391   2.399   5.150
 9520SOL     OW29458   2.938   6.490   2.350
 9520SOL    HW129459   2.944   6.513   2.252
 9520SOL    HW229460   2.941   6.391   2.361
 9521SOL     OW29461   5.458   5.526   4.196
 9521SOL    HW129462   5.407   5.605   4.231
 9521SOL    HW229463   5.394   5.452   4.176
 9522SOL     OW29464   3.808   6.039   0.984
 9522SOL    HW129465   3.787   5.964   0.920
 9522SOL    HW229466   3.902   6.070   0.969
 9523SOL     OW29467   3.413   5.673   4.238
 9523SOL    HW129468   3.508   5.673   4.208
 9523SOL    HW229469   3.400   5.601   4.306
 9524SOL     OW29470   4.053   3.363   0.950
 9524SOL    HW129471   4.025   3.293   1.016
 9524SOL    HW229472   4.150   3.386   0.965
 9525SOL     OW29473   3.014   0.903   6.700
 9525SOL    HW129474   3.053   0.890   6.609
 9525SOL    HW229475   2.960   0.823   6.725
 9526SOL     OW29476   5.866   5.182   2.248
 9526SOL    HW129477   5.767   5.176   2.243
 9526SOL    HW229478   5.903   5.190   2.155
 9527SOL     OW29479   6.777   1.754   1.919
 9527SOL    HW129480   6.691   1.779   1.874
 9527SOL    HW229481   6.847   1.737   1.851
 9528SOL     OW29482   6.856   1.001   2.163
 9528SOL    HW129483   6.829   0.927   2.102
 9528SOL    HW229484   6.864   1.086   2.111
 9529SOL     OW29485   0.810   3.300   5.957
 9529SOL    HW129486   0.737   3.365   5.938
 9529SOL    HW229487   0.774   3.227   6.015
 9530SOL     OW29488   1.195   2.104   3.701
 9530SOL    HW129489   1.249   2.176   3.658
 9530SOL    HW229490   1.097   2.127   3.695
 9531SOL     OW29491   3.545   6.829   2.587
 9531SOL    HW129492   3.512   6.763   2.521
 9531SOL    HW229493   3.596   6.782   2.660
 9532SOL     OW29494   2.113   0.318   1.696
 9532SOL    HW129495   2.192   0.261   1.673
 9532SOL    HW229496   2.038   0.297   1.634
 9533SOL     OW29497   1.858   0.794   5.323
 9533SOL    HW129498   1.829   0.890   5.316
 9533SOL    HW229499   1.780   0.735   5.301
 9534SOL     OW29500   5.645   2.574   4.718
 9534SOL    HW129501   5.621   2.535   4.629
 9534SOL    HW229502   5.569   2.562   4.781
 9535SOL     OW29503   2.158   1.415   5.777
 9535SOL    HW129504   2.097   1.336   5.782
 9535SOL    HW229505   2.181   1.445   5.869
 9536SOL     OW29506   1.826   6.320   5.580
 9536SOL    HW129507   1.811   6.418   5.590
 9536SOL    HW229508   1.857   6.282   5.668
 9537SOL     OW29509   3.056   6.918   0.959
 9537SOL    HW129510   3.128   6.944   1.023
 9537SOL    HW229511   2.991   6.857   1.004
 9538SOL     OW29512   6.419   2.653   4.443
 9538SOL    HW129513   6.509   2.634   4.405
 9538SOL    HW229514   6.415   2.749   4.473
 9539SOL     OW29515   0.962   5.675   1.002
 9539SOL    HW129516   0.926   5.606   1.065
 9539SOL    HW229517   1.058   5.692   1.023
 9540SOL     OW29518   4.823   4.497   5.272
 9540SOL    HW129519   4.884   4.466   5.198
 9540SOL    HW229520   4.735   4.524   5.233
 9541SOL     OW29521   2.155   2.492   4.024
 9541SOL    HW129522   2.080   2.557   4.032
 9541SOL    HW229523   2.196   2.499   3.933
 9542SOL     OW29524   4.907   3.681   4.166
 9542SOL    HW129525   4.904   3.662   4.068
 9542SOL    HW229526   4.875   3.775   4.183
 9543SOL     OW29527   5.377   2.260   2.224
 9543SOL    HW129528   5.299   2.322   2.221
 9543SOL    HW229529   5.344   2.165   2.220
 9544SOL     OW29530   3.590   1.779   2.285
 9544SOL    HW129531   3.497   1.815   2.290
 9544SOL    HW229532   3.620   1.775   2.190
 9545SOL     OW29533   6.996   0.483   4.077
 9545SOL    HW129534   0.011   0.556   4.134
 9545SOL    HW229535   7.017   0.394   4.118
 9546SOL     OW29536   2.988   5.269   0.624
 9546SOL    HW129537   3.028   5.291   0.712
 9546SOL    HW229538   2.999   5.171   0.606
 9547SOL     OW29539   0.071   6.228   3.368
 9547SOL    HW129540   0.140   6.300   3.359
 9547SOL    HW229541   0.024   6.238   3.456
 9548SOL     OW29542   4.603   6.062   3.144
 9548SOL    HW129543   4.567   5.970   3.155
 9548SOL    HW229544   4.541   6.127   3.189
 9549SOL     OW29545   2.646   5.913   0.632
 9549SOL    HW129546   2.706   5.960   0.568
 9549SOL    HW229547   2.556   5.957   0.632
 9550SOL     OW29548   1.008   1.651   0.240
 9550SOL    HW129549   1.002   1.562   0.195
 9550SOL    HW229550   0.965   1.647   0.330
 9551SOL     OW29551   1.479   6.467   4.807
 9551SOL    HW129552   1.382   6.460   4.829
 9551SOL    HW229553   1.520   6.541   4.860
 9552SOL     OW29554   1.040   5.283   3.275
 9552SOL    HW129555   1.003   5.308   3.365
 9552SOL    HW229556   1.126   5.234   3.287
 9553SOL     OW29557   5.952   4.535   5.090
 9553SOL    HW129558   6.000   4.474   5.152
 9553SOL    HW229559   6.002   4.543   5.004
 9554SOL     OW29560   2.323   1.441   2.048
 9554SOL    HW129561   2.344   1.367   1.984
 9554SOL    HW229562   2.301   1.524   1.997
 9555SOL     OW29563   6.953   2.396   0.108
 9555SOL    HW129564   6.906   2.479   0.078
 9555SOL    HW229565   0.017   2.421   0.149
 9556SOL     OW29566   1.755   1.906   1.954
 9556SOL    HW129567   1.771   1.941   2.046
 9556SOL    HW229568   1.660   1.876   1.946
 9557SOL     OW29569   5.243   1.675   1.968
 9557SOL    HW129570   5.256   1.580   1.939
 9557SOL    HW229571   5.261   1.736   1.891
 9558SOL     OW29572   6.418   5.098   2.520
 9558SOL    HW129573   6.478   5.064   2.592
 9558SOL    HW229574   6.326   5.113   2.558
 9559SOL     OW29575   6.757   2.880   2.821
 9559SOL    HW129576   6.856   2.867   2.815
 9559SOL    HW229577   6.711   2.797   2.792
 9560SOL     OW29578   3.176   1.668   4.136
 9560SOL    HW129579   3.248   1.677   4.067
 9560SOL    HW229580   3.088   1.658   4.090
 9561SOL     OW29581   3.864   6.327   1.238
 9561SOL    HW129582   3.817   6.249   1.280
 9561SOL    HW229583   3.894   6.302   1.146
 9562SOL     OW29584   5.761   5.534   2.938
 9562SOL    HW129585   5.704   5.597   2.991
 9562SOL    HW229586   5.853   5.531   2.978
 9563SOL     OW29587   6.647   5.771   6.785
 9563SOL    HW129588   6.701   5.728   6.857
 9563SOL    HW229589   6.691   5.754   6.696
 9564SOL     OW29590   2.502   7.008   6.950
 9564SOL    HW129591   2.497   0.084   6.938
 9564SOL    HW229592   2.469   6.963   6.867
 9565SOL     OW29593   3.774   5.859   4.355
 9565SOL    HW129594   3.696   5.847   4.415
 9565SOL    HW229595   3.853   5.888   4.408
 9566SOL     OW29596   2.807   4.933   4.913
 9566SOL    HW129597   2.849   4.898   4.997
 9566SOL    HW229598   2.765   4.857   4.863
 9567SOL     OW29599   6.125   5.510   5.587
 9567SOL    HW129600   6.162   5.423   5.618
 9567SOL    HW229601   6.162   5.531   5.497
 9568SOL     OW29602   4.448   3.428   6.489
 9568SOL    HW129603   4.370   3.409   6.429
 9568SOL    HW229604   4.528   3.452   6.433
 9569SOL     OW29605   6.262   0.878   0.514
 9569SOL    HW129606   6.360   0.880   0.537
 9569SOL    HW229607   6.236   0.967   0.476
 9570SOL     OW29608   0.244   0.379   0.440
 9570SOL    HW129609   0.220   0.339   0.352
 9570SOL    HW229610   0.283   0.470   0.425
 9571SOL     OW29611   2.332   3.888   0.363
 9571SOL    HW129612   2.358   3.834   0.283
 9571SOL    HW229613   2.400   3.873   0.436
 9572SOL     OW29614   1.819   4.682   1.225
 9572SOL    HW129615   1.787   4.707   1.134
 9572SOL    HW229616   1.750   4.708   1.293
 9573SOL     OW29617   0.473   2.225   1.294
 9573SOL    HW129618   0.438   2.318   1.293
 9573SOL    HW229619   0.571   2.226   1.313
 9574SOL     OW29620   2.239   2.073   5.352
 9574SOL    HW129621   2.259   2.027   5.439
 9574SOL    HW229622   2.323   2.115   5.317
 9575SOL     OW29623   5.187   0.465   1.586
 9575SOL    HW129624   5.147   0.376   1.608
 9575SOL    HW229625   5.192   0.520   1.669
 9576SOL     OW29626   3.602   1.999   5.885
 9576SOL    HW129627   3.674   1.931   5.899
 9576SOL    HW229628   3.560   1.984   5.795
 9577SOL     OW29629   0.842   6.246   3.206
 9577SOL    HW129630   0.904   6.302   3.260
 9577SOL    HW229631   0.747   6.271   3.227
 9578SOL     OW29632   5.670   3.423   2.140
 9578SOL    HW129633   5.718   3.347   2.095
 9578SOL    HW229634   5.576   3.396   2.160
 9579SOL     OW29635   1.202   6.512   2.696
 9579SOL    HW129636   1.246   6.592   2.655
 9579SOL    HW229637   1.251   6.429   2.669
 9580SOL     OW29638   4.270   3.775   6.171
 9580SOL    HW129639   4.306   3.866   6.153
 9580SOL    HW229640   4.205   3.779   6.247
 9581SOL     OW29641   1.342   4.679   6.251
 9581SOL    HW129642   1.429   4.708   6.211
 9581SOL    HW229643   1.339   4.707   6.347
 9582SOL     OW29644   4.514   5.743   4.389
 9582SOL    HW129645   4.437   5.802   4.414
 9582SOL    HW229646   4.511   5.660   4.444
 9583SOL     OW29647   2.317   4.240   1.857
 9583SOL    HW129648   2.255   4.243   1.778
 9583SOL    HW229649   2.347   4.332   1.880
 9584SOL     OW29650   5.846   5.555   6.449
 9584SOL    HW129651   5.859   5.547   6.548
 9584SOL    HW229652   5.845   5.463   6.409
 9585SOL     OW29653   6.138   0.097   4.403
 9585SOL    HW129654   6.224   0.046   4.408
 9585SOL    HW229655   6.088   0.087   4.490
 9586SOL     OW29656   5.504   3.376   3.443
 9586SOL    HW129657   5.515   3.277   3.441
 9586SOL    HW229658   5.560   3.417   3.372
 9587SOL     OW29659   5.158   6.179   2.050
 9587SOL    HW129660   5.152   6.143   1.956
 9587SOL    HW229661   5.108   6.119   2.112
 9588SOL     OW29662   6.777   0.613   2.159
 9588SOL    HW129663   6.782   0.656   2.249
 9588SOL    HW229664   6.799   0.516   2.167
 9589SOL     OW29665   2.532   1.128   6.397
 9589SOL    HW129666   2.610   1.075   6.431
 9589SOL    HW229667   2.547   1.148   6.300
 9590SOL     OW29668   6.934   4.725   4.919
 9590SOL    HW129669   6.992   4.765   4.990
 9590SOL    HW229670   6.842   4.712   4.954
 9591SOL     OW29671   1.543   4.898   2.094
 9591SOL    HW129672   1.480   4.868   2.166
 9591SOL    HW229673   1.506   4.980   2.050
 9592SOL     OW29674   5.227   5.131   2.110
 9592SOL    HW129675   5.143   5.129   2.164
 9592SOL    HW229676   5.303   5.099   2.166
 9593SOL     OW29677   0.808   2.621   4.059
 9593SOL    HW129678   0.729   2.666   4.101
 9593SOL    HW229679   0.881   2.613   4.128
 9594SOL     OW29680   5.792   6.854   1.900
 9594SOL    HW129681   5.764   6.842   1.805
 9594SOL    HW229682   5.711   6.870   1.956
 9595SOL     OW29683   0.484   4.590   4.662
 9595SOL    HW129684   0.477   4.656   4.737
 9595SOL    HW229685   0.572   4.543   4.667
 9596SOL     OW29686   4.793   5.829   4.054
 9596SOL    HW129687   4.754   5.864   4.138
 9596SOL    HW229688   4.752   5.875   3.975
 9597SOL     OW29689   2.278   3.937   1.348
 9597SOL    HW129690   2.187   3.937   1.307
 9597SOL    HW229691   2.271   3.917   1.446
 9598SOL     OW29692   6.718   5.339   6.032
 9598SOL    HW129693   6.632   5.288   6.026
 9598SOL    HW229694   6.703   5.433   5.999
 9599SOL     OW29695   5.274   1.875   4.759
 9599SOL    HW129696   5.331   1.950   4.723
 9599SOL    HW229697   5.183   1.881   4.718
 9600SOL     OW29698   1.606   6.272   6.811
 9600SOL    HW129699   1.594   6.200   6.880
 9600SOL    HW229700   1.700   6.272   6.778
 9601SOL     OW29701   0.701   5.273   5.723
 9601SOL    HW129702   0.750   5.223   5.651
 9601SOL    HW229703   0.682   5.212   5.799
 9602SOL     OW29704   1.814   5.751   0.697
 9602SOL    HW129705   1.863   5.817   0.641
 9602SOL    HW229706   1.879   5.694   0.747
 9603SOL     OW29707   1.317   5.182   4.515
 9603SOL    HW129708   1.323   5.106   4.581
 9603SOL    HW229709   1.262   5.256   4.555
 9604SOL     OW29710   0.255   0.756   0.127
 9604SOL    HW129711   0.240   0.759   0.029
 9604SOL    HW229712   0.314   0.833   0.154
 9605SOL     OW29713   2.003   5.744   6.396
 9605SOL    HW129714   2.042   5.652   6.400
 9605SOL    HW229715   1.923   5.748   6.456
 9606SOL     OW29716   6.418   6.375   4.220
 9606SOL    HW129717   6.402   6.330   4.132
 9606SOL    HW229718   6.331   6.407   4.257
 9607SOL     OW29719   0.766   3.139   1.763
 9607SOL    HW129720   0.862   3.123   1.739
 9607SOL    HW229721   0.762   3.184   1.853
 9608SOL     OW29722   6.985   6.384   2.844
 9608SOL    HW129723   6.980   6.440   2.926
 9608SOL    HW229724   0.051   6.342   2.837
 9609SOL     OW29725   2.013   2.520   3.598
 9609SOL    HW129726   1.997   2.472   3.512
 9609SOL    HW229727   1.928   2.525   3.650
 9610SOL     OW29728   3.144   1.706   6.315
 9610SOL    HW129729   3.193   1.627   6.279
 9610SOL    HW229730   3.068   1.729   6.255
 9611SOL     OW29731   6.437   6.422   1.049
 9611SOL    HW129732   6.367   6.377   0.993
 9611SOL    HW229733   6.402   6.436   1.142
 9612SOL     OW29734   5.899   3.373   2.408
 9612SOL    HW129735   5.994   3.400   2.388
 9612SOL    HW229736   5.882   3.282   2.370
 9613SOL     OW29737   5.346   6.531   5.793
 9613SOL    HW129738   5.441   6.554   5.772
 9613SOL    HW229739   5.285   6.576   5.727
 9614SOL     OW29740   2.948   3.213   2.619
 9614SOL    HW129741   2.907   3.126   2.645
 9614SOL    HW229742   2.952   3.219   2.519
 9615SOL     OW29743   0.888   6.701   3.936
 9615SOL    HW129744   0.827   6.688   3.857
 9615SOL    HW229745   0.970   6.645   3.924
 9616SOL     OW29746   2.872   3.278   1.835
 9616SOL    HW129747   2.875   3.320   1.926
 9616SOL    HW229748   2.842   3.347   1.768
 9617SOL     OW29749   0.772   3.432   3.676
 9617SOL    HW129750   0.808   3.506   3.618
 9617SOL    HW229751   0.753   3.352   3.620
 9618SOL     OW29752   3.859   5.979   6.923
 9618SOL    HW129753   3.891   5.991   6.830
 9618SOL    HW229754   3.875   6.064   6.975
 9619SOL     OW29755   1.901   6.987   1.041
 9619SOL    HW129756   1.994   6.993   1.076
 9619SOL    HW229757   1.897   6.921   0.966
 9620SOL     OW29758   4.022   1.652   7.004
 9620SOL    HW129759   4.094   1.583   6.998
 9620SOL    HW229760   3.935   1.608   0.001
 9621SOL     OW29761   1.181   1.993   1.971
 9621SOL    HW129762   1.132   1.935   2.036
 9621SOL    HW229763   1.119   2.065   1.940
 9622SOL     OW29764   6.856   6.901   6.077
 9622SOL    HW129765   6.775   6.922   6.022
 9622SOL    HW229766   6.871   6.802   6.078
 9623SOL     OW29767   4.143   6.606   6.664
 9623SOL    HW129768   4.161   6.533   6.598
 9623SOL    HW229769   4.170   6.575   6.756
 9624SOL     OW29770   4.462   4.980   4.738
 9624SOL    HW129771   4.548   4.948   4.778
 9624SOL    HW229772   4.480   5.033   4.656
 9625SOL     OW29773   4.919   3.550   5.701
 9625SOL    HW129774   4.948   3.645   5.709
 9625SOL    HW229775   4.952   3.498   5.780
 9626SOL     OW29776   2.245   3.350   5.945
 9626SOL    HW129777   2.213   3.396   6.028
 9626SOL    HW229778   2.341   3.323   5.957
 9627SOL     OW29779   0.942   5.110   6.527
 9627SOL    HW129780   0.958   5.070   6.617
 9627SOL    HW229781   0.878   5.052   6.476
 9628SOL     OW29782   6.151   1.751   6.370
 9628SOL    HW129783   6.115   1.805   6.293
 9628SOL    HW229784   6.148   1.654   6.346
 9629SOL     OW29785   6.770   5.858   4.363
 9629SOL    HW129786   6.801   5.797   4.436
 9629SOL    HW229787   6.781   5.953   4.392
 9630SOL     OW29788   5.924   6.699   6.232
 9630SOL    HW129789   5.858   6.769   6.261
 9630SOL    HW229790   5.954   6.719   6.139
 9631SOL     OW29791   3.600   0.850   0.653
 9631SOL    HW129792   3.594   0.752   0.631
 9631SOL    HW229793   3.634   0.860   0.747
 9632SOL     OW29794   3.543   5.858   2.441
 9632SOL    HW129795   3.596   5.809   2.372
 9632SOL    HW229796   3.449   5.825   2.440
 9633SOL     OW29797   3.221   3.001   2.921
 9633SOL    HW129798   3.312   3.041   2.936
 9633SOL    HW229799   3.158   3.035   2.991
 9634SOL     OW29800   5.534   5.134   2.966
 9634SOL    HW129801   5.513   5.048   2.919
 9634SOL    HW229802   5.628   5.161   2.945
 9635SOL     OW29803   0.347   5.288   4.069
 9635SOL    HW129804   0.383   5.379   4.091
 9635SOL    HW229805   0.255   5.297   4.031
 9636SOL     OW29806   5.008   3.312   3.971
 9636SOL    HW129807   4.960   3.225   3.981
 9636SOL    HW229808   5.070   3.325   4.048
 9637SOL     OW29809   2.517   2.968   0.025
 9637SOL    HW129810   2.554   2.913   6.974
 9637SOL    HW229811   2.423   2.939   0.044
 9638SOL     OW29812   6.467   4.937   5.381
 9638SOL    HW129813   6.382   4.973   5.420
 9638SOL    HW229814   6.502   5.001   5.312
 9639SOL     OW29815   3.882   1.772   2.195
 9639SOL    HW129816   3.812   1.702   2.181
 9639SOL    HW229817   3.882   1.801   2.291
 9640SOL     OW29818   4.671   0.088   3.069
 9640SOL    HW129819   4.701   0.000   3.106
 9640SOL    HW229820   4.713   0.103   2.979
 9641SOL     OW29821   6.170   3.708   3.048
 9641SOL    HW129822   6.195   3.615   3.023
 9641SOL    HW229823   6.159   3.714   3.147
 9642SOL     OW29824   1.533   0.648   3.876
 9642SOL    HW129825   1.484   0.730   3.905
 9642SOL    HW229826   1.489   0.611   3.794
 9643SOL     OW29827   4.938   5.065   4.186
 9643SOL    HW129828   4.968   5.063   4.282
 9643SOL    HW229829   4.844   5.030   4.181
 9644SOL     OW29830   1.191   5.446   4.283
 9644SOL    HW129831   1.156   5.421   4.373
 9644SOL    HW229832   1.149   5.532   4.253
 9645SOL     OW29833   0.199   4.958   6.349
 9645SOL    HW129834   0.186   4.859   6.344
 9645SOL    HW229835   0.137   5.002   6.284
 9646SOL     OW29836   2.861   5.795   5.812
 9646SOL    HW129837   2.921   5.785   5.891
 9646SOL    HW229838   2.847   5.892   5.792
 9647SOL     OW29839   6.372   6.938   3.561
 9647SOL    HW129840   6.431   6.858   3.547
 9647SOL    HW229841   6.334   6.936   3.653
 9648SOL     OW29842   3.505   2.078   0.800
 9648SOL    HW129843   3.407   2.063   0.787
 9648SOL    HW229844   3.526   2.076   0.897
 9649SOL     OW29845   1.317   6.113   6.938
 9649SOL    HW129846   1.297   6.196   6.885
 9649SOL    HW229847   1.379   6.054   6.886
 9650SOL     OW29848   6.756   4.841   4.428
 9650SOL    HW129849   6.732   4.913   4.362
 9650SOL    HW229850   6.783   4.759   4.378
 9651SOL     OW29851   4.289   1.533   0.574
 9651SOL    HW129852   4.202   1.577   0.552
 9651SOL    HW229853   4.273   1.452   0.630
 9652SOL     OW29854   6.813   3.874   0.274
 9652SOL    HW129855   6.769   3.789   0.303
 9652SOL    HW229856   6.783   3.949   0.333
 9653SOL     OW29857   4.166   4.564   6.267
 9653SOL    HW129858   4.133   4.593   6.357
 9653SOL    HW229859   4.089   4.526   6.215
 9654SOL     OW29860   3.874   3.397   3.366
 9654SOL    HW129861   3.874   3.464   3.441
 9654SOL    HW229862   3.957   3.343   3.370
 9655SOL     OW29863   3.878   1.401   1.411
 9655SOL    HW129864   3.955   1.400   1.348
 9655SOL    HW229865   3.865   1.494   1.447
 9656SOL     OW29866   5.745   3.843   0.780
 9656SOL    HW129867   5.699   3.865   0.866
 9656SOL    HW229868   5.844   3.851   0.792
 9657SOL     OW29869   5.749   4.231   3.423
 9657SOL    HW129870   5.746   4.247   3.324
 9657SOL    HW229871   5.693   4.151   3.445
 9658SOL     OW29872   4.719   2.218   2.645
 9658SOL    HW129873   4.676   2.182   2.728
 9658SOL    HW229874   4.662   2.291   2.608
 9659SOL     OW29875   2.434   3.498   0.649
 9659SOL    HW129876   2.373   3.569   0.684
 9659SOL    HW229877   2.526   3.534   0.643
 9660SOL     OW29878   1.070   5.712   1.566
 9660SOL    HW129879   1.125   5.792   1.591
 9660SOL    HW229880   1.118   5.629   1.592
 9661SOL     OW29881   5.250   4.600   0.837
 9661SOL    HW129882   5.168   4.572   0.787
 9661SOL    HW229883   5.275   4.693   0.811
 9662SOL     OW29884   5.844   5.333   5.842
 9662SOL    HW129885   5.813   5.361   5.933
 9662SOL    HW229886   5.865   5.415   5.788
 9663SOL     OW29887   0.709   5.317   3.220
 9663SOL    HW129888   0.642   5.258   3.175
 9663SOL    HW229889   0.800   5.278   3.210
 9664SOL     OW29890   4.801   4.019   3.098
 9664SOL    HW129891   4.790   4.055   3.005
 9664SOL    HW229892   4.750   4.075   3.163
 9665SOL     OW29893   5.864   5.652   6.768
 9665SOL    HW129894   5.947   5.693   6.805
 9665SOL    HW229895   5.808   5.722   6.725
 9666SOL     OW29896   5.772   3.516   0.992
 9666SOL    HW129897   5.855   3.570   0.977
 9666SOL    HW229898   5.740   3.529   1.086
 9667SOL     OW29899   6.205   6.206   6.401
 9667SOL    HW129900   6.292   6.210   6.449
 9667SOL    HW229901   6.183   6.111   6.380
 9668SOL     OW29902   0.534   0.600   5.684
 9668SOL    HW129903   0.628   0.587   5.715
 9668SOL    HW229904   0.502   0.691   5.711
 9669SOL     OW29905   4.011   0.775   0.748
 9669SOL    HW129906   3.922   0.788   0.790
 9669SOL    HW229907   4.000   0.736   0.657
 9670SOL     OW29908   0.190   6.971   6.971
 9670SOL    HW129909   0.286   6.998   6.962
 9670SOL    HW229910   0.185   6.874   6.993
 9671SOL     OW29911   1.076   5.512   6.740
 9671SOL    HW129912   1.005   5.538   6.675
 9671SOL    HW229913   1.089   5.413   6.738
 9672SOL     OW29914   0.780   3.171   4.331
 9672SOL    HW129915   0.737   3.096   4.281
 9672SOL    HW229916   0.865   3.197   4.285
 9673SOL     OW29917   2.298   3.906   0.684
 9673SOL    HW129918   2.333   3.977   0.745
 9673SOL    HW229919   2.370   3.875   0.623
 9674SOL     OW29920   2.692   5.999   4.544
 9674SOL    HW129921   2.659   5.921   4.490
 9674SOL    HW229922   2.690   6.082   4.487
 9675SOL     OW29923   4.714   3.392   0.826
 9675SOL    HW129924   4.768   3.410   0.743
 9675SOL    HW229925   4.713   3.474   0.883
 9676SOL     OW29926   0.266   2.875   6.917
 9676SOL    HW129927   0.280   2.971   6.892
 9676SOL    HW229928   0.354   2.827   6.913
 9677SOL     OW29929   6.808   5.306   0.879
 9677SOL    HW129930   6.769   5.329   0.968
 9677SOL    HW229931   6.734   5.290   0.813
 9678SOL     OW29932   3.716   3.406   5.037
 9678SOL    HW129933   3.674   3.490   5.003
 9678SOL    HW229934   3.683   3.328   4.983
 9679SOL     OW29935   1.913   2.020   4.493
 9679SOL    HW129936   1.974   2.066   4.428
 9679SOL    HW229937   1.952   1.930   4.516
 9680SOL     OW29938   4.761   5.420   2.327
 9680SOL    HW129939   4.813   5.435   2.410
 9680SOL    HW229940   4.668   5.454   2.339
 9681SOL     OW29941   1.628   1.624   2.673
 9681SOL    HW129942   1.681   1.705   2.701
 9681SOL    HW229943   1.586   1.640   2.584
 9682SOL     OW29944   4.955   5.175   5.436
 9682SOL    HW129945   4.869   5.205   5.395
 9682SOL    HW229946   4.996   5.104   5.379
 9683SOL     OW29947   3.152   6.405   1.817
 9683SOL    HW129948   3.209   6.372   1.892
 9683SOL    HW229949   3.201   6.393   1.730
 9684SOL     OW29950   0.474   3.377   5.618
 9684SOL    HW129951   0.504   3.413   5.706
 9684SOL    HW229952   0.554   3.351   5.564
 9685SOL     OW29953   3.832   4.304   1.597
 9685SOL    HW129954   3.916   4.342   1.636
 9685SOL    HW229955   3.853   4.255   1.513
 9686SOL     OW29956   6.786   1.624   5.691
 9686SOL    HW129957   6.707   1.579   5.732
 9686SOL    HW229958   6.869   1.593   5.737
 9687SOL     OW29959   5.874   1.136   2.288
 9687SOL    HW129960   5.793   1.082   2.312
 9687SOL    HW229961   5.921   1.163   2.372
 9688SOL     OW29962   6.826   4.649   1.218
 9688SOL    HW129963   6.878   4.727   1.185
 9688SOL    HW229964   6.887   4.571   1.229
 9689SOL     OW29965   1.790   6.262   0.939
 9689SOL    HW129966   1.692   6.265   0.921
 9689SOL    HW229967   1.830   6.351   0.917
 9690SOL     OW29968   6.446   4.954   4.950
 9690SOL    HW129969   6.427   5.009   4.869
 9690SOL    HW229970   6.383   4.876   4.953
 9691SOL     OW29971   3.205   4.032   1.941
 9691SOL    HW129972   3.126   4.063   1.888
 9691SOL    HW229973   3.288   4.072   1.903
 9692SOL     OW29974   4.966   5.195   1.427
 9692SOL    HW129975   5.055   5.170   1.463
 9692SOL    HW229976   4.939   5.128   1.357
 9693SOL     OW29977   5.318   3.743   4.609
 9693SOL    HW129978   5.390   3.683   4.575
 9693SOL    HW229979   5.254   3.764   4.536
 9694SOL     OW29980   3.469   6.660   2.397
 9694SOL    HW129981   3.401   6.594   2.427
 9694SOL    HW229982   3.458   6.678   2.300
 9695SOL     OW29983   0.892   2.009   3.324
 9695SOL    HW129984   0.869   1.931   3.266
 9695SOL    HW229985   0.986   2.001   3.356
 9696SOL     OW29986   5.982   2.241   2.340
 9696SOL    HW129987   5.907   2.302   2.364
 9696SOL    HW229988   5.962   2.195   2.254
 9697SOL     OW29989   1.573   6.495   0.695
 9697SOL    HW129990   1.641   6.485   0.622
 9697SOL    HW229991   1.598   6.571   0.754
 9698SOL     OW29992   5.588   3.288   1.096
 9698SOL    HW129993   5.508   3.337   1.061
 9698SOL    HW229994   5.580   3.191   1.072
 9699SOL     OW29995   1.652   5.694   1.186
 9699SOL    HW129996   1.654   5.700   1.086
 9699SOL    HW229997   1.700   5.611   1.215
 9700SOL     OW29998   5.323   0.423   5.390
 9700SOL    HW129999   5.323   0.331   5.352
 9700SOL    HW230000   5.249   0.432   5.458
 9701SOL     OW30001   4.425   3.320   6.207
 9701SOL    HW130002   4.414   3.229   6.247
 9701SOL    HW230003   4.410   3.315   6.108
 9702SOL     OW30004   3.624   3.401   1.513
 9702SOL    HW130005   3.723   3.413   1.526
 9702SOL    HW230006   3.608   3.344   1.433
 9703SOL     OW30007   0.088   4.148   4.411
 9703SOL    HW130008   0.131   4.129   4.500
 9703SOL    HW230009   0.101   4.070   4.350
 9704SOL     OW30010   2.094   4.250   2.575
 9704SOL    HW130011   2.098   4.219   2.480
 9704SOL    HW230012   2.033   4.191   2.627
 9705SOL     OW30013   6.261   3.201   5.721
 9705SOL    HW130014   6.319   3.176   5.643
 9705SOL    HW230015   6.318   3.213   5.803
 9706SOL     OW30016   1.150   1.351   2.159
 9706SOL    HW130017   1.071   1.391   2.207
 9706SOL    HW230018   1.230   1.410   2.172
 9707SOL     OW30019   0.802   4.935   2.220
 9707SOL    HW130020   0.818   4.893   2.309
 9707SOL    HW230021   0.865   5.012   2.207
 9708SOL     OW30022   2.549   0.358   2.545
 9708SOL    HW130023   2.492   0.413   2.483
 9708SOL    HW230024   2.640   0.398   2.551
 9709SOL     OW30025   5.144   2.155   1.375
 9709SOL    HW130026   5.060   2.118   1.338
 9709SOL    HW230027   5.216   2.085   1.373
 9710SOL     OW30028   6.904   5.427   3.795
 9710SOL    HW130029   6.875   5.402   3.702
 9710SOL    HW230030   6.824   5.432   3.854
 9711SOL     OW30031   4.116   0.446   0.272
 9711SOL    HW130032   4.059   0.365   0.263
 9711SOL    HW230033   4.136   0.483   0.181
 9712SOL     OW30034   5.648   1.729   7.013
 9712SOL    HW130035   5.730   1.781   0.013
 9712SOL    HW230036   5.673   1.647   6.962
 9713SOL     OW30037   1.033   6.596   3.588
 9713SOL    HW130038   1.110   6.650   3.556
 9713SOL    HW230039   1.050   6.566   3.682
 9714SOL     OW30040   2.002   4.644   4.770
 9714SOL    HW130041   2.096   4.672   4.750
 9714SOL    HW230042   2.000   4.549   4.801
 9715SOL     OW30043   6.247   3.706   0.055
 9715SOL    HW130044   6.290   3.629   0.101
 9715SOL    HW230045   6.220   3.678   6.986
 9716SOL     OW30046   2.370   5.035   6.755
 9716SOL    HW130047   2.396   4.969   6.826
 9716SOL    HW230048   2.340   4.986   6.673
 9717SOL     OW30049   4.020   1.480   5.600
 9717SOL    HW130050   4.045   1.439   5.688
 9717SOL    HW230051   4.090   1.545   5.572
 9718SOL     OW30052   3.478   3.195   0.187
 9718SOL    HW130053   3.396   3.150   0.151
 9718SOL    HW230054   3.468   3.208   0.286
 9719SOL     OW30055   4.580   6.415   5.325
 9719SOL    HW130056   4.511   6.488   5.331
 9719SOL    HW230057   4.535   6.326   5.324
 9720SOL     OW30058   2.124   3.770   3.391
 9720SOL    HW130059   2.133   3.762   3.292
 9720SOL    HW230060   2.098   3.863   3.415
 9721SOL     OW30061   0.996   1.550   0.757
 9721SOL    HW130062   1.095   1.549   0.774
 9721SOL    HW230063   0.948   1.520   0.839
 9722SOL     OW30064   3.959   2.968   5.382
 9722SOL    HW130065   3.979   3.047   5.440
 9722SOL    HW230066   4.044   2.930   5.345
 9723SOL     OW30067   6.371   6.174   4.594
 9723SOL    HW130068   6.310   6.179   4.673
 9723SOL    HW230069   6.343   6.099   4.534
 9724SOL     OW30070   1.624   5.199   6.794
 9724SOL    HW130071   1.575   5.286   6.798
 9724SOL    HW230072   1.674   5.185   6.880
 9725SOL     OW30073   3.522   5.198   5.386
 9725SOL    HW130074   3.485   5.275   5.436
 9725SOL    HW230075   3.448   5.135   5.362
 9726SOL     OW30076   6.065   1.873   4.290
 9726SOL    HW130077   6.117   1.836   4.367
 9726SOL    HW230078   6.018   1.956   4.319
 9727SOL     OW30079   0.681   1.191   0.202
 9727SOL    HW130080   0.691   1.213   0.105
 9727SOL    HW230081   0.671   1.276   0.254
 9728SOL     OW30082   4.662   0.844   5.489
 9728SOL    HW130083   4.650   0.875   5.583
 9728SOL    HW230084   4.585   0.788   5.461
 9729SOL     OW30085   0.408   4.900   3.448
 9729SOL    HW130086   0.439   4.989   3.415
 9729SOL    HW230087   0.385   4.907   3.545
 9730SOL     OW30088   6.941   4.228   3.291
 9730SOL    HW130089   6.884   4.147   3.278
 9730SOL    HW230090   6.889   4.310   3.266
 9731SOL     OW30091   4.930   3.406   2.112
 9731SOL    HW130092   4.887   3.446   2.031
 9731SOL    HW230093   4.954   3.478   2.177
 9732SOL     OW30094   1.493   2.680   2.702
 9732SOL    HW130095   1.522   2.595   2.745
 9732SOL    HW230096   1.573   2.735   2.679
 9733SOL     OW30097   6.912   4.674   2.235
 9733SOL    HW130098   6.888   4.762   2.275
 9733SOL    HW230099   6.901   4.678   2.135
 9734SOL     OW30100   6.466   6.235   6.181
 9734SOL    HW130101   6.487   6.212   6.276
 9734SOL    HW230102   6.366   6.238   6.169
 9735SOL     OW30103   1.091   3.044   1.916
 9735SOL    HW130104   1.068   3.105   1.841
 9735SOL    HW230105   1.066   3.087   2.003
 9736SOL     OW30106   5.104   2.011   4.998
 9736SOL    HW130107   5.182   2.018   4.936
 9736SOL    HW230108   5.041   2.086   4.981
 9737SOL     OW30109   5.940   2.707   2.358
 9737SOL    HW130110   5.864   2.723   2.420
 9737SOL    HW230111   5.908   2.655   2.278
 9738SOL     OW30112   1.949   5.918   1.945
 9738SOL    HW130113   2.019   5.871   1.891
 9738SOL    HW230114   1.920   5.859   2.020
 9739SOL     OW30115   5.839   6.849   0.132
 9739SOL    HW130116   5.922   6.826   0.081
 9739SOL    HW230117   5.759   6.808   0.087
 9740SOL     OW30118   6.509   0.757   2.174
 9740SOL    HW130119   6.589   0.714   2.132
 9740SOL    HW230120   6.453   0.686   2.218
 9741SOL     OW30121   2.512   1.544   4.593
 9741SOL    HW130122   2.544   1.638   4.604
 9741SOL    HW230123   2.542   1.510   4.504
 9742SOL     OW30124   3.917   1.978   6.036
 9742SOL    HW130125   3.947   2.068   6.006
 9742SOL    HW230126   3.846   1.988   6.106
 9743SOL     OW30127   6.088   3.389   4.093
 9743SOL    HW130128   6.003   3.338   4.105
 9743SOL    HW230129   6.101   3.452   4.170
 9744SOL     OW30130   1.815   0.606   3.886
 9744SOL    HW130131   1.832   0.564   3.975
 9744SOL    HW230132   1.719   0.631   3.878
 9745SOL     OW30133   6.843   0.997   5.370
 9745SOL    HW130134   6.863   0.946   5.454
 9745SOL    HW230135   6.784   1.074   5.392
 9746SOL     OW30136   4.128   5.620   6.237
 9746SOL    HW130137   4.131   5.525   6.269
 9746SOL    HW230138   4.172   5.627   6.148
 9747SOL     OW30139   2.361   2.039   2.797
 9747SOL    HW130140   2.304   2.121   2.798
 9747SOL    HW230141   2.429   2.044   2.869
 9748SOL     OW30142   1.302   0.918   3.308
 9748SOL    HW130143   1.313   1.006   3.262
 9748SOL    HW230144   1.229   0.866   3.262
 9749SOL     OW30145   6.889   1.216   1.977
 9749SOL    HW130146   6.918   1.309   2.000
 9749SOL    HW230147   6.814   1.220   1.912
 9750SOL     OW30148   0.126   4.518   3.865
 9750SOL    HW130149   0.142   4.435   3.811
 9750SOL    HW230150   0.111   4.492   3.961
 9751SOL     OW30151   2.844   0.691   1.581
 9751SOL    HW130152   2.810   0.660   1.491
 9751SOL    HW230153   2.807   0.631   1.652
 9752SOL     OW30154   3.179   3.113   0.184
 9752SOL    HW130155   3.164   3.015   0.169
 9752SOL    HW230156   3.213   3.128   0.277
 9753SOL     OW30157   6.791   5.732   4.600
 9753SOL    HW130158   6.764   5.785   4.680
 9753SOL    HW230159   6.774   5.635   4.618
 9754SOL     OW30160   3.113   1.022   1.177
 9754SOL    HW130161   3.058   0.941   1.160
 9754SOL    HW230162   3.070   1.102   1.135
 9755SOL     OW30163   3.020   4.271   6.342
 9755SOL    HW130164   3.095   4.334   6.362
 9755SOL    HW230165   3.040   4.220   6.258
 9756SOL     OW30166   5.783   0.020   6.186
 9756SOL    HW130167   5.693   7.015   6.217
 9756SOL    HW230168   5.820   0.088   6.250
 9757SOL     OW30169   5.252   3.933   3.867
 9757SOL    HW130170   5.246   4.032   3.854
 9757SOL    HW230171   5.265   3.888   3.779
 9758SOL     OW30172   1.678   0.446   1.579
 9758SOL    HW130173   1.695   0.497   1.662
 9758SOL    HW230174   1.746   0.470   1.510
 9759SOL     OW30175   0.064   0.834   0.883
 9759SOL    HW130176   0.097   0.758   0.939
 9759SOL    HW230177   0.138   0.869   0.826
 9760SOL     OW30178   4.761   1.646   6.951
 9760SOL    HW130179   4.708   1.671   6.870
 9760SOL    HW230180   4.704   1.592   7.013
 9761SOL     OW30181   1.270   2.332   1.389
 9761SOL    HW130182   1.199   2.266   1.410
 9761SOL    HW230183   1.234   2.400   1.325
 9762SOL     OW30184   2.527   1.438   5.489
 9762SOL    HW130185   2.435   1.467   5.517
 9762SOL    HW230186   2.524   1.403   5.395
 9763SOL     OW30187   6.029   1.130   0.886
 9763SOL    HW130188   6.117   1.154   0.845
 9763SOL    HW230189   5.978   1.071   0.823
 9764SOL     OW30190   5.979   2.452   1.863
 9764SOL    HW130191   6.036   2.414   1.790
 9764SOL    HW230192   6.037   2.478   1.941
 9765SOL     OW30193   6.517   0.741   1.406
 9765SOL    HW130194   6.441   0.796   1.440
 9765SOL    HW230195   6.602   0.793   1.413
 9766SOL     OW30196   2.129   1.484   4.411
 9766SOL    HW130197   2.126   1.394   4.456
 9766SOL    HW230198   2.160   1.553   4.476
 9767SOL     OW30199   2.258   3.356   5.681
 9767SOL    HW130200   2.234   3.351   5.778
 9767SOL    HW230201   2.294   3.268   5.651
 9768SOL     OW30202   6.220   2.674   1.221
 9768SOL    HW130203   6.196   2.610   1.147
 9768SOL    HW230204   6.168   2.650   1.303
 9769SOL     OW30205   2.945   1.957   4.904
 9769SOL    HW130206   2.864   1.997   4.860
 9769SOL    HW230207   2.934   1.961   5.003
 9770SOL     OW30208   2.976   2.292   6.094
 9770SOL    HW130209   2.965   2.216   6.158
 9770SOL    HW230210   3.039   2.359   6.132
 9771SOL     OW30211   3.234   6.181   3.205
 9771SOL    HW130212   3.202   6.111   3.142
 9771SOL    HW230213   3.191   6.269   3.183
 9772SOL     OW30214   1.075   6.733   1.379
 9772SOL    HW130215   1.112   6.640   1.383
 9772SOL    HW230216   1.021   6.751   1.462
 9773SOL     OW30217   4.770   4.783   1.931
 9773SOL    HW130218   4.688   4.771   1.875
 9773SOL    HW230219   4.841   4.719   1.901
 9774SOL     OW30220   0.640   5.419   4.816
 9774SOL    HW130221   0.724   5.420   4.870
 9774SOL    HW230222   0.656   5.367   4.731
 9775SOL     OW30223   1.902   1.471   3.766
 9775SOL    HW130224   1.951   1.393   3.805
 9775SOL    HW230225   1.952   1.555   3.787
 9776SOL     OW30226   1.528   5.972   6.776
 9776SOL    HW130227   1.540   5.977   6.677
 9776SOL    HW230228   1.521   5.876   6.804
 9777SOL     OW30229   4.452   0.799   5.846
 9777SOL    HW130230   4.412   0.751   5.769
 9777SOL    HW230231   4.423   0.755   5.931
 9778SOL     OW30232   0.267   3.050   4.085
 9778SOL    HW130233   0.285   3.136   4.133
 9778SOL    HW230234   0.177   3.055   4.040
 9779SOL     OW30235   1.702   1.239   3.881
 9779SOL    HW130236   1.712   1.286   3.969
 9779SOL    HW230237   1.679   1.306   3.810
 9780SOL     OW30238   1.491   2.694   1.959
 9780SOL    HW130239   1.427   2.641   1.904
 9780SOL    HW230240   1.457   2.788   1.969
 9781SOL     OW30241   1.879   2.458   3.368
 9781SOL    HW130242   1.794   2.509   3.381
 9781SOL    HW230243   1.858   2.365   3.336
 9782SOL     OW30244   0.051   2.335   1.210
 9782SOL    HW130245   0.014   2.299   1.124
 9782SOL    HW230246   0.146   2.365   1.196
 9783SOL     OW30247   3.588   1.603   2.878
 9783SOL    HW130248   3.623   1.651   2.958
 9783SOL    HW230249   3.507   1.551   2.903
 9784SOL     OW30250   1.828   1.424   6.643
 9784SOL    HW130251   1.897   1.381   6.701
 9784SOL    HW230252   1.766   1.478   6.699
 9785SOL     OW30253   0.576   2.718   4.207
 9785SOL    HW130254   0.583   2.632   4.258
 9785SOL    HW230255   0.495   2.769   4.238
 9786SOL     OW30256   2.557   4.535   1.400
 9786SOL    HW130257   2.597   4.460   1.454
 9786SOL    HW230258   2.464   4.554   1.434
 9787SOL     OW30259   3.711   3.426   3.104
 9787SOL    HW130260   3.648   3.349   3.112
 9787SOL    HW230261   3.722   3.470   3.193
 9788SOL     OW30262   6.128   6.862   1.375
 9788SOL    HW130263   6.111   6.945   1.427
 9788SOL    HW230264   6.091   6.872   1.283
 9789SOL     OW30265   3.854   0.706   6.803
 9789SOL    HW130266   3.881   0.654   6.722
 9789SOL    HW230267   3.872   0.652   6.885
 9790SOL     OW30268   0.322   4.546   4.167
 9790SOL    HW130269   0.319   4.447   4.183
 9790SOL    HW230270   0.332   4.594   4.255
 9791SOL     OW30271   1.479   6.662   1.172
 9791SOL    HW130272   1.448   6.757   1.175
 9791SOL    HW230273   1.414   6.608   1.118
 9792SOL     OW30274   4.078   6.072   0.947
 9792SOL    HW130275   4.125   6.085   1.035
 9792SOL    HW230276   4.121   6.131   0.878
 9793SOL     OW30277   4.979   1.622   3.425
 9793SOL    HW130278   4.978   1.699   3.360
 9793SOL    HW230279   5.020   1.652   3.511
 9794SOL     OW30280   4.878   4.659   4.787
 9794SOL    HW130281   4.797   4.600   4.798
 9794SOL    HW230282   4.960   4.602   4.783
 9795SOL     OW30283   1.351   3.307   3.533
 9795SOL    HW130284   1.442   3.331   3.501
 9795SOL    HW230285   1.346   3.323   3.632
 9796SOL     OW30286   3.318   3.606   3.464
 9796SOL    HW130287   3.340   3.607   3.366
 9796SOL    HW230288   3.394   3.645   3.515
 9797SOL     OW30289   3.155   6.216   6.708
 9797SOL    HW130290   3.168   6.258   6.798
 9797SOL    HW230291   3.202   6.128   6.705
 9798SOL     OW30292   0.942   3.574   0.212
 9798SOL    HW130293   0.849   3.581   0.248
 9798SOL    HW230294   0.939   3.533   0.121
 9799SOL     OW30295   2.693   6.817   6.743
 9799SOL    HW130296   2.602   6.839   6.779
 9799SOL    HW230297   2.688   6.732   6.691
 9800SOL     OW30298   6.196   3.729   4.683
 9800SOL    HW130299   6.121   3.742   4.747
 9800SOL    HW230300   6.262   3.803   4.693
 9801SOL     OW30301   6.117   5.707   6.852
 9801SOL    HW130302   6.132   5.643   6.927
 9801SOL    HW230303   6.181   5.687   6.778
 9802SOL     OW30304   4.350   4.619   0.359
 9802SOL    HW130305   4.324   4.549   0.425
 9802SOL    HW230306   4.448   4.638   0.368
 9803SOL     OW30307   0.333   3.982   6.824
 9803SOL    HW130308   0.269   3.911   6.851
 9803SOL    HW230309   0.296   4.072   6.850
 9804SOL     OW30310   0.321   5.147   2.181
 9804SOL    HW130311   0.402   5.175   2.233
 9804SOL    HW230312   0.281   5.065   2.222
 9805SOL     OW30313   1.087   6.218   3.879
 9805SOL    HW130314   1.172   6.173   3.850
 9805SOL    HW230315   1.011   6.186   3.823
 9806SOL     OW30316   3.336   2.425   6.067
 9806SOL    HW130317   3.406   2.427   6.138
 9806SOL    HW230318   3.343   2.339   6.016
 9807SOL     OW30319   3.086   3.964   2.346
 9807SOL    HW130320   3.117   4.058   2.333
 9807SOL    HW230321   3.067   3.922   2.257
 9808SOL     OW30322   4.597   6.192   3.488
 9808SOL    HW130323   4.594   6.287   3.519
 9808SOL    HW230324   4.665   6.142   3.542
 9809SOL     OW30325   7.009   3.150   0.740
 9809SOL    HW130326   0.026   3.115   0.825
 9809SOL    HW230327   6.997   3.249   0.747
 9810SOL     OW30328   2.644   1.604   6.314
 9810SOL    HW130329   2.651   1.631   6.410
 9810SOL    HW230330   2.700   1.522   6.299
 9811SOL     OW30331   6.326   3.921   4.088
 9811SOL    HW130332   6.229   3.935   4.071
 9811SOL    HW230333   6.355   3.833   4.051
 9812SOL     OW30334   3.009   5.941   4.909
 9812SOL    HW130335   2.916   5.915   4.884
 9812SOL    HW230336   3.036   5.894   4.993
 9813SOL     OW30337   4.763   2.333   1.212
 9813SOL    HW130338   4.787   2.421   1.252
 9813SOL    HW230339   4.748   2.344   1.113
 9814SOL     OW30340   5.895   1.133   0.133
 9814SOL    HW130341   5.858   1.191   0.061
 9814SOL    HW230342   5.950   1.060   0.092
 9815SOL     OW30343   4.246   2.241   4.854
 9815SOL    HW130344   4.233   2.285   4.764
 9815SOL    HW230345   4.291   2.153   4.842
 9816SOL     OW30346   1.340   0.031   0.291
 9816SOL    HW130347   1.378   6.966   0.319
 9816SOL    HW230348   1.334   0.035   0.191
 9817SOL     OW30349   0.191   6.872   3.375
 9817SOL    HW130350   0.096   6.858   3.349
 9817SOL    HW230351   0.218   6.966   3.353
 9818SOL     OW30352   6.426   2.842   4.826
 9818SOL    HW130353   6.520   2.872   4.840
 9818SOL    HW230354   6.402   2.774   4.895
 9819SOL     OW30355   4.137   1.744   3.374
 9819SOL    HW130356   4.186   1.692   3.304
 9819SOL    HW230357   4.061   1.689   3.410
 9820SOL     OW30358   4.006   4.419   5.797
 9820SOL    HW130359   3.916   4.379   5.783
 9820SOL    HW230360   4.075   4.347   5.800
 9821SOL     OW30361   5.418   5.939   6.672
 9821SOL    HW130362   5.352   6.011   6.654
 9821SOL    HW230363   5.439   5.937   6.770
 9822SOL     OW30364   0.941   0.075   3.129
 9822SOL    HW130365   0.926   0.099   3.225
 9822SOL    HW230366   0.864   0.019   3.096
 9823SOL     OW30367   3.323   0.810   1.671
 9823SOL    HW130368   3.235   0.822   1.717
 9823SOL    HW230369   3.308   0.771   1.580
 9824SOL     OW30370   1.338   4.263   5.012
 9824SOL    HW130371   1.363   4.353   4.977
 9824SOL    HW230372   1.405   4.234   5.080
 9825SOL     OW30373   3.639   4.702   5.731
 9825SOL    HW130374   3.559   4.665   5.683
 9825SOL    HW230375   3.612   4.785   5.779
 9826SOL     OW30376   4.835   6.789   6.042
 9826SOL    HW130377   4.789   6.707   6.075
 9826SOL    HW230378   4.906   6.764   5.976
 9827SOL     OW30379   1.289   3.839   4.836
 9827SOL    HW130380   1.359   3.910   4.827
 9827SOL    HW230381   1.245   3.846   4.926
 9828SOL     OW30382   4.416   2.420   0.429
 9828SOL    HW130383   4.514   2.418   0.413
 9828SOL    HW230384   4.368   2.396   0.345
 9829SOL     OW30385   2.418   6.054   6.568
 9829SOL    HW130386   2.441   5.980   6.632
 9829SOL    HW230387   2.364   6.123   6.616
 9830SOL     OW30388   5.827   1.209   1.420
 9830SOL    HW130389   5.778   1.122   1.421
 9830SOL    HW230390   5.895   1.210   1.493
 9831SOL     OW30391   0.740   6.481   1.726
 9831SOL    HW130392   0.749   6.580   1.718
 9831SOL    HW230393   0.764   6.452   1.818
 9832SOL     OW30394   4.453   5.191   1.919
 9832SOL    HW130395   4.479   5.211   2.013
 9832SOL    HW230396   4.449   5.092   1.905
 9833SOL     OW30397   3.649   4.324   5.274
 9833SOL    HW130398   3.603   4.411   5.292
 9833SOL    HW230399   3.596   4.272   5.208
 9834SOL     OW30400   1.376   4.022   5.533
 9834SOL    HW130401   1.447   4.056   5.595
 9834SOL    HW230402   1.287   4.025   5.580
 9835SOL     OW30403   5.399   1.324   4.332
 9835SOL    HW130404   5.379   1.420   4.347
 9835SOL    HW230405   5.339   1.288   4.261
 9836SOL     OW30406   5.639   4.209   2.909
 9836SOL    HW130407   5.595   4.285   2.861
 9836SOL    HW230408   5.582   4.127   2.902
 9837SOL     OW30409   2.197   6.641   3.864
 9837SOL    HW130410   2.186   6.650   3.963
 9837SOL    HW230411   2.138   6.568   3.830
 9838SOL     OW30412   0.730   6.702   6.308
 9838SOL    HW130413   0.792   6.751   6.368
 9838SOL    HW230414   0.773   6.617   6.276
 9839SOL     OW30415   6.306   1.560   1.494
 9839SOL    HW130416   6.286   1.520   1.405
 9839SOL    HW230417   6.248   1.517   1.564
 9840SOL     OW30418   0.517   0.521   1.027
 9840SOL    HW130419   0.517   0.585   1.103
 9840SOL    HW230420   0.563   0.562   0.948
 9841SOL     OW30421   1.327   4.018   4.521
 9841SOL    HW130422   1.356   4.076   4.598
 9841SOL    HW230423   1.294   4.075   4.446
 9842SOL     OW30424   3.094   3.283   3.307
 9842SOL    HW130425   3.116   3.188   3.330
 9842SOL    HW230426   3.176   3.340   3.319
 9843SOL     OW30427   0.028   1.934   1.373
 9843SOL    HW130428   0.028   1.947   1.472
 9843SOL    HW230429   0.071   1.846   1.351
 9844SOL     OW30430   4.918   0.011   2.315
 9844SOL    HW130431   4.982   0.087   2.303
 9844SOL    HW230432   4.958   6.952   2.275
 9845SOL     OW30433   2.305   1.812   4.374
 9845SOL    HW130434   2.297   1.909   4.351
 9845SOL    HW230435   2.235   1.788   4.441
 9846SOL     OW30436   3.051   3.784   3.485
 9846SOL    HW130437   2.998   3.756   3.404
 9846SOL    HW230438   3.134   3.729   3.490
 9847SOL     OW30439   2.171   3.075   6.646
 9847SOL    HW130440   2.169   3.129   6.730
 9847SOL    HW230441   2.238   3.001   6.655
 9848SOL     OW30442   4.658   2.729   6.677
 9848SOL    HW130443   4.750   2.769   6.681
 9848SOL    HW230444   4.608   2.752   6.760
 9849SOL     OW30445   6.749   6.981   6.851
 9849SOL    HW130446   6.680   7.011   6.785
 9849SOL    HW230447   6.704   6.930   6.924
 9850SOL     OW30448   4.574   6.934   2.728
 9850SOL    HW130449   4.525   6.889   2.803
 9850SOL    HW230450   4.664   6.892   2.717
 9851SOL     OW30451   4.839   2.031   5.460
 9851SOL    HW130452   4.885   1.969   5.396
 9851SOL    HW230453   4.741   2.014   5.459
 9852SOL     OW30454   4.738   2.179   3.740
 9852SOL    HW130455   4.738   2.094   3.687
 9852SOL    HW230456   4.653   2.185   3.792
 9853SOL     OW30457   5.569   4.303   2.087
 9853SOL    HW130458   5.654   4.354   2.099
 9853SOL    HW230459   5.507   4.324   2.163
 9854SOL     OW30460   5.628   5.556   4.427
 9854SOL    HW130461   5.559   5.539   4.498
 9854SOL    HW230462   5.634   5.654   4.409
 9855SOL     OW30463   0.976   4.251   0.974
 9855SOL    HW130464   0.943   4.278   1.065
 9855SOL    HW230465   0.944   4.158   0.953
 9856SOL     OW30466   3.743   3.783   0.849
 9856SOL    HW130467   3.712   3.745   0.762
 9856SOL    HW230468   3.776   3.709   0.908
 9857SOL     OW30469   5.403   2.316   3.056
 9857SOL    HW130470   5.325   2.377   3.045
 9857SOL    HW230471   5.412   2.257   2.976
 9858SOL     OW30472   5.077   1.049   1.870
 9858SOL    HW130473   5.007   0.978   1.866
 9858SOL    HW230474   5.160   1.011   1.912
 9859SOL     OW30475   6.186   0.386   1.225
 9859SOL    HW130476   6.248   0.453   1.183
 9859SOL    HW230477   6.228   0.295   1.220
 9860SOL     OW30478   0.403   0.793   1.631
 9860SOL    HW130479   0.416   0.839   1.719
 9860SOL    HW230480   0.474   0.724   1.619
 9861SOL     OW30481   3.938   6.085   4.497
 9861SOL    HW130482   3.878   6.155   4.536
 9861SOL    HW230483   4.032   6.117   4.498
 9862SOL     OW30484   2.702   3.621   0.643
 9862SOL    HW130485   2.755   3.624   0.728
 9862SOL    HW230486   2.764   3.625   0.565
 9863SOL     OW30487   3.762   0.383   2.693
 9863SOL    HW130488   3.851   0.381   2.739
 9863SOL    HW230489   3.704   0.454   2.735
 9864SOL     OW30490   4.495   5.269   3.825
 9864SOL    HW130491   4.400   5.250   3.802
 9864SOL    HW230492   4.523   5.210   3.901
 9865SOL     OW30493   0.523   7.009   3.535
 9865SOL    HW130494   0.492   6.930   3.482
 9865SOL    HW230495   0.549   0.059   3.473
 9866SOL     OW30496   4.873   3.984   4.672
 9866SOL    HW130497   4.868   3.886   4.692
 9866SOL    HW230498   4.835   4.036   4.748
 9867SOL     OW30499   4.158   1.540   0.953
 9867SOL    HW130500   4.108   1.564   0.870
 9867SOL    HW230501   4.099   1.487   1.014
 9868SOL     OW30502   0.261   4.616   6.763
 9868SOL    HW130503   0.260   4.528   6.716
 9868SOL    HW230504   0.308   4.684   6.706
 9869SOL     OW30505   1.721   3.746   3.465
 9869SOL    HW130506   1.771   3.792   3.392
 9869SOL    HW230507   1.632   3.715   3.430
 9870SOL     OW30508   4.793   5.313   3.072
 9870SOL    HW130509   4.718   5.318   3.138
 9870SOL    HW230510   4.815   5.405   3.039
 9871SOL     OW30511   1.705   0.510   5.824
 9871SOL    HW130512   1.612   0.507   5.861
 9871SOL    HW230513   1.703   0.548   5.732
 9872SOL     OW30514   2.801   5.111   3.136
 9872SOL    HW130515   2.729   5.180   3.144
 9872SOL    HW230516   2.847   5.101   3.224
 9873SOL     OW30517   2.183   3.126   0.216
 9873SOL    HW130518   2.214   3.060   0.148
 9873SOL    HW230519   2.249   3.201   0.222
 9874SOL     OW30520   0.549   2.024   3.564
 9874SOL    HW130521   0.575   2.035   3.660
 9874SOL    HW230522   0.477   1.955   3.557
 9875SOL     OW30523   0.371   0.853   2.079
 9875SOL    HW130524   0.361   0.951   2.100
 9875SOL    HW230525   0.376   0.801   2.164
 9876SOL     OW30526   6.192   0.597   1.996
 9876SOL    HW130527   6.194   0.673   2.061
 9876SOL    HW230528   6.156   0.515   2.040
 9877SOL     OW30529   3.280   6.484   2.479
 9877SOL    HW130530   3.321   6.398   2.451
 9877SOL    HW230531   3.182   6.471   2.495
 9878SOL     OW30532   1.929   5.378   6.185
 9878SOL    HW130533   1.908   5.420   6.273
 9878SOL    HW230534   2.026   5.393   6.164
 9879SOL     OW30535   5.211   5.283   4.645
 9879SOL    HW130536   5.307   5.304   4.623
 9879SOL    HW230537   5.167   5.366   4.679
 9880SOL     OW30538   1.628   2.870   5.222
 9880SOL    HW130539   1.560   2.932   5.260
 9880SOL    HW230540   1.718   2.915   5.221
 9881SOL     OW30541   1.221   2.189   4.822
 9881SOL    HW130542   1.314   2.210   4.791
 9881SOL    HW230543   1.224   2.117   4.891
 9882SOL     OW30544   0.753   2.356   4.063
 9882SOL    HW130545   0.660   2.335   4.092
 9882SOL    HW230546   0.766   2.455   4.062
 9883SOL     OW30547   1.367   0.294   1.608
 9883SOL    HW130548   1.315   0.366   1.562
 9883SOL    HW230549   1.434   0.257   1.545
 9884SOL     OW30550   4.315   1.318   3.388
 9884SOL    HW130551   4.395   1.269   3.351
 9884SOL    HW230552   4.232   1.267   3.366
 9885SOL     OW30553   6.477   4.478   4.833
 9885SOL    HW130554   6.471   4.394   4.888
 9885SOL    HW230555   6.427   4.465   4.747
 9886SOL     OW30556   0.853   4.866   2.464
 9886SOL    HW130557   0.784   4.845   2.535
 9886SOL    HW230558   0.908   4.784   2.447
 9887SOL     OW30559   4.001   1.227   0.462
 9887SOL    HW130560   3.985   1.168   0.383
 9887SOL    HW230561   4.071   1.186   0.520
 9888SOL     OW30562   6.844   3.898   0.750
 9888SOL    HW130563   6.875   3.934   0.838
 9888SOL    HW230564   6.904   3.932   0.678
 9889SOL     OW30565   6.450   5.130   0.934
 9889SOL    HW130566   6.509   5.178   0.869
 9889SOL    HW230567   6.374   5.189   0.959
 9890SOL     OW30568   1.477   2.207   0.778
 9890SOL    HW130569   1.527   2.205   0.865
 9890SOL    HW230570   1.423   2.124   0.769
 9891SOL     OW30571   5.981   2.471   0.825
 9891SOL    HW130572   5.952   2.510   0.738
 9891SOL    HW230573   5.937   2.383   0.838
 9892SOL     OW30574   6.833   5.573   0.283
 9892SOL    HW130575   6.807   5.651   0.340
 9892SOL    HW230576   6.929   5.551   0.298
 9893SOL     OW30577   1.620   0.855   0.610
 9893SOL    HW130578   1.587   0.943   0.577
 9893SOL    HW230579   1.567   0.827   0.690
 9894SOL     OW30580   2.024   2.111   1.164
 9894SOL    HW130581   2.053   2.192   1.113
 9894SOL    HW230582   2.021   2.133   1.262
 9895SOL     OW30583   5.706   3.742   5.194
 9895SOL    HW130584   5.668   3.798   5.268
 9895SOL    HW230585   5.704   3.646   5.220
 9896SOL     OW30586   6.340   6.677   0.016
 9896SOL    HW130587   6.374   6.602   0.072
 9896SOL    HW230588   6.394   6.684   6.956
 9897SOL     OW30589   5.384   6.007   3.141
 9897SOL    HW130590   5.307   6.069   3.129
 9897SOL    HW230591   5.374   5.958   3.228
 9898SOL     OW30592   2.306   6.419   6.115
 9898SOL    HW130593   2.360   6.415   6.199
 9898SOL    HW230594   2.238   6.492   6.121
 9899SOL     OW30595   0.143   5.823   0.440
 9899SOL    HW130596   0.120   5.920   0.452
 9899SOL    HW230597   0.123   5.794   0.347
 9900SOL     OW30598   1.510   3.582   3.254
 9900SOL    HW130599   1.441   3.511   3.240
 9900SOL    HW230600   1.481   3.667   3.209
 9901SOL     OW30601   2.761   2.124   5.773
 9901SOL    HW130602   2.712   2.143   5.688
 9901SOL    HW230603   2.843   2.181   5.778
 9902SOL     OW30604   2.454   4.837   6.920
 9902SOL    HW130605   2.544   4.865   6.952
 9902SOL    HW230606   2.412   4.776   6.987
 9903SOL     OW30607   4.839   1.791   2.741
 9903SOL    HW130608   4.923   1.844   2.750
 9903SOL    HW230609   4.808   1.762   2.831
 9904SOL     OW30610   1.291   2.929   6.730
 9904SOL    HW130611   1.202   2.959   6.765
 9904SOL    HW230612   1.281   2.902   6.635
 9905SOL     OW30613   3.281   0.999   0.303
 9905SOL    HW130614   3.292   1.088   0.260
 9905SOL    HW230615   3.369   0.969   0.341
 9906SOL     OW30616   3.202   3.057   2.626
 9906SOL    HW130617   3.230   3.020   2.714
 9906SOL    HW230618   3.105   3.083   2.630
 9907SOL     OW30619   6.504   1.095   0.945
 9907SOL    HW130620   6.434   1.067   0.880
 9907SOL    HW230621   6.486   1.052   1.034
 9908SOL     OW30622   5.065   2.046   3.163
 9908SOL    HW130623   5.072   2.091   3.253
 9908SOL    HW230624   5.006   1.966   3.171
 9909SOL     OW30625   3.784   6.786   3.873
 9909SOL    HW130626   3.840   6.742   3.803
 9909SOL    HW230627   3.832   6.783   3.960
 9910SOL     OW30628   1.300   3.870   2.446
 9910SOL    HW130629   1.304   3.936   2.371
 9910SOL    HW230630   1.225   3.806   2.430
 9911SOL     OW30631   3.986   6.850   2.171
 9911SOL    HW130632   3.896   6.892   2.166
 9911SOL    HW230633   4.030   6.853   2.082
 9912SOL     OW30634   3.998   2.201   1.061
 9912SOL    HW130635   4.079   2.258   1.044
 9912SOL    HW230636   3.947   2.238   1.139
 9913SOL     OW30637   5.911   3.900   0.461
 9913SOL    HW130638   5.820   3.889   0.420
 9913SOL    HW230639   5.916   3.846   0.545
 9914SOL     OW30640   6.889   3.399   4.600
 9914SOL    HW130641   6.802   3.350   4.602
 9914SOL    HW230642   6.937   3.379   4.514
 9915SOL     OW30643   4.454   0.801   3.207
 9915SOL    HW130644   4.389   0.877   3.201
 9915SOL    HW230645   4.422   0.726   3.149
 9916SOL     OW30646   2.424   2.665   3.493
 9916SOL    HW130647   2.468   2.729   3.430
 9916SOL    HW230648   2.328   2.691   3.506
 9917SOL     OW30649   5.886   3.482   6.954
 9917SOL    HW130650   5.799   3.482   6.906
 9917SOL    HW230651   5.877   3.433   0.017
 9918SOL     OW30652   3.735   1.864   2.731
 9918SOL    HW130653   3.720   1.902   2.640
 9918SOL    HW230654   3.716   1.766   2.729
 9919SOL     OW30655   6.090   5.561   1.790
 9919SOL    HW130656   6.182   5.583   1.822
 9919SOL    HW230657   6.069   5.617   1.710
 9920SOL     OW30658   4.827   1.474   1.845
 9920SOL    HW130659   4.890   1.443   1.916
 9920SOL    HW230660   4.733   1.447   1.869
 9921SOL     OW30661   4.167   5.888   6.008
 9921SOL    HW130662   4.212   5.972   6.036
 9921SOL    HW230663   4.081   5.878   6.058
 9922SOL     OW30664   1.385   5.021   0.380
 9922SOL    HW130665   1.373   5.092   0.311
 9922SOL    HW230666   1.429   5.061   0.461
 9923SOL     OW30667   4.957   4.845   6.456
 9923SOL    HW130668   4.913   4.816   6.372
 9923SOL    HW230669   4.922   4.791   6.533
 9924SOL     OW30670   0.349   2.221   4.689
 9924SOL    HW130671   0.386   2.209   4.781
 9924SOL    HW230672   0.350   2.317   4.664
 9925SOL     OW30673   6.847   4.168   3.985
 9925SOL    HW130674   6.909   4.090   3.998
 9925SOL    HW230675   6.885   4.248   4.031
 9926SOL     OW30676   2.742   3.996   0.376
 9926SOL    HW130677   2.829   4.045   0.367
 9926SOL    HW230678   2.692   4.001   0.290
 9927SOL     OW30679   5.906   0.014   2.236
 9927SOL    HW130680   5.867   0.045   2.149
 9927SOL    HW230681   5.918   6.939   2.235
 9928SOL     OW30682   4.844   5.177   1.697
 9928SOL    HW130683   4.908   5.111   1.737
 9928SOL    HW230684   4.876   5.203   1.606
 9929SOL     OW30685   1.846   5.604   5.207
 9929SOL    HW130686   1.935   5.623   5.249
 9929SOL    HW230687   1.775   5.605   5.276
 9930SOL     OW30688   6.417   0.621   4.785
 9930SOL    HW130689   6.491   0.556   4.767
 9930SOL    HW230690   6.453   0.699   4.837
 9931SOL     OW30691   0.791   4.804   5.171
 9931SOL    HW130692   0.837   4.723   5.205
 9931SOL    HW230693   0.728   4.778   5.098
 9932SOL     OW30694   2.129   6.071   6.558
 9932SOL    HW130695   2.148   6.169   6.555
 9932SOL    HW230696   2.058   6.049   6.491
 9933SOL     OW30697   1.738   4.445   2.739
 9933SOL    HW130698   1.737   4.346   2.729
 9933SOL    HW230699   1.766   4.470   2.831
 9934SOL     OW30700   6.089   1.917   5.767
 9934SOL    HW130701   6.148   1.857   5.821
 9934SOL    HW230702   5.995   1.911   5.800
 9935SOL     OW30703   2.770   0.855   0.296
 9935SOL    HW130704   2.751   0.944   0.255
 9935SOL    HW230705   2.869   0.841   0.300
 9936SOL     OW30706   6.736   4.929   4.745
 9936SOL    HW130707   6.684   4.850   4.713
 9936SOL    HW230708   6.833   4.910   4.738
 9937SOL     OW30709   6.446   2.477   5.532
 9937SOL    HW130710   6.454   2.490   5.631
 9937SOL    HW230711   6.530   2.509   5.487
 9938SOL     OW30712   6.688   5.497   3.403
 9938SOL    HW130713   6.744   5.567   3.358
 9938SOL    HW230714   6.682   5.518   3.501
 9939SOL     OW30715   3.507   2.516   0.812
 9939SOL    HW130716   3.453   2.454   0.869
 9939SOL    HW230717   3.603   2.511   0.839
 9940SOL     OW30718   0.552   0.916   1.204
 9940SOL    HW130719   0.527   0.830   1.249
 9940SOL    HW230720   0.651   0.927   1.207
 9941SOL     OW30721   3.209   4.272   5.350
 9941SOL    HW130722   3.128   4.237   5.398
 9941SOL    HW230723   3.226   4.217   5.269
 9942SOL     OW30724   2.147   6.087   2.582
 9942SOL    HW130725   2.070   6.024   2.578
 9942SOL    HW230726   2.229   6.042   2.546
 9943SOL     OW30727   0.011   5.822   5.905
 9943SOL    HW130728   0.102   5.855   5.929
 9943SOL    HW230729   7.016   5.844   5.809
 9944SOL     OW30730   2.037   4.272   6.698
 9944SOL    HW130731   1.974   4.326   6.756
 9944SOL    HW230732   2.004   4.273   6.604
 9945SOL     OW30733   6.543   5.219   6.969
 9945SOL    HW130734   6.525   5.138   0.000
 9945SOL    HW230735   6.630   5.260   6.996
 9946SOL     OW30736   5.129   1.571   5.134
 9946SOL    HW130737   5.096   1.593   5.042
 9946SOL    HW230738   5.208   1.627   5.156
 9947SOL     OW30739   0.207   4.006   6.124
 9947SOL    HW130740   0.288   4.037   6.076
 9947SOL    HW230741   0.130   3.998   6.060
 9948SOL     OW30742   4.893   4.988   4.496
 9948SOL    HW130743   4.798   4.960   4.504
 9948SOL    HW230744   4.952   4.922   4.541
 9949SOL     OW30745   5.590   4.895   3.974
 9949SOL    HW130746   5.500   4.877   3.934
 9949SOL    HW230747   5.630   4.808   4.003
 9950SOL     OW30748   5.771   6.229   5.462
 9950SOL    HW130749   5.710   6.155   5.437
 9950SOL    HW230750   5.838   6.196   5.528
 9951SOL     OW30751   6.774   1.847   3.821
 9951SOL    HW130752   6.752   1.909   3.745
 9951SOL    HW230753   6.759   1.752   3.792
 9952SOL     OW30754   6.467   3.812   0.998
 9952SOL    HW130755   6.498   3.899   0.959
 9952SOL    HW230756   6.525   3.738   0.965
 9953SOL     OW30757   6.378   2.678   4.099
 9953SOL    HW130758   6.383   2.777   4.092
 9953SOL    HW230759   6.293   2.652   4.144
 9954SOL     OW30760   5.659   6.126   6.146
 9954SOL    HW130761   5.731   6.061   6.171
 9954SOL    HW230762   5.641   6.120   6.048
 9955SOL     OW30763   6.433   4.334   4.500
 9955SOL    HW130764   6.490   4.309   4.422
 9955SOL    HW230765   6.481   4.311   4.585
 9956SOL     OW30766   2.301   0.095   1.619
 9956SOL    HW130767   2.249   0.011   1.633
 9956SOL    HW230768   2.363   0.084   1.541
 9957SOL     OW30769   5.940   5.495   2.705
 9957SOL    HW130770   5.872   5.440   2.658
 9957SOL    HW230771   5.912   5.510   2.800
 9958SOL     OW30772   3.802   5.459   0.060
 9958SOL    HW130773   3.884   5.515   0.053
 9958SOL    HW230774   3.796   5.419   0.152
 9959SOL     OW30775   4.050   3.708   5.812
 9959SOL    HW130776   4.085   3.686   5.721
 9959SOL    HW230777   4.066   3.805   5.832
 9960SOL     OW30778   6.548   0.334   2.422
 9960SOL    HW130779   6.501   0.334   2.334
 9960SOL    HW230780   6.567   0.241   2.451
 9961SOL     OW30781   1.848   5.980   4.261
 9961SOL    HW130782   1.801   5.988   4.173
 9961SOL    HW230783   1.854   5.883   4.287
 9962SOL     OW30784   5.958   6.888   3.492
 9962SOL    HW130785   6.006   6.874   3.579
 9962SOL    HW230786   5.953   6.986   3.472
 9963SOL     OW30787   3.325   2.668   0.648
 9963SOL    HW130788   3.287   2.601   0.584
 9963SOL    HW230789   3.414   2.636   0.680
 9964SOL     OW30790   4.919   5.695   4.463
 9964SOL    HW130791   4.869   5.693   4.550
 9964SOL    HW230792   5.017   5.681   4.481
 9965SOL     OW30793   4.374   6.779   6.961
 9965SOL    HW130794   4.423   6.736   6.885
 9965SOL    HW230795   4.440   6.818   0.001
 9966SOL     OW30796   1.391   5.176   1.719
 9966SOL    HW130797   1.344   5.131   1.643
 9966SOL    HW230798   1.395   5.114   1.797
 9967SOL     OW30799   0.652   5.531   2.172
 9967SOL    HW130800   0.646   5.618   2.222
 9967SOL    HW230801   0.677   5.549   2.077
 9968SOL     OW30802   3.491   4.011   2.373
 9968SOL    HW130803   3.428   4.076   2.416
 9968SOL    HW230804   3.479   4.015   2.273
 9969SOL     OW30805   1.371   3.739   2.678
 9969SOL    HW130806   1.345   3.782   2.591
 9969SOL    HW230807   1.458   3.691   2.667
 9970SOL     OW30808   5.010   4.228   1.531
 9970SOL    HW130809   5.044   4.315   1.567
 9970SOL    HW230810   4.978   4.241   1.437
 9971SOL     OW30811   1.406   4.862   1.181
 9971SOL    HW130812   1.382   4.958   1.188
 9971SOL    HW230813   1.329   4.810   1.144
 9972SOL     OW30814   6.047   3.955   1.937
 9972SOL    HW130815   6.032   3.984   2.032
 9972SOL    HW230816   5.972   3.894   1.909
 9973SOL     OW30817   5.278   1.670   3.492
 9973SOL    HW130818   5.353   1.623   3.538
 9973SOL    HW230819   5.240   1.612   3.420
 9974SOL     OW30820   1.040   1.458   2.967
 9974SOL    HW130821   1.021   1.403   3.049
 9974SOL    HW230822   1.061   1.552   2.994
 9975SOL     OW30823   6.640   2.630   0.739
 9975SOL    HW130824   6.716   2.627   0.674
 9975SOL    HW230825   6.567   2.687   0.700
 9976SOL     OW30826   0.817   6.560   5.572
 9976SOL    HW130827   0.786   6.553   5.667
 9976SOL    HW230828   0.902   6.510   5.561
 9977SOL     OW30829   5.766   5.132   5.320
 9977SOL    HW130830   5.842   5.104   5.379
 9977SOL    HW230831   5.707   5.054   5.302
 9978SOL     OW30832   0.486   2.212   4.952
 9978SOL    HW130833   0.400   2.252   4.984
 9978SOL    HW230834   0.533   2.169   5.029
 9979SOL     OW30835   5.977   4.599   4.771
 9979SOL    HW130836   6.055   4.539   4.752
 9979SOL    HW230837   5.951   4.648   4.688
 9980SOL     OW30838   2.903   0.218   6.888
 9980SOL    HW130839   2.971   0.172   6.944
 9980SOL    HW230840   2.872   0.156   6.816
 9981SOL     OW30841   3.117   1.690   3.061
 9981SOL    HW130842   3.120   1.595   3.092
 9981SOL    HW230843   3.155   1.696   2.969
 9982SOL     OW30844   6.765   5.779   3.614
 9982SOL    HW130845   6.713   5.849   3.566
 9982SOL    HW230846   6.705   5.704   3.640
 9983SOL     OW30847   6.768   1.624   2.578
 9983SOL    HW130848   6.861   1.639   2.612
 9983SOL    HW230849   6.709   1.699   2.609
 9984SOL     OW30850   2.323   2.072   6.755
 9984SOL    HW130851   2.238   2.053   6.707
 9984SOL    HW230852   2.365   2.155   6.717
 9985SOL     OW30853   2.210   0.910   1.816
 9985SOL    HW130854   2.153   0.940   1.740
 9985SOL    HW230855   2.190   0.814   1.836
 9986SOL     OW30856   5.785   4.184   5.242
 9986SOL    HW130857   5.709   4.248   5.243
 9986SOL    HW230858   5.849   4.207   5.315
 9987SOL     OW30859   5.425   3.335   6.004
 9987SOL    HW130860   5.388   3.370   6.090
 9987SOL    HW230861   5.523   3.317   6.015
 9988SOL     OW30862   6.553   6.869   4.877
 9988SOL    HW130863   6.586   6.928   4.951
 9988SOL    HW230864   6.453   6.868   4.878
 9989SOL     OW30865   6.998   3.070   4.311
 9989SOL    HW130866   6.969   3.162   4.337
 9989SOL    HW230867   6.984   3.057   4.213
 9990SOL     OW30868   1.568   5.124   3.275
 9990SOL    HW130869   1.553   5.175   3.360
 9990SOL    HW230870   1.578   5.189   3.199
 9991SOL     OW30871   3.059   2.059   4.364
 9991SOL    HW130872   3.018   2.111   4.439
 9991SOL    HW230873   3.153   2.091   4.349
 9992SOL     OW30874   5.844   4.865   6.481
 9992SOL    HW130875   5.780   4.811   6.536
 9992SOL    HW230876   5.818   4.859   6.384
 9993SOL     OW30877   2.297   1.716   1.180
 9993SOL    HW130878   2.262   1.648   1.246
 9993SOL    HW230879   2.389   1.744   1.207
 9994SOL     OW30880   5.836   4.667   3.175
 9994SOL    HW130881   5.830   4.729   3.097
 9994SOL    HW230882   5.915   4.606   3.162
 9995SOL     OW30883   5.154   1.760   4.057
 9995SOL    HW130884   5.217   1.682   4.049
 9995SOL    HW230885   5.060   1.726   4.053
 9996SOL     OW30886   2.943   4.337   6.833
 9996SOL    HW130887   2.933   4.267   6.763
 9996SOL    HW230888   2.861   4.395   6.833
 9997SOL     OW30889   2.950   1.643   5.663
 9997SOL    HW130890   3.024   1.706   5.642
 9997SOL    HW230891   2.986   1.564   5.712
 9998SOL     OW30892   6.145   5.225   5.172
 9998SOL    HW130893   6.153   5.196   5.267
 9998SOL    HW230894   6.061   5.188   5.132
 9999SOL     OW30895   5.974   2.656   5.539
 9999SOL    HW130896   5.916   2.708   5.475
 9999SOL    HW230897   6.026   2.719   5.596
10000SOL     OW30898   0.149   2.491   0.221
10000SOL    HW130899   0.171   2.425   0.293
10000SOL    HW230900   0.172   2.583   0.252
10001SOL     OW30901   4.732   1.006   1.726
10001SOL    HW130902   4.799   1.074   1.696
10001SOL    HW230903   4.684   0.970   1.646
10002SOL     OW30904   1.105   6.608   1.892
10002SOL    HW130905   1.148   6.667   1.823
10002SOL    HW230906   1.153   6.619   1.979
10003SOL     OW30907   3.757   2.142   3.445
10003SOL    HW130908   3.808   2.070   3.399
10003SOL    HW230909   3.821   2.203   3.492
10004SOL     OW30910   0.162   2.065   3.437
10004SOL    HW130911   0.214   2.150   3.446
10004SOL    HW230912   0.213   1.991   3.480
10005SOL     OW30913   5.189   0.487   2.901
10005SOL    HW130914   5.256   0.443   2.842
10005SOL    HW230915   5.192   0.446   2.992
10006SOL     OW30916   3.912   7.018   4.644
10006SOL    HW130917   3.900   7.008   4.743
10006SOL    HW230918   3.824   7.003   4.599
10007SOL     OW30919   0.623   3.356   4.689
10007SOL    HW130920   0.604   3.443   4.643
10007SOL    HW230921   0.549   3.335   4.753
10008SOL     OW30922   3.341   0.629   4.800
10008SOL    HW130923   3.270   0.564   4.770
10008SOL    HW230924   3.387   0.667   4.720
10009SOL     OW30925   2.205   4.040   1.997
10009SOL    HW130926   2.252   4.119   1.959
10009SOL    HW230927   2.231   3.958   1.945
10010SOL     OW30928   2.154   1.041   6.942
10010SOL    HW130929   2.163   0.974   6.868
10010SOL    HW230930   2.243   1.086   6.956
10011SOL     OW30931   6.500   6.709   5.178
10011SOL    HW130932   6.587   6.729   5.132
10011SOL    HW230933   6.428   6.698   5.110
10012SOL     OW30934   5.844   1.391   4.002
10012SOL    HW130935   5.751   1.389   3.964
10012SOL    HW230936   5.880   1.484   3.995
10013SOL     OW30937   0.048   0.437   2.714
10013SOL    HW130938   0.052   0.425   2.814
10013SOL    HW230939   0.121   0.498   2.685
10014SOL     OW30940   0.721   4.150   6.565
10014SOL    HW130941   0.660   4.070   6.571
10014SOL    HW230942   0.696   4.205   6.485
10015SOL     OW30943   2.330   4.744   0.141
10015SOL    HW130944   2.282   4.657   0.153
10015SOL    HW230945   2.395   4.756   0.216
10016SOL     OW30946   2.335   1.288   6.491
10016SOL    HW130947   2.279   1.334   6.422
10016SOL    HW230948   2.417   1.250   6.448
10017SOL     OW30949   2.600   2.115   4.542
10017SOL    HW130950   2.643   2.048   4.602
10017SOL    HW230951   2.616   2.207   4.578
10018SOL     OW30952   5.171   0.485   5.641
10018SOL    HW130953   5.170   0.413   5.710
10018SOL    HW230954   5.247   0.547   5.659
10019SOL     OW30955   1.273   0.613   2.994
10019SOL    HW130956   1.304   0.543   3.059
10019SOL    HW230957   1.349   0.675   2.973
10020SOL     OW30958   1.015   3.075   1.475
10020SOL    HW130959   1.003   2.980   1.501
10020SOL    HW230960   1.036   3.081   1.377
10021SOL     OW30961   0.230   3.523   1.143
10021SOL    HW130962   0.217   3.620   1.123
10021SOL    HW230963   0.142   3.477   1.141
10022SOL     OW30964   1.569   1.983   6.504
10022SOL    HW130965   1.620   1.945   6.427
10022SOL    HW230966   1.548   2.079   6.485
10023SOL     OW30967   6.226   3.711   0.886
10023SOL    HW130968   6.230   3.740   0.790
10023SOL    HW230969   6.306   3.746   0.935
10024SOL     OW30970   1.556   4.364   4.079
10024SOL    HW130971   1.536   4.335   3.986
10024SOL    HW230972   1.473   4.357   4.135
10025SOL     OW30973   2.040   0.986   1.549
10025SOL    HW130974   2.026   0.985   1.450
10025SOL    HW230975   2.026   1.080   1.583
10026SOL     OW30976   5.889   0.735   2.998
10026SOL    HW130977   5.844   0.646   3.007
10026SOL    HW230978   5.985   0.727   3.025
10027SOL     OW30979   6.008   3.714   4.866
10027SOL    HW130980   6.026   3.683   4.959
10027SOL    HW230981   5.909   3.709   4.849
10028SOL     OW30982   1.928   1.280   0.545
10028SOL    HW130983   1.924   1.297   0.447
10028SOL    HW230984   1.975   1.356   0.591
10029SOL     OW30985   5.572   1.797   3.385
10029SOL    HW130986   5.620   1.876   3.348
10029SOL    HW230987   5.513   1.758   3.314
10030SOL     OW30988   1.441   0.281   3.916
10030SOL    HW130989   1.439   0.310   4.012
10030SOL    HW230990   1.386   0.344   3.861
10031SOL     OW30991   6.059   4.540   3.531
10031SOL    HW130992   6.159   4.537   3.541
10031SOL    HW230993   6.032   4.625   3.487
10032SOL     OW30994   2.600   1.756   5.151
10032SOL    HW130995   2.655   1.840   5.147
10032SOL    HW230996   2.661   1.677   5.155
10033SOL     OW30997   5.700   3.419   4.468
10033SOL    HW130998   5.673   3.335   4.516
10033SOL    HW230999   5.620   3.478   4.456
10034SOL     OW31000   4.726   0.191   5.314
10034SOL    HW131001   4.731   0.247   5.396
10034SOL    HW231002   4.814   0.191   5.267
10035SOL     OW31003   6.920   4.912   1.189
10035SOL    HW131004   6.904   4.931   1.286
10035SOL    HW231005   6.844   4.948   1.135
10036SOL     OW31006   6.902   1.721   0.143
10036SOL    HW131007   6.829   1.782   0.113
10036SOL    HW231008   6.980   1.730   0.081
10037SOL     OW31009   0.455   0.329   6.786
10037SOL    HW131010   0.441   0.393   6.711
10037SOL    HW231011   0.389   0.254   6.778
10038SOL     OW31012   6.609   6.979   1.092
10038SOL    HW131013   6.604   0.045   1.136
10038SOL    HW231014   6.547   6.916   1.139
10039SOL     OW31015   3.756   0.526   3.963
10039SOL    HW131016   3.817   0.585   3.911
10039SOL    HW231017   3.715   0.578   4.038
10040SOL     OW31018   7.012   3.416   1.189
10040SOL    HW131019   0.005   3.384   1.282
10040SOL    HW231020   6.923   3.463   1.186
10041SOL     OW31021   2.509   6.615   0.210
10041SOL    HW131022   2.453   6.622   0.293
10041SOL    HW231023   2.478   6.683   0.144
10042SOL     OW31024   6.599   2.123   2.462
10042SOL    HW131025   6.618   2.081   2.373
10042SOL    HW231026   6.505   2.103   2.489
10043SOL     OW31027   0.023   1.651   5.820
10043SOL    HW131028   0.058   1.579   5.880
10043SOL    HW231029   0.086   1.728   5.821
10044SOL     OW31030   3.136   2.166   5.627
10044SOL    HW131031   3.148   2.196   5.532
10044SOL    HW231032   3.056   2.212   5.666
10045SOL     OW31033   3.511   1.231   0.698
10045SOL    HW131034   3.599   1.189   0.677
10045SOL    HW231035   3.519   1.331   0.690
10046SOL     OW31036   1.821   5.420   1.602
10046SOL    HW131037   1.839   5.454   1.694
10046SOL    HW231038   1.737   5.366   1.603
10047SOL     OW31039   0.298   3.155   6.888
10047SOL    HW131040   0.286   3.225   6.958
10047SOL    HW231041   0.357   3.190   6.815
10048SOL     OW31042   5.957   6.230   2.827
10048SOL    HW131043   5.940   6.206   2.923
10048SOL    HW231044   5.997   6.151   2.780
10049SOL     OW31045   0.172   1.328   5.457
10049SOL    HW131046   0.199   1.236   5.486
10049SOL    HW231047   0.085   1.352   5.500
10050SOL     OW31048   6.231   3.292   6.116
10050SOL    HW131049   6.244   3.307   6.214
10050SOL    HW231050   6.141   3.253   6.100
10051SOL     OW31051   1.292   3.384   4.050
10051SOL    HW131052   1.222   3.416   4.113
10051SOL    HW231053   1.256   3.310   3.993
10052SOL     OW31054   1.471   0.079   2.709
10052SOL    HW131055   1.486   0.165   2.661
10052SOL    HW231056   1.391   0.032   2.672
10053SOL     OW31057   5.485   5.418   4.638
10053SOL    HW131058   5.533   5.464   4.713
10053SOL    HW231059   5.526   5.328   4.623
10054SOL     OW31060   6.198   4.128   4.661
10054SOL    HW131061   6.161   4.127   4.754
10054SOL    HW231062   6.130   4.169   4.599
10055SOL     OW31063   0.561   1.934   6.282
10055SOL    HW131064   0.495   1.870   6.321
10055SOL    HW231065   0.513   2.014   6.247
10056SOL     OW31066   6.349   2.502   3.881
10056SOL    HW131067   6.407   2.544   3.812
10056SOL    HW231068   6.361   2.551   3.968
10057SOL     OW31069   5.835   4.879   5.720
10057SOL    HW131070   5.873   4.930   5.797
10057SOL    HW231071   5.887   4.795   5.706
10058SOL     OW31072   6.664   3.699   5.310
10058SOL    HW131073   6.585   3.694   5.372
10058SOL    HW231074   6.747   3.677   5.361
10059SOL     OW31075   6.841   0.551   6.821
10059SOL    HW131076   6.767   0.613   6.795
10059SOL    HW231077   6.809   0.457   6.816
10060SOL     OW31078   2.333   2.302   2.343
10060SOL    HW131079   2.387   2.221   2.365
10060SOL    HW231080   2.393   2.376   2.312
10061SOL     OW31081   4.054   0.100   2.586
10061SOL    HW131082   4.059   0.009   2.627
10061SOL    HW231083   3.971   0.147   2.618
10062SOL     OW31084   5.980   0.566   4.307
10062SOL    HW131085   5.952   0.661   4.313
10062SOL    HW231086   6.060   0.551   4.364
10063SOL     OW31087   1.441   3.058   5.269
10063SOL    HW131088   1.407   3.001   5.344
10063SOL    HW231089   1.413   3.153   5.284
10064SOL     OW31090   2.738   6.581   0.447
10064SOL    HW131091   2.787   6.668   0.457
10064SOL    HW231092   2.797   6.506   0.476
10065SOL     OW31093   1.034   1.819   2.155
10065SOL    HW131094   1.091   1.797   2.235
10065SOL    HW231095   1.002   1.735   2.112
10066SOL     OW31096   6.172   3.526   3.401
10066SOL    HW131097   6.123   3.439   3.398
10066SOL    HW231098   6.119   3.596   3.353
10067SOL     OW31099   6.640   2.625   5.370
10067SOL    HW131100   6.698   2.576   5.435
10067SOL    HW231101   6.693   2.694   5.322
10068SOL     OW31102   1.816   2.707   2.897
10068SOL    HW131103   1.868   2.650   2.833
10068SOL    HW231104   1.873   2.783   2.928
10069SOL     OW31105   2.999   5.314   0.900
10069SOL    HW131106   2.922   5.256   0.874
10069SOL    HW231107   2.972   5.372   0.977
10070SOL     OW31108   3.652   6.502   5.927
10070SOL    HW131109   3.725   6.519   5.993
10070SOL    HW231110   3.622   6.407   5.935
10071SOL     OW31111   6.501   0.204   3.840
10071SOL    HW131112   6.562   0.273   3.880
10071SOL    HW231113   6.520   0.195   3.742
10072SOL     OW31114   6.450   3.120   1.683
10072SOL    HW131115   6.547   3.146   1.678
10072SOL    HW231116   6.430   3.087   1.775
10073SOL     OW31117   6.996   4.388   4.098
10073SOL    HW131118   6.952   4.472   4.066
10073SOL    HW231119   7.014   4.395   4.196
10074SOL     OW31120   1.507   4.955   0.142
10074SOL    HW131121   1.486   5.052   0.133
10074SOL    HW231122   1.495   4.927   0.237
10075SOL     OW31123   1.882   3.660   1.771
10075SOL    HW131124   1.920   3.574   1.804
10075SOL    HW231125   1.786   3.646   1.746
10076SOL     OW31126   4.718   5.883   4.362
10076SOL    HW131127   4.812   5.853   4.380
10076SOL    HW231128   4.654   5.808   4.378
10077SOL     OW31129   5.165   3.300   6.303
10077SOL    HW131130   5.256   3.341   6.303
10077SOL    HW231131   5.160   3.231   6.230
10078SOL     OW31132   6.579   6.247   5.124
10078SOL    HW131133   6.622   6.332   5.153
10078SOL    HW231134   6.542   6.200   5.205
10079SOL     OW31135   4.642   2.696   3.563
10079SOL    HW131136   4.664   2.792   3.546
10079SOL    HW231137   4.710   2.637   3.518
10080SOL     OW31138   4.539   1.065   5.824
10080SOL    HW131139   4.639   1.062   5.826
10080SOL    HW231140   4.503   0.974   5.846
10081SOL     OW31141   1.989   3.878   0.891
10081SOL    HW131142   1.978   3.911   0.797
10081SOL    HW231143   1.987   3.778   0.891
10082SOL     OW31144   1.592   4.559   0.771
10082SOL    HW131145   1.519   4.528   0.833
10082SOL    HW231146   1.648   4.480   0.745
10083SOL     OW31147   3.392   5.018   3.275
10083SOL    HW131148   3.377   5.116   3.287
10083SOL    HW231149   3.472   4.990   3.327
10084SOL     OW31150   1.402   1.272   4.735
10084SOL    HW131151   1.380   1.278   4.638
10084SOL    HW231152   1.428   1.179   4.758
10085SOL     OW31153   5.147   0.069   0.537
10085SOL    HW131154   5.167   0.128   0.458
10085SOL    HW231155   5.227   0.012   0.557
10086SOL     OW31156   6.858   6.456   3.588
10086SOL    HW131157   6.929   6.522   3.614
10086SOL    HW231158   6.896   6.364   3.589
10087SOL     OW31159   1.185   6.896   5.984
10087SOL    HW131160   1.238   6.980   5.980
10087SOL    HW231161   1.237   6.821   5.941
10088SOL     OW31162   0.456   2.634   0.116
10088SOL    HW131163   0.501   2.722   0.105
10088SOL    HW231164   0.366   2.648   0.159
10089SOL     OW31165   3.433   1.878   1.677
10089SOL    HW131166   3.428   1.931   1.762
10089SOL    HW231167   3.361   1.808   1.676
10090SOL     OW31168   2.682   5.809   2.973
10090SOL    HW131169   2.689   5.889   3.033
10090SOL    HW231170   2.596   5.812   2.923
10091SOL     OW31171   6.813   4.656   5.249
10091SOL    HW131172   6.869   4.715   5.192
10091SOL    HW231173   6.787   4.574   5.198
10092SOL     OW31174   0.774   1.814   3.520
10092SOL    HW131175   0.871   1.818   3.544
10092SOL    HW231176   0.743   1.905   3.492
10093SOL     OW31177   4.622   4.761   5.857
10093SOL    HW131178   4.532   4.730   5.887
10093SOL    HW231179   4.611   4.829   5.784
10094SOL     OW31180   3.399   1.697   0.725
10094SOL    HW131181   3.359   1.606   0.734
10094SOL    HW231182   3.485   1.692   0.675
10095SOL     OW31183   4.826   3.024   5.028
10095SOL    HW131184   4.864   3.090   4.962
10095SOL    HW231185   4.804   3.071   5.113
10096SOL     OW31186   5.841   2.555   2.158
10096SOL    HW131187   5.796   2.609   2.087
10096SOL    HW231188   5.776   2.493   2.200
10097SOL     OW31189   0.911   1.379   6.660
10097SOL    HW131190   0.926   1.395   6.562
10097SOL    HW231191   0.823   1.333   6.673
10098SOL     OW31192   3.075   5.343   3.852
10098SOL    HW131193   3.027   5.343   3.939
10098SOL    HW231194   3.082   5.437   3.818
10099SOL     OW31195   0.596   4.911   1.178
10099SOL    HW131196   0.644   4.826   1.160
10099SOL    HW231197   0.514   4.892   1.233
10100SOL     OW31198   4.885   5.569   4.213
10100SOL    HW131199   4.852   5.648   4.161
10100SOL    HW231200   4.900   5.595   4.308
10101SOL     OW31201   0.370   2.583   1.469
10101SOL    HW131202   0.446   2.641   1.501
10101SOL    HW231203   0.335   2.530   1.547
10102SOL     OW31204   6.768   5.709   3.180
10102SOL    HW131205   6.787   5.645   3.105
10102SOL    HW231206   6.823   5.792   3.168
10103SOL     OW31207   6.765   6.315   6.411
10103SOL    HW131208   6.722   6.380   6.348
10103SOL    HW231209   6.859   6.298   6.381
10104SOL     OW31210   2.034   0.349   4.313
10104SOL    HW131211   2.128   0.377   4.294
10104SOL    HW231212   2.028   0.314   4.407
10105SOL     OW31213   3.383   1.184   6.017
10105SOL    HW131214   3.435   1.217   6.096
10105SOL    HW231215   3.442   1.185   5.936
10106SOL     OW31216   5.424   5.177   1.606
10106SOL    HW131217   5.380   5.264   1.583
10106SOL    HW231218   5.455   5.132   1.523
10107SOL     OW31219   5.155   4.561   6.925
10107SOL    HW131220   5.216   4.527   6.854
10107SOL    HW231221   5.088   4.623   6.883
10108SOL     OW31222   1.890   2.397   0.715
10108SOL    HW131223   1.926   2.401   0.622
10108SOL    HW231224   1.825   2.321   0.723
10109SOL     OW31225   1.383   2.285   1.687
10109SOL    HW131226   1.340   2.276   1.598
10109SOL    HW231227   1.415   2.196   1.719
10110SOL     OW31228   5.218   6.066   2.848
10110SOL    HW131229   5.213   6.165   2.862
10110SOL    HW231230   5.207   6.020   2.936
10111SOL     OW31231   1.007   2.776   2.004
10111SOL    HW131232   0.912   2.759   1.976
10111SOL    HW231233   1.037   2.863   1.966
10112SOL     OW31234   6.773   2.355   2.664
10112SOL    HW131235   6.697   2.297   2.635
10112SOL    HW231236   6.805   2.324   2.754
10113SOL     OW31237   0.131   0.783   5.719
10113SOL    HW131238   0.126   0.786   5.819
10113SOL    HW231239   0.085   0.701   5.686
10114SOL     OW31240   5.395   1.384   1.490
10114SOL    HW131241   5.406   1.476   1.452
10114SOL    HW231242   5.380   1.319   1.416
10115SOL     OW31243   3.564   2.683   6.089
10115SOL    HW131244   3.602   2.708   6.000
10115SOL    HW231245   3.587   2.587   6.109
10116SOL     OW31246   6.956   0.463   5.046
10116SOL    HW131247   6.864   0.448   5.008
10116SOL    HW231248   7.022   0.469   4.972
10117SOL     OW31249   6.263   4.746   3.211
10117SOL    HW131250   6.193   4.721   3.278
10117SOL    HW231251   6.333   4.674   3.207
10118SOL     OW31252   4.660   5.958   3.863
10118SOL    HW131253   4.573   5.912   3.846
10118SOL    HW231254   4.675   6.027   3.792
10119SOL     OW31255   0.533   5.340   5.364
10119SOL    HW131256   0.440   5.377   5.376
10119SOL    HW231257   0.528   5.253   5.316
10120SOL     OW31258   2.016   3.244   2.906
10120SOL    HW131259   2.053   3.184   2.835
10120SOL    HW231260   2.035   3.205   2.996
10121SOL     OW31261   6.178   4.701   1.400
10121SOL    HW131262   6.094   4.651   1.422
10121SOL    HW231263   6.188   4.778   1.462
10122SOL     OW31264   1.223   0.449   3.771
10122SOL    HW131265   1.254   0.475   3.679
10122SOL    HW231266   1.155   0.515   3.803
10123SOL     OW31267   6.363   5.414   6.573
10123SOL    HW131268   6.285   5.363   6.536
10123SOL    HW231269   6.353   5.423   6.672
10124SOL     OW31270   1.904   5.142   2.403
10124SOL    HW131271   1.893   5.234   2.441
10124SOL    HW231272   1.830   5.124   2.338
10125SOL     OW31273   2.141   0.969   4.871
10125SOL    HW131274   2.226   0.922   4.893
10125SOL    HW231275   2.065   0.924   4.918
10126SOL     OW31276   6.488   6.732   6.548
10126SOL    HW131277   6.586   6.752   6.553
10126SOL    HW231278   6.444   6.801   6.490
10127SOL     OW31279   2.800   7.017   5.863
10127SOL    HW131280   2.798   0.033   5.954
10127SOL    HW231281   2.709   6.981   5.841
10128SOL     OW31282   2.844   2.647   6.795
10128SOL    HW131283   2.822   2.550   6.791
10128SOL    HW231284   2.870   2.679   6.704
10129SOL     OW31285   6.243   2.241   4.823
10129SOL    HW131286   6.222   2.182   4.746
10129SOL    HW231287   6.159   2.286   4.854
10130SOL     OW31288   1.110   1.014   2.961
10130SOL    HW131289   1.143   0.966   2.879
10130SOL    HW231290   1.023   0.975   2.990
10131SOL     OW31291   1.811   6.247   3.689
10131SOL    HW131292   1.718   6.213   3.677
10131SOL    HW231293   1.812   6.320   3.758
10132SOL     OW31294   6.874   0.338   1.476
10132SOL    HW131295   6.911   0.295   1.394
10132SOL    HW231296   6.789   0.385   1.455
10133SOL     OW31297   5.566   6.281   0.243
10133SOL    HW131298   5.533   6.227   0.165
10133SOL    HW231299   5.639   6.232   0.289
10134SOL     OW31300   6.796   6.539   2.517
10134SOL    HW131301   6.769   6.555   2.422
10134SOL    HW231302   6.716   6.512   2.571
10135SOL     OW31303   6.287   0.072   2.489
10135SOL    HW131304   6.322   0.095   2.580
10135SOL    HW231305   6.330   7.011   2.458
10136SOL     OW31306   4.680   2.093   2.907
10136SOL    HW131307   4.621   2.019   2.939
10136SOL    HW231308   4.775   2.062   2.908
10137SOL     OW31309   6.162   5.262   5.714
10137SOL    HW131310   6.071   5.225   5.731
10137SOL    HW231311   6.231   5.195   5.742
10138SOL     OW31312   0.556   2.321   0.854
10138SOL    HW131313   0.484   2.283   0.912
10138SOL    HW231314   0.606   2.392   0.905
10139SOL     OW31315   2.954   3.083   6.820
10139SOL    HW131316   2.869   3.032   6.830
10139SOL    HW231317   3.005   3.050   6.741
10140SOL     OW31318   0.722   6.264   5.709
10140SOL    HW131319   0.648   6.277   5.643
10140SOL    HW231320   0.732   6.346   5.765
10141SOL     OW31321   2.055   2.835   4.501
10141SOL    HW131322   2.045   2.737   4.514
10141SOL    HW231323   1.973   2.871   4.456
10142SOL     OW31324   3.847   6.625   3.398
10142SOL    HW131325   3.761   6.640   3.349
10142SOL    HW231326   3.881   6.533   3.380
10143SOL     OW31327   4.970   2.501   6.631
10143SOL    HW131328   4.983   2.423   6.571
10143SOL    HW231329   5.030   2.576   6.602
10144SOL     OW31330   3.876   6.684   0.001
10144SOL    HW131331   3.848   6.759   6.965
10144SOL    HW231332   3.804   6.668   0.069
10145SOL     OW31333   5.547   6.724   6.039
10145SOL    HW131334   5.536   6.629   6.068
10145SOL    HW231335   5.593   6.727   5.951
10146SOL     OW31336   0.031   2.935   4.956
10146SOL    HW131337   0.013   2.857   4.897
10146SOL    HW231338   0.014   2.910   5.052
10147SOL     OW31339   4.059   5.751   5.753
10147SOL    HW131340   4.029   5.777   5.661
10147SOL    HW231341   4.082   5.833   5.805
10148SOL     OW31342   0.475   4.266   0.902
10148SOL    HW131343   0.448   4.239   0.810
10148SOL    HW231344   0.518   4.188   0.949
10149SOL     OW31345   3.616   3.938   1.029
10149SOL    HW131346   3.619   3.897   1.120
10149SOL    HW231347   3.655   3.875   0.962
10150SOL     OW31348   4.260   4.449   0.568
10150SOL    HW131349   4.315   4.449   0.652
10150SOL    HW231350   4.224   4.358   0.550
10151SOL     OW31351   5.876   6.849   5.992
10151SOL    HW131352   5.923   6.929   5.954
10151SOL    HW231353   5.832   6.875   6.078
10152SOL     OW31354   4.194   0.026   2.380
10152SOL    HW131355   4.193   0.067   2.289
10152SOL    HW231356   4.125   0.071   2.437
10153SOL     OW31357   4.549   4.433   2.551
10153SOL    HW131358   4.495   4.511   2.520
10153SOL    HW231359   4.630   4.423   2.494
10154SOL     OW31360   4.701   5.740   5.767
10154SOL    HW131361   4.606   5.763   5.744
10154SOL    HW231362   4.702   5.665   5.834
10155SOL     OW31363   4.780   1.767   4.663
10155SOL    HW131364   4.786   1.758   4.763
10155SOL    HW231365   4.804   1.680   4.620
10156SOL     OW31366   4.748   2.034   0.612
10156SOL    HW131367   4.729   2.106   0.545
10156SOL    HW231368   4.663   1.991   0.641
10157SOL     OW31369   0.748   3.992   1.378
10157SOL    HW131370   0.736   3.954   1.470
10157SOL    HW231371   0.839   3.968   1.344
10158SOL     OW31372   6.326   4.745   0.107
10158SOL    HW131373   6.229   4.739   0.087
10158SOL    HW231374   6.376   4.682   0.048
10159SOL     OW31375   3.306   3.031   2.301
10159SOL    HW131376   3.333   3.103   2.366
10159SOL    HW231377   3.211   3.046   2.273
10160SOL     OW31378   0.635   5.058   2.719
10160SOL    HW131379   0.704   5.040   2.789
10160SOL    HW231380   0.640   4.987   2.648
10161SOL     OW31381   5.434   3.668   5.112
10161SOL    HW131382   5.504   3.737   5.128
10161SOL    HW231383   5.346   3.699   5.150
10162SOL     OW31384   1.479   2.982   2.376
10162SOL    HW131385   1.470   3.044   2.454
10162SOL    HW231386   1.389   2.960   2.340
10163SOL     OW31387   2.355   6.182   5.016
10163SOL    HW131388   2.438   6.131   4.994
10163SOL    HW231389   2.275   6.124   5.001
10164SOL     OW31390   0.857   1.353   3.641
10164SOL    HW131391   0.819   1.359   3.733
10164SOL    HW231392   0.940   1.298   3.643
10165SOL     OW31393   0.190   3.615   4.266
10165SOL    HW131394   0.098   3.644   4.294
10165SOL    HW231395   0.185   3.524   4.227
10166SOL     OW31396   2.367   0.351   1.383
10166SOL    HW131397   2.442   0.387   1.438
10166SOL    HW231398   2.282   0.356   1.435
10167SOL     OW31399   2.514   1.200   6.686
10167SOL    HW131400   2.438   1.210   6.622
10167SOL    HW231401   2.601   1.210   6.637
10168SOL     OW31402   6.661   0.294   6.528
10168SOL    HW131403   6.648   0.235   6.449
10168SOL    HW231404   6.684   0.387   6.497
10169SOL     OW31405   4.790   4.020   3.852
10169SOL    HW131406   4.824   4.038   3.760
10169SOL    HW231407   4.725   4.092   3.878
10170SOL     OW31408   5.634   5.319   6.968
10170SOL    HW131409   5.721   5.278   6.994
10170SOL    HW231410   5.596   5.269   6.890
10171SOL     OW31411   1.658   4.332   5.747
10171SOL    HW131412   1.753   4.299   5.748
10171SOL    HW231413   1.640   4.380   5.662
10172SOL     OW31414   6.014   0.798   2.675
10172SOL    HW131415   6.061   0.863   2.735
10172SOL    HW231416   6.053   0.706   2.688
10173SOL     OW31417   3.667   4.212   4.911
10173SOL    HW131418   3.604   4.191   4.835
10173SOL    HW231419   3.614   4.248   4.988
10174SOL     OW31420   4.841   5.293   2.127
10174SOL    HW131421   4.917   5.236   2.159
10174SOL    HW231422   4.814   5.357   2.199
10175SOL     OW31423   0.301   0.261   4.010
10175SOL    HW131424   0.355   0.206   4.074
10175SOL    HW231425   0.260   0.201   3.941
10176SOL     OW31426   6.821   1.383   5.379
10176SOL    HW131427   6.858   1.358   5.469
10176SOL    HW231428   6.890   1.363   5.308
10177SOL     OW31429   2.762   0.893   3.711
10177SOL    HW131430   2.746   0.803   3.670
10177SOL    HW231431   2.717   0.897   3.800
10178SOL     OW31432   0.902   1.665   1.072
10178SOL    HW131433   0.875   1.761   1.068
10178SOL    HW231434   0.990   1.657   1.119
10179SOL     OW31435   0.684   3.992   0.724
10179SOL    HW131436   0.641   4.021   0.809
10179SOL    HW231437   0.652   3.900   0.701
10180SOL     OW31438   4.505   6.733   5.886
10180SOL    HW131439   4.428   6.669   5.879
10180SOL    HW231440   4.488   6.797   5.962
10181SOL     OW31441   6.104   3.693   2.532
10181SOL    HW131442   6.160   3.767   2.568
10181SOL    HW231443   6.156   3.607   2.535
10182SOL     OW31444   4.956   1.484   1.395
10182SOL    HW131445   4.858   1.468   1.400
10182SOL    HW231446   4.976   1.551   1.324
10183SOL     OW31447   6.218   0.974   6.202
10183SOL    HW131448   6.216   0.988   6.103
10183SOL    HW231449   6.129   1.001   6.240
10184SOL     OW31450   5.868   1.700   5.794
10184SOL    HW131451   5.882   1.604   5.771
10184SOL    HW231452   5.785   1.733   5.749
10185SOL     OW31453   4.100   5.561   2.106
10185SOL    HW131454   4.169   5.502   2.065
10185SOL    HW231455   4.124   5.657   2.090
10186SOL     OW31456   3.800   3.321   5.975
10186SOL    HW131457   3.725   3.267   5.937
10186SOL    HW231458   3.806   3.304   6.074
10187SOL     OW31459   2.213   4.503   5.979
10187SOL    HW131460   2.121   4.472   5.956
10187SOL    HW231461   2.248   4.450   6.057
10188SOL     OW31462   3.227   0.525   6.131
10188SOL    HW131463   3.163   0.552   6.203
10188SOL    HW231464   3.186   0.544   6.042
10189SOL     OW31465   1.385   1.657   5.964
10189SOL    HW131466   1.429   1.745   5.947
10189SOL    HW231467   1.288   1.663   5.941
10190SOL     OW31468   4.521   5.358   1.005
10190SOL    HW131469   4.436   5.351   0.952
10190SOL    HW231470   4.598   5.334   0.947
10191SOL     OW31471   5.465   6.697   6.421
10191SOL    HW131472   5.383   6.661   6.377
10191SOL    HW231473   5.486   6.643   6.502
10192SOL     OW31474   1.695   1.412   3.628
10192SOL    HW131475   1.782   1.445   3.665
10192SOL    HW231476   1.619   1.465   3.668
10193SOL     OW31477   3.709   3.188   3.823
10193SOL    HW131478   3.755   3.178   3.911
10193SOL    HW231479   3.697   3.098   3.781
10194SOL     OW31480   2.856   0.304   3.239
10194SOL    HW131481   2.831   0.399   3.260
10194SOL    HW231482   2.946   0.302   3.194
10195SOL     OW31483   4.319   6.262   2.561
10195SOL    HW131484   4.275   6.215   2.638
10195SOL    HW231485   4.267   6.344   2.538
10196SOL     OW31486   6.133   2.565   4.189
10196SOL    HW131487   6.087   2.637   4.240
10196SOL    HW231488   6.064   2.508   4.144
10197SOL     OW31489   5.190   0.476   2.062
10197SOL    HW131490   5.111   0.484   2.123
10197SOL    HW231491   5.214   0.380   2.051
10198SOL     OW31492   2.332   6.828   0.679
10198SOL    HW131493   2.261   6.766   0.645
10198SOL    HW231494   2.361   6.889   0.605
10199SOL     OW31495   0.959   1.401   1.004
10199SOL    HW131496   0.896   1.475   1.027
10199SOL    HW231497   1.053   1.430   1.022
10200SOL     OW31498   6.040   4.196   5.398
10200SOL    HW131499   6.133   4.232   5.391
10200SOL    HW231500   6.037   4.103   5.362
10201SOL     OW31501   1.700   5.337   2.637
10201SOL    HW131502   1.682   5.240   2.653
10201SOL    HW231503   1.703   5.354   2.538
10202SOL     OW31504   0.325   2.978   2.580
10202SOL    HW131505   0.240   3.018   2.546
10202SOL    HW231506   0.306   2.892   2.626
10203SOL     OW31507   1.101   3.533   2.239
10203SOL    HW131508   1.166   3.567   2.171
10203SOL    HW231509   1.130   3.443   2.271
10204SOL     OW31510   2.906   4.816   4.591
10204SOL    HW131511   2.880   4.874   4.514
10204SOL    HW231512   2.840   4.742   4.602
10205SOL     OW31513   4.645   1.128   2.935
10205SOL    HW131514   4.600   1.042   2.958
10205SOL    HW231515   4.735   1.110   2.896
10206SOL     OW31516   5.247   6.897   6.465
10206SOL    HW131517   5.334   6.945   6.476
10206SOL    HW231518   5.256   6.827   6.393
10207SOL     OW31519   4.828   0.785   2.829
10207SOL    HW131520   4.739   0.742   2.846
10207SOL    HW231521   4.814   0.872   2.782
10208SOL     OW31522   5.906   4.171   5.670
10208SOL    HW131523   5.846   4.247   5.695
10208SOL    HW231524   5.953   4.192   5.584
10209SOL     OW31525   5.659   6.789   6.270
10209SOL    HW131526   5.614   6.779   6.181
10209SOL    HW231527   5.603   6.747   6.341
10210SOL     OW31528   4.970   5.640   1.633
10210SOL    HW131529   5.062   5.669   1.659
10210SOL    HW231530   4.925   5.599   1.713
10211SOL     OW31531   4.014   5.709   4.990
10211SOL    HW131532   4.007   5.638   5.060
10211SOL    HW231533   4.096   5.764   5.007
10212SOL     OW31534   6.342   0.294   5.179
10212SOL    HW131535   6.373   0.294   5.084
10212SOL    HW231536   6.362   0.206   5.221
10213SOL     OW31537   5.931   0.751   3.347
10213SOL    HW131538   5.981   0.667   3.370
10213SOL    HW231539   5.891   0.789   3.431
10214SOL     OW31540   6.863   0.277   2.026
10214SOL    HW131541   6.809   0.317   1.951
10214SOL    HW231542   6.817   0.295   2.113
10215SOL     OW31543   3.758   3.450   0.419
10215SOL    HW131544   3.832   3.388   0.395
10215SOL    HW231545   3.748   3.520   0.348
10216SOL     OW31546   4.510   6.909   1.423
10216SOL    HW131547   4.587   6.962   1.386
10216SOL    HW231548   4.543   6.848   1.494
10217SOL     OW31549   2.960   1.698   5.207
10217SOL    HW131550   2.930   1.793   5.219
10217SOL    HW231551   2.983   1.683   5.110
10218SOL     OW31552   2.198   2.198   0.704
10218SOL    HW131553   2.249   2.271   0.660
10218SOL    HW231554   2.233   2.183   0.796
10219SOL     OW31555   0.747   3.734   0.022
10219SOL    HW131556   0.785   3.796   0.091
10219SOL    HW231557   0.661   3.695   0.056
10220SOL     OW31558   4.273   2.362   0.813
10220SOL    HW131559   4.270   2.284   0.876
10220SOL    HW231560   4.366   2.371   0.777
10221SOL     OW31561   2.865   0.754   5.441
10221SOL    HW131562   2.844   0.801   5.355
10221SOL    HW231563   2.783   0.708   5.475
10222SOL     OW31564   1.568   5.351   5.624
10222SOL    HW131565   1.532   5.270   5.669
10222SOL    HW231566   1.639   5.392   5.681
10223SOL     OW31567   6.998   4.422   0.281
10223SOL    HW131568   0.020   4.438   0.368
10223SOL    HW231569   0.040   4.385   0.215
10224SOL     OW31570   1.688   0.200   4.397
10224SOL    HW131571   1.643   0.111   4.403
10224SOL    HW231572   1.670   0.252   4.480
10225SOL     OW31573   6.144   6.091   4.154
10225SOL    HW131574   6.058   6.141   4.142
10225SOL    HW231575   6.129   5.994   4.137
10226SOL     OW31576   1.174   1.962   0.989
10226SOL    HW131577   1.091   1.927   0.946
10226SOL    HW231578   1.159   2.057   1.017
10227SOL     OW31579   5.441   4.962   6.237
10227SOL    HW131580   5.439   4.966   6.337
10227SOL    HW231581   5.373   5.026   6.200
10228SOL     OW31582   0.956   4.756   3.187
10228SOL    HW131583   0.890   4.778   3.116
10228SOL    HW231584   0.915   4.771   3.277
10229SOL     OW31585   1.878   0.494   2.289
10229SOL    HW131586   1.868   0.592   2.307
10229SOL    HW231587   1.854   0.442   2.372
10230SOL     OW31588   6.497   6.885   3.987
10230SOL    HW131589   6.492   6.979   3.954
10230SOL    HW231590   6.515   6.886   4.086
10231SOL     OW31591   5.129   0.222   4.062
10231SOL    HW131592   5.164   0.297   4.119
10231SOL    HW231593   5.205   0.163   4.034
10232SOL     OW31594   3.549   2.125   4.870
10232SOL    HW131595   3.598   2.144   4.785
10232SOL    HW231596   3.605   2.152   4.948
10233SOL     OW31597   4.621   1.234   6.029
10233SOL    HW131598   4.586   1.170   5.960
10233SOL    HW231599   4.556   1.239   6.105
10234SOL     OW31600   5.965   6.143   1.708
10234SOL    HW131601   5.944   6.236   1.680
10234SOL    HW231602   6.062   6.124   1.691
10235SOL     OW31603   5.270   0.890   6.523
10235SOL    HW131604   5.323   0.965   6.483
10235SOL    HW231605   5.316   0.804   6.507
10236SOL     OW31606   2.594   5.604   2.443
10236SOL    HW131607   2.496   5.604   2.458
10236SOL    HW231608   2.639   5.548   2.513
10237SOL     OW31609   6.776   2.819   2.469
10237SOL    HW131610   6.837   2.779   2.401
10237SOL    HW231611   6.683   2.822   2.433
10238SOL     OW31612   5.088   4.841   4.039
10238SOL    HW131613   5.018   4.772   4.020
10238SOL    HW231614   5.048   4.915   4.093
10239SOL     OW31615   0.239   4.268   3.590
10239SOL    HW131616   0.202   4.221   3.670
10239SOL    HW231617   0.288   4.202   3.533
10240SOL     OW31618   6.638   4.471   3.385
10240SOL    HW131619   6.697   4.541   3.424
10240SOL    HW231620   6.661   4.382   3.423
10241SOL     OW31621   2.397   1.157   2.728
10241SOL    HW131622   2.390   1.089   2.801
10241SOL    HW231623   2.399   1.249   2.769
10242SOL     OW31624   0.114   6.530   6.003
10242SOL    HW131625   0.043   6.554   5.936
10242SOL    HW231626   0.203   6.556   5.966
10243SOL     OW31627   1.496   5.644   2.269
10243SOL    HW131628   1.517   5.572   2.335
10243SOL    HW231629   1.553   5.724   2.289
10244SOL     OW31630   2.331   6.451   6.881
10244SOL    HW131631   2.412   6.398   6.904
10244SOL    HW231632   2.288   6.483   6.966
10245SOL     OW31633   2.410   2.212   0.050
10245SOL    HW131634   2.324   2.165   0.031
10245SOL    HW231635   2.418   2.229   0.148
10246SOL     OW31636   3.843   3.844   4.434
10246SOL    HW131637   3.901   3.862   4.354
10246SOL    HW231638   3.867   3.908   4.507
10247SOL     OW31639   0.992   5.158   5.307
10247SOL    HW131640   1.079   5.208   5.310
10247SOL    HW231641   0.983   5.113   5.218
10248SOL     OW31642   4.237   0.366   1.948
10248SOL    HW131643   4.207   0.459   1.925
10248SOL    HW231644   4.328   0.370   1.988
10249SOL     OW31645   4.234   1.248   0.009
10249SOL    HW131646   4.275   1.162   0.037
10249SOL    HW231647   4.140   1.233   7.003
10250SOL     OW31648   6.496   0.726   6.978
10250SOL    HW131649   6.456   0.677   0.031
10250SOL    HW231650   6.557   0.797   7.013
10251SOL     OW31651   2.988   4.262   0.071
10251SOL    HW131652   2.981   4.267   6.996
10251SOL    HW231653   2.996   4.166   0.099
10252SOL     OW31654   6.762   5.408   1.934
10252SOL    HW131655   6.789   5.502   1.952
10252SOL    HW231656   6.665   5.405   1.908
10253SOL     OW31657   3.529   5.129   6.409
10253SOL    HW131658   3.522   5.032   6.388
10253SOL    HW231659   3.441   5.174   6.391
10254SOL     OW31660   2.747   2.089   4.779
10254SOL    HW131661   2.724   2.180   4.811
10254SOL    HW231662   2.683   2.022   4.818
10255SOL     OW31663   3.275   5.770   2.428
10255SOL    HW131664   3.250   5.749   2.334
10255SOL    HW231665   3.238   5.860   2.454
10256SOL     OW31666   6.100   6.662   6.661
10256SOL    HW131667   6.133   6.757   6.661
10256SOL    HW231668   6.141   6.613   6.584
10257SOL     OW31669   1.325   6.076   6.000
10257SOL    HW131670   1.282   6.094   5.912
10257SOL    HW231671   1.406   6.134   6.010
10258SOL     OW31672   3.973   0.887   2.973
10258SOL    HW131673   4.054   0.944   2.983
10258SOL    HW231674   4.000   0.791   2.976
10259SOL     OW31675   0.421   4.186   2.783
10259SOL    HW131676   0.361   4.176   2.862
10259SOL    HW231677   0.490   4.114   2.784
10260SOL     OW31678   0.706   6.991   1.742
10260SOL    HW131679   0.606   6.992   1.741
10260SOL    HW231680   0.738   6.959   1.831
10261SOL     OW31681   1.480   6.065   2.046
10261SOL    HW131682   1.462   6.065   1.948
10261SOL    HW231683   1.412   6.008   2.093
10262SOL     OW31684   1.447   5.232   4.823
10262SOL    HW131685   1.462   5.147   4.874
10262SOL    HW231686   1.358   5.228   4.778
10263SOL     OW31687   6.142   2.240   6.546
10263SOL    HW131688   6.187   2.290   6.472
10263SOL    HW231689   6.187   2.151   6.558
10264SOL     OW31690   0.278   0.173   6.376
10264SOL    HW131691   0.294   0.160   6.474
10264SOL    HW231692   0.356   0.139   6.324
10265SOL     OW31693   4.484   1.806   1.923
10265SOL    HW131694   4.448   1.718   1.955
10265SOL    HW231695   4.506   1.799   1.826
10266SOL     OW31696   3.273   4.171   6.630
10266SOL    HW131697   3.325   4.161   6.545
10266SOL    HW231698   3.188   4.221   6.610
10267SOL     OW31699   6.692   1.927   6.283
10267SOL    HW131700   6.713   1.978   6.367
10267SOL    HW231701   6.654   1.838   6.307
10268SOL     OW31702   6.385   5.331   1.694
10268SOL    HW131703   6.437   5.369   1.770
10268SOL    HW231704   6.440   5.260   1.650
10269SOL     OW31705   2.836   2.944   5.908
10269SOL    HW131706   2.915   2.922   5.851
10269SOL    HW231707   2.867   2.992   5.990
10270SOL     OW31708   2.413   6.057   0.649
10270SOL    HW131709   2.363   6.055   0.562
10270SOL    HW231710   2.374   6.127   0.708
10271SOL     OW31711   4.280   4.898   0.619
10271SOL    HW131712   4.341   4.936   0.550
10271SOL    HW231713   4.208   4.844   0.575
10272SOL     OW31714   0.796   0.566   5.822
10272SOL    HW131715   0.895   0.555   5.831
10272SOL    HW231716   0.770   0.659   5.850
10273SOL     OW31717   4.504   6.408   4.252
10273SOL    HW131718   4.464   6.498   4.233
10273SOL    HW231719   4.603   6.412   4.237
10274SOL     OW31720   1.451   5.720   5.686
10274SOL    HW131721   1.398   5.710   5.603
10274SOL    HW231722   1.433   5.643   5.747
10275SOL     OW31723   1.336   6.214   2.225
10275SOL    HW131724   1.387   6.179   2.146
10275SOL    HW231725   1.245   6.242   2.195
10276SOL     OW31726   6.055   5.212   6.303
10276SOL    HW131727   6.093   5.237   6.392
10276SOL    HW231728   6.112   5.250   6.230
10277SOL     OW31729   2.281   5.944   3.958
10277SOL    HW131730   2.361   5.957   4.016
10277SOL    HW231731   2.215   5.886   4.005
10278SOL     OW31732   5.864   0.445   5.404
10278SOL    HW131733   5.766   0.426   5.397
10278SOL    HW231734   5.886   0.530   5.356
10279SOL     OW31735   3.531   6.891   3.925
10279SOL    HW131736   3.620   6.860   3.892
10279SOL    HW231737   3.468   6.901   3.848
10280SOL     OW31738   2.201   3.389   6.216
10280SOL    HW131739   2.275   3.348   6.270
10280SOL    HW231740   2.132   3.428   6.278
10281SOL     OW31741   4.344   0.532   3.901
10281SOL    HW131742   4.336   0.435   3.881
10281SOL    HW231743   4.369   0.581   3.817
10282SOL     OW31744   0.880   1.710   4.397
10282SOL    HW131745   0.899   1.645   4.323
10282SOL    HW231746   0.967   1.745   4.433
10283SOL     OW31747   0.890   3.874   6.763
10283SOL    HW131748   0.944   3.799   6.801
10283SOL    HW231749   0.927   3.900   6.674
10284SOL     OW31750   5.328   2.834   5.565
10284SOL    HW131751   5.419   2.860   5.598
10284SOL    HW231752   5.334   2.813   5.467
10285SOL     OW31753   6.398   6.802   1.164
10285SOL    HW131754   6.433   6.708   1.160
10285SOL    HW231755   6.323   6.807   1.230
10286SOL     OW31756   4.262   1.035   3.680
10286SOL    HW131757   4.350   1.082   3.688
10286SOL    HW231758   4.187   1.098   3.700
10287SOL     OW31759   2.981   5.703   1.467
10287SOL    HW131760   2.936   5.681   1.554
10287SOL    HW231761   3.076   5.730   1.485
10288SOL     OW31762   5.479   6.637   4.099
10288SOL    HW131763   5.444   6.567   4.037
10288SOL    HW231764   5.406   6.666   4.161
10289SOL     OW31765   3.127   0.637   1.939
10289SOL    HW131766   3.164   0.626   1.847
10289SOL    HW231767   3.037   0.681   1.935
10290SOL     OW31768   3.356   3.793   2.047
10290SOL    HW131769   3.329   3.878   2.092
10290SOL    HW231770   3.283   3.763   1.985
10291SOL     OW31771   3.646   0.054   5.549
10291SOL    HW131772   3.591   0.124   5.505
10291SOL    HW231773   3.739   0.089   5.563
10292SOL     OW31774   0.438   1.182   4.811
10292SOL    HW131775   0.387   1.195   4.896
10292SOL    HW231776   0.421   1.258   4.749
10293SOL     OW31777   2.308   6.237   3.502
10293SOL    HW131778   2.248   6.316   3.492
10293SOL    HW231779   2.283   6.186   3.584
10294SOL     OW31780   5.924   1.736   3.045
10294SOL    HW131781   5.965   1.794   3.115
10294SOL    HW231782   5.953   1.767   2.955
10295SOL     OW31783   0.716   5.467   6.126
10295SOL    HW131784   0.785   5.443   6.057
10295SOL    HW231785   0.643   5.400   6.124
10296SOL     OW31786   6.352   2.453   0.378
10296SOL    HW131787   6.399   2.386   0.436
10296SOL    HW231788   6.412   2.532   0.364
10297SOL     OW31789   2.262   5.385   4.886
10297SOL    HW131790   2.198   5.451   4.847
10297SOL    HW231791   2.244   5.294   4.847
10298SOL     OW31792   4.919   3.450   3.759
10298SOL    HW131793   4.941   3.392   3.838
10298SOL    HW231794   4.875   3.533   3.789
10299SOL     OW31795   5.356   4.744   3.013
10299SOL    HW131796   5.397   4.660   3.047
10299SOL    HW231797   5.260   4.729   2.992
10300SOL     OW31798   1.289   4.529   2.581
10300SOL    HW131799   1.258   4.599   2.516
10300SOL    HW231800   1.325   4.573   2.663
10301SOL     OW31801   5.531   1.135   1.171
10301SOL    HW131802   5.590   1.205   1.133
10301SOL    HW231803   5.586   1.062   1.210
10302SOL     OW31804   1.846   5.442   3.270
10302SOL    HW131805   1.910   5.402   3.204
10302SOL    HW231806   1.854   5.542   3.268
10303SOL     OW31807   3.170   2.822   1.075
10303SOL    HW131808   3.194   2.856   1.165
10303SOL    HW231809   3.254   2.806   1.022
10304SOL     OW31810   6.229   6.537   3.412
10304SOL    HW131811   6.137   6.513   3.440
10304SOL    HW231812   6.225   6.603   3.337
10305SOL     OW31813   1.945   5.939   1.020
10305SOL    HW131814   1.847   5.950   1.039
10305SOL    HW231815   1.972   6.002   0.947
10306SOL     OW31816   4.533   5.533   0.150
10306SOL    HW131817   4.527   5.632   0.162
10306SOL    HW231818   4.581   5.493   0.229
10307SOL     OW31819   1.987   1.211   5.782
10307SOL    HW131820   1.969   1.146   5.856
10307SOL    HW231821   1.903   1.228   5.731
10308SOL     OW31822   3.568   5.866   3.920
10308SOL    HW131823   3.619   5.894   3.838
10308SOL    HW231824   3.496   5.802   3.894
10309SOL     OW31825   0.149   6.522   3.440
10309SOL    HW131826   0.078   6.579   3.398
10309SOL    HW231827   0.128   6.509   3.537
10310SOL     OW31828   4.055   3.818   3.623
10310SOL    HW131829   3.975   3.817   3.683
10310SOL    HW231830   4.094   3.726   3.618
10311SOL     OW31831   0.529   5.441   0.448
10311SOL    HW131832   0.528   5.540   0.430
10311SOL    HW231833   0.596   5.422   0.520
10312SOL     OW31834   2.261   4.701   1.163
10312SOL    HW131835   2.172   4.697   1.117
10312SOL    HW231836   2.290   4.610   1.190
10313SOL     OW31837   5.294   6.542   3.116
10313SOL    HW131838   5.234   6.499   3.048
10313SOL    HW231839   5.284   6.641   3.111
10314SOL     OW31840   6.575   5.849   0.090
10314SOL    HW131841   6.533   5.877   0.004
10314SOL    HW231842   6.519   5.881   0.166
10315SOL     OW31843   6.034   5.785   4.489
10315SOL    HW131844   6.005   5.753   4.399
10315SOL    HW231845   5.960   5.772   4.554
10316SOL     OW31846   0.100   4.815   2.859
10316SOL    HW131847   0.095   4.846   2.954
10316SOL    HW231848   0.188   4.843   2.820
10317SOL     OW31849   3.571   4.678   0.372
10317SOL    HW131850   3.667   4.702   0.389
10317SOL    HW231851   3.559   4.579   0.383
10318SOL     OW31852   6.406   5.831   2.040
10318SOL    HW131853   6.383   5.739   2.071
10318SOL    HW231854   6.438   5.886   2.117
10319SOL     OW31855   5.994   6.621   3.294
10319SOL    HW131856   5.906   6.575   3.284
10319SOL    HW231857   5.982   6.707   3.344
10320SOL     OW31858   5.739   6.714   1.397
10320SOL    HW131859   5.715   6.619   1.379
10320SOL    HW231860   5.736   6.766   1.311
10321SOL     OW31861   4.067   5.646   4.524
10321SOL    HW131862   4.005   5.721   4.547
10321SOL    HW231863   4.097   5.656   4.430
10322SOL     OW31864   6.195   2.768   0.228
10322SOL    HW131865   6.260   2.787   0.301
10322SOL    HW231866   6.244   2.743   0.145
10323SOL     OW31867   5.861   3.128   4.947
10323SOL    HW131868   5.907   3.072   5.016
10323SOL    HW231869   5.800   3.071   4.893
10324SOL     OW31870   2.863   3.564   3.856
10324SOL    HW131871   2.902   3.655   3.843
10324SOL    HW231872   2.927   3.507   3.906
10325SOL     OW31873   0.552   3.948   2.777
10325SOL    HW131874   0.526   3.872   2.836
10325SOL    HW231875   0.647   3.973   2.794
10326SOL     OW31876   5.462   1.962   0.757
10326SOL    HW131877   5.388   1.918   0.808
10326SOL    HW231878   5.502   1.897   0.693
10327SOL     OW31879   0.083   0.957   4.084
10327SOL    HW131880   0.073   1.050   4.118
10327SOL    HW231881   0.094   0.959   3.984
10328SOL     OW31882   6.414   2.929   1.461
10328SOL    HW131883   6.382   3.011   1.508
10328SOL    HW231884   6.443   2.861   1.528
10329SOL     OW31885   3.986   6.741   2.462
10329SOL    HW131886   4.083   6.755   2.477
10329SOL    HW231887   3.954   6.799   2.388
10330SOL     OW31888   4.023   5.158   1.362
10330SOL    HW131889   4.044   5.062   1.382
10330SOL    HW231890   4.086   5.216   1.413
10331SOL     OW31891   5.990   0.725   3.674
10331SOL    HW131892   5.965   0.630   3.691
10331SOL    HW231893   6.085   0.730   3.644
10332SOL     OW31894   0.269   2.567   6.317
10332SOL    HW131895   0.347   2.530   6.267
10332SOL    HW231896   0.300   2.639   6.379
10333SOL     OW31897   4.645   4.339   4.824
10333SOL    HW131898   4.622   4.305   4.915
10333SOL    HW231899   4.586   4.417   4.803
10334SOL     OW31900   1.228   4.308   5.557
10334SOL    HW131901   1.135   4.275   5.541
10334SOL    HW231902   1.281   4.303   5.472
10335SOL     OW31903   2.240   5.125   1.914
10335SOL    HW131904   2.299   5.099   1.838
10335SOL    HW231905   2.268   5.076   1.996
10336SOL     OW31906   4.376   0.128   2.853
10336SOL    HW131907   4.382   0.102   2.756
10336SOL    HW231908   4.410   0.054   2.910
10337SOL     OW31909   0.200   5.342   5.002
10337SOL    HW131910   0.288   5.296   5.011
10337SOL    HW231911   0.214   5.441   5.003
10338SOL     OW31912   3.579   5.590   3.699
10338SOL    HW131913   3.539   5.562   3.611
10338SOL    HW231914   3.505   5.614   3.763
10339SOL     OW31915   3.357   5.493   0.676
10339SOL    HW131916   3.390   5.428   0.745
10339SOL    HW231917   3.423   5.568   0.667
10340SOL     OW31918   2.215   6.992   0.224
10340SOL    HW131919   2.243   0.030   0.151
10340SOL    HW231920   2.217   6.898   0.190
10341SOL     OW31921   1.959   1.299   2.641
10341SOL    HW131922   1.896   1.331   2.571
10341SOL    HW231923   2.049   1.342   2.627
10342SOL     OW31924   2.218   6.350   4.540
10342SOL    HW131925   2.268   6.388   4.463
10342SOL    HW231926   2.279   6.295   4.597
10343SOL     OW31927   2.139   3.189   4.947
10343SOL    HW131928   2.076   3.112   4.956
10343SOL    HW231929   2.232   3.158   4.963
10344SOL     OW31930   4.086   4.692   5.864
10344SOL    HW131931   4.070   4.594   5.848
10344SOL    HW231932   4.001   4.735   5.895
10345SOL     OW31933   1.932   1.939   6.811
10345SOL    HW131934   1.956   1.859   6.866
10345SOL    HW231935   1.854   1.986   6.852
10346SOL     OW31936   4.954   5.534   0.087
10346SOL    HW131937   4.997   5.504   0.172
10346SOL    HW231938   5.004   5.495   0.009
10347SOL     OW31939   5.228   2.410   1.996
10347SOL    HW131940   5.141   2.402   1.946
10347SOL    HW231941   5.292   2.342   1.961
10348SOL     OW31942   0.029   5.458   5.782
10348SOL    HW131943   6.976   5.494   5.730
10348SOL    HW231944   0.094   5.531   5.801
10349SOL     OW31945   0.293   1.871   0.535
10349SOL    HW131946   0.244   1.929   0.600
10349SOL    HW231947   0.275   1.775   0.556
10350SOL     OW31948   2.377   4.371   4.165
10350SOL    HW131949   2.331   4.291   4.126
10350SOL    HW231950   2.346   4.453   4.118
10351SOL     OW31951   4.592   4.561   5.154
10351SOL    HW131952   4.509   4.547   5.099
10351SOL    HW231953   4.621   4.656   5.147
10352SOL     OW31954   5.600   1.443   6.971
10352SOL    HW131955   5.508   1.484   6.969
10352SOL    HW231956   5.607   1.382   0.025
10353SOL     OW31957   6.765   2.146   3.946
10353SOL    HW131958   6.818   2.221   3.908
10353SOL    HW231959   6.820   2.062   3.943
10354SOL     OW31960   0.306   3.112   1.259
10354SOL    HW131961   0.390   3.060   1.271
10354SOL    HW231962   0.239   3.057   1.210
10355SOL     OW31963   0.339   1.853   1.114
10355SOL    HW131964   0.313   1.940   1.074
10355SOL    HW231965   0.308   1.850   1.209
10356SOL     OW31966   6.442   3.532   5.964
10356SOL    HW131967   6.358   3.493   6.001
10356SOL    HW231968   6.521   3.498   6.016
10357SOL     OW31969   0.885   2.665   5.567
10357SOL    HW131970   0.899   2.701   5.659
10357SOL    HW231971   0.947   2.588   5.551
10358SOL     OW31972   0.927   2.133   3.072
10358SOL    HW131973   0.935   2.229   3.046
10358SOL    HW231974   0.901   2.126   3.168
10359SOL     OW31975   6.218   2.220   2.087
10359SOL    HW131976   6.256   2.288   2.025
10359SOL    HW231977   6.293   2.177   2.138
10360SOL     OW31978   6.060   4.365   1.814
10360SOL    HW131979   6.110   4.357   1.901
10360SOL    HW231980   5.964   4.387   1.833
10361SOL     OW31981   0.366   1.546   1.849
10361SOL    HW131982   0.370   1.487   1.768
10361SOL    HW231983   0.457   1.552   1.890
10362SOL     OW31984   1.289   5.449   1.653
10362SOL    HW131985   1.356   5.482   1.587
10362SOL    HW231986   1.337   5.415   1.734
10363SOL     OW31987   5.620   4.136   6.818
10363SOL    HW131988   5.694   4.084   6.776
10363SOL    HW231989   5.548   4.153   6.750
10364SOL     OW31990   5.878   4.472   2.112
10364SOL    HW131991   5.815   4.449   2.037
10364SOL    HW231992   5.917   4.562   2.097
10365SOL     OW31993   5.590   5.696   0.285
10365SOL    HW131994   5.640   5.740   0.210
10365SOL    HW231995   5.538   5.618   0.249
10366SOL     OW31996   2.778   5.978   3.584
10366SOL    HW131997   2.797   6.001   3.489
10366SOL    HW231998   2.846   5.912   3.617
10367SOL     OW31999   6.049   0.854   1.618
10367SOL    HW132000   6.065   0.952   1.627
10367SOL    HW232001   6.032   0.814   1.709
10368SOL     OW32002   2.409   6.283   2.508
10368SOL    HW132003   2.495   6.304   2.461
10368SOL    HW232004   2.332   6.305   2.449
10369SOL     OW32005   2.893   0.290   6.319
10369SOL    HW132006   2.948   0.321   6.396
10369SOL    HW232007   2.842   0.367   6.280
10370SOL     OW32008   1.129   0.686   6.180
10370SOL    HW132009   1.062   0.747   6.222
10370SOL    HW232010   1.189   0.738   6.120
10371SOL     OW32011   3.898   5.769   3.419
10371SOL    HW132012   3.920   5.859   3.455
10371SOL    HW232013   3.958   5.747   3.343
10372SOL     OW32014   2.897   6.494   1.764
10372SOL    HW132015   2.988   6.497   1.805
10372SOL    HW232016   2.882   6.579   1.712
10373SOL     OW32017   0.782   1.240   5.389
10373SOL    HW132018   0.717   1.294   5.336
10373SOL    HW232019   0.733   1.173   5.444
10374SOL     OW32020   3.963   5.487   3.941
10374SOL    HW132021   3.876   5.458   3.979
10374SOL    HW232022   4.025   5.513   4.015
10375SOL     OW32023   2.256   3.854   0.044
10375SOL    HW132024   2.172   3.806   0.069
10375SOL    HW232025   2.236   3.951   0.028
10376SOL     OW32026   1.814   4.573   3.259
10376SOL    HW132027   1.819   4.517   3.341
10376SOL    HW232028   1.856   4.662   3.277
10377SOL     OW32029   1.629   0.476   2.547
10377SOL    HW132030   1.595   0.382   2.544
10377SOL    HW232031   1.729   0.475   2.549
10378SOL     OW32032   0.279   4.756   3.936
10378SOL    HW132033   0.226   4.675   3.960
10378SOL    HW232034   0.336   4.783   4.013
10379SOL     OW32035   1.710   6.706   4.361
10379SOL    HW132036   1.723   6.675   4.267
10379SOL    HW232037   1.797   6.735   4.399
10380SOL     OW32038   2.203   2.633   4.778
10380SOL    HW132039   2.193   2.732   4.770
10380SOL    HW232040   2.249   2.610   4.864
10381SOL     OW32041   4.545   4.745   2.244
10381SOL    HW132042   4.642   4.720   2.246
10381SOL    HW232043   4.489   4.662   2.252
10382SOL     OW32044   3.925   5.452   2.376
10382SOL    HW132045   3.973   5.469   2.290
10382SOL    HW232046   3.837   5.408   2.357
10383SOL     OW32047   1.854   4.043   0.139
10383SOL    HW132048   1.768   3.990   0.142
10383SOL    HW232049   1.906   4.026   0.223
10384SOL     OW32050   6.290   6.657   1.664
10384SOL    HW132051   6.252   6.682   1.753
10384SOL    HW232052   6.237   6.582   1.625
10385SOL     OW32053   4.424   4.594   6.991
10385SOL    HW132054   4.431   4.596   0.067
10385SOL    HW232055   4.472   4.673   6.953
10386SOL     OW32056   0.227   1.091   0.144
10386SOL    HW132057   0.296   1.158   0.170
10386SOL    HW232058   0.172   1.128   0.068
10387SOL     OW32059   5.159   2.923   1.879
10387SOL    HW132060   5.074   2.930   1.827
10387SOL    HW232061   5.143   2.955   1.973
10388SOL     OW32062   2.780   0.824   5.770
10388SOL    HW132063   2.807   0.748   5.829
10388SOL    HW232064   2.723   0.789   5.695
10389SOL     OW32065   0.706   3.583   0.331
10389SOL    HW132066   0.634   3.514   0.341
10389SOL    HW232067   0.664   3.672   0.314
10390SOL     OW32068   2.010   2.542   1.726
10390SOL    HW132069   2.095   2.500   1.757
10390SOL    HW232070   1.992   2.624   1.781
10391SOL     OW32071   5.316   6.764   4.290
10391SOL    HW132072   5.299   6.859   4.315
10391SOL    HW232073   5.340   6.712   4.372
10392SOL     OW32074   6.887   4.845   3.879
10392SOL    HW132075   6.964   4.897   3.843
10392SOL    HW232076   6.802   4.897   3.867
10393SOL     OW32077   1.515   4.059   3.415
10393SOL    HW132078   1.570   4.032   3.494
10393SOL    HW232079   1.470   4.147   3.434
10394SOL     OW32080   2.721   5.928   4.196
10394SOL    HW132081   2.740   5.853   4.258
10394SOL    HW232082   2.800   5.944   4.137
10395SOL     OW32083   0.402   0.313   0.835
10395SOL    HW132084   0.431   0.362   0.917
10395SOL    HW232085   0.329   0.363   0.790
10396SOL     OW32086   3.131   1.829   4.721
10396SOL    HW132087   3.193   1.822   4.799
10396SOL    HW232088   3.045   1.872   4.750
10397SOL     OW32089   3.305   2.118   2.423
10397SOL    HW132090   3.378   2.101   2.357
10397SOL    HW232091   3.220   2.137   2.373
10398SOL     OW32092   6.982   2.602   1.593
10398SOL    HW132093   6.925   2.653   1.657
10398SOL    HW232094   0.012   2.667   1.539
10399SOL     OW32095   6.694   3.487   1.800
10399SOL    HW132096   6.710   3.433   1.883
10399SOL    HW232097   6.619   3.552   1.817
10400SOL     OW32098   3.779   6.919   0.886
10400SOL    HW132099   3.854   6.973   0.924
10400SOL    HW232100   3.723   6.881   0.960
10401SOL     OW32101   0.137   0.479   4.875
10401SOL    HW132102   0.177   0.571   4.867
10401SOL    HW232103   0.173   0.421   4.801
10402SOL     OW32104   6.414   2.920   4.555
10402SOL    HW132105   6.318   2.945   4.560
10402SOL    HW232106   6.448   2.898   4.647
10403SOL     OW32107   2.892   0.581   3.279
10403SOL    HW132108   2.987   0.579   3.248
10403SOL    HW232109   2.837   0.634   3.215
10404SOL     OW32110   0.227   6.334   6.135
10404SOL    HW132111   0.164   6.257   6.145
10404SOL    HW232112   0.175   6.419   6.129
10405SOL     OW32113   0.140   1.485   6.002
10405SOL    HW132114   0.181   1.394   6.005
10405SOL    HW232115   0.170   1.538   6.081
10406SOL     OW32116   3.400   4.771   1.542
10406SOL    HW132117   3.334   4.839   1.506
10406SOL    HW232118   3.371   4.742   1.633
10407SOL     OW32119   3.309   7.019   0.073
10407SOL    HW132120   3.289   0.002   0.171
10407SOL    HW232121   3.323   6.923   0.049
10408SOL     OW32122   4.327   0.408   0.446
10408SOL    HW132123   4.249   0.401   0.383
10408SOL    HW232124   4.301   0.370   0.535
10409SOL     OW32125   6.413   4.749   0.365
10409SOL    HW132126   6.375   4.660   0.392
10409SOL    HW232127   6.384   4.770   0.271
10410SOL     OW32128   5.961   1.402   0.313
10410SOL    HW132129   5.988   1.362   0.226
10410SOL    HW232130   6.042   1.428   0.365
10411SOL     OW32131   2.476   5.190   3.292
10411SOL    HW132132   2.517   5.106   3.328
10411SOL    HW232133   2.542   5.265   3.301
10412SOL     OW32134   5.713   1.189   0.794
10412SOL    HW132135   5.762   1.227   0.872
10412SOL    HW232136   5.764   1.113   0.755
10413SOL     OW32137   6.199   1.919   1.395
10413SOL    HW132138   6.277   1.933   1.334
10413SOL    HW232139   6.152   2.006   1.410
10414SOL     OW32140   5.288   3.115   5.255
10414SOL    HW132141   5.279   3.214   5.239
10414SOL    HW232142   5.337   3.073   5.178
10415SOL     OW32143   0.430   5.865   6.227
10415SOL    HW132144   0.416   5.905   6.318
10415SOL    HW232145   0.522   5.826   6.221
10416SOL     OW32146   6.094   2.839   4.297
10416SOL    HW132147   6.032   2.914   4.272
10416SOL    HW232148   6.181   2.877   4.328
10417SOL     OW32149   2.632   4.799   3.942
10417SOL    HW132150   2.615   4.821   3.846
10417SOL    HW232151   2.589   4.711   3.965
10418SOL     OW32152   0.704   4.343   5.247
10418SOL    HW132153   0.758   4.402   5.307
10418SOL    HW232154   0.745   4.252   5.243
10419SOL     OW32155   0.832   0.794   0.665
10419SOL    HW132156   0.928   0.815   0.645
10419SOL    HW232157   0.781   0.786   0.580
10420SOL     OW32158   0.051   3.258   2.832
10420SOL    HW132159   0.069   3.281   2.927
10420SOL    HW232160   0.076   3.335   2.773
10421SOL     OW32161   1.220   0.859   3.555
10421SOL    HW132162   1.285   0.904   3.617
10421SOL    HW232163   1.254   0.866   3.461
10422SOL     OW32164   6.819   2.591   5.584
10422SOL    HW132165   6.745   2.628   5.641
10422SOL    HW232166   6.878   2.532   5.641
10423SOL     OW32167   4.943   4.582   4.169
10423SOL    HW132168   4.930   4.549   4.076
10423SOL    HW232169   4.859   4.624   4.202
10424SOL     OW32170   5.350   1.560   6.857
10424SOL    HW132171   5.258   1.552   6.896
10424SOL    HW232172   5.345   1.553   6.757
10425SOL     OW32173   1.445   5.876   2.695
10425SOL    HW132174   1.545   5.874   2.703
10425SOL    HW232175   1.417   5.958   2.646
10426SOL     OW32176   6.040   4.138   0.742
10426SOL    HW132177   6.037   4.041   0.719
10426SOL    HW232178   6.091   4.150   0.828
10427SOL     OW32179   5.024   2.538   0.794
10427SOL    HW132180   5.006   2.441   0.806
10427SOL    HW232181   5.012   2.586   0.881
10428SOL     OW32182   4.107   0.704   4.812
10428SOL    HW132183   4.030   0.745   4.762
10428SOL    HW232184   4.193   0.736   4.772
10429SOL     OW32185   6.827   5.706   1.397
10429SOL    HW132186   6.753   5.710   1.463
10429SOL    HW232187   6.818   5.782   1.332
10430SOL     OW32188   4.202   6.456   3.234
10430SOL    HW132189   4.267   6.381   3.236
10430SOL    HW232190   4.221   6.519   3.309
10431SOL     OW32191   2.844   0.078   5.173
10431SOL    HW132192   2.854   0.168   5.215
10431SOL    HW232193   2.802   0.015   5.239
10432SOL     OW32194   6.175   0.695   3.946
10432SOL    HW132195   6.191   0.605   3.986
10432SOL    HW232196   6.191   0.691   3.847
10433SOL     OW32197   2.397   6.471   1.319
10433SOL    HW132198   2.435   6.564   1.324
10433SOL    HW232199   2.372   6.440   1.411
10434SOL     OW32200   3.278   0.201   3.506
10434SOL    HW132201   3.211   0.128   3.523
10434SOL    HW232202   3.257   0.279   3.565
10435SOL     OW32203   5.942   6.472   5.986
10435SOL    HW132204   6.025   6.515   5.952
10435SOL    HW232205   5.964   6.412   6.063
10436SOL     OW32206   0.692   5.399   4.285
10436SOL    HW132207   0.689   5.338   4.205
10436SOL    HW232208   0.600   5.435   4.302
10437SOL     OW32209   6.308   5.036   5.791
10437SOL    HW132210   6.293   4.946   5.749
10437SOL    HW232211   6.276   5.033   5.886
10438SOL     OW32212   5.494   6.514   0.334
10438SOL    HW132213   5.438   6.566   0.269
10438SOL    HW232214   5.524   6.428   0.292
10439SOL     OW32215   3.909   0.149   5.604
10439SOL    HW132216   3.932   0.194   5.690
10439SOL    HW232217   3.977   0.078   5.585
10440SOL     OW32218   1.015   6.495   1.114
10440SOL    HW132219   0.930   6.509   1.164
10440SOL    HW232220   1.082   6.453   1.174
10441SOL     OW32221   5.402   1.376   6.631
10441SOL    HW132222   5.332   1.308   6.650
10441SOL    HW232223   5.397   1.404   6.535
10442SOL     OW32224   3.395   5.383   5.515
10442SOL    HW132225   3.356   5.295   5.543
10442SOL    HW232226   3.324   5.438   5.470
10443SOL     OW32227   5.956   3.811   4.542
10443SOL    HW132228   5.987   3.874   4.470
10443SOL    HW232229   6.033   3.755   4.572
10444SOL     OW32230   3.805   5.354   4.917
10444SOL    HW132231   3.751   5.286   4.867
10444SOL    HW232232   3.853   5.412   4.852
10445SOL     OW32233   6.493   5.325   4.552
10445SOL    HW132234   6.513   5.243   4.605
10445SOL    HW232235   6.514   5.308   4.456
10446SOL     OW32236   0.696   4.565   6.452
10446SOL    HW132237   0.697   4.480   6.503
10446SOL    HW232238   0.772   4.565   6.386
10447SOL     OW32239   6.864   2.052   1.218
10447SOL    HW132240   6.848   2.114   1.295
10447SOL    HW232241   6.945   1.997   1.235
10448SOL     OW32242   3.723   4.092   1.752
10448SOL    HW132243   3.784   4.168   1.731
10448SOL    HW232244   3.776   4.007   1.753
10449SOL     OW32245   2.535   5.578   4.475
10449SOL    HW132246   2.456   5.590   4.415
10449SOL    HW232247   2.509   5.520   4.553
10450SOL     OW32248   6.988   2.185   0.253
10450SOL    HW132249   0.059   2.171   0.225
10450SOL    HW232250   6.948   2.260   0.201
10451SOL     OW32251   2.394   4.450   2.927
10451SOL    HW132252   2.361   4.409   3.012
10451SOL    HW232253   2.461   4.522   2.949
10452SOL     OW32254   0.618   3.218   3.841
10452SOL    HW132255   0.600   3.125   3.875
10452SOL    HW232256   0.667   3.213   3.755
10453SOL     OW32257   5.495   5.630   1.348
10453SOL    HW132258   5.418   5.652   1.289
10453SOL    HW232259   5.580   5.645   1.299
10454SOL     OW32260   5.208   3.046   2.184
10454SOL    HW132261   5.149   3.122   2.156
10454SOL    HW232262   5.303   3.067   2.161
10455SOL     OW32263   0.670   4.963   4.167
10455SOL    HW132264   0.660   4.874   4.122
10455SOL    HW232265   0.584   4.987   4.212
10456SOL     OW32266   3.583   5.983   1.126
10456SOL    HW132267   3.673   6.007   1.088
10456SOL    HW232268   3.586   5.891   1.164
10457SOL     OW32269   4.162   3.484   3.388
10457SOL    HW132270   4.140   3.390   3.362
10457SOL    HW232271   4.162   3.542   3.306
10458SOL     OW32272   1.322   6.482   1.033
10458SOL    HW132273   1.259   6.440   1.100
10458SOL    HW232274   1.401   6.423   1.020
10459SOL     OW32275   6.192   5.355   2.146
10459SOL    HW132276   6.105   5.386   2.184
10459SOL    HW232277   6.186   5.350   2.046
10460SOL     OW32278   2.792   4.994   2.272
10460SOL    HW132279   2.830   4.975   2.362
10460SOL    HW232280   2.837   4.936   2.203
10461SOL     OW32281   2.831   0.042   6.707
10461SOL    HW132282   2.823   0.057   6.608
10461SOL    HW232283   2.773   6.988   6.733
10462SOL     OW32284   6.428   0.553   1.175
10462SOL    HW132285   6.460   0.594   1.260
10462SOL    HW232286   6.488   0.477   1.149
10463SOL     OW32287   2.851   4.496   0.545
10463SOL    HW132288   2.866   4.594   0.532
10463SOL    HW232289   2.779   4.465   0.481
10464SOL     OW32290   4.862   0.438   0.531
10464SOL    HW132291   4.884   0.400   0.441
10464SOL    HW232292   4.811   0.371   0.584
10465SOL     OW32293   7.000   5.466   6.295
10465SOL    HW132294   7.013   5.548   6.240
10465SOL    HW232295   0.037   5.469   6.374
10466SOL     OW32296   4.436   5.928   5.122
10466SOL    HW132297   4.362   5.888   5.067
10466SOL    HW232298   4.501   5.856   5.148
10467SOL     OW32299   2.367   1.877   5.225
10467SOL    HW132300   2.441   1.818   5.192
10467SOL    HW232301   2.404   1.968   5.246
10468SOL     OW32302   3.141   6.568   4.625
10468SOL    HW132303   3.193   6.588   4.708
10468SOL    HW232304   3.058   6.624   4.623
10469SOL     OW32305   1.614   4.193   0.627
10469SOL    HW132306   1.665   4.178   0.711
10469SOL    HW232307   1.651   4.274   0.580
10470SOL     OW32308   2.939   1.621   4.025
10470SOL    HW132309   2.860   1.563   4.045
10470SOL    HW232310   2.949   1.632   3.926
10471SOL     OW32311   2.773   3.465   1.444
10471SOL    HW132312   2.771   3.365   1.443
10471SOL    HW232313   2.740   3.500   1.357
10472SOL     OW32314   3.487   0.639   1.793
10472SOL    HW132315   3.408   0.654   1.734
10472SOL    HW232316   3.463   0.576   1.867
10473SOL     OW32317   5.364   6.079   0.145
10473SOL    HW132318   5.306   6.155   0.171
10473SOL    HW232319   5.377   6.018   0.223
10474SOL     OW32320   3.932   0.545   4.475
10474SOL    HW132321   3.990   0.519   4.552
10474SOL    HW232322   3.962   0.634   4.439
10475SOL     OW32323   3.686   6.949   1.545
10475SOL    HW132324   3.728   6.874   1.494
10475SOL    HW232325   3.755   7.019   1.565
10476SOL     OW32326   6.782   5.463   6.770
10476SOL    HW132327   6.852   5.392   6.776
10476SOL    HW232328   6.736   5.472   6.858
10477SOL     OW32329   6.095   4.151   4.912
10477SOL    HW132330   6.000   4.183   4.907
10477SOL    HW232331   6.104   4.085   4.986
10478SOL     OW32332   6.942   6.009   1.060
10478SOL    HW132333   6.993   6.065   0.995
10478SOL    HW232334   6.999   5.932   1.089
10479SOL     OW32335   1.916   3.625   2.833
10479SOL    HW132336   1.985   3.569   2.878
10479SOL    HW232337   1.832   3.625   2.887
10480SOL     OW32338   5.498   6.562   2.088
10480SOL    HW132339   5.591   6.595   2.107
10480SOL    HW232340   5.489   6.468   2.119
10481SOL     OW32341   1.662   0.636   4.919
10481SOL    HW132342   1.584   0.626   4.981
10481SOL    HW232343   1.691   0.732   4.915
10482SOL     OW32344   1.121   6.097   4.876
10482SOL    HW132345   1.111   6.172   4.941
10482SOL    HW232346   1.211   6.055   4.887
10483SOL     OW32347   0.150   5.700   6.934
10483SOL    HW132348   0.053   5.721   6.930
10483SOL    HW232349   0.174   5.671   0.002
10484SOL     OW32350   0.224   1.124   2.128
10484SOL    HW132351   0.136   1.172   2.120
10484SOL    HW232352   0.259   1.134   2.221
10485SOL     OW32353   3.532   3.803   3.483
10485SOL    HW132354   3.477   3.884   3.463
10485SOL    HW232355   3.600   3.791   3.411
10486SOL     OW32356   6.113   6.433   5.204
10486SOL    HW132357   6.172   6.451   5.126
10486SOL    HW232358   6.027   6.392   5.173
10487SOL     OW32359   4.223   1.872   1.866
10487SOL    HW132360   4.179   1.874   1.955
10487SOL    HW232361   4.322   1.861   1.877
10488SOL     OW32362   6.829   2.072   5.334
10488SOL    HW132363   6.810   1.996   5.397
10488SOL    HW232364   6.744   2.105   5.295
10489SOL     OW32365   5.565   4.246   4.010
10489SOL    HW132366   5.512   4.324   3.974
10489SOL    HW232367   5.548   4.237   4.108
10490SOL     OW32368   5.969   6.321   6.467
10490SOL    HW132369   6.060   6.279   6.466
10490SOL    HW232370   5.954   6.365   6.556
10491SOL     OW32371   1.245   3.296   6.207
10491SOL    HW132372   1.226   3.243   6.290
10491SOL    HW232373   1.343   3.309   6.197
10492SOL     OW32374   4.184   0.444   0.704
10492SOL    HW132375   4.097   0.394   0.715
10492SOL    HW232376   4.258   0.390   0.743
10493SOL     OW32377   4.103   5.539   0.803
10493SOL    HW132378   4.120   5.626   0.849
10493SOL    HW232379   4.121   5.550   0.705
10494SOL     OW32380   0.591   4.309   5.741
10494SOL    HW132381   0.605   4.345   5.833
10494SOL    HW232382   0.544   4.377   5.685
10495SOL     OW32383   0.516   6.551   6.592
10495SOL    HW132384   0.445   6.537   6.523
10495SOL    HW232385   0.549   6.646   6.587
10496SOL     OW32386   0.073   3.974   5.402
10496SOL    HW132387   0.092   4.067   5.369
10496SOL    HW232388   0.002   3.978   5.473
10497SOL     OW32389   2.569   6.300   1.180
10497SOL    HW132390   2.504   6.368   1.213
10497SOL    HW232391   2.628   6.271   1.255
10498SOL     OW32392   4.527   5.571   0.655
10498SOL    HW132393   4.491   5.479   0.666
10498SOL    HW232394   4.604   5.586   0.717
10499SOL     OW32395   5.812   4.939   1.925
10499SOL    HW132396   5.751   4.947   1.845
10499SOL    HW232397   5.846   5.030   1.949
10500SOL     OW32398   6.644   3.972   5.508
10500SOL    HW132399   6.559   3.929   5.540
10500SOL    HW232400   6.666   4.049   5.567
10501SOL     OW32401   2.880   5.430   2.836
10501SOL    HW132402   2.789   5.436   2.795
10501SOL    HW232403   2.892   5.505   2.901
10502SOL     OW32404   3.304   4.119   2.544
10502SOL    HW132405   3.310   4.086   2.638
10502SOL    HW232406   3.249   4.202   2.542
10503SOL     OW32407   5.704   2.612   6.681
10503SOL    HW132408   5.773   2.647   6.745
10503SOL    HW232409   5.749   2.573   6.601
10504SOL     OW32410   1.374   2.647   6.322
10504SOL    HW132411   1.309   2.588   6.274
10504SOL    HW232412   1.466   2.630   6.287
10505SOL     OW32413   5.704   6.937   1.253
10505SOL    HW132414   5.795   6.962   1.220
10505SOL    HW232415   5.644   6.921   1.174
10506SOL     OW32416   1.040   2.401   0.740
10506SOL    HW132417   0.964   2.466   0.735
10506SOL    HW232418   1.108   2.424   0.670
10507SOL     OW32419   1.484   4.908   6.032
10507SOL    HW132420   1.394   4.941   6.002
10507SOL    HW232421   1.527   4.855   5.959
10508SOL     OW32422   1.237   5.306   5.113
10508SOL    HW132423   1.270   5.242   5.182
10508SOL    HW232424   1.311   5.367   5.084
10509SOL     OW32425   4.865   2.364   3.554
10509SOL    HW132426   4.932   2.408   3.614
10509SOL    HW232427   4.788   2.330   3.609
10510SOL     OW32428   5.326   5.440   3.926
10510SOL    HW132429   5.287   5.528   3.953
10510SOL    HW232430   5.315   5.375   4.002
10511SOL     OW32431   3.867   2.145   2.324
10511SOL    HW132432   3.957   2.114   2.293
10511SOL    HW232433   3.828   2.206   2.255
10512SOL     OW32434   4.290   1.134   4.980
10512SOL    HW132435   4.317   1.051   5.029
10512SOL    HW232436   4.265   1.111   4.886
10513SOL     OW32437   5.348   3.032   1.632
10513SOL    HW132438   5.284   3.108   1.637
10513SOL    HW232439   5.393   3.020   1.720
10514SOL     OW32440   0.675   3.375   1.938
10514SOL    HW132441   0.709   3.440   1.869
10514SOL    HW232442   0.579   3.355   1.921
10515SOL     OW32443   1.893   2.918   5.304
10515SOL    HW132444   1.921   3.001   5.352
10515SOL    HW232445   1.941   2.913   5.216
10516SOL     OW32446   3.787   2.362   1.182
10516SOL    HW132447   3.701   2.412   1.188
10516SOL    HW232448   3.860   2.424   1.154
10517SOL     OW32449   0.983   2.511   3.771
10517SOL    HW132450   0.929   2.591   3.749
10517SOL    HW232451   0.924   2.430   3.774
10518SOL     OW32452   0.877   5.250   2.909
10518SOL    HW132453   0.941   5.294   2.972
10518SOL    HW232454   0.818   5.318   2.868
10519SOL     OW32455   3.350   6.340   0.884
10519SOL    HW132456   3.275   6.275   0.886
10519SOL    HW232457   3.371   6.370   0.977
10520SOL     OW32458   0.002   2.183   5.158
10520SOL    HW132459   6.962   2.257   5.140
10520SOL    HW232460   7.005   2.142   5.247
10521SOL     OW32461   6.581   3.078   1.192
10521SOL    HW132462   6.521   3.001   1.172
10521SOL    HW232463   6.526   3.155   1.226
10522SOL     OW32464   5.240   2.511   4.031
10522SOL    HW132465   5.288   2.424   4.020
10522SOL    HW232466   5.145   2.494   4.059
10523SOL     OW32467   6.944   4.679   3.062
10523SOL    HW132468   0.001   4.721   3.022
10523SOL    HW232469   6.876   4.749   3.083
10524SOL     OW32470   6.276   6.863   4.896
10524SOL    HW132471   6.238   6.793   4.835
10524SOL    HW232472   6.268   6.833   4.991
10525SOL     OW32473   5.065   1.587   4.859
10525SOL    HW132474   4.999   1.531   4.908
10525SOL    HW232475   5.060   1.568   4.761
10526SOL     OW32476   1.805   4.964   0.603
10526SOL    HW132477   1.815   4.959   0.702
10526SOL    HW232478   1.838   4.878   0.562
10527SOL     OW32479   0.770   0.343   4.720
10527SOL    HW132480   0.802   0.261   4.673
10527SOL    HW232481   0.720   0.401   4.657
10528SOL     OW32482   0.777   3.696   5.756
10528SOL    HW132483   0.804   3.730   5.666
10528SOL    HW232484   0.752   3.774   5.815
10529SOL     OW32485   1.267   5.851   0.243
10529SOL    HW132486   1.191   5.892   0.192
10529SOL    HW232487   1.263   5.752   0.237
10530SOL     OW32488   0.029   6.255   0.612
10530SOL    HW132489   0.111   6.311   0.602
10530SOL    HW232490   0.036   6.201   0.696
10531SOL     OW32491   2.671   3.003   5.363
10531SOL    HW132492   2.671   3.099   5.390
10531SOL    HW232493   2.643   2.995   5.267
10532SOL     OW32494   5.714   6.181   6.574
10532SOL    HW132495   5.629   6.169   6.523
10532SOL    HW232496   5.771   6.249   6.529
10533SOL     OW32497   2.476   5.608   3.331
10533SOL    HW132498   2.402   5.590   3.396
10533SOL    HW232499   2.494   5.707   3.326
10534SOL     OW32500   1.657   6.230   3.281
10534SOL    HW132501   1.704   6.244   3.368
10534SOL    HW232502   1.559   6.246   3.293
10535SOL     OW32503   3.291   2.002   2.994
10535SOL    HW132504   3.351   1.925   3.011
10535SOL    HW232505   3.275   2.011   2.895
10536SOL     OW32506   5.556   1.457   4.010
10536SOL    HW132507   5.554   1.512   4.094
10536SOL    HW232508   5.484   1.490   3.948
10537SOL     OW32509   4.147   0.418   3.689
10537SOL    HW132510   4.141   0.355   3.611
10537SOL    HW232511   4.200   0.377   3.762
10538SOL     OW32512   6.459   3.182   2.851
10538SOL    HW132513   6.464   3.103   2.912
10538SOL    HW232514   6.522   3.169   2.774
10539SOL     OW32515   6.659   0.418   3.123
10539SOL    HW132516   6.704   0.416   3.212
10539SOL    HW232517   6.712   0.476   3.060
10540SOL     OW32518   2.598   3.571   6.199
10540SOL    HW132519   2.622   3.602   6.107
10540SOL    HW232520   2.562   3.478   6.194
10541SOL     OW32521   3.200   3.183   5.250
10541SOL    HW132522   3.266   3.115   5.282
10541SOL    HW232523   3.130   3.140   5.194
10542SOL     OW32524   4.664   6.940   4.191
10542SOL    HW132525   4.747   6.887   4.212
10542SOL    HW232526   4.607   6.946   4.273
10543SOL     OW32527   0.480   3.511   4.972
10543SOL    HW132528   0.399   3.458   4.998
10543SOL    HW232529   0.458   3.569   4.893
10544SOL     OW32530   1.725   1.147   2.941
10544SOL    HW132531   1.823   1.136   2.958
10544SOL    HW232532   1.707   1.240   2.908
10545SOL     OW32533   2.116   2.008   3.040
10545SOL    HW132534   2.135   2.069   2.963
10545SOL    HW232535   2.047   2.050   3.099
10546SOL     OW32536   3.160   6.763   0.412
10546SOL    HW132537   3.164   6.859   0.382
10546SOL    HW232538   3.099   6.712   0.352
10547SOL     OW32539   4.228   0.309   5.056
10547SOL    HW132540   4.139   0.271   5.029
10547SOL    HW232541   4.293   0.234   5.069
10548SOL     OW32542   0.422   4.958   4.376
10548SOL    HW132543   0.337   4.906   4.371
10548SOL    HW232544   0.499   4.896   4.389
10549SOL     OW32545   0.227   0.994   0.692
10549SOL    HW132546   0.158   1.050   0.647
10549SOL    HW232547   0.280   1.050   0.755
10550SOL     OW32548   4.254   6.407   3.791
10550SOL    HW132549   4.168   6.358   3.777
10550SOL    HW232550   4.311   6.356   3.856
10551SOL     OW32551   3.168   1.957   5.912
10551SOL    HW132552   3.178   1.867   5.954
10551SOL    HW232553   3.073   1.986   5.916
10552SOL     OW32554   3.121   0.936   4.553
10552SOL    HW132555   3.101   1.032   4.534
10552SOL    HW232556   3.145   0.925   4.649
10553SOL     OW32557   0.216   4.841   0.643
10553SOL    HW132558   0.178   4.911   0.704
10553SOL    HW232559   0.247   4.763   0.696
10554SOL     OW32560   6.558   5.610   2.427
10554SOL    HW132561   6.496   5.680   2.463
10554SOL    HW232562   6.539   5.523   2.472
10555SOL     OW32563   3.691   2.972   0.439
10555SOL    HW132564   3.706   3.026   0.522
10555SOL    HW232565   3.752   3.005   0.366
10556SOL     OW32566   2.297   1.628   3.193
10556SOL    HW132567   2.301   1.529   3.206
10556SOL    HW232568   2.348   1.653   3.111
10557SOL     OW32569   1.927   3.972   3.980
10557SOL    HW132570   1.829   3.954   3.991
10557SOL    HW232571   1.944   4.070   3.995
10558SOL     OW32572   2.420   5.406   5.136
10558SOL    HW132573   2.451   5.332   5.196
10558SOL    HW232574   2.396   5.369   5.046
10559SOL     OW32575   4.095   6.852   6.355
10559SOL    HW132576   4.017   6.792   6.338
10559SOL    HW232577   4.096   6.926   6.286
10560SOL     OW32578   5.520   6.645   1.798
10560SOL    HW132579   5.458   6.582   1.751
10560SOL    HW232580   5.521   6.625   1.895
10561SOL     OW32581   5.702   4.238   0.314
10561SOL    HW132582   5.790   4.218   0.271
10561SOL    HW232583   5.682   4.336   0.306
10562SOL     OW32584   3.924   6.068   2.537
10562SOL    HW132585   3.852   6.008   2.570
10562SOL    HW232586   4.008   6.015   2.521
10563SOL     OW32587   0.581   0.219   1.385
10563SOL    HW132588   0.520   0.147   1.352
10563SOL    HW232589   0.645   0.181   1.452
10564SOL     OW32590   5.701   5.566   4.121
10564SOL    HW132591   5.609   5.556   4.160
10564SOL    HW232592   5.726   5.483   4.072
10565SOL     OW32593   0.633   6.525   5.370
10565SOL    HW132594   0.536   6.543   5.386
10565SOL    HW232595   0.685   6.547   5.452
10566SOL     OW32596   2.326   3.379   0.173
10566SOL    HW132597   2.362   3.456   0.226
10566SOL    HW232598   2.398   3.342   0.115
10567SOL     OW32599   1.023   2.403   6.430
10567SOL    HW132600   0.945   2.438   6.483
10567SOL    HW232601   1.025   2.304   6.434
10568SOL     OW32602   5.253   2.245   5.786
10568SOL    HW132603   5.161   2.275   5.813
10568SOL    HW232604   5.320   2.312   5.819
10569SOL     OW32605   5.593   6.793   1.027
10569SOL    HW132606   5.513   6.792   1.087
10569SOL    HW232607   5.564   6.780   0.933
10570SOL     OW32608   1.125   4.717   3.756
10570SOL    HW132609   1.044   4.676   3.797
10570SOL    HW232610   1.150   4.800   3.806
10571SOL     OW32611   7.005   4.357   5.867
10571SOL    HW132612   0.029   4.338   5.952
10571SOL    HW232613   0.044   4.400   5.802
10572SOL     OW32614   6.177   4.645   0.762
10572SOL    HW132615   6.273   4.625   0.742
10572SOL    HW232616   6.146   4.585   0.836
10573SOL     OW32617   5.408   1.166   3.583
10573SOL    HW132618   5.488   1.112   3.554
10573SOL    HW232619   5.425   1.203   3.675
10574SOL     OW32620   6.690   1.992   3.617
10574SOL    HW132621   6.641   2.078   3.632
10574SOL    HW232622   6.773   2.009   3.564
10575SOL     OW32623   6.554   0.232   1.255
10575SOL    HW132624   6.592   0.283   1.332
10575SOL    HW232625   6.458   0.210   1.273
10576SOL     OW32626   1.934   4.769   4.034
10576SOL    HW132627   2.002   4.714   4.083
10576SOL    HW232628   1.911   4.724   3.948
10577SOL     OW32629   3.985   5.770   0.616
10577SOL    HW132630   3.969   5.869   0.616
10577SOL    HW232631   3.983   5.736   0.522
10578SOL     OW32632   6.767   3.532   4.232
10578SOL    HW132633   6.682   3.534   4.286
10578SOL    HW232634   6.748   3.562   4.139
10579SOL     OW32635   1.631   3.495   0.356
10579SOL    HW132636   1.584   3.469   0.272
10579SOL    HW232637   1.642   3.594   0.359
10580SOL     OW32638   6.867   6.760   6.685
10580SOL    HW132639   6.836   6.775   6.591
10580SOL    HW232640   6.834   6.835   6.743
10581SOL     OW32641   5.522   6.850   2.841
10581SOL    HW132642   5.452   6.842   2.771
10581SOL    HW232643   5.605   6.801   2.812
10582SOL     OW32644   5.616   4.510   6.299
10582SOL    HW132645   5.545   4.579   6.286
10582SOL    HW232646   5.582   4.421   6.270
10583SOL     OW32647   2.891   1.245   5.603
10583SOL    HW132648   2.870   1.328   5.653
10583SOL    HW232649   2.973   1.258   5.548
10584SOL     OW32650   0.800   0.135   5.149
10584SOL    HW132651   0.868   0.126   5.077
10584SOL    HW232652   0.845   0.162   5.234
10585SOL     OW32653   0.437   6.773   4.951
10585SOL    HW132654   0.458   6.770   4.853
10585SOL    HW232655   0.384   6.855   4.972
10586SOL     OW32656   4.091   4.387   5.369
10586SOL    HW132657   4.021   4.336   5.318
10586SOL    HW232658   4.142   4.446   5.307
10587SOL     OW32659   2.207   6.000   5.264
10587SOL    HW132660   2.297   5.959   5.247
10587SOL    HW232661   2.174   6.043   5.180
10588SOL     OW32662   1.043   4.031   4.570
10588SOL    HW132663   1.004   3.944   4.538
10588SOL    HW232664   1.140   4.035   4.544
10589SOL     OW32665   5.167   5.667   3.915
10589SOL    HW132666   5.071   5.645   3.899
10589SOL    HW232667   5.203   5.721   3.839
10590SOL     OW32668   0.730   5.463   2.802
10590SOL    HW132669   0.786   5.515   2.866
10590SOL    HW232670   0.645   5.514   2.784
10591SOL     OW32671   0.336   2.330   1.637
10591SOL    HW132672   0.309   2.325   1.733
10591SOL    HW232673   0.263   2.294   1.579
10592SOL     OW32674   6.127   2.441   5.100
10592SOL    HW132675   6.179   2.506   5.045
10592SOL    HW232676   6.150   2.452   5.196
10593SOL     OW32677   3.535   5.682   2.891
10593SOL    HW132678   3.570   5.702   2.800
10593SOL    HW232679   3.546   5.584   2.910
10594SOL     OW32680   2.849   0.057   3.707
10594SOL    HW132681   2.750   0.047   3.712
10594SOL    HW232682   2.893   6.997   3.741
10595SOL     OW32683   6.211   6.606   0.474
10595SOL    HW132684   6.149   6.527   0.476
10595SOL    HW232685   6.209   6.652   0.562
10596SOL     OW32686   5.250   2.699   6.860
10596SOL    HW132687   5.244   2.617   6.917
10596SOL    HW232688   5.191   2.687   6.779
10597SOL     OW32689   2.190   0.776   6.167
10597SOL    HW132690   2.197   0.689   6.215
10597SOL    HW232691   2.136   0.764   6.084
10598SOL     OW32692   2.370   2.207   6.351
10598SOL    HW132693   2.358   2.111   6.376
10598SOL    HW232694   2.294   2.260   6.389
10599SOL     OW32695   6.413   2.809   6.527
10599SOL    HW132696   6.394   2.833   6.622
10599SOL    HW232697   6.503   2.844   6.501
10600SOL     OW32698   2.680   1.762   0.842
10600SOL    HW132699   2.721   1.842   0.798
10600SOL    HW232700   2.678   1.776   0.941
10601SOL     OW32701   0.756   6.508   5.841
10601SOL    HW132702   0.734   6.596   5.881
10601SOL    HW232703   0.849   6.482   5.866
10602SOL     OW32704   0.171   0.590   0.963
10602SOL    HW132705   0.200   0.537   0.883
10602SOL    HW232706   0.200   0.543   1.047
10603SOL     OW32707   4.910   6.779   2.169
10603SOL    HW132708   4.893   6.681   2.176
10603SOL    HW232709   4.824   6.829   2.176
10604SOL     OW32710   5.860   6.959   4.447
10604SOL    HW132711   5.917   6.893   4.398
10604SOL    HW232712   5.815   7.020   4.382
10605SOL     OW32713   2.063   2.243   1.428
10605SOL    HW132714   2.146   2.298   1.428
10605SOL    HW232715   2.021   2.244   1.519
10606SOL     OW32716   6.107   0.378   0.923
10606SOL    HW132717   6.184   0.317   0.904
10606SOL    HW232718   6.142   0.471   0.938
10607SOL     OW32719   3.698   4.210   6.678
10607SOL    HW132720   3.620   4.156   6.711
10607SOL    HW232721   3.757   4.152   6.621
10608SOL     OW32722   5.665   3.397   3.209
10608SOL    HW132723   5.756   3.357   3.193
10608SOL    HW232724   5.631   3.437   3.124
10609SOL     OW32725   4.379   1.689   6.783
10609SOL    HW132726   4.320   1.620   6.825
10609SOL    HW232727   4.352   1.780   6.816
10610SOL     OW32728   0.598   0.489   3.942
10610SOL    HW132729   0.682   0.516   3.988
10610SOL    HW232730   0.519   0.515   3.998
10611SOL     OW32731   3.290   5.437   4.695
10611SOL    HW132732   3.331   5.450   4.786
10611SOL    HW232733   3.191   5.451   4.701
10612SOL     OW32734   5.462   1.458   3.531
10612SOL    HW132735   5.557   1.472   3.503
10612SOL    HW232736   5.436   1.363   3.511
10613SOL     OW32737   5.433   0.495   4.507
10613SOL    HW132738   5.427   0.550   4.423
10613SOL    HW232739   5.476   0.549   4.579
10614SOL     OW32740   4.425   0.741   6.251
10614SOL    HW132741   4.369   0.659   6.265
10614SOL    HW232742   4.521   0.714   6.242
10615SOL     OW32743   1.372   1.672   6.377
10615SOL    HW132744   1.399   1.630   6.290
10615SOL    HW232745   1.382   1.771   6.371
10616SOL     OW32746   2.795   6.700   6.976
10616SOL    HW132747   2.766   6.605   6.984
10616SOL    HW232748   2.756   6.740   6.893
10617SOL     OW32749   2.523   3.386   1.706
10617SOL    HW132750   2.447   3.422   1.760
10617SOL    HW232751   2.549   3.295   1.740
10618SOL     OW32752   0.738   4.980   4.817
10618SOL    HW132753   0.680   4.968   4.737
10618SOL    HW232754   0.758   4.890   4.857
10619SOL     OW32755   1.307   2.394   3.188
10619SOL    HW132756   1.238   2.334   3.228
10619SOL    HW232757   1.277   2.424   3.097
10620SOL     OW32758   2.761   1.016   6.542
10620SOL    HW132759   2.732   0.980   6.630
10620SOL    HW232760   2.809   0.945   6.490
10621SOL     OW32761   0.577   3.431   3.386
10621SOL    HW132762   0.510   3.357   3.382
10621SOL    HW232763   0.669   3.392   3.383
10622SOL     OW32764   4.843   2.819   0.305
10622SOL    HW132765   4.761   2.859   0.265
10622SOL    HW232766   4.906   2.792   0.232
10623SOL     OW32767   5.315   5.963   6.244
10623SOL    HW132768   5.332   5.963   6.145
10623SOL    HW232769   5.342   5.875   6.282
10624SOL     OW32770   0.324   2.735   5.466
10624SOL    HW132771   0.379   2.813   5.437
10624SOL    HW232772   0.253   2.716   5.398
10625SOL     OW32773   6.221   4.610   6.625
10625SOL    HW132774   6.250   4.675   6.554
10625SOL    HW232775   6.121   4.603   6.625
10626SOL     OW32776   4.967   3.423   1.200
10626SOL    HW132777   5.044   3.390   1.254
10626SOL    HW232778   4.997   3.442   1.106
10627SOL     OW32779   5.915   5.920   5.781
10627SOL    HW132780   5.822   5.890   5.761
10627SOL    HW232781   5.953   5.865   5.855
10628SOL     OW32782   4.150   6.875   1.399
10628SOL    HW132783   4.145   6.785   1.442
10628SOL    HW232784   4.238   6.917   1.418
10629SOL     OW32785   2.643   5.543   4.128
10629SOL    HW132786   2.569   5.481   4.100
10629SOL    HW232787   2.718   5.489   4.167
10630SOL     OW32788   3.960   0.573   2.327
10630SOL    HW132789   3.875   0.547   2.372
10630SOL    HW232790   3.940   0.625   2.244
10631SOL     OW32791   4.274   6.185   6.605
10631SOL    HW132792   4.368   6.152   6.602
10631SOL    HW232793   4.258   6.231   6.693
10632SOL     OW32794   4.019   5.986   3.522
10632SOL    HW132795   4.101   5.994   3.465
10632SOL    HW232796   3.962   6.068   3.510
10633SOL     OW32797   1.788   2.990   1.799
10633SOL    HW132798   1.764   3.057   1.870
10633SOL    HW232799   1.732   3.008   1.717
10634SOL     OW32800   6.971   3.884   6.744
10634SOL    HW132801   6.926   3.804   6.783
10634SOL    HW232802   6.942   3.895   6.648
10635SOL     OW32803   2.437   4.067   6.158
10635SOL    HW132804   2.418   4.129   6.082
10635SOL    HW232805   2.530   4.031   6.149
10636SOL     OW32806   6.544   2.158   6.211
10636SOL    HW132807   6.624   2.099   6.222
10636SOL    HW232808   6.534   2.216   6.292
10637SOL     OW32809   2.902   0.503   6.933
10637SOL    HW132810   2.886   0.414   6.891
10637SOL    HW232811   2.854   0.507   7.021
10638SOL     OW32812   6.992   5.374   1.713
10638SOL    HW132813   6.918   5.308   1.727
10638SOL    HW232814   0.004   5.403   1.802
10639SOL     OW32815   2.040   4.679   0.989
10639SOL    HW132816   2.045   4.777   1.011
10639SOL    HW232817   1.961   4.662   0.931
10640SOL     OW32818   3.959   6.873   3.484
10640SOL    HW132819   3.984   6.799   3.421
10640SOL    HW232820   3.861   6.890   3.478
10641SOL     OW32821   1.655   0.709   3.217
10641SOL    HW132822   1.615   0.745   3.133
10641SOL    HW232823   1.583   0.693   3.284
10642SOL     OW32824   5.463   2.349   6.665
10642SOL    HW132825   5.554   2.323   6.633
10642SOL    HW232826   5.403   2.364   6.586
10643SOL     OW32827   1.515   5.130   5.752
10643SOL    HW132828   1.596   5.072   5.763
10643SOL    HW232829   1.439   5.074   5.718
10644SOL     OW32830   0.339   2.476   3.149
10644SOL    HW132831   0.423   2.438   3.110
10644SOL    HW232832   0.260   2.426   3.113
10645SOL     OW32833   2.613   2.487   3.636
10645SOL    HW132834   2.535   2.537   3.600
10645SOL    HW232835   2.652   2.537   3.713
10646SOL     OW32836   5.178   0.879   4.261
10646SOL    HW132837   5.182   0.932   4.346
10646SOL    HW232838   5.114   0.803   4.272
10647SOL     OW32839   3.925   4.944   4.659
10647SOL    HW132840   4.021   4.918   4.667
10647SOL    HW232841   3.889   4.911   4.572
10648SOL     OW32842   5.190   5.728   5.293
10648SOL    HW132843   5.155   5.700   5.383
10648SOL    HW232844   5.117   5.719   5.225
10649SOL     OW32845   6.901   3.611   2.738
10649SOL    HW132846   6.831   3.681   2.724
10649SOL    HW232847   6.922   3.604   2.835
10650SOL     OW32848   0.439   0.610   4.330
10650SOL    HW132849   0.408   0.592   4.237
10650SOL    HW232850   0.375   0.673   4.375
10651SOL     OW32851   3.352   6.065   6.001
10651SOL    HW132852   3.350   5.968   5.974
10651SOL    HW232853   3.260   6.094   6.026
10652SOL     OW32854   2.018   6.851   7.002
10652SOL    HW132855   2.088   6.923   7.006
10652SOL    HW232856   1.932   6.890   6.970
10653SOL     OW32857   4.250   6.403   4.651
10653SOL    HW132858   4.239   6.501   4.666
10653SOL    HW232859   4.330   6.369   4.701
10654SOL     OW32860   5.974   2.104   4.386
10654SOL    HW132861   5.949   2.179   4.325
10654SOL    HW232862   5.942   2.125   4.479
10655SOL     OW32863   0.931   4.591   1.281
10655SOL    HW132864   0.869   4.610   1.357
10655SOL    HW232865   0.929   4.666   1.216
10656SOL     OW32866   6.291   0.893   2.004
10656SOL    HW132867   6.226   0.873   2.077
10656SOL    HW232868   6.377   0.846   2.022
10657SOL     OW32869   6.048   0.522   3.453
10657SOL    HW132870   6.115   0.523   3.527
10657SOL    HW232871   5.997   0.436   3.455
10658SOL     OW32872   7.004   3.275   5.240
10658SOL    HW132873   0.058   3.278   5.301
10658SOL    HW232874   0.003   3.319   5.153
10659SOL     OW32875   1.260   5.206   0.834
10659SOL    HW132876   1.238   5.209   0.737
10659SOL    HW232877   1.186   5.161   0.884
10660SOL     OW32878   6.575   3.627   5.724
10660SOL    HW132879   6.515   3.586   5.793
10660SOL    HW232880   6.529   3.625   5.635
10661SOL     OW32881   2.030   3.893   6.293
10661SOL    HW132882   1.941   3.913   6.334
10661SOL    HW232883   2.097   3.960   6.325
10662SOL     OW32884   2.744   1.353   2.898
10662SOL    HW132885   2.645   1.340   2.898
10662SOL    HW232886   2.766   1.438   2.946
10663SOL     OW32887   1.823   1.703   4.209
10663SOL    HW132888   1.861   1.664   4.293
10663SOL    HW232889   1.881   1.778   4.178
10664SOL     OW32890   1.203   5.397   4.669
10664SOL    HW132891   1.127   5.452   4.702
10664SOL    HW232892   1.287   5.451   4.671
10665SOL     OW32893   2.335   2.571   6.245
10665SOL    HW132894   2.305   2.515   6.323
10665SOL    HW232895   2.327   2.518   6.161
10666SOL     OW32896   3.795   3.723   2.200
10666SOL    HW132897   3.768   3.790   2.131
10666SOL    HW232898   3.811   3.769   2.287
10667SOL     OW32899   5.666   2.388   3.100
10667SOL    HW132900   5.567   2.374   3.106
10667SOL    HW232901   5.711   2.337   3.174
10668SOL     OW32902   3.486   2.226   5.267
10668SOL    HW132903   3.463   2.194   5.359
10668SOL    HW232904   3.416   2.289   5.235
10669SOL     OW32905   5.265   1.416   0.935
10669SOL    HW132906   5.199   1.404   0.861
10669SOL    HW232907   5.320   1.497   0.918
10670SOL     OW32908   5.130   3.774   4.353
10670SOL    HW132909   5.214   3.738   4.312
10670SOL    HW232910   5.065   3.699   4.368
10671SOL     OW32911   1.539   1.834   4.253
10671SOL    HW132912   1.618   1.889   4.226
10671SOL    HW232913   1.569   1.760   4.313
10672SOL     OW32914   5.298   3.687   1.684
10672SOL    HW132915   5.267   3.675   1.778
10672SOL    HW232916   5.354   3.770   1.677
10673SOL     OW32917   1.959   1.165   1.102
10673SOL    HW132918   2.017   1.200   1.029
10673SOL    HW232919   1.867   1.147   1.065
10674SOL     OW32920   3.564   3.645   4.916
10674SOL    HW132921   3.507   3.725   4.937
10674SOL    HW232922   3.649   3.675   4.874
10675SOL     OW32923   3.523   6.898   5.693
10675SOL    HW132924   3.553   6.979   5.641
10675SOL    HW232925   3.604   6.850   5.727
10676SOL     OW32926   1.616   6.183   5.458
10676SOL    HW132927   1.695   6.231   5.496
10676SOL    HW232928   1.647   6.103   5.406
10677SOL     OW32929   0.929   1.859   0.839
10677SOL    HW132930   0.829   1.866   0.832
10677SOL    HW232931   0.958   1.768   0.812
10678SOL     OW32932   4.226   5.518   4.078
10678SOL    HW132933   4.304   5.566   4.117
10678SOL    HW232934   4.236   5.514   3.978
10679SOL     OW32935   4.040   4.007   6.778
10679SOL    HW132936   4.139   4.023   6.778
10679SOL    HW232937   4.021   3.916   6.740
10680SOL     OW32938   3.817   1.657   4.265
10680SOL    HW132939   3.760   1.599   4.324
10680SOL    HW232940   3.762   1.693   4.190
10681SOL     OW32941   6.761   2.757   6.807
10681SOL    HW132942   6.827   2.827   6.779
10681SOL    HW232943   6.810   2.674   6.836
10682SOL     OW32944   6.020   3.312   5.722
10682SOL    HW132945   5.964   3.254   5.663
10682SOL    HW232946   6.116   3.283   5.715
10683SOL     OW32947   3.969   0.718   3.565
10683SOL    HW132948   3.969   0.667   3.650
10683SOL    HW232949   3.940   0.813   3.582
10684SOL     OW32950   4.662   4.627   1.247
10684SOL    HW132951   4.624   4.562   1.313
10684SOL    HW232952   4.590   4.689   1.216
10685SOL     OW32953   1.010   5.475   1.792
10685SOL    HW132954   0.938   5.425   1.840
10685SOL    HW232955   1.040   5.421   1.713
10686SOL     OW32956   2.064   3.874   0.339
10686SOL    HW132957   1.995   3.864   0.410
10686SOL    HW232958   2.150   3.905   0.380
10687SOL     OW32959   6.907   5.000   2.687
10687SOL    HW132960   6.958   4.914   2.688
10687SOL    HW232961   6.830   4.994   2.751
10688SOL     OW32962   5.571   1.661   2.588
10688SOL    HW132963   5.598   1.602   2.513
10688SOL    HW232964   5.573   1.757   2.557
10689SOL     OW32965   6.898   6.983   2.347
10689SOL    HW132966   6.910   7.011   2.442
10689SOL    HW232967   6.942   0.026   2.287
10690SOL     OW32968   6.576   5.995   3.491
10690SOL    HW132969   6.487   5.950   3.483
10690SOL    HW232970   6.583   6.070   3.425
10691SOL     OW32971   3.311   1.787   2.267
10691SOL    HW132972   3.258   1.703   2.257
10691SOL    HW232973   3.289   1.830   2.354
10692SOL     OW32974   2.616   1.006   5.183
10692SOL    HW132975   2.685   1.069   5.219
10692SOL    HW232976   2.561   0.971   5.259
10693SOL     OW32977   1.414   6.134   1.069
10693SOL    HW132978   1.420   6.166   0.974
10693SOL    HW232979   1.321   6.099   1.086
10694SOL     OW32980   4.767   6.092   5.954
10694SOL    HW132981   4.671   6.094   5.926
10694SOL    HW232982   4.795   5.998   5.970
10695SOL     OW32983   0.719   3.144   1.465
10695SOL    HW132984   0.783   3.073   1.436
10695SOL    HW232985   0.714   3.144   1.565
10696SOL     OW32986   6.326   4.718   4.497
10696SOL    HW132987   6.259   4.788   4.475
10696SOL    HW232988   6.358   4.675   4.413
10697SOL     OW32989   0.940   5.899   4.928
10697SOL    HW132990   0.995   5.818   4.951
10697SOL    HW232991   1.001   5.976   4.912
10698SOL     OW32992   4.812   4.391   6.783
10698SOL    HW132993   4.843   4.301   6.814
10698SOL    HW232994   4.820   4.456   6.858
10699SOL     OW32995   3.396   4.325   0.916
10699SOL    HW132996   3.461   4.348   0.989
10699SOL    HW232997   3.414   4.232   0.884
10700SOL     OW32998   5.475   6.731   0.528
10700SOL    HW132999   5.473   6.653   0.466
10700SOL    HW233000   5.560   6.782   0.515
10701SOL     OW33001   2.712   0.039   6.121
10701SOL    HW133002   2.766   0.117   6.151
10701SOL    HW233003   2.624   0.071   6.086
10702SOL     OW33004   4.968   3.466   2.696
10702SOL    HW133005   5.058   3.484   2.735
10702SOL    HW233006   4.931   3.381   2.734
10703SOL     OW33007   2.208   2.229   5.804
10703SOL    HW133008   2.169   2.321   5.812
10703SOL    HW233009   2.201   2.183   5.893
10704SOL     OW33010   0.334   5.584   2.537
10704SOL    HW133011   0.244   5.542   2.548
10704SOL    HW233012   0.404   5.518   2.563
10705SOL     OW33013   5.605   5.163   0.857
10705SOL    HW133014   5.563   5.102   0.924
10705SOL    HW233015   5.542   5.239   0.838
10706SOL     OW33016   4.675   0.323   2.141
10706SOL    HW133017   4.756   0.270   2.166
10706SOL    HW233018   4.625   0.276   2.068
10707SOL     OW33019   6.234   0.087   4.798
10707SOL    HW133020   6.155   0.091   4.737
10707SOL    HW233021   6.245   7.018   4.833
10708SOL     OW33022   4.824   1.860   2.465
10708SOL    HW133023   4.737   1.908   2.451
10708SOL    HW233024   4.831   1.831   2.561
10709SOL     OW33025   5.536   5.759   3.789
10709SOL    HW133026   5.602   5.763   3.714
10709SOL    HW233027   5.443   5.752   3.753
10710SOL     OW33028   5.242   0.731   3.127
10710SOL    HW133029   5.280   0.785   3.051
10710SOL    HW233030   5.148   0.707   3.106
10711SOL     OW33031   3.159   6.404   3.546
10711SOL    HW133032   3.111   6.335   3.492
10711SOL    HW233033   3.106   6.488   3.548
10712SOL     OW33034   4.161   0.642   2.523
10712SOL    HW133035   4.083   0.619   2.465
10712SOL    HW233036   4.245   0.641   2.468
10713SOL     OW33037   1.428   3.039   0.512
10713SOL    HW133038   1.386   3.005   0.427
10713SOL    HW233039   1.521   3.072   0.492
10714SOL     OW33040   4.268   3.232   5.367
10714SOL    HW133041   4.179   3.256   5.406
10714SOL    HW233042   4.303   3.151   5.414
10715SOL     OW33043   5.049   0.561   2.278
10715SOL    HW133044   5.108   0.586   2.355
10715SOL    HW233045   4.968   0.514   2.313
10716SOL     OW33046   6.511   2.225   3.661
10716SOL    HW133047   6.475   2.274   3.740
10716SOL    HW233048   6.578   2.282   3.614
10717SOL     OW33049   1.849   2.670   0.361
10717SOL    HW133050   1.847   2.744   0.428
10717SOL    HW233051   1.882   2.706   0.273
10718SOL     OW33052   1.030   4.573   6.565
10718SOL    HW133053   1.076   4.652   6.605
10718SOL    HW233054   0.951   4.549   6.622
10719SOL     OW33055   6.330   5.879   3.439
10719SOL    HW133056   6.306   5.787   3.468
10719SOL    HW233057   6.254   5.919   3.387
10720SOL     OW33058   5.553   5.280   4.321
10720SOL    HW133059   5.556   5.380   4.319
10720SOL    HW233060   5.549   5.248   4.415
10721SOL     OW33061   4.925   3.917   5.480
10721SOL    HW133062   4.939   3.898   5.383
10721SOL    HW233063   4.986   3.991   5.508
10722SOL     OW33064   6.119   3.590   6.879
10722SOL    HW133065   6.036   3.574   6.932
10722SOL    HW233066   6.102   3.571   6.783
10723SOL     OW33067   0.228   1.746   6.799
10723SOL    HW133068   0.231   1.752   6.700
10723SOL    HW233069   0.202   1.835   6.837
10724SOL     OW33070   0.529   6.892   6.383
10724SOL    HW133071   0.570   6.942   6.459
10724SOL    HW233072   0.596   6.827   6.346
10725SOL     OW33073   2.098   5.650   5.308
10725SOL    HW133074   2.149   5.674   5.226
10725SOL    HW233075   2.146   5.576   5.356
10726SOL     OW33076   4.709   0.769   4.019
10726SOL    HW133077   4.786   0.734   4.072
10726SOL    HW233078   4.623   0.747   4.066
10727SOL     OW33079   0.724   4.781   6.141
10727SOL    HW133080   0.650   4.734   6.092
10727SOL    HW233081   0.811   4.737   6.119
10728SOL     OW33082   0.329   5.188   0.146
10728SOL    HW133083   0.251   5.249   0.158
10728SOL    HW233084   0.362   5.158   0.235
10729SOL     OW33085   6.281   2.049   1.875
10729SOL    HW133086   6.223   1.978   1.835
10729SOL    HW233087   6.230   2.095   1.948
10730SOL     OW33088   3.468   6.980   0.966
10730SOL    HW133089   3.482   7.012   0.872
10730SOL    HW233090   3.535   6.910   0.988
10731SOL     OW33091   3.773   0.818   1.246
10731SOL    HW133092   3.808   0.781   1.333
10731SOL    HW233093   3.794   0.915   1.240
10732SOL     OW33094   0.302   4.453   5.369
10732SOL    HW133095   0.387   4.461   5.317
10732SOL    HW233096   0.321   4.462   5.467
10733SOL     OW33097   5.977   1.005   6.621
10733SOL    HW133098   5.989   1.104   6.629
10733SOL    HW233099   5.884   0.985   6.591
10734SOL     OW33100   1.327   1.916   1.482
10734SOL    HW133101   1.399   1.960   1.428
10734SOL    HW233102   1.242   1.968   1.473
10735SOL     OW33103   0.439   2.675   2.474
10735SOL    HW133104   0.394   2.642   2.391
10735SOL    HW233105   0.371   2.690   2.546
10736SOL     OW33106   1.719   0.410   3.526
10736SOL    HW133107   1.759   0.407   3.434
10736SOL    HW233108   1.749   0.330   3.578
10737SOL     OW33109   0.817   1.963   1.232
10737SOL    HW133110   0.888   1.940   1.298
10737SOL    HW233111   0.743   1.896   1.236
10738SOL     OW33112   3.350   5.715   3.145
10738SOL    HW133113   3.378   5.720   3.049
10738SOL    HW233114   3.429   5.728   3.204
10739SOL     OW33115   1.637   2.391   1.567
10739SOL    HW133116   1.657   2.480   1.607
10739SOL    HW233117   1.538   2.374   1.571
10740SOL     OW33118   6.554   4.456   5.588
10740SOL    HW133119   6.620   4.519   5.629
10740SOL    HW233120   6.473   4.450   5.646
10741SOL     OW33121   4.170   1.529   1.394
10741SOL    HW133122   4.172   1.615   1.444
10741SOL    HW233123   4.124   1.543   1.306
10742SOL     OW33124   6.594   6.268   1.268
10742SOL    HW133125   6.564   6.294   1.360
10742SOL    HW233126   6.635   6.347   1.223
10743SOL     OW33127   1.855   1.561   4.897
10743SOL    HW133128   1.882   1.480   4.843
10743SOL    HW233129   1.755   1.568   4.899
10744SOL     OW33130   3.600   1.704   0.506
10744SOL    HW133131   3.597   1.703   0.406
10744SOL    HW233132   3.633   1.792   0.538
10745SOL     OW33133   0.172   5.356   5.385
10745SOL    HW133134   0.200   5.270   5.428
10745SOL    HW233135   0.153   5.340   5.288
10746SOL     OW33136   0.961   3.637   6.888
10746SOL    HW133137   0.900   3.692   6.945
10746SOL    HW233138   0.964   3.543   6.923
10747SOL     OW33139   2.855   0.852   5.175
10747SOL    HW133140   2.778   0.900   5.132
10747SOL    HW233141   2.939   0.903   5.158
10748SOL     OW33142   5.395   1.121   2.196
10748SOL    HW133143   5.403   1.075   2.107
10748SOL    HW233144   5.298   1.127   2.221
10749SOL     OW33145   0.894   6.105   5.301
10749SOL    HW133146   0.861   6.047   5.376
10749SOL    HW233147   0.827   6.103   5.226
10750SOL     OW33148   4.247   6.954   4.966
10750SOL    HW133149   4.207   6.870   4.931
10750SOL    HW233150   4.251   6.950   5.066
10751SOL     OW33151   1.867   4.607   4.534
10751SOL    HW133152   1.915   4.646   4.612
10751SOL    HW233153   1.888   4.510   4.527
10752SOL     OW33154   6.268   4.595   5.441
10752SOL    HW133155   6.211   4.593   5.359
10752SOL    HW233156   6.273   4.502   5.480
10753SOL     OW33157   0.162   4.149   3.858
10753SOL    HW133158   0.076   4.113   3.894
10753SOL    HW233159   0.233   4.143   3.929
10754SOL     OW33160   1.514   0.193   2.956
10754SOL    HW133161   1.525   0.292   2.965
10754SOL    HW233162   1.502   0.170   2.859
10755SOL     OW33163   6.846   6.981   1.543
10755SOL    HW133164   6.901   6.908   1.503
10755SOL    HW233165   6.905   0.034   1.566
10756SOL     OW33166   6.531   5.285   5.470
10756SOL    HW133167   6.492   5.342   5.542
10756SOL    HW233168   6.569   5.202   5.509
10757SOL     OW33169   2.753   2.882   6.502
10757SOL    HW133170   2.845   2.842   6.500
10757SOL    HW233171   2.701   2.851   6.422
10758SOL     OW33172   0.884   6.184   3.687
10758SOL    HW133173   0.835   6.096   3.690
10758SOL    HW233174   0.941   6.187   3.605
10759SOL     OW33175   1.665   3.147   0.457
10759SOL    HW133176   1.705   3.116   0.371
10759SOL    HW233177   1.723   3.218   0.497
10760SOL     OW33178   5.779   0.901   3.177
10760SOL    HW133179   5.837   0.832   3.134
10760SOL    HW233180   5.831   0.948   3.248
10761SOL     OW33181   1.492   5.487   5.265
10761SOL    HW133182   1.481   5.387   5.271
10761SOL    HW233183   1.465   5.518   5.175
10762SOL     OW33184   2.986   0.577   4.756
10762SOL    HW133185   3.056   0.528   4.703
10762SOL    HW233186   2.969   0.528   4.842
10763SOL     OW33187   4.382   0.386   2.904
10763SOL    HW133188   4.377   0.411   2.807
10763SOL    HW233189   4.368   0.287   2.913
10764SOL     OW33190   4.939   1.793   4.946
10764SOL    HW133191   5.009   1.730   4.912
10764SOL    HW233192   4.978   1.884   4.956
10765SOL     OW33193   5.245   2.759   1.173
10765SOL    HW133194   5.258   2.790   1.079
10765SOL    HW233195   5.205   2.833   1.227
10766SOL     OW33196   3.864   4.662   0.349
10766SOL    HW133197   3.929   4.680   0.275
10766SOL    HW233198   3.913   4.656   0.436
10767SOL     OW33199   2.468   0.652   0.754
10767SOL    HW133200   2.437   0.742   0.786
10767SOL    HW233201   2.391   0.603   0.713
10768SOL     OW33202   5.864   5.115   1.557
10768SOL    HW133203   5.875   5.016   1.568
10768SOL    HW233204   5.940   5.162   1.601
10769SOL     OW33205   1.836   3.564   5.711
10769SOL    HW133206   1.891   3.506   5.651
10769SOL    HW233207   1.740   3.559   5.684
10770SOL     OW33208   5.196   6.112   3.494
10770SOL    HW133209   5.118   6.108   3.431
10770SOL    HW233210   5.213   6.207   3.519
10771SOL     OW33211   4.288   0.255   3.871
10771SOL    HW133212   4.241   0.290   3.952
10771SOL    HW233213   4.369   0.203   3.899
10772SOL     OW33214   5.881   6.226   4.086
10772SOL    HW133215   5.806   6.278   4.127
10772SOL    HW233216   5.894   6.256   3.991
10773SOL     OW33217   5.853   4.582   5.955
10773SOL    HW133218   5.914   4.611   6.029
10773SOL    HW233219   5.905   4.526   5.890
10774SOL     OW33220   1.920   1.337   4.731
10774SOL    HW133221   1.851   1.270   4.759
10774SOL    HW233222   1.969   1.303   4.651
10775SOL     OW33223   0.084   4.435   2.012
10775SOL    HW133224   0.144   4.384   2.075
10775SOL    HW233225   0.129   4.520   1.986
10776SOL     OW33226   0.871   0.700   6.352
10776SOL    HW133227   0.849   0.713   6.449
10776SOL    HW233228   0.878   0.603   6.332
10777SOL     OW33229   3.963   5.172   0.911
10777SOL    HW133230   3.951   5.240   0.838
10777SOL    HW233231   3.970   5.081   0.870
10778SOL     OW33232   5.007   0.184   3.619
10778SOL    HW133233   4.964   0.155   3.704
10778SOL    HW233234   5.082   0.247   3.639
10779SOL     OW33235   5.762   2.891   2.775
10779SOL    HW133236   5.691   2.884   2.845
10779SOL    HW233237   5.768   2.986   2.743
10780SOL     OW33238   0.946   1.058   4.025
10780SOL    HW133239   0.865   1.084   4.076
10780SOL    HW233240   0.921   0.989   3.956
10781SOL     OW33241   3.970   1.188   3.650
10781SOL    HW133242   3.958   1.251   3.573
10781SOL    HW233243   3.994   1.241   3.732
10782SOL     OW33244   6.758   0.049   3.889
10782SOL    HW133245   6.838   0.044   3.829
10782SOL    HW233246   6.708   0.133   3.871
10783SOL     OW33247   7.009   2.981   2.742
10783SOL    HW133248   0.030   3.000   2.654
10783SOL    HW233249   6.999   3.065   2.794
10784SOL     OW33250   3.462   0.796   4.182
10784SOL    HW133251   3.413   0.794   4.269
10784SOL    HW233252   3.397   0.817   4.108
10785SOL     OW33253   1.113   3.685   0.508
10785SOL    HW133254   1.210   3.660   0.515
10785SOL    HW233255   1.099   3.744   0.429
10786SOL     OW33256   5.964   5.764   2.703
10786SOL    HW133257   5.880   5.813   2.685
10786SOL    HW233258   5.949   5.666   2.688
10787SOL     OW33259   0.565   0.276   5.112
10787SOL    HW133260   0.639   0.227   5.158
10787SOL    HW233261   0.595   0.370   5.093
10788SOL     OW33262   0.909   3.529   0.846
10788SOL    HW133263   0.932   3.532   0.749
10788SOL    HW233264   0.866   3.615   0.873
10789SOL     OW33265   6.168   3.115   0.072
10789SOL    HW133266   6.138   3.162   0.155
10789SOL    HW233267   6.267   3.125   0.061
10790SOL     OW33268   0.511   6.405   1.623
10790SOL    HW133269   0.607   6.431   1.622
10790SOL    HW233270   0.463   6.454   1.696
10791SOL     OW33271   6.817   6.290   2.180
10791SOL    HW133272   6.886   6.301   2.109
10791SOL    HW233273   6.773   6.378   2.197
10792SOL     OW33274   3.552   3.183   5.253
10792SOL    HW133275   3.502   3.105   5.290
10792SOL    HW233276   3.641   3.152   5.217
10793SOL     OW33277   6.025   3.504   5.519
10793SOL    HW133278   6.111   3.474   5.476
10793SOL    HW233279   6.009   3.450   5.602
10794SOL     OW33280   3.787   3.595   4.353
10794SOL    HW133281   3.792   3.684   4.399
10794SOL    HW233282   3.837   3.527   4.406
10795SOL     OW33283   0.303   5.154   3.157
10795SOL    HW133284   0.357   5.191   3.081
10795SOL    HW233285   0.361   5.147   3.238
10796SOL     OW33286   6.330   6.514   5.552
10796SOL    HW133287   6.358   6.426   5.514
10796SOL    HW233288   6.386   6.587   5.514
10797SOL     OW33289   3.789   2.907   0.759
10797SOL    HW133290   3.759   2.977   0.824
10797SOL    HW233291   3.748   2.819   0.784
10798SOL     OW33292   2.141   1.761   0.388
10798SOL    HW133293   2.231   1.742   0.426
10798SOL    HW233294   2.092   1.825   0.448
10799SOL     OW33295   4.365   0.429   2.582
10799SOL    HW133296   4.370   0.430   2.482
10799SOL    HW233297   4.302   0.357   2.611
10800SOL     OW33298   0.925   6.094   7.010
10800SOL    HW133299   0.967   6.169   6.959
10800SOL    HW233300   0.826   6.110   7.017
10801SOL     OW33301   1.488   6.966   0.773
10801SOL    HW133302   1.391   6.942   0.778
10801SOL    HW233303   1.520   6.997   0.862
10802SOL     OW33304   0.223   6.324   2.872
10802SOL    HW133305   0.266   6.357   2.956
10802SOL    HW233306   0.233   6.393   2.800
10803SOL     OW33307   1.691   6.019   6.145
10803SOL    HW133308   1.748   5.942   6.115
10803SOL    HW233309   1.623   5.987   6.210
10804SOL     OW33310   0.153   2.822   3.300
10804SOL    HW133311   0.134   2.839   3.397
10804SOL    HW233312   0.236   2.767   3.292
10805SOL     OW33313   5.945   1.418   4.915
10805SOL    HW133314   5.893   1.333   4.916
10805SOL    HW233315   6.016   1.413   4.844
10806SOL     OW33316   3.129   5.306   6.656
10806SOL    HW133317   3.054   5.243   6.634
10806SOL    HW233318   3.135   5.378   6.587
10807SOL     OW33319   1.499   5.460   4.311
10807SOL    HW133320   1.512   5.549   4.267
10807SOL    HW233321   1.401   5.445   4.327
10808SOL     OW33322   0.260   2.904   6.198
10808SOL    HW133323   0.311   2.857   6.126
10808SOL    HW233324   0.165   2.875   6.197
10809SOL     OW33325   1.639   3.957   4.229
10809SOL    HW133326   1.689   4.039   4.259
10809SOL    HW233327   1.615   3.901   4.308
10810SOL     OW33328   6.516   0.157   3.573
10810SOL    HW133329   6.469   0.080   3.530
10810SOL    HW233330   6.563   0.211   3.503
10811SOL     OW33331   4.836   5.199   4.693
10811SOL    HW133332   4.907   5.207   4.763
10811SOL    HW233333   4.868   5.140   4.620
10812SOL     OW33334   6.612   3.225   6.816
10812SOL    HW133335   6.530   3.275   6.791
10812SOL    HW233336   6.626   3.149   6.753
10813SOL     OW33337   0.250   3.659   6.508
10813SOL    HW133338   0.292   3.658   6.418
10813SOL    HW233339   0.317   3.691   6.576
10814SOL     OW33340   2.619   0.049   0.812
10814SOL    HW133341   2.591   0.140   0.783
10814SOL    HW233342   2.572   0.025   0.897
10815SOL     OW33343   5.383   1.648   3.211
10815SOL    HW133344   5.427   1.587   3.145
10815SOL    HW233345   5.286   1.626   3.216
10816SOL     OW33346   3.427   2.923   3.200
10816SOL    HW133347   3.457   2.909   3.295
10816SOL    HW233348   3.498   2.892   3.138
10817SOL     OW33349   3.271   0.654   3.395
10817SOL    HW133350   3.203   0.673   3.466
10817SOL    HW233351   3.353   0.616   3.437
10818SOL     OW33352   4.460   5.536   5.641
10818SOL    HW133353   4.436   5.618   5.590
10818SOL    HW233354   4.386   5.512   5.704
10819SOL     OW33355   6.242   5.336   6.178
10819SOL    HW133356   6.319   5.296   6.227
10819SOL    HW233357   6.227   5.430   6.209
10820SOL     OW33358   0.424   5.661   5.288
10820SOL    HW133359   0.428   5.669   5.388
10820SOL    HW233360   0.509   5.621   5.255
10821SOL     OW33361   4.658   5.199   2.847
10821SOL    HW133362   4.667   5.254   2.764
10821SOL    HW233363   4.707   5.243   2.922
10822SOL     OW33364   5.467   2.719   1.382
10822SOL    HW133365   5.424   2.786   1.322
10822SOL    HW233366   5.534   2.764   1.441
10823SOL     OW33367   0.378   0.098   2.968
10823SOL    HW133368   0.392   0.027   3.038
10823SOL    HW233369   0.286   0.135   2.977
10824SOL     OW33370   1.013   1.010   3.483
10824SOL    HW133371   1.049   1.097   3.517
10824SOL    HW233372   1.074   0.936   3.510
10825SOL     OW33373   1.356   2.421   0.969
10825SOL    HW133374   1.371   2.520   0.965
10825SOL    HW233375   1.365   2.382   0.878
10826SOL     OW33376   0.909   1.818   2.763
10826SOL    HW133377   0.881   1.722   2.768
10826SOL    HW233378   1.005   1.826   2.788
10827SOL     OW33379   6.607   3.665   4.988
10827SOL    HW133380   6.526   3.618   4.954
10827SOL    HW233381   6.605   3.669   5.088
10828SOL     OW33382   6.469   3.526   0.018
10828SOL    HW133383   6.541   3.518   0.087
10828SOL    HW233384   6.437   3.435   7.017
10829SOL     OW33385   4.407   3.341   6.788
10829SOL    HW133386   4.315   3.372   6.812
10829SOL    HW233387   4.433   3.378   6.699
10830SOL     OW33388   4.627   1.665   4.157
10830SOL    HW133389   4.625   1.565   4.153
10830SOL    HW233390   4.582   1.696   4.241
10831SOL     OW33391   3.805   0.641   2.119
10831SOL    HW133392   3.713   0.661   2.155
10831SOL    HW233393   3.824   0.701   2.042
10832SOL     OW33394   6.792   3.238   7.001
10832SOL    HW133395   6.879   3.204   6.964
10832SOL    HW233396   6.722   3.232   6.930
10833SOL     OW33397   0.189   2.013   0.984
10833SOL    HW133398   0.194   1.921   0.946
10833SOL    HW233399   0.095   2.047   0.978
10834SOL     OW33400   6.796   0.665   0.553
10834SOL    HW133401   6.734   0.680   0.631
10834SOL    HW233402   6.743   0.633   0.475
10835SOL     OW33403   5.406   3.009   0.381
10835SOL    HW133404   5.379   3.101   0.410
10835SOL    HW233405   5.342   2.975   0.312
10836SOL     OW33406   1.028   0.736   2.634
10836SOL    HW133407   1.029   0.649   2.683
10836SOL    HW233408   1.040   0.720   2.536
10837SOL     OW33409   6.156   4.716   1.926
10837SOL    HW133410   6.182   4.661   1.846
10837SOL    HW233411   6.057   4.711   1.940
10838SOL     OW33412   5.204   6.220   3.132
10838SOL    HW133413   5.147   6.288   3.086
10838SOL    HW233414   5.263   6.266   3.198
10839SOL     OW33415   4.624   3.228   0.121
10839SOL    HW133416   4.595   3.306   0.176
10839SOL    HW233417   4.643   3.258   0.028
10840SOL     OW33418   3.088   0.460   2.170
10840SOL    HW133419   3.089   0.497   2.077
10840SOL    HW233420   3.004   0.489   2.216
10841SOL     OW33421   0.015   5.246   4.522
10841SOL    HW133422   0.109   5.280   4.523
10841SOL    HW233423   0.008   5.168   4.460
10842SOL     OW33424   4.130   3.329   1.807
10842SOL    HW133425   4.135   3.236   1.844
10842SOL    HW233426   4.045   3.339   1.755
10843SOL     OW33427   2.202   1.949   1.060
10843SOL    HW133428   2.227   1.857   1.088
10843SOL    HW233429   2.124   1.981   1.115
10844SOL     OW33430   0.804   5.630   4.644
10844SOL    HW133431   0.758   5.639   4.733
10844SOL    HW233432   0.793   5.537   4.610
10845SOL     OW33433   4.648   6.034   4.979
10845SOL    HW133434   4.619   6.003   4.888
10845SOL    HW233435   4.601   5.981   5.049
10846SOL     OW33436   5.888   6.302   6.833
10846SOL    HW133437   5.969   6.249   6.808
10846SOL    HW233438   5.820   6.242   6.874
10847SOL     OW33439   1.975   1.715   6.947
10847SOL    HW133440   1.903   1.646   6.936
10847SOL    HW233441   2.058   1.684   6.899
10848SOL     OW33442   1.231   3.691   1.093
10848SOL    HW133443   1.220   3.758   1.020
10848SOL    HW233444   1.255   3.737   1.179
10849SOL     OW33445   2.535   4.611   4.152
10849SOL    HW133446   2.565   4.668   4.228
10849SOL    HW233447   2.527   4.516   4.183
10850SOL     OW33448   4.719   6.503   0.259
10850SOL    HW133449   4.687   6.586   0.304
10850SOL    HW233450   4.642   6.457   0.215
10851SOL     OW33451   3.014   4.150   1.756
10851SOL    HW133452   2.952   4.211   1.805
10851SOL    HW233453   2.961   4.079   1.709
10852SOL     OW33454   1.825   1.322   0.253
10852SOL    HW133455   1.782   1.310   0.164
10852SOL    HW233456   1.887   1.401   0.250
10853SOL     OW33457   2.297   2.860   6.265
10853SOL    HW133458   2.288   2.761   6.260
10853SOL    HW233459   2.300   2.898   6.172
10854SOL     OW33460   4.235   5.856   4.936
10854SOL    HW133461   4.216   5.816   4.847
10854SOL    HW233462   4.206   5.951   4.937
10855SOL     OW33463   3.635   1.456   0.604
10855SOL    HW133464   3.725   1.412   0.612
10855SOL    HW233465   3.645   1.544   0.558
10856SOL     OW33466   7.001   0.618   6.397
10856SOL    HW133467   0.043   0.545   6.377
10856SOL    HW233468   7.020   0.655   6.488
10857SOL     OW33469   0.067   1.632   2.590
10857SOL    HW133470   0.019   1.717   2.567
10857SOL    HW233471   0.158   1.654   2.626
10858SOL     OW33472   2.640   6.109   1.697
10858SOL    HW133473   2.586   6.102   1.781
10858SOL    HW233474   2.636   6.202   1.662
10859SOL     OW33475   0.196   4.797   4.383
10859SOL    HW133476   0.166   4.832   4.294
10859SOL    HW233477   0.128   4.818   4.452
10860SOL     OW33478   6.796   3.585   3.032
10860SOL    HW133479   6.726   3.655   3.037
10860SOL    HW233480   6.879   3.617   3.078
10861SOL     OW33481   3.047   3.253   3.641
10861SOL    HW133482   3.012   3.165   3.610
10861SOL    HW233483   3.144   3.260   3.620
10862SOL     OW33484   2.266   0.975   5.613
10862SOL    HW133485   2.289   1.051   5.552
10862SOL    HW233486   2.201   0.915   5.568
10863SOL     OW33487   2.315   6.744   4.611
10863SOL    HW133488   2.320   6.754   4.512
10863SOL    HW233489   2.226   6.773   4.644
10864SOL     OW33490   3.463   6.626   2.075
10864SOL    HW133491   3.537   6.693   2.065
10864SOL    HW233492   3.386   6.667   2.123
10865SOL     OW33493   6.084   0.736   6.735
10865SOL    HW133494   6.169   0.722   6.685
10865SOL    HW233495   6.045   0.825   6.712
10866SOL     OW33496   4.978   4.726   6.796
10866SOL    HW133497   4.980   4.664   6.717
10866SOL    HW233498   4.897   4.708   6.851
10867SOL     OW33499   3.016   4.720   0.957
10867SOL    HW133500   3.084   4.792   0.965
10867SOL    HW233501   2.937   4.741   1.016
10868SOL     OW33502   4.585   1.793   3.654
10868SOL    HW133503   4.543   1.866   3.600
10868SOL    HW233504   4.648   1.741   3.596
10869NA      NA33505   6.000   2.157   5.690
10870NA      NA33506   4.306   4.703   5.108
10871NA      NA33507   1.997   3.635   1.539
10872NA      NA33508   4.955   3.502   5.463
10873NA      NA33509   4.175   2.225   5.090
10874NA      NA33510   3.750   4.804   1.660
10875NA      NA33511   6.640   5.321   5.259
10876NA      NA33512   3.414   3.448   4.872
10877NA      NA33513   5.089   6.360   6.570
10878NA      NA33514   3.344   6.626   5.372
10879NA      NA33515   6.660   5.285   2.174
10880NA      NA33516   2.336   0.461   3.939
10881NA      NA33517   3.949   5.161   1.137
10882NA      NA33518   3.554   3.523   2.394
   7.02405   7.02405   7.02405
