Generated by trjconv : CNT in water t= 178.00000
33518
    1C        C    1   2.847   2.769   4.751
    1C        C    2   2.900   2.718   4.871
    1C        C    3   2.846   2.774   4.987
    1C        C    4   2.855   2.775   4.262
    1C        C    5   2.901   2.725   4.386
    1C        C    6   2.848   2.771   4.508
    1C        C    7   3.016   2.640   4.628
    1C        C    8   2.899   2.720   4.630
    1C        C    9   3.077   2.599   4.748
    1C        C   10   3.011   2.629   4.869
    1C        C   11   3.184   2.493   4.979
    1C        C   12   3.063   2.564   4.981
    1C        C   13   2.849   2.771   3.772
    1C        C   14   2.897   2.719   3.894
    1C        C   15   2.852   2.773   4.017
    1C        C   16   3.023   2.649   4.140
    1C        C   17   2.905   2.726   4.139
    1C        C   18   3.085   2.617   4.263
    1C        C   19   3.021   2.650   4.385
    1C        C   20   3.210   2.554   4.505
    1C        C   21   3.081   2.611   4.507
    1C        C   22   3.279   2.533   4.627
    1C        C   23   3.211   2.550   4.749
    1C        C   24   3.415   2.482   4.866
    1C        C   25   3.273   2.499   4.867
    1C        C   26   3.492   2.481   4.983
    1C        C   27   2.848   2.770   3.284
    1C        C   28   2.901   2.722   3.406
    1C        C   29   2.849   2.770   3.527
    1C        C   30   3.020   2.645   3.650
    1C        C   31   2.905   2.727   3.650
    1C        C   32   3.078   2.609   3.774
    1C        C   33   3.016   2.644   3.896
    1C        C   34   3.211   2.553   4.018
    1C        C   35   3.081   2.610   4.017
    1C        C   36   3.280   2.537   4.140
    1C        C   37   3.215   2.563   4.263
    1C        C   38   3.420   2.507   4.383
    1C        C   39   3.282   2.537   4.385
    1C        C   40   3.490   2.496   4.506
    1C        C   41   3.417   2.500   4.627
    1C        C   42   3.632   2.480   4.748
    1C        C   43   3.490   2.479   4.745
    1C        C   44   3.708   2.486   4.867
    1C        C   45   3.631   2.475   4.983
    1C        C   46   2.839   2.752   2.794
    1C        C   47   2.894   2.712   2.918
    1C        C   48   2.844   2.765   3.039
    1C        C   49   3.018   2.645   3.162
    1C        C   50   2.901   2.723   3.161
    1C        C   51   3.081   2.610   3.284
    1C        C   52   3.019   2.643   3.407
    1C        C   53   3.207   2.546   3.529
    1C        C   54   3.079   2.604   3.529
    1C        C   55   3.275   2.528   3.651
    1C        C   56   3.207   2.550   3.773
    1C        C   57   3.416   2.511   3.893
    1C        C   58   3.277   2.535   3.894
    1C        C   59   3.486   2.501   4.016
    1C        C   60   3.418   2.506   4.139
    1C        C   61   3.630   2.497   4.261
    1C        C   62   3.488   2.493   4.261
    1C        C   63   3.702   2.506   4.382
    1C        C   64   3.631   2.501   4.504
    1C        C   65   3.837   2.542   4.622
    1C        C   66   3.701   2.503   4.627
    1C        C   67   3.906   2.564   4.743
    1C        C   68   3.841   2.534   4.865
    1C        C   69   4.055   2.581   4.976
    1C        C   70   3.925   2.528   4.977
    1C        C   71   2.824   2.736   2.307
    1C        C   72   2.884   2.696   2.429
    1C        C   73   2.833   2.748   2.549
    1C        C   74   3.006   2.626   2.674
    1C        C   75   2.888   2.702   2.671
    1C        C   76   3.071   2.594   2.795
    1C        C   77   3.013   2.636   2.917
    1C        C   78   3.207   2.551   3.038
    1C        C   79   3.076   2.606   3.039
    1C        C   80   3.278   2.536   3.159
    1C        C   81   3.213   2.560   3.282
    1C        C   82   3.413   2.504   3.403
    1C        C   83   3.274   2.527   3.405
    1C        C   84   3.483   2.498   3.526
    1C        C   85   3.415   2.507   3.650
    1C        C   86   3.629   2.506   3.772
    1C        C   87   3.487   2.506   3.771
    1C        C   88   3.698   2.509   3.895
    1C        C   89   3.627   2.506   4.018
    1C        C   90   3.836   2.550   4.137
    1C        C   91   3.699   2.513   4.139
    1C        C   92   3.907   2.569   4.257
    1C        C   93   3.838   2.542   4.378
    1C        C   94   4.028   2.634   4.499
    1C        C   95   3.903   2.568   4.500
    1C        C   96   4.093   2.671   4.620
    1C        C   97   4.032   2.629   4.740
    1C        C   98   4.191   2.766   4.865
    1C        C   99   4.099   2.657   4.863
    1C        C  100   4.224   2.838   4.981
    1C        C  101   2.824   2.735   2.072
    1C        C  102   2.992   2.592   2.195
    1C        C  103   2.879   2.680   2.189
    1C        C  104   3.066   2.575   2.315
    1C        C  105   3.001   2.617   2.434
    1C        C  106   3.203   2.539   2.552
    1C        C  107   3.071   2.590   2.553
    1C        C  108   3.273   2.524   2.674
    1C        C  109   3.204   2.546   2.796
    1C        C  110   3.412   2.496   2.917
    1C        C  111   3.274   2.526   2.917
    1C        C  112   3.486   2.502   3.037
    1C        C  113   3.417   2.510   3.161
    1C        C  114   3.628   2.504   3.282
    1C        C  115   3.487   2.499   3.283
    1C        C  116   3.695   2.510   3.406
    1C        C  117   3.624   2.499   3.528
    1C        C  118   3.835   2.541   3.648
    1C        C  119   3.696   2.512   3.648
    1C        C  120   3.901   2.569   3.770
    1C        C  121   3.834   2.547   3.892
    1C        C  122   4.027   2.637   4.012
    1C        C  123   3.900   2.575   4.014
    1C        C  124   4.091   2.670   4.134
    1C        C  125   4.033   2.632   4.257
    1C        C  126   4.201   2.762   4.377
    1C        C  127   4.092   2.672   4.379
    1C        C  128   4.245   2.820   4.498
    1C        C  129   4.197   2.766   4.620
    1C        C  130   4.325   2.934   4.740
    1C        C  131   4.241   2.819   4.743
    1C        C  132   4.355   3.004   4.859
    1C        C  133   4.288   2.961   4.974
    1C        C  134   3.173   2.471   2.080
    1C        C  135   3.039   2.511   2.087
    1C        C  136   3.260   2.485   2.189
    1C        C  137   3.198   2.524   2.310
    1C        C  138   3.408   2.484   2.429
    1C        C  139   3.268   2.506   2.431
    1C        C  140   3.482   2.491   2.549
    1C        C  141   3.413   2.506   2.672
    1C        C  142   3.623   2.493   2.792
    1C        C  143   3.481   2.492   2.794
    1C        C  144   3.694   2.503   2.913
    1C        C  145   3.627   2.501   3.038
    1C        C  146   3.837   2.537   3.159
    1C        C  147   3.699   2.508   3.159
    1C        C  148   3.902   2.558   3.282
    1C        C  149   3.834   2.536   3.404
    1C        C  150   4.028   2.625   3.524
    1C        C  151   3.902   2.561   3.525
    1C        C  152   4.089   2.665   3.645
    1C        C  153   4.026   2.635   3.768
    1C        C  154   4.197   2.763   3.889
    1C        C  155   4.084   2.677   3.889
    1C        C  156   4.249   2.812   4.011
    1C        C  157   4.197   2.764   4.133
    1C        C  158   4.339   2.922   4.256
    1C        C  159   4.249   2.813   4.255
    1C        C  160   4.373   2.986   4.377
    1C        C  161   4.331   2.932   4.501
    1C        C  162   4.438   3.119   4.619
    1C        C  163   4.368   2.996   4.621
    1C        C  164   4.464   3.189   4.739
    1C        C  165   4.431   3.123   4.858
    1C        C  166   4.515   3.324   4.973
    1C        C  167   4.484   3.188   4.971
    1C        C  168   3.476   2.443   2.075
    1C        C  169   3.399   2.458   2.191
    1C        C  170   3.620   2.473   2.306
    1C        C  171   3.478   2.466   2.308
    1C        C  172   3.692   2.494   2.425
    1C        C  173   3.623   2.492   2.548
    1C        C  174   3.830   2.536   2.667
    1C        C  175   3.694   2.500   2.670
    1C        C  176   3.900   2.555   2.789
    1C        C  177   3.831   2.536   2.911
    1C        C  178   4.025   2.621   3.033
    1C        C  179   3.900   2.556   3.033
    1C        C  180   4.087   2.659   3.155
    1C        C  181   4.028   2.624   3.278
    1C        C  182   4.193   2.755   3.398
    1C        C  183   4.086   2.662   3.401
    1C        C  184   4.243   2.807   3.520
    1C        C  185   4.197   2.756   3.644
    1C        C  186   4.337   2.917   3.765
    1C        C  187   4.251   2.805   3.765
    1C        C  188   4.377   2.978   3.886
    1C        C  189   4.338   2.922   4.009
    1C        C  190   4.440   3.105   4.131
    1C        C  191   4.376   2.979   4.132
    1C        C  192   4.468   3.173   4.252
    1C        C  193   4.439   3.111   4.375
    1C        C  194   4.507   3.316   4.492
    1C        C  195   4.462   3.182   4.495
    1C        C  196   4.520   3.390   4.612
    1C        C  197   4.509   3.324   4.736
    1C        C  198   4.556   3.537   4.851
    1C        C  199   4.543   3.394   4.855
    1C        C  200   4.585   3.622   4.963
    1C        C  201   3.615   2.425   2.071
    1C        C  202   3.830   2.506   2.185
    1C        C  203   3.693   2.466   2.184
    1C        C  204   3.901   2.542   2.303
    1C        C  205   3.830   2.524   2.424
    1C        C  206   4.025   2.616   2.546
    1C        C  207   3.895   2.560   2.544
    1C        C  208   4.086   2.656   2.666
    1C        C  209   4.024   2.621   2.788
    1C        C  210   4.191   2.751   2.907
    1C        C  211   4.085   2.658   2.911
    1C        C  212   4.247   2.797   3.029
    1C        C  213   4.198   2.746   3.151
    1C        C  214   4.328   2.912   3.272
    1C        C  215   4.240   2.802   3.274
    1C        C  216   4.370   2.971   3.394
    1C        C  217   4.332   2.916   3.518
    1C        C  218   4.433   3.102   3.639
    1C        C  219   4.369   2.976   3.641
    1C        C  220   4.460   3.170   3.760
    1C        C  221   4.438   3.105   3.884
    1C        C  222   4.499   3.306   4.002
    1C        C  223   4.464   3.169   4.007
    1C        C  224   4.510   3.378   4.123
    1C        C  225   4.502   3.310   4.246
    1C        C  226   4.519   3.523   4.367
    1C        C  227   4.518   3.382   4.367
    1C        C  228   4.516   3.599   4.486
    1C        C  229   4.527   3.531   4.609
    1C        C  230   4.503   3.745   4.727
    1C        C  231   4.530   3.605   4.729
    1C        C  232   4.498   3.823   4.844
    1C        C  233   4.558   3.759   4.953
    1C        C  234   4.024   2.602   2.063
    1C        C  235   3.898   2.543   2.068
    1C        C  236   4.085   2.648   2.180
    1C        C  237   4.024   2.613   2.302
    1C        C  238   4.200   2.736   2.422
    1C        C  239   4.088   2.647   2.423
    1C        C  240   4.254   2.783   2.543
    1C        C  241   4.202   2.738   2.666
    1C        C  242   4.343   2.900   2.785
    1C        C  243   4.251   2.793   2.787
    1C        C  244   4.377   2.964   2.907
    1C        C  245   4.338   2.905   3.030
    1C        C  246   4.444   3.090   3.147
    1C        C  247   4.377   2.966   3.151
    1C        C  248   4.455   3.160   3.270
    1C        C  249   4.426   3.101   3.395
    1C        C  250   4.489   3.305   3.513
    1C        C  251   4.453   3.168   3.516
    1C        C  252   4.505   3.376   3.635
    1C        C  253   4.499   3.306   3.757
    1C        C  254   4.510   3.517   3.880
    1C        C  255   4.507   3.376   3.880
    1C        C  256   4.510   3.590   4.001
    1C        C  257   4.509   3.519   4.124
    1C        C  258   4.488   3.732   4.243
    1C        C  259   4.508   3.592   4.245
    1C        C  260   4.467   3.803   4.364
    1C        C  261   4.488   3.738   4.487
    1C        C  262   4.420   3.943   4.605
    1C        C  263   4.473   3.812   4.606
    1C        C  264   4.398   4.011   4.727
    1C        C  265   4.435   3.949   4.848
    1C        C  266   4.314   4.131   4.961
    1C        C  267   4.382   4.010   4.963
    1C        C  268   4.263   2.776   2.063
    1C        C  269   4.202   2.728   2.180
    1C        C  270   4.347   2.888   2.300
    1C        C  271   4.257   2.778   2.300
    1C        C  272   4.386   2.951   2.420
    1C        C  273   4.345   2.891   2.541
    1C        C  274   4.442   3.084   2.660
    1C        C  275   4.379   2.958   2.661
    1C        C  276   4.472   3.151   2.781
    1C        C  277   4.445   3.087   2.904
    1C        C  278   4.503   3.292   3.024
    1C        C  279   4.475   3.154   3.025
    1C        C  280   4.511   3.363   3.146
    1C        C  281   4.489   3.297   3.269
    1C        C  282   4.512   3.511   3.389
    1C        C  283   4.501   3.371   3.389
    1C        C  284   4.508   3.585   3.510
    1C        C  285   4.509   3.517   3.634
    1C        C  286   4.487   3.726   3.753
    1C        C  287   4.505   3.586   3.757
    1C        C  288   4.473   3.797   3.874
    1C        C  289   4.491   3.730   3.997
    1C        C  290   4.429   3.933   4.118
    1C        C  291   4.477   3.800   4.119
    1C        C  292   4.401   4.002   4.238
    1C        C  293   4.424   3.937   4.361
    1C        C  294   4.329   4.131   4.479
    1C        C  295   4.394   4.006   4.481
    1C        C  296   4.290   4.193   4.600
    1C        C  297   4.328   4.135   4.723
    1C        C  298   4.208   4.321   4.839
    1C        C  299   4.283   4.199   4.842
    1C        C  300   4.175   4.409   4.947
    1C        C  301   4.350   2.884   2.065
    1C        C  302   4.469   3.070   2.178
    1C        C  303   4.399   2.945   2.181
    1C        C  304   4.484   3.145   2.298
    1C        C  305   4.450   3.077   2.417
    1C        C  306   4.510   3.283   2.539
    1C        C  307   4.477   3.146   2.537
    1C        C  308   4.516   3.357   2.659
    1C        C  309   4.506   3.288   2.782
    1C        C  310   4.521   3.504   2.900
    1C        C  311   4.513   3.363   2.902
    1C        C  312   4.518   3.575   3.022
    1C        C  313   4.518   3.504   3.144
    1C        C  314   4.486   3.717   3.265
    1C        C  315   4.508   3.578   3.265
    1C        C  316   4.476   3.790   3.386
    1C        C  317   4.491   3.726   3.510
    1C        C  318   4.433   3.932   3.628
    1C        C  319   4.473   3.797   3.631
    1C        C  320   4.399   3.993   3.751
    1C        C  321   4.424   3.929   3.874
    1C        C  322   4.322   4.117   3.992
    1C        C  323   4.393   3.994   3.996
    1C        C  324   4.281   4.175   4.114
    1C        C  325   4.326   4.122   4.237
    1C        C  326   4.190   4.289   4.354
    1C        C  327   4.288   4.187   4.356
    1C        C  328   4.141   4.342   4.475
    1C        C  329   4.195   4.298   4.598
    1C        C  330   4.033   4.442   4.711
    1C        C  331   4.148   4.359   4.716
    1C        C  332   3.976   4.497   4.828
    1C        C  333   4.055   4.481   4.942
    1C        C  334   4.556   3.267   2.064
    1C        C  335   4.529   3.130   2.063
    1C        C  336   4.543   3.350   2.176
    1C        C  337   4.514   3.284   2.297
    1C        C  338   4.518   3.497   2.413
    1C        C  339   4.516   3.356   2.418
    1C        C  340   4.516   3.569   2.535
    1C        C  341   4.522   3.498   2.657
    1C        C  342   4.496   3.712   2.775
    1C        C  343   4.515   3.572   2.777
    1C        C  344   4.482   3.783   2.897
    1C        C  345   4.493   3.714   3.020
    1C        C  346   4.434   3.920   3.136
    1C        C  347   4.476   3.785   3.141
    1C        C  348   4.397   3.983   3.257
    1C        C  349   4.426   3.922   3.381
    1C        C  350   4.329   4.111   3.502
    1C        C  351   4.404   3.991   3.503
    1C        C  352   4.281   4.167   3.622
    1C        C  353   4.319   4.110   3.746
    1C        C  354   4.184   4.274   3.866
    1C        C  355   4.278   4.168   3.868
    1C        C  356   4.130   4.322   3.987
    1C        C  357   4.183   4.277   4.110
    1C        C  358   4.017   4.409   4.229
    1C        C  359   4.134   4.331   4.231
    1C        C  360   3.959   4.454   4.350
    1C        C  361   4.023   4.420   4.471
    1C        C  362   3.831   4.518   4.592
    1C        C  363   3.962   4.464   4.591
    1C        C  364   3.766   4.553   4.712
    1C        C  365   3.843   4.545   4.830
    1C        C  366   3.632   4.591   4.948
    1C        C  367   3.770   4.569   4.947
    1C        C  368   4.508   3.564   2.054
    1C        C  369   4.522   3.490   2.172
    1C        C  370   4.503   3.708   2.290
    1C        C  371   4.519   3.567   2.290
    1C        C  372   4.483   3.779   2.410
    1C        C  373   4.498   3.709   2.532
    1C        C  374   4.424   3.910   2.649
    1C        C  375   4.481   3.780   2.653
    1C        C  376   4.397   3.976   2.771
    1C        C  377   4.429   3.914   2.894
    1C        C  378   4.321   4.098   3.013
    1C        C  379   4.404   3.984   3.014
    1C        C  380   4.274   4.155   3.133
    1C        C  381   4.318   4.101   3.256
    1C        C  382   4.183   4.262   3.376
    1C        C  383   4.278   4.158   3.378
    1C        C  384   4.126   4.307   3.498
    1C        C  385   4.179   4.264   3.621
    1C        C  386   4.008   4.389   3.741
    1C        C  387   4.128   4.315   3.743
    1C        C  388   3.947   4.430   3.862
    1C        C  389   4.014   4.402   3.983
    1C        C  390   3.826   4.497   4.108
    1C        C  391   3.956   4.443   4.106
    1C        C  392   3.757   4.514   4.230
    1C        C  393   3.829   4.508   4.352
    1C        C  394   3.618   4.554   4.473
    1C        C  395   3.758   4.532   4.472
    1C        C  396   3.550   4.568   4.596
    1C        C  397   3.625   4.570   4.715
    1C        C  398   3.411   4.553   4.839
    1C        C  399   3.550   4.576   4.835
    1C        C  400   3.346   4.513   4.956
    1C        C  401   4.506   3.703   2.052
    1C        C  402   4.455   3.916   2.167
    1C        C  403   4.493   3.780   2.169
    1C        C  404   4.412   3.978   2.286
    1C        C  405   4.437   3.912   2.409
    1C        C  406   4.325   4.098   2.526
    1C        C  407   4.400   3.978   2.528
    1C        C  408   4.282   4.156   2.648
    1C        C  409   4.319   4.093   2.769
    1C        C  410   4.178   4.252   2.887
    1C        C  411   4.280   4.155   2.890
    1C        C  412   4.121   4.299   3.008
    1C        C  413   4.177   4.258   3.131
    1C        C  414   4.006   4.379   3.252
    1C        C  415   4.128   4.307   3.254
    1C        C  416   3.944   4.414   3.375
    1C        C  417   4.008   4.384   3.497
    1C        C  418   3.815   4.476   3.618
    1C        C  419   3.945   4.421   3.619
    1C        C  420   3.752   4.505   3.741
    1C        C  421   3.819   4.490   3.864
    1C        C  422   3.616   4.533   3.988
    1C        C  423   3.756   4.519   3.987
    1C        C  424   3.545   4.536   4.110
    1C        C  425   3.618   4.540   4.231
    1C        C  426   3.406   4.551   4.357
    1C        C  427   3.547   4.555   4.352
    1C        C  428   3.334   4.547   4.479
    1C        C  429   3.409   4.556   4.598
    1C        C  430   3.197   4.520   4.722
    1C        C  431   3.336   4.546   4.719
    1C        C  432   3.128   4.496   4.844
    1C        C  433   3.208   4.497   4.959
    1C        C  434   4.391   4.124   2.056
    1C        C  435   4.451   3.997   2.053
    1C        C  436   4.303   4.159   2.163
    1C        C  437   4.332   4.095   2.286
    1C        C  438   4.179   4.253   2.401
    1C        C  439   4.281   4.154   2.404
    1C        C  440   4.127   4.304   2.522
    1C        C  441   4.186   4.260   2.642
    1C        C  442   4.009   4.377   2.764
    1C        C  443   4.131   4.304   2.764
    1C        C  444   3.942   4.409   2.885
    1C        C  445   4.005   4.380   3.008
    1C        C  446   3.815   4.470   3.130
    1C        C  447   3.946   4.417   3.130
    1C        C  448   3.749   4.489   3.253
    1C        C  449   3.815   4.472   3.376
    1C        C  450   3.608   4.526   3.497
    1C        C  451   3.748   4.501   3.497
    1C        C  452   3.542   4.535   3.621
    1C        C  453   3.613   4.533   3.743
    1C        C  454   3.404   4.542   3.866
    1C        C  455   3.545   4.548   3.866
    1C        C  456   3.336   4.525   3.988
    1C        C  457   3.404   4.533   4.112
    1C        C  458   3.200   4.493   4.239
    1C        C  459   3.337   4.528   4.236
    1C        C  460   3.128   4.483   4.360
    1C        C  461   3.196   4.517   4.479
    1C        C  462   3.003   4.429   4.605
    1C        C  463   3.128   4.495   4.601
    1C        C  464   2.939   4.395   4.726
    1C        C  465   2.997   4.439   4.847
    1C        C  466   2.803   4.338   4.963
    1C        C  467   2.914   4.424   4.963
    1C        C  468   4.129   4.288   2.042
    1C        C  469   4.193   4.250   2.161
    1C        C  470   4.008   4.374   2.278
    1C        C  471   4.131   4.302   2.278
    1C        C  472   3.942   4.407   2.399
    1C        C  473   4.006   4.377   2.521
    1C        C  474   3.813   4.463   2.641
    1C        C  475   3.942   4.408   2.644
    1C        C  476   3.745   4.486   2.763
    1C        C  477   3.812   4.464   2.885
    1C        C  478   3.608   4.517   3.009
    1C        C  479   3.746   4.488   3.008
    1C        C  480   3.536   4.526   3.131
    1C        C  481   3.610   4.516   3.251
    1C        C  482   3.398   4.530   3.378
    1C        C  483   3.539   4.526   3.373
    1C        C  484   3.328   4.527   3.500
    1C        C  485   3.400   4.531   3.622
    1C        C  486   3.194   4.497   3.746
    1C        C  487   3.332   4.528   3.745
    1C        C  488   3.129   4.477   3.870
    1C        C  489   3.199   4.491   3.992
    1C        C  490   3.009   4.405   4.117
    1C        C  491   3.134   4.471   4.116
    1C        C  492   2.945   4.377   4.239
    1C        C  493   3.002   4.419   4.362
    1C        C  494   2.827   4.303   4.484
    1C        C  495   2.941   4.387   4.485
    1C        C  496   2.773   4.257   4.606
    1C        C  497   2.823   4.312   4.726
    1C        C  498   2.667   4.168   4.848
    1C        C  499   2.757   4.277   4.846
    1C        C  500   2.599   4.119   4.960
    1C        C  501   4.008   4.357   2.039
    1C        C  502   3.814   4.457   2.157
    1C        C  503   3.942   4.398   2.156
    1C        C  504   3.742   4.479   2.276
    1C        C  505   3.811   4.459   2.398
    1C        C  506   3.603   4.506   2.518
    1C        C  507   3.743   4.482   2.519
    1C        C  508   3.536   4.514   2.642
    1C        C  509   3.606   4.511   2.764
    1C        C  510   3.396   4.525   2.887
    1C        C  511   3.537   4.520   2.887
    1C        C  512   3.324   4.519   3.008
    1C        C  513   3.395   4.529   3.130
    1C        C  514   3.193   4.486   3.257
    1C        C  515   3.329   4.523   3.255
    1C        C  516   3.125   4.466   3.379
    1C        C  517   3.191   4.491   3.501
    1C        C  518   2.998   4.411   3.628
    1C        C  519   3.126   4.471   3.625
    1C        C  520   2.942   4.370   3.751
    1C        C  521   3.004   4.410   3.872
    1C        C  522   2.834   4.285   3.998
    1C        C  523   2.948   4.369   3.994
    1C        C  524   2.786   4.235   4.121
    1C        C  525   2.835   4.289   4.242
    1C        C  526   2.694   4.133   4.368
    1C        C  527   2.779   4.246   4.364
    1C        C  528   2.652   4.077   4.490
    1C        C  529   2.686   4.145   4.609
    1C        C  530   2.585   3.961   4.734
    1C        C  531   2.637   4.094   4.731
    1C        C  532   2.548   3.902   4.858
    1C        C  533   2.526   3.999   4.961
    1C        C  534   3.618   4.552   2.038
    1C        C  535   3.752   4.512   2.044
    1C        C  536   3.534   4.534   2.152
    1C        C  537   3.602   4.508   2.274
    1C        C  538   3.391   4.512   2.398
    1C        C  539   3.532   4.513   2.396
    1C        C  540   3.321   4.503   2.521
    1C        C  541   3.394   4.509   2.642
    1C        C  542   3.187   4.485   2.767
    1C        C  543   3.326   4.510   2.765
    1C        C  544   3.123   4.458   2.891
    1C        C  545   3.188   4.480   3.014
    1C        C  546   2.994   4.401   3.133
    1C        C  547   3.122   4.460   3.137
    1C        C  548   2.941   4.363   3.259
    1C        C  549   2.999   4.402   3.382
    1C        C  550   2.832   4.278   3.505
    1C        C  551   2.942   4.368   3.506
    1C        C  552   2.782   4.231   3.629
    1C        C  553   2.831   4.283   3.751
    1C        C  554   2.698   4.123   3.878
    1C        C  555   2.784   4.235   3.875
    1C        C  556   2.662   4.062   4.000
    1C        C  557   2.704   4.120   4.122
    1C        C  558   2.598   3.943   4.247
    1C        C  559   2.660   4.070   4.246
    1C        C  560   2.568   3.881   4.371
    1C        C  561   2.589   3.951   4.491
    1C        C  562   2.531   3.751   4.620
    1C        C  563   2.565   3.888   4.615
    1C        C  564   2.526   3.680   4.743
    1C        C  565   2.529   3.760   4.860
    1C        C  566   2.524   3.546   4.985
    1C        C  567   2.526   3.685   4.978
    1C        C  568   3.329   4.465   2.039
    1C        C  569   3.393   4.515   2.154
    1C        C  570   3.182   4.475   2.279
    1C        C  571   3.320   4.509   2.276
    1C        C  572   3.116   4.452   2.401
    1C        C  573   3.183   4.472   2.524
    1C        C  574   2.989   4.400   2.648
    1C        C  575   3.115   4.464   2.647
    1C        C  576   2.929   4.360   2.770
    1C        C  577   2.996   4.397   2.889
    1C        C  578   2.827   4.271   3.016
    1C        C  579   2.935   4.362   3.011
    1C        C  580   2.776   4.225   3.140
    1C        C  581   2.834   4.271   3.261
    1C        C  582   2.693   4.116   3.384
    1C        C  583   2.783   4.224   3.384
    1C        C  584   2.656   4.061   3.509
    1C        C  585   2.698   4.117   3.631
    1C        C  586   2.599   3.935   3.755
    1C        C  587   2.661   4.062   3.756
    1C        C  588   2.575   3.872   3.880
    1C        C  589   2.601   3.935   4.004
    1C        C  590   2.534   3.738   4.130
    1C        C  591   2.568   3.875   4.127
    1C        C  592   2.526   3.672   4.256
    1C        C  593   2.533   3.744   4.377
    1C        C  594   2.518   3.535   4.501
    1C        C  595   2.525   3.676   4.501
    1C        C  596   2.527   3.464   4.623
    1C        C  597   2.522   3.538   4.743
    1C        C  598   2.542   3.330   4.863
    1C        C  599   2.530   3.470   4.867
    1C        C  600   2.534   3.250   4.978
    1C        C  601   3.195   4.434   2.042
    1C        C  602   2.982   4.388   2.160
    1C        C  603   3.117   4.435   2.158
    1C        C  604   2.921   4.361   2.285
    1C        C  605   2.985   4.399   2.406
    1C        C  606   2.813   4.276   2.530
    1C        C  607   2.925   4.362   2.528
    1C        C  608   2.769   4.220   2.652
    1C        C  609   2.818   4.273   2.773
    1C        C  610   2.681   4.113   2.896
    1C        C  611   2.773   4.220   2.896
    1C        C  612   2.648   4.056   3.021
    1C        C  613   2.687   4.116   3.143
    1C        C  614   2.580   3.932   3.265
    1C        C  615   2.644   4.058   3.265
    1C        C  616   2.561   3.868   3.390
    1C        C  617   2.591   3.935   3.510
    1C        C  618   2.535   3.733   3.640
    1C        C  619   2.569   3.869   3.634
    1C        C  620   2.524   3.664   3.763
    1C        C  621   2.532   3.737   3.884
    1C        C  622   2.506   3.529   4.015
    1C        C  623   2.519   3.670   4.008
    1C        C  624   2.515   3.459   4.137
    1C        C  625   2.514   3.532   4.258
    1C        C  626   2.542   3.322   4.382
    1C        C  627   2.514   3.461   4.380
    1C        C  628   2.562   3.251   4.503
    1C        C  629   2.543   3.324   4.623
    1C        C  630   2.601   3.120   4.745
    1C        C  631   2.554   3.254   4.745
    1C        C  632   2.616   3.049   4.868
    1C        C  633   2.560   3.112   4.983
    1C        C  634   2.783   4.299   2.054
    1C        C  635   2.893   4.386   2.048
    1C        C  636   2.744   4.232   2.171
    1C        C  637   2.812   4.270   2.288
    1C        C  638   2.672   4.113   2.412
    1C        C  639   2.758   4.225   2.410
    1C        C  640   2.634   4.052   2.533
    1C        C  641   2.682   4.108   2.654
    1C        C  642   2.582   3.923   2.779
    1C        C  643   2.641   4.051   2.776
    1C        C  644   2.553   3.860   2.902
    1C        C  645   2.584   3.930   3.021
    1C        C  646   2.528   3.726   3.151
    1C        C  647   2.558   3.864   3.143
    1C        C  648   2.521   3.658   3.275
    1C        C  649   2.534   3.729   3.396
    1C        C  650   2.514   3.519   3.521
    1C        C  651   2.525   3.660   3.519
    1C        C  652   2.518   3.453   3.645
    1C        C  653   2.518   3.523   3.768
    1C        C  654   2.542   3.319   3.894
    1C        C  655   2.513   3.458   3.893
    1C        C  656   2.559   3.251   4.016
    1C        C  657   2.543   3.321   4.138
    1C        C  658   2.604   3.119   4.260
    1C        C  659   2.559   3.252   4.261
    1C        C  660   2.638   3.055   4.382
    1C        C  661   2.610   3.118   4.505
    1C        C  662   2.714   2.934   4.628
    1C        C  663   2.636   3.051   4.627
    1C        C  664   2.755   2.878   4.751
    1C        C  665   2.705   2.937   4.871
    1C        C  666   2.745   2.871   4.988
    1C        C  667   2.678   4.026   2.057
    1C        C  668   2.677   4.108   2.170
    1C        C  669   2.591   3.913   2.294
    1C        C  670   2.642   4.045   2.291
    1C        C  671   2.562   3.848   2.416
    1C        C  672   2.576   3.923   2.535
    1C        C  673   2.519   3.720   2.660
    1C        C  674   2.552   3.857   2.657
    1C        C  675   2.512   3.651   2.784
    1C        C  676   2.528   3.721   2.906
    1C        C  677   2.509   3.513   3.032
    1C        C  678   2.522   3.653   3.030
    1C        C  679   2.514   3.442   3.155
    1C        C  680   2.517   3.517   3.275
    1C        C  681   2.535   3.309   3.403
    1C        C  682   2.517   3.449   3.398
    1C        C  683   2.553   3.243   3.527
    1C        C  684   2.540   3.313   3.649
    1C        C  685   2.607   3.115   3.774
    1C        C  686   2.559   3.248   3.773
    1C        C  687   2.640   3.054   3.897
    1C        C  688   2.607   3.118   4.018
    1C        C  689   2.716   2.935   4.141
    1C        C  690   2.637   3.052   4.140
    1C        C  691   2.759   2.879   4.263
    1C        C  692   2.714   2.936   4.384
    1C        C  693   2.755   2.877   4.505
    1C        C  694   2.626   3.896   2.058
    1C        C  695   2.522   3.707   2.176
    1C        C  696   2.574   3.838   2.175
    1C        C  697   2.502   3.639   2.298
    1C        C  698   2.519   3.713   2.417
    1C        C  699   2.491   3.506   2.544
    1C        C  700   2.507   3.646   2.541
    1C        C  701   2.507   3.437   2.666
    1C        C  702   2.507   3.510   2.787
    1C        C  703   2.526   3.301   2.911
    1C        C  704   2.507   3.441   2.910
    1C        C  705   2.545   3.235   3.034
    1C        C  706   2.533   3.303   3.158
    1C        C  707   2.596   3.104   3.280
    1C        C  708   2.549   3.238   3.282
    1C        C  709   2.631   3.047   3.404
    1C        C  710   2.603   3.111   3.527
    1C        C  711   2.715   2.934   3.651
    1C        C  712   2.635   3.051   3.651
    1C        C  713   2.755   2.876   3.774
    1C        C  714   2.715   2.934   3.896
    1C        C  715   2.757   2.877   4.019
    1C        C  716   2.451   3.503   2.062
    1C        C  717   2.494   3.636   2.058
    1C        C  718   2.464   3.424   2.181
    1C        C  719   2.480   3.499   2.301
    1C        C  720   2.514   3.293   2.423
    1C        C  721   2.484   3.431   2.424
    1C        C  722   2.545   3.228   2.545
    1C        C  723   2.530   3.298   2.667
    1C        C  724   2.593   3.098   2.792
    1C        C  725   2.542   3.230   2.790
    1C        C  726   2.626   3.036   2.914
    1C        C  727   2.593   3.102   3.035
    1C        C  728   2.702   2.922   3.161
    1C        C  729   2.622   3.039   3.158
    1C        C  730   2.752   2.873   3.284
    1C        C  731   2.710   2.930   3.406
    1C        C  732   2.755   2.876   3.529
    1C        C  733   2.495   3.203   2.072
    1C        C  734   2.480   3.282   2.187
    1C        C  735   2.567   3.081   2.309
    1C        C  736   2.518   3.214   2.306
    1C        C  737   2.611   3.022   2.430
    1C        C  738   2.592   3.095   2.549
    1C        C  739   2.702   2.913   2.671
    1C        C  740   2.623   3.031   2.671
    1C        C  741   2.743   2.856   2.794
    1C        C  742   2.700   2.915   2.915
    1C        C  743   2.746   2.866   3.039
    1C        C  744   2.546   3.073   2.074
    1C        C  745   2.681   2.898   2.187
    1C        C  746   2.599   3.013   2.189
    1C        C  747   2.733   2.845   2.307
    1C        C  748   2.687   2.903   2.427
    1C        C  749   2.737   2.852   2.549
    1C        C  750   2.736   2.843   2.070
    1C        C  751   3.660   2.323   1.974
    1C        O  752   3.658   2.200   2.003
    1C        O  753   3.697   2.332   1.839
    1C        C  754   4.630   3.056   1.983
    1C        O  755   4.611   3.041   1.859
    1C        O  756   4.753   2.998   2.014
    1C        C  757   4.473   4.228   1.989
    1C        O  758   4.588   4.253   2.032
    1C        O  759   4.446   4.281   1.862
    1C        C  760   3.604   4.670   1.949
    1C        O  761   3.618   4.789   1.989
    1C        O  762   3.590   4.663   1.810
    1C        C  763   2.876   4.511   1.970
    1C        O  764   2.950   4.534   1.870
    1C        O  765   2.833   4.626   2.037
    1C        C  766   2.329   3.482   1.981
    1C        O  767   2.335   3.439   1.862
    1C        O  768   2.203   3.446   2.032
    1C        C  769   4.700   3.585   5.049
    1C        O  770   4.677   3.541   5.165
    1C        O  771   4.832   3.629   5.034
    1C        C  772   4.277   4.454   5.044
    1C        O  773   4.257   4.450   5.168
    1C        O  774   4.385   4.539   5.014
    1C        C  775   4.149   2.519   5.072
    1C        O  776   4.217   2.415   5.054
    1C        O  777   4.153   2.571   5.202
    1C        C  778   2.902   4.529   5.066
    1C        O  779   2.839   4.638   5.058
    1C        O  780   2.920   4.515   5.205
    1C        C  781   2.483   3.038   5.085
    1C        O  782   2.372   2.979   5.068
    1C        O  783   2.539   3.008   5.208
    1C        C  784   2.392   4.012   5.022
    1C        O  785   2.297   4.071   4.963
    1C        O  786   2.393   4.025   5.162
    1C        C  787   2.947   2.415   2.022
    1C        O  788   2.912   2.431   1.902
    1C        O  789   2.881   2.312   2.088
    1C        C  790   3.186   2.383   5.078
    1C        O  791   3.104   2.290   5.057
    1C        O  792   3.232   2.412   5.207
    1C        H  793   4.261   3.033   5.049
    1C        H  794   4.162   2.826   5.067
    1C        H  795   4.505   3.132   5.059
    1C        H  796   4.472   3.383   5.051
    1C        H  797   4.627   3.817   5.010
    1C        H  798   4.457   4.011   5.040
    1C        H  799   4.254   4.153   5.046
    1C        H  800   3.992   4.464   5.028
    1C        H  801   3.819   4.591   5.039
    1C        H  802   3.588   4.630   5.037
    1C        H  803   3.397   4.440   5.015
    1C        H  804   3.159   4.510   5.053
    1C        H  805   3.873   2.539   5.070
    1C        H  806   3.679   2.440   5.071
    1C        H  807   2.999   2.565   5.067
    1C        H  808   3.442   2.519   5.070
    1C        H  809   2.883   2.745   5.083
    1C        H  810   2.729   2.927   5.077
    1C        H  811   2.467   3.281   5.055
    1C        H  812   2.586   3.509   5.064
    1C        H  813   2.570   3.737   5.060
    1C        H  814   2.583   4.190   5.039
    1C        H  815   2.732   4.352   5.042
    1C        H  816   2.687   2.858   1.976
    1C        H  817   2.801   2.663   1.997
    1C        H  818   3.219   2.462   1.984
    1C        H  819   3.423   2.445   1.982
    1C        H  820   3.875   2.482   1.983
    1C        H  821   4.088   2.567   1.984
    1C        H  822   4.277   2.705   1.984
    1C        H  823   4.351   2.939   1.973
    1C        H  824   4.608   3.308   1.979
    1C        H  825   4.457   3.512   1.975
    1C        H  826   4.517   3.754   1.959
    1C        H  827   3.817   4.554   1.970
    1C        H  828   4.000   4.422   1.955
    1C        H  829   4.171   4.261   1.948
    1C        H  830   4.453   3.957   1.954
    1C        H  831   2.648   3.836   1.972
    1C        H  832   2.733   4.045   1.967
    1C        H  833   2.708   4.300   1.978
    1C        H  834   3.387   4.406   1.972
    1C        H  835   3.144   4.429   1.947
    1C        H  836   2.525   3.013   1.989
    1C        H  837   2.448   3.234   1.981
    1C        H  838   2.455   3.697   1.978
    2V3OU   H29  839   2.810   3.551   1.799
    2V3OU   C27  840   2.783   3.503   1.897
    2V3OU   H27  841   2.730   3.575   1.965
    2V3OU   H28  842   2.727   3.407   1.883
    2V3OU   O11  843   2.907   3.480   1.963
    2V3OU   C15  844   2.922   3.395   2.071
    2V3OU   C13  845   3.051   3.374   2.124
    2V3OU   C14  846   3.074   3.271   2.216
    2V3OU   C16  847   2.977   3.182   2.260
    2V3OU    H6  848   2.991   3.110   2.342
    2V3OU   C12  849   3.210   3.233   2.261
    2V3OU    O2  850   3.240   3.129   2.323
    2V3OU   C10  851   3.324   3.304   2.201
    2V3OU    C8  852   3.455   3.275   2.235
    2V3OU   O10  853   3.488   3.160   2.300
    2V3OU   H26  854   3.407   3.115   2.329
    2V3OU    C6  855   3.568   3.355   2.197
    2V3OU    C5  856   3.539   3.467   2.120
    2V3OU    C4  857   3.704   3.294   2.192
    2V3OU    H4  858   3.731   3.224   2.276
    2V3OU    H5  859   3.704   3.229   2.099
    2V3OU    C2  860   3.818   3.395   2.182
    2V3OU    O6  861   3.809   3.469   2.304
    2V3OU   H21  862   3.764   3.553   2.287
    2V3OU    C3  863   3.783   3.494   2.070
    2V3OU    H2  864   3.858   3.576   2.060
    2V3OU    H3  865   3.783   3.442   1.971
    2V3OU   C25  866   3.951   3.321   2.169
    2V3OU    O7  867   4.003   3.288   2.062
    2V3OU   C26  868   4.032   3.288   2.293
    2V3OU   H22  869   4.072   3.381   2.342
    2V3OU   H23  870   4.113   3.215   2.266
    2V3OU    O8  871   3.962   3.205   2.383
    2V3OU   H24  872   3.925   3.255   2.458
    2V3OU    C1  873   3.650   3.564   2.092
    2V3OU    H1  874   3.627   3.618   1.996
    2V3OU    O3  875   3.656   3.652   2.205
    2V3OU   C19  876   3.619   3.790   2.207
    2V3OU    H9  877   3.518   3.800   2.157
    2V3OU    O4  878   3.713   3.846   2.118
    2V3OU   C20  879   3.845   3.875   2.164
    2V3OU   H10  880   3.894   3.775   2.181
    2V3OU   C24  881   3.611   3.854   2.345
    2V3OU   H16  882   3.541   3.791   2.406
    2V3OU   H17  883   3.566   3.955   2.330
    2V3OU   C23  884   3.752   3.875   2.401
    2V3OU   H15  885   3.795   3.770   2.413
    2V3OU    N1  886   3.741   3.955   2.522
    2V3OU   H19  887   3.810   3.918   2.584
    2V3OU   H20  888   3.653   3.936   2.565
    2V3OU   C21  889   3.846   3.946   2.299
    2V3OU   H11  890   3.949   3.927   2.342
    2V3OU    O5  891   3.831   4.087   2.283
    2V3OU   H18  892   3.775   4.106   2.359
    2V3OU   C22  893   3.916   3.953   2.055
    2V3OU   H12  894   3.859   4.046   2.030
    2V3OU   H13  895   3.915   3.895   1.959
    2V3OU   H14  896   4.027   3.956   2.074
    2V3OU   C11  897   3.159   3.470   2.095
    2V3OU    O1  898   3.140   3.587   2.058
    2V3OU    C9  899   3.296   3.421   2.126
    2V3OU    C7  900   3.404   3.501   2.090
    2V3OU    O9  901   3.385   3.617   2.017
    2V3OU   H25  902   3.290   3.625   1.998
    2V3OU   C17  903   2.822   3.314   2.130
    2V3OU    H7  904   2.721   3.329   2.093
    2V3OU   C18  905   2.847   3.212   2.220
    2V3OU    H8  906   2.773   3.156   2.278
    3SOL     OW  907   2.926   4.132   0.599
    3SOL    HW1  908   2.846   4.086   0.562
    3SOL    HW2  909   2.956   4.203   0.535
    4SOL     OW  910   6.261   5.736   1.707
    4SOL    HW1  911   6.329   5.775   1.645
    4SOL    HW2  912   6.189   5.691   1.654
    5SOL     OW  913   3.809   1.352   3.072
    5SOL    HW1  914   3.729   1.388   3.120
    5SOL    HW2  915   3.874   1.425   3.056
    6SOL     OW  916   4.636   1.392   1.577
    6SOL    HW1  917   4.554   1.350   1.617
    6SOL    HW2  918   4.640   1.371   1.479
    7SOL     OW  919   6.110   3.362   2.532
    7SOL    HW1  920   6.139   3.389   2.440
    7SOL    HW2  921   6.026   3.308   2.526
    8SOL     OW  922   2.685   0.289   5.658
    8SOL    HW1  923   2.685   0.202   5.610
    8SOL    HW2  924   2.764   0.294   5.719
    9SOL     OW  925   7.015   5.398   5.617
    9SOL    HW1  926   0.041   5.314   5.599
    9SOL    HW2  927   6.993   5.443   5.530
   10SOL     OW  928   0.959   4.697   5.814
   10SOL    HW1  929   1.047   4.708   5.766
   10SOL    HW2  930   0.912   4.785   5.816
   11SOL     OW  931   2.956   0.284   0.205
   11SOL    HW1  932   2.952   0.191   0.169
   11SOL    HW2  933   2.973   0.348   0.131
   12SOL     OW  934   4.181   6.184   3.989
   12SOL    HW1  935   4.179   6.172   4.089
   12SOL    HW2  936   4.102   6.238   3.960
   13SOL     OW  937   3.174   5.497   4.002
   13SOL    HW1  938   3.261   5.502   3.953
   13SOL    HW2  939   3.188   5.449   4.089
   14SOL     OW  940   4.750   5.830   6.222
   14SOL    HW1  941   4.764   5.926   6.248
   14SOL    HW2  942   4.654   5.816   6.196
   15SOL     OW  943   1.024   5.390   0.550
   15SOL    HW1  944   0.985   5.458   0.612
   15SOL    HW2  945   0.966   5.383   0.469
   16SOL     OW  946   5.474   2.751   5.536
   16SOL    HW1  947   5.523   2.698   5.467
   16SOL    HW2  948   5.422   2.689   5.596
   17SOL     OW  949   5.199   5.941   5.184
   17SOL    HW1  950   5.240   5.984   5.265
   17SOL    HW2  951   5.250   5.968   5.102
   18SOL     OW  952   2.898   1.023   6.338
   18SOL    HW1  953   2.896   1.115   6.298
   18SOL    HW2  954   2.964   0.966   6.289
   19SOL     OW  955   7.013   6.900   3.171
   19SOL    HW1  956   7.003   6.811   3.127
   19SOL    HW2  957   0.081   6.909   3.207
   20SOL     OW  958   4.780   1.915   4.364
   20SOL    HW1  959   4.846   1.899   4.438
   20SOL    HW2  960   4.819   1.980   4.299
   21SOL     OW  961   3.025   2.044   2.551
   21SOL    HW1  962   2.993   2.107   2.481
   21SOL    HW2  963   3.025   2.090   2.640
   22SOL     OW  964   2.621   6.803   0.516
   22SOL    HW1  965   2.652   6.854   0.596
   22SOL    HW2  966   2.607   6.865   0.439
   23SOL     OW  967   4.559   6.640   3.443
   23SOL    HW1  968   4.470   6.599   3.462
   23SOL    HW2  969   4.628   6.568   3.432
   24SOL     OW  970   5.142   1.149   2.653
   24SOL    HW1  971   5.096   1.138   2.741
   24SOL    HW2  972   5.184   1.240   2.648
   25SOL     OW  973   3.677   6.410   5.874
   25SOL    HW1  974   3.684   6.314   5.846
   25SOL    HW2  975   3.692   6.416   5.973
   26SOL     OW  976   6.001   0.971   0.475
   26SOL    HW1  977   6.064   0.999   0.402
   26SOL    HW2  978   5.961   1.052   0.517
   27SOL     OW  979   0.357   1.652   1.407
   27SOL    HW1  980   0.397   1.720   1.469
   27SOL    HW2  981   0.282   1.606   1.453
   28SOL     OW  982   3.927   1.641   0.160
   28SOL    HW1  983   3.840   1.620   0.206
   28SOL    HW2  984   3.951   1.566   0.099
   29SOL     OW  985   5.272   3.166   1.970
   29SOL    HW1  986   5.316   3.111   1.899
   29SOL    HW2  987   5.177   3.137   1.980
   30SOL     OW  988   3.584   0.968   5.017
   30SOL    HW1  989   3.565   0.883   4.967
   30SOL    HW2  990   3.676   1.001   4.994
   31SOL     OW  991   0.808   1.916   5.906
   31SOL    HW1  992   0.723   1.870   5.931
   31SOL    HW2  993   0.817   2.001   5.958
   32SOL     OW  994   0.061   1.363   2.943
   32SOL    HW1  995   6.997   1.408   2.930
   32SOL    HW2  996   0.129   1.409   2.886
   33SOL     OW  997   2.628   3.640   6.965
   33SOL    HW1  998   2.687   3.688   0.005
   33SOL    HW2  999   2.550   3.698   6.942
   34SOL     OW 1000   2.211   1.603   3.524
   34SOL    HW1 1001   2.145   1.559   3.463
   34SOL    HW2 1002   2.187   1.700   3.534
   35SOL     OW 1003   3.244   2.463   0.022
   35SOL    HW1 1004   3.218   2.518   0.101
   35SOL    HW2 1005   3.161   2.433   6.999
   36SOL     OW 1006   0.204   0.786   6.205
   36SOL    HW1 1007   0.220   0.878   6.242
   36SOL    HW2 1008   0.121   0.748   6.245
   37SOL     OW 1009   1.462   7.011   0.453
   37SOL    HW1 1010   1.435   6.983   0.545
   37SOL    HW2 1011   1.522   0.065   0.459
   38SOL     OW 1012   0.090   4.402   2.133
   38SOL    HW1 1013   7.019   4.430   2.144
   38SOL    HW2 1014   0.142   4.432   2.213
   39SOL     OW 1015   6.777   5.097   6.309
   39SOL    HW1 1016   6.840   5.174   6.302
   39SOL    HW2 1017   6.813   5.020   6.257
   40SOL     OW 1018   5.820   2.631   1.468
   40SOL    HW1 1019   5.877   2.579   1.405
   40SOL    HW2 1020   5.878   2.691   1.524
   41SOL     OW 1021   0.217   6.605   4.287
   41SOL    HW1 1022   0.120   6.600   4.311
   41SOL    HW2 1023   0.268   6.642   4.364
   42SOL     OW 1024   2.264   5.650   5.716
   42SOL    HW1 1025   2.317   5.567   5.702
   42SOL    HW2 1026   2.183   5.648   5.657
   43SOL     OW 1027   5.590   6.589   5.012
   43SOL    HW1 1028   5.597   6.681   5.051
   43SOL    HW2 1029   5.609   6.593   4.914
   44SOL     OW 1030   5.859   2.059   6.304
   44SOL    HW1 1031   5.834   2.058   6.401
   44SOL    HW2 1032   5.929   2.129   6.288
   45SOL     OW 1033   3.797   6.720   3.397
   45SOL    HW1 1034   3.778   6.719   3.495
   45SOL    HW2 1035   3.731   6.661   3.350
   46SOL     OW 1036   1.377   3.478   3.901
   46SOL    HW1 1037   1.285   3.454   3.871
   46SOL    HW2 1038   1.402   3.568   3.864
   47SOL     OW 1039   4.893   4.364   1.603
   47SOL    HW1 1040   4.875   4.367   1.505
   47SOL    HW2 1041   4.812   4.330   1.651
   48SOL     OW 1042   6.832   3.259   6.120
   48SOL    HW1 1043   6.828   3.237   6.218
   48SOL    HW2 1044   6.740   3.250   6.081
   49SOL     OW 1045   4.679   4.252   1.696
   49SOL    HW1 1046   4.606   4.282   1.757
   49SOL    HW2 1047   4.720   4.167   1.732
   50SOL     OW 1048   6.810   2.645   5.844
   50SOL    HW1 1049   6.875   2.608   5.778
   50SOL    HW2 1050   6.721   2.656   5.801
   51SOL     OW 1051   2.690   6.214   2.535
   51SOL    HW1 1052   2.718   6.147   2.604
   51SOL    HW2 1053   2.771   6.253   2.491
   52SOL     OW 1054   5.237   2.848   3.518
   52SOL    HW1 1055   5.139   2.864   3.502
   52SOL    HW2 1056   5.248   2.765   3.573
   53SOL     OW 1057   3.796   0.148   4.908
   53SOL    HW1 1058   3.704   0.120   4.882
   53SOL    HW2 1059   3.800   0.163   5.007
   54SOL     OW 1060   3.896   4.393   0.566
   54SOL    HW1 1061   3.962   4.455   0.523
   54SOL    HW2 1062   3.806   4.406   0.525
   55SOL     OW 1063   3.453   1.449   6.363
   55SOL    HW1 1064   3.526   1.517   6.363
   55SOL    HW2 1065   3.452   1.402   6.274
   56SOL     OW 1066   0.455   6.805   1.004
   56SOL    HW1 1067   0.547   6.764   1.006
   56SOL    HW2 1068   0.432   6.836   1.096
   57SOL     OW 1069   5.297   0.562   0.454
   57SOL    HW1 1070   5.232   0.523   0.389
   57SOL    HW2 1071   5.303   0.661   0.440
   58SOL     OW 1072   6.269   6.831   5.707
   58SOL    HW1 1073   6.196   6.850   5.771
   58SOL    HW2 1074   6.330   6.761   5.745
   59SOL     OW 1075   1.631   1.287   6.223
   59SOL    HW1 1076   1.722   1.324   6.206
   59SOL    HW2 1077   1.612   1.212   6.159
   60SOL     OW 1078   5.770   0.998   6.190
   60SOL    HW1 1079   5.722   1.067   6.244
   60SOL    HW2 1080   5.788   0.918   6.248
   61SOL     OW 1081   5.206   1.641   5.362
   61SOL    HW1 1082   5.157   1.578   5.423
   61SOL    HW2 1083   5.171   1.631   5.269
   62SOL     OW 1084   0.207   0.790   3.466
   62SOL    HW1 1085   0.243   0.801   3.559
   62SOL    HW2 1086   0.277   0.748   3.408
   63SOL     OW 1087   5.982   1.750   3.842
   63SOL    HW1 1088   5.915   1.696   3.790
   63SOL    HW2 1089   5.950   1.758   3.937
   64SOL     OW 1090   0.179   4.017   6.287
   64SOL    HW1 1091   0.189   3.923   6.320
   64SOL    HW2 1092   0.263   4.067   6.304
   65SOL     OW 1093   6.922   4.629   5.151
   65SOL    HW1 1094   6.985   4.707   5.152
   65SOL    HW2 1095   6.940   4.571   5.231
   66SOL     OW 1096   3.650   0.986   6.628
   66SOL    HW1 1097   3.582   1.059   6.639
   66SOL    HW2 1098   3.619   0.903   6.674
   67SOL     OW 1099   5.371   4.310   5.806
   67SOL    HW1 1100   5.435   4.340   5.735
   67SOL    HW2 1101   5.293   4.373   5.810
   68SOL     OW 1102   5.721   0.495   6.627
   68SOL    HW1 1103   5.754   0.540   6.710
   68SOL    HW2 1104   5.795   0.492   6.559
   69SOL     OW 1105   0.512   3.525   6.617
   69SOL    HW1 1106   0.511   3.522   6.518
   69SOL    HW2 1107   0.597   3.484   6.651
   70SOL     OW 1108   5.888   4.644   3.770
   70SOL    HW1 1109   5.850   4.728   3.809
   70SOL    HW2 1110   5.956   4.606   3.831
   71SOL     OW 1111   4.197   1.472   2.447
   71SOL    HW1 1112   4.248   1.527   2.381
   71SOL    HW2 1113   4.105   1.455   2.411
   72SOL     OW 1114   3.048   6.074   5.127
   72SOL    HW1 1115   3.145   6.082   5.107
   72SOL    HW2 1116   2.996   6.064   5.042
   73SOL     OW 1117   3.617   0.831   0.884
   73SOL    HW1 1118   3.709   0.806   0.915
   73SOL    HW2 1119   3.550   0.772   0.929
   74SOL     OW 1120   4.896   6.289   5.725
   74SOL    HW1 1121   4.813   6.290   5.668
   74SOL    HW2 1122   4.977   6.287   5.665
   75SOL     OW 1123   3.855   0.586   6.536
   75SOL    HW1 1124   3.887   0.494   6.515
   75SOL    HW2 1125   3.894   0.617   6.622
   76SOL     OW 1126   2.357   2.610   1.374
   76SOL    HW1 1127   2.338   2.640   1.281
   76SOL    HW2 1128   2.331   2.514   1.384
   77SOL     OW 1129   6.148   6.370   4.201
   77SOL    HW1 1130   6.243   6.382   4.227
   77SOL    HW2 1131   6.094   6.344   4.281
   78SOL     OW 1132   5.566   0.876   5.818
   78SOL    HW1 1133   5.540   0.908   5.909
   78SOL    HW2 1134   5.647   0.819   5.824
   79SOL     OW 1135   3.025   6.681   0.213
   79SOL    HW1 1136   2.990   6.768   0.248
   79SOL    HW2 1137   3.076   6.698   0.128
   80SOL     OW 1138   5.137   1.897   4.265
   80SOL    HW1 1139   5.194   1.974   4.293
   80SOL    HW2 1140   5.090   1.860   4.345
   81SOL     OW 1141   1.718   0.395   2.980
   81SOL    HW1 1142   1.726   0.320   3.046
   81SOL    HW2 1143   1.787   0.384   2.909
   82SOL     OW 1144   6.102   5.112   0.871
   82SOL    HW1 1145   6.068   5.191   0.923
   82SOL    HW2 1146   6.184   5.139   0.821
   83SOL     OW 1147   0.124   0.459   0.768
   83SOL    HW1 1148   0.032   0.470   0.806
   83SOL    HW2 1149   0.139   0.363   0.745
   84SOL     OW 1150   5.207   3.218   3.751
   84SOL    HW1 1151   5.235   3.185   3.661
   84SOL    HW2 1152   5.107   3.209   3.760
   85SOL     OW 1153   2.079   1.811   5.191
   85SOL    HW1 1154   2.043   1.719   5.176
   85SOL    HW2 1155   2.047   1.845   5.280
   86SOL     OW 1156   0.444   0.550   5.559
   86SOL    HW1 1157   0.482   0.623   5.616
   86SOL    HW2 1158   0.406   0.478   5.617
   87SOL     OW 1159   5.123   3.519   0.625
   87SOL    HW1 1160   5.157   3.596   0.571
   87SOL    HW2 1161   5.195   3.451   0.635
   88SOL     OW 1162   3.915   1.904   6.275
   88SOL    HW1 1163   3.817   1.911   6.255
   88SOL    HW2 1164   3.948   1.992   6.309
   89SOL     OW 1165   0.854   2.746   5.921
   89SOL    HW1 1166   0.885   2.800   5.843
   89SOL    HW2 1167   0.755   2.756   5.931
   90SOL     OW 1168   4.014   6.365   2.973
   90SOL    HW1 1169   4.022   6.465   2.974
   90SOL    HW2 1170   4.087   6.326   3.028
   91SOL     OW 1171   4.712   4.302   5.006
   91SOL    HW1 1172   4.623   4.257   5.006
   91SOL    HW2 1173   4.725   4.349   4.918
   92SOL     OW 1174   3.191   4.089   0.199
   92SOL    HW1 1175   3.218   4.154   0.269
   92SOL    HW2 1176   3.256   4.093   0.123
   93SOL     OW 1177   2.807   3.673   6.468
   93SOL    HW1 1178   2.781   3.734   6.393
   93SOL    HW2 1179   2.792   3.719   6.556
   94SOL     OW 1180   2.214   6.054   5.978
   94SOL    HW1 1181   2.285   6.113   6.017
   94SOL    HW2 1182   2.177   6.096   5.896
   95SOL     OW 1183   1.290   0.670   3.287
   95SOL    HW1 1184   1.282   0.768   3.300
   95SOL    HW2 1185   1.384   0.641   3.310
   96SOL     OW 1186   3.720   0.594   5.062
   96SOL    HW1 1187   3.668   0.523   5.108
   96SOL    HW2 1188   3.658   0.653   5.010
   97SOL     OW 1189   1.735   3.706   6.275
   97SOL    HW1 1190   1.664   3.649   6.317
   97SOL    HW2 1191   1.819   3.653   6.264
   98SOL     OW 1192   6.046   3.916   0.490
   98SOL    HW1 1193   6.072   3.969   0.571
   98SOL    HW2 1194   6.009   3.828   0.518
   99SOL     OW 1195   4.848   3.567   1.339
   99SOL    HW1 1196   4.876   3.492   1.279
   99SOL    HW2 1197   4.901   3.649   1.317
  100SOL     OW 1198   0.115   0.421   5.488
  100SOL    HW1 1199   0.201   0.472   5.483
  100SOL    HW2 1200   0.134   0.328   5.521
  101SOL     OW 1201   1.605   5.645   2.323
  101SOL    HW1 1202   1.680   5.710   2.320
  101SOL    HW2 1203   1.592   5.612   2.417
  102SOL     OW 1204   4.251   0.053   2.561
  102SOL    HW1 1205   4.288   0.130   2.612
  102SOL    HW2 1206   4.152   0.065   2.549
  103SOL     OW 1207   3.288   1.157   2.407
  103SOL    HW1 1208   3.286   1.251   2.371
  103SOL    HW2 1209   3.195   1.125   2.421
  104SOL     OW 1210   0.544   5.010   2.291
  104SOL    HW1 1211   0.535   5.091   2.233
  104SOL    HW2 1212   0.459   4.995   2.340
  105SOL     OW 1213   6.895   2.894   6.427
  105SOL    HW1 1214   6.868   2.813   6.477
  105SOL    HW2 1215   6.954   2.951   6.485
  106SOL     OW 1216   3.694   6.177   4.540
  106SOL    HW1 1217   3.768   6.112   4.559
  106SOL    HW2 1218   3.733   6.265   4.515
  107SOL     OW 1219   1.765   1.306   2.000
  107SOL    HW1 1220   1.802   1.292   1.908
  107SOL    HW2 1221   1.826   1.264   2.067
  108SOL     OW 1222   3.829   5.107   5.676
  108SOL    HW1 1223   3.796   5.018   5.644
  108SOL    HW2 1224   3.768   5.179   5.641
  109SOL     OW 1225   0.172   0.620   1.183
  109SOL    HW1 1226   0.217   0.540   1.222
  109SOL    HW2 1227   0.190   0.624   1.085
  110SOL     OW 1228   3.480   5.897   5.637
  110SOL    HW1 1229   3.531   5.983   5.628
  110SOL    HW2 1230   3.407   5.909   5.704
  111SOL     OW 1231   3.147   0.723   4.325
  111SOL    HW1 1232   3.161   0.689   4.231
  111SOL    HW2 1233   3.080   0.666   4.371
  112SOL     OW 1234   5.223   6.767   5.782
  112SOL    HW1 1235   5.187   6.815   5.862
  112SOL    HW2 1236   5.207   6.669   5.792
  113SOL     OW 1237   6.101   4.886   3.373
  113SOL    HW1 1238   6.117   4.900   3.471
  113SOL    HW2 1239   6.145   4.960   3.321
  114SOL     OW 1240   0.826   0.200   0.941
  114SOL    HW1 1241   0.756   0.129   0.949
  114SOL    HW2 1242   0.917   0.159   0.946
  115SOL     OW 1243   3.978   1.567   3.049
  115SOL    HW1 1244   3.931   1.643   3.093
  115SOL    HW2 1245   4.064   1.599   3.011
  116SOL     OW 1246   6.029   5.254   1.710
  116SOL    HW1 1247   6.011   5.223   1.803
  116SOL    HW2 1248   6.090   5.189   1.664
  117SOL     OW 1249   1.379   1.424   0.724
  117SOL    HW1 1250   1.307   1.468   0.671
  117SOL    HW2 1251   1.370   1.325   0.716
  118SOL     OW 1252   1.791   1.377   3.307
  118SOL    HW1 1253   1.753   1.421   3.225
  118SOL    HW2 1254   1.797   1.278   3.293
  119SOL     OW 1255   1.089   1.430   6.694
  119SOL    HW1 1256   1.101   1.439   6.793
  119SOL    HW2 1257   1.179   1.422   6.651
  120SOL     OW 1258   6.627   6.623   0.107
  120SOL    HW1 1259   6.679   6.632   0.022
  120SOL    HW2 1260   6.590   6.531   0.114
  121SOL     OW 1261   2.374   3.404   6.169
  121SOL    HW1 1262   2.426   3.351   6.237
  121SOL    HW2 1263   2.433   3.424   6.091
  122SOL     OW 1264   1.905   4.572   6.552
  122SOL    HW1 1265   1.883   4.605   6.644
  122SOL    HW2 1266   2.001   4.541   6.550
  123SOL     OW 1267   0.134   1.544   1.526
  123SOL    HW1 1268   0.065   1.616   1.522
  123SOL    HW2 1269   0.135   1.503   1.617
  124SOL     OW 1270   4.998   3.070   0.684
  124SOL    HW1 1271   4.946   3.098   0.603
  124SOL    HW2 1272   5.042   3.151   0.725
  125SOL     OW 1273   3.017   1.489   2.089
  125SOL    HW1 1274   3.083   1.530   2.026
  125SOL    HW2 1275   3.009   1.546   2.170
  126SOL     OW 1276   2.730   3.776   1.178
  126SOL    HW1 1277   2.663   3.708   1.208
  126SOL    HW2 1278   2.804   3.782   1.245
  127SOL     OW 1279   0.360   5.687   5.925
  127SOL    HW1 1280   0.352   5.686   5.825
  127SOL    HW2 1281   0.279   5.644   5.965
  128SOL     OW 1282   4.904   2.568   1.094
  128SOL    HW1 1283   4.897   2.575   0.994
  128SOL    HW2 1284   4.998   2.587   1.122
  129SOL     OW 1285   3.144   2.727   6.102
  129SOL    HW1 1286   3.213   2.799   6.110
  129SOL    HW2 1287   3.053   2.767   6.115
  130SOL     OW 1288   0.668   1.129   3.784
  130SOL    HW1 1289   0.695   1.216   3.743
  130SOL    HW2 1290   0.713   1.119   3.872
  131SOL     OW 1291   5.194   1.892   3.629
  131SOL    HW1 1292   5.168   1.924   3.720
  131SOL    HW2 1293   5.115   1.848   3.585
  132SOL     OW 1294   2.338   2.360   1.127
  132SOL    HW1 1295   2.283   2.316   1.198
  132SOL    HW2 1296   2.308   2.455   1.117
  133SOL     OW 1297   5.000   6.412   4.178
  133SOL    HW1 1298   4.911   6.410   4.131
  133SOL    HW2 1299   4.987   6.436   4.274
  134SOL     OW 1300   6.420   1.485   2.664
  134SOL    HW1 1301   6.490   1.538   2.616
  134SOL    HW2 1302   6.400   1.402   2.612
  135SOL     OW 1303   5.513   3.773   3.286
  135SOL    HW1 1304   5.470   3.839   3.224
  135SOL    HW2 1305   5.609   3.797   3.297
  136SOL     OW 1306   3.145   3.777   6.305
  136SOL    HW1 1307   3.216   3.844   6.284
  136SOL    HW2 1308   3.144   3.706   6.235
  137SOL     OW 1309   5.232   1.692   5.048
  137SOL    HW1 1310   5.156   1.677   4.984
  137SOL    HW2 1311   5.304   1.625   5.030
  138SOL     OW 1312   0.657   4.621   3.083
  138SOL    HW1 1313   0.752   4.591   3.079
  138SOL    HW2 1314   0.597   4.541   3.084
  139SOL     OW 1315   2.153   6.488   5.004
  139SOL    HW1 1316   2.162   6.573   4.952
  139SOL    HW2 1317   2.214   6.418   4.966
  140SOL     OW 1318   0.733   5.773   3.548
  140SOL    HW1 1319   0.774   5.704   3.489
  140SOL    HW2 1320   0.805   5.830   3.588
  141SOL     OW 1321   6.022   3.713   4.724
  141SOL    HW1 1322   6.054   3.622   4.697
  141SOL    HW2 1323   6.079   3.783   4.681
  142SOL     OW 1324   2.131   3.996   0.704
  142SOL    HW1 1325   2.052   3.982   0.764
  142SOL    HW2 1326   2.100   4.001   0.609
  143SOL     OW 1327   5.971   4.497   1.268
  143SOL    HW1 1328   6.051   4.535   1.222
  143SOL    HW2 1329   5.976   4.517   1.366
  144SOL     OW 1330   1.132   6.346   6.337
  144SOL    HW1 1331   1.214   6.336   6.393
  144SOL    HW2 1332   1.136   6.434   6.290
  145SOL     OW 1333   0.047   5.526   0.023
  145SOL    HW1 1334   6.974   5.545   0.033
  145SOL    HW2 1335   0.096   5.557   0.104
  146SOL     OW 1336   5.045   0.618   6.299
  146SOL    HW1 1337   5.124   0.629   6.239
  146SOL    HW2 1338   5.000   0.530   6.279
  147SOL     OW 1339   6.062   3.944   6.379
  147SOL    HW1 1340   6.114   3.926   6.463
  147SOL    HW2 1341   6.047   4.043   6.370
  148SOL     OW 1342   0.236   5.677   6.529
  148SOL    HW1 1343   0.306   5.631   6.475
  148SOL    HW2 1344   0.274   5.762   6.565
  149SOL     OW 1345   2.967   1.837   4.784
  149SOL    HW1 1346   2.987   1.929   4.817
  149SOL    HW2 1347   3.045   1.804   4.730
  150SOL     OW 1348   5.773   6.047   6.166
  150SOL    HW1 1349   5.737   5.960   6.134
  150SOL    HW2 1350   5.871   6.036   6.187
  151SOL     OW 1351   3.441   2.575   1.168
  151SOL    HW1 1352   3.441   2.536   1.261
  151SOL    HW2 1353   3.365   2.537   1.116
  152SOL     OW 1354   1.491   1.055   3.292
  152SOL    HW1 1355   1.432   1.039   3.371
  152SOL    HW2 1356   1.455   1.130   3.237
  153SOL     OW 1357   3.171   0.646   1.785
  153SOL    HW1 1358   3.265   0.660   1.815
  153SOL    HW2 1359   3.171   0.611   1.691
  154SOL     OW 1360   0.710   2.018   2.878
  154SOL    HW1 1361   0.644   1.996   2.807
  154SOL    HW2 1362   0.696   2.112   2.909
  155SOL     OW 1363   6.374   1.613   3.464
  155SOL    HW1 1364   6.292   1.611   3.407
  155SOL    HW2 1365   6.412   1.705   3.465
  156SOL     OW 1366   0.048   2.210   0.571
  156SOL    HW1 1367   0.048   2.115   0.540
  156SOL    HW2 1368   0.082   2.215   0.665
  157SOL     OW 1369   5.965   3.225   1.156
  157SOL    HW1 1370   6.003   3.191   1.242
  157SOL    HW2 1371   5.873   3.262   1.173
  158SOL     OW 1372   2.234   6.055   2.274
  158SOL    HW1 1373   2.248   6.064   2.176
  158SOL    HW2 1374   2.155   6.110   2.303
  159SOL     OW 1375   4.215   4.666   2.043
  159SOL    HW1 1376   4.244   4.589   1.988
  159SOL    HW2 1377   4.294   4.703   2.093
  160SOL     OW 1378   6.300   5.731   0.411
  160SOL    HW1 1379   6.263   5.706   0.321
  160SOL    HW2 1380   6.373   5.667   0.436
  161SOL     OW 1381   1.995   5.770   4.714
  161SOL    HW1 1382   1.946   5.710   4.650
  161SOL    HW2 1383   1.960   5.863   4.705
  162SOL     OW 1384   3.930   6.827   6.910
  162SOL    HW1 1385   3.969   6.914   6.941
  162SOL    HW2 1386   3.984   6.751   6.946
  163SOL     OW 1387   5.599   5.949   0.881
  163SOL    HW1 1388   5.516   5.964   0.934
  163SOL    HW2 1389   5.658   6.030   0.887
  164SOL     OW 1390   6.194   4.322   0.196
  164SOL    HW1 1391   6.182   4.387   0.121
  164SOL    HW2 1392   6.194   4.229   0.161
  165SOL     OW 1393   5.475   2.911   1.903
  165SOL    HW1 1394   5.428   2.835   1.857
  165SOL    HW2 1395   5.506   2.977   1.835
  166SOL     OW 1396   6.916   5.072   3.544
  166SOL    HW1 1397   6.819   5.068   3.567
  166SOL    HW2 1398   6.928   5.121   3.458
  167SOL     OW 1399   5.890   2.743   0.124
  167SOL    HW1 1400   5.914   2.738   0.221
  167SOL    HW2 1401   5.860   2.836   0.102
  168SOL     OW 1402   2.340   3.345   1.231
  168SOL    HW1 1403   2.326   3.415   1.161
  168SOL    HW2 1404   2.355   3.390   1.319
  169SOL     OW 1405   4.506   0.322   1.500
  169SOL    HW1 1406   4.500   0.222   1.509
  169SOL    HW2 1407   4.570   0.358   1.568
  170SOL     OW 1408   1.064   0.997   3.643
  170SOL    HW1 1409   1.015   0.912   3.660
  170SOL    HW2 1410   1.083   1.043   3.729
  171SOL     OW 1411   3.683   4.611   0.279
  171SOL    HW1 1412   3.673   4.599   0.180
  171SOL    HW2 1413   3.700   4.522   0.322
  172SOL     OW 1414   5.709   1.942   4.270
  172SOL    HW1 1415   5.622   1.900   4.241
  172SOL    HW2 1416   5.724   1.923   4.367
  173SOL     OW 1417   6.654   2.241   4.450
  173SOL    HW1 1418   6.605   2.310   4.503
  173SOL    HW2 1419   6.739   2.279   4.415
  174SOL     OW 1420   3.351   5.207   4.894
  174SOL    HW1 1421   3.450   5.217   4.897
  174SOL    HW2 1422   3.328   5.111   4.878
  175SOL     OW 1423   2.583   6.927   2.005
  175SOL    HW1 1424   2.659   6.886   2.055
  175SOL    HW2 1425   2.611   7.018   1.972
  176SOL     OW 1426   1.247   4.141   1.380
  176SOL    HW1 1427   1.240   4.043   1.394
  176SOL    HW2 1428   1.192   4.168   1.301
  177SOL     OW 1429   5.834   3.323   2.464
  177SOL    HW1 1430   5.746   3.284   2.436
  177SOL    HW2 1431   5.840   3.417   2.430
  178SOL     OW 1432   2.838   2.779   6.448
  178SOL    HW1 1433   2.846   2.693   6.398
  178SOL    HW2 1434   2.754   2.826   6.421
  179SOL     OW 1435   2.464   1.336   6.347
  179SOL    HW1 1436   2.419   1.352   6.259
  179SOL    HW2 1437   2.403   1.284   6.407
  180SOL     OW 1438   1.603   6.920   6.785
  180SOL    HW1 1439   1.671   6.885   6.850
  180SOL    HW2 1440   1.522   6.861   6.787
  181SOL     OW 1441   2.794   2.186   6.069
  181SOL    HW1 1442   2.846   2.155   6.148
  181SOL    HW2 1443   2.849   2.250   6.015
  182SOL     OW 1444   3.447   1.215   3.949
  182SOL    HW1 1445   3.351   1.215   3.920
  182SOL    HW2 1446   3.455   1.166   4.036
  183SOL     OW 1447   3.626   2.079   3.395
  183SOL    HW1 1448   3.615   2.104   3.492
  183SOL    HW2 1449   3.538   2.047   3.359
  184SOL     OW 1450   1.993   6.130   4.123
  184SOL    HW1 1451   2.093   6.128   4.117
  184SOL    HW2 1452   1.966   6.193   4.195
  185SOL     OW 1453   0.199   1.647   6.180
  185SOL    HW1 1454   0.272   1.713   6.162
  185SOL    HW2 1455   0.230   1.581   6.249
  186SOL     OW 1456   5.768   1.261   3.857
  186SOL    HW1 1457   5.839   1.192   3.872
  186SOL    HW2 1458   5.747   1.266   3.759
  187SOL     OW 1459   4.248   0.418   2.939
  187SOL    HW1 1460   4.300   0.393   3.021
  187SOL    HW2 1461   4.276   0.510   2.908
  188SOL     OW 1462   6.871   2.295   2.631
  188SOL    HW1 1463   6.872   2.305   2.731
  188SOL    HW2 1464   6.802   2.227   2.605
  189SOL     OW 1465   2.366   5.472   1.379
  189SOL    HW1 1466   2.369   5.543   1.449
  189SOL    HW2 1467   2.396   5.511   1.292
  190SOL     OW 1468   4.340   1.635   4.390
  190SOL    HW1 1469   4.387   1.712   4.432
  190SOL    HW2 1470   4.359   1.551   4.442
  191SOL     OW 1471   5.445   5.916   6.376
  191SOL    HW1 1472   5.459   5.945   6.282
  191SOL    HW2 1473   5.511   5.844   6.400
  192SOL     OW 1474   0.521   5.431   1.851
  192SOL    HW1 1475   0.451   5.359   1.857
  192SOL    HW2 1476   0.572   5.435   1.936
  193SOL     OW 1477   4.709   2.614   5.553
  193SOL    HW1 1478   4.630   2.658   5.596
  193SOL    HW2 1479   4.777   2.593   5.623
  194SOL     OW 1480   4.025   0.573   2.595
  194SOL    HW1 1481   3.990   0.664   2.574
  194SOL    HW2 1482   4.035   0.520   2.511
  195SOL     OW 1483   1.702   7.006   4.946
  195SOL    HW1 1484   1.731   6.921   4.989
  195SOL    HW2 1485   1.773   0.011   4.882
  196SOL     OW 1486   2.631   1.062   6.882
  196SOL    HW1 1487   2.704   1.080   6.817
  196SOL    HW2 1488   2.564   1.137   6.879
  197SOL     OW 1489   2.529   0.438   0.916
  197SOL    HW1 1490   2.498   0.365   0.976
  197SOL    HW2 1491   2.454   0.465   0.855
  198SOL     OW 1492   4.416   0.630   2.858
  198SOL    HW1 1493   4.454   0.605   2.948
  198SOL    HW2 1494   4.484   0.612   2.787
  199SOL     OW 1495   0.612   2.193   3.964
  199SOL    HW1 1496   0.579   2.288   3.956
  199SOL    HW2 1497   0.684   2.189   4.034
  200SOL     OW 1498   1.498   3.583   0.693
  200SOL    HW1 1499   1.529   3.542   0.779
  200SOL    HW2 1500   1.409   3.543   0.668
  201SOL     OW 1501   0.512   6.848   6.201
  201SOL    HW1 1502   0.456   6.766   6.207
  201SOL    HW2 1503   0.601   6.831   6.244
  202SOL     OW 1504   3.622   1.573   6.758
  202SOL    HW1 1505   3.708   1.617   6.783
  202SOL    HW2 1506   3.549   1.642   6.761
  203SOL     OW 1507   6.140   2.405   5.435
  203SOL    HW1 1508   6.192   2.489   5.424
  203SOL    HW2 1509   6.197   2.327   5.410
  204SOL     OW 1510   0.756   0.165   4.661
  204SOL    HW1 1511   0.761   0.072   4.697
  204SOL    HW2 1512   0.813   0.173   4.579
  205SOL     OW 1513   0.817   2.541   3.010
  205SOL    HW1 1514   0.762   2.617   3.045
  205SOL    HW2 1515   0.902   2.535   3.062
  206SOL     OW 1516   0.402   4.030   1.069
  206SOL    HW1 1517   0.397   4.098   0.996
  206SOL    HW2 1518   0.460   3.954   1.040
  207SOL     OW 1519   6.112   1.380   3.966
  207SOL    HW1 1520   6.144   1.419   3.880
  207SOL    HW2 1521   6.070   1.291   3.948
  208SOL     OW 1522   0.286   4.540   5.510
  208SOL    HW1 1523   0.265   4.587   5.596
  208SOL    HW2 1524   0.291   4.442   5.526
  209SOL     OW 1525   0.333   4.971   3.774
  209SOL    HW1 1526   0.280   4.960   3.690
  209SOL    HW2 1527   0.285   5.034   3.836
  210SOL     OW 1528   4.560   1.586   0.636
  210SOL    HW1 1529   4.558   1.542   0.726
  210SOL    HW2 1530   4.649   1.572   0.594
  211SOL     OW 1531   1.278   6.256   1.662
  211SOL    HW1 1532   1.372   6.285   1.683
  211SOL    HW2 1533   1.216   6.290   1.732
  212SOL     OW 1534   1.603   3.618   2.122
  212SOL    HW1 1535   1.587   3.707   2.165
  212SOL    HW2 1536   1.625   3.551   2.193
  213SOL     OW 1537   3.002   6.763   0.677
  213SOL    HW1 1538   3.054   6.728   0.599
  213SOL    HW2 1539   2.946   6.689   0.715
  214SOL     OW 1540   3.350   5.660   2.989
  214SOL    HW1 1541   3.353   5.560   2.995
  214SOL    HW2 1542   3.292   5.687   2.912
  215SOL     OW 1543   2.892   3.816   0.758
  215SOL    HW1 1544   2.966   3.756   0.787
  215SOL    HW2 1545   2.854   3.863   0.838
  216SOL     OW 1546   0.710   5.587   3.134
  216SOL    HW1 1547   0.794   5.545   3.101
  216SOL    HW2 1548   0.697   5.675   3.088
  217SOL     OW 1549   1.518   2.557   4.585
  217SOL    HW1 1550   1.509   2.639   4.641
  217SOL    HW2 1551   1.603   2.562   4.532
  218SOL     OW 1552   0.929   2.785   4.198
  218SOL    HW1 1553   0.889   2.869   4.232
  218SOL    HW2 1554   0.962   2.730   4.275
  219SOL     OW 1555   4.234   6.795   0.060
  219SOL    HW1 1556   4.281   6.784   0.148
  219SOL    HW2 1557   4.278   6.737   7.016
  220SOL     OW 1558   2.958   6.691   1.451
  220SOL    HW1 1559   2.972   6.608   1.505
  220SOL    HW2 1560   3.005   6.767   1.494
  221SOL     OW 1561   5.709   4.323   0.951
  221SOL    HW1 1562   5.720   4.325   1.051
  221SOL    HW2 1563   5.617   4.292   0.929
  222SOL     OW 1564   1.187   5.222   5.636
  222SOL    HW1 1565   1.141   5.187   5.554
  222SOL    HW2 1566   1.279   5.184   5.642
  223SOL     OW 1567   6.810   3.501   5.928
  223SOL    HW1 1568   6.734   3.556   5.963
  223SOL    HW2 1569   6.818   3.417   5.982
  224SOL     OW 1570   2.992   1.944   5.917
  224SOL    HW1 1571   2.963   1.867   5.861
  224SOL    HW2 1572   2.958   2.029   5.877
  225SOL     OW 1573   4.863   3.898   6.578
  225SOL    HW1 1574   4.771   3.936   6.572
  225SOL    HW2 1575   4.919   3.936   6.504
  226SOL     OW 1576   0.765   1.159   5.851
  226SOL    HW1 1577   0.771   1.138   5.754
  226SOL    HW2 1578   0.857   1.164   5.890
  227SOL     OW 1579   0.888   3.826   2.408
  227SOL    HW1 1580   0.825   3.754   2.381
  227SOL    HW2 1581   0.890   3.833   2.508
  228SOL     OW 1582   1.982   0.260   2.822
  228SOL    HW1 1583   1.917   0.186   2.837
  228SOL    HW2 1584   2.072   0.220   2.800
  229SOL     OW 1585   5.934   6.172   5.830
  229SOL    HW1 1586   5.911   6.218   5.916
  229SOL    HW2 1587   5.850   6.157   5.778
  230SOL     OW 1588   3.899   5.466   4.081
  230SOL    HW1 1589   3.929   5.535   4.148
  230SOL    HW2 1590   3.832   5.406   4.124
  231SOL     OW 1591   6.283   1.018   6.793
  231SOL    HW1 1592   6.269   0.957   6.715
  231SOL    HW2 1593   6.297   1.112   6.761
  232SOL     OW 1594   0.089   3.469   6.880
  232SOL    HW1 1595   7.019   3.471   6.849
  232SOL    HW2 1596   0.148   3.508   6.809
  233SOL     OW 1597   3.404   1.020   2.895
  233SOL    HW1 1598   3.399   0.975   2.805
  233SOL    HW2 1599   3.424   1.117   2.883
  234SOL     OW 1600   5.065   1.077   6.407
  234SOL    HW1 1601   5.013   1.160   6.391
  234SOL    HW2 1602   5.028   1.003   6.350
  235SOL     OW 1603   4.810   2.742   2.100
  235SOL    HW1 1604   4.832   2.691   2.016
  235SOL    HW2 1605   4.789   2.837   2.076
  236SOL     OW 1606   5.432   3.104   6.792
  236SOL    HW1 1607   5.517   3.082   6.840
  236SOL    HW2 1608   5.388   3.020   6.761
  237SOL     OW 1609   0.356   4.321   2.039
  237SOL    HW1 1610   0.365   4.308   1.940
  237SOL    HW2 1611   0.260   4.332   2.062
  238SOL     OW 1612   5.630   1.059   0.354
  238SOL    HW1 1613   5.569   1.083   0.279
  238SOL    HW2 1614   5.666   0.967   0.340
  239SOL     OW 1615   0.840   4.298   6.594
  239SOL    HW1 1616   0.900   4.344   6.659
  239SOL    HW2 1617   0.750   4.283   6.635
  240SOL     OW 1618   0.372   2.778   3.363
  240SOL    HW1 1619   0.281   2.740   3.379
  240SOL    HW2 1620   0.439   2.704   3.363
  241SOL     OW 1621   2.918   2.171   4.581
  241SOL    HW1 1622   2.876   2.194   4.493
  241SOL    HW2 1623   2.873   2.222   4.654
  242SOL     OW 1624   3.386   4.178   4.613
  242SOL    HW1 1625   3.460   4.228   4.567
  242SOL    HW2 1626   3.407   4.168   4.710
  243SOL     OW 1627   4.862   0.878   6.883
  243SOL    HW1 1628   4.767   0.851   6.873
  243SOL    HW2 1629   4.889   0.939   6.809
  244SOL     OW 1630   6.459   3.763   5.593
  244SOL    HW1 1631   6.457   3.775   5.494
  244SOL    HW2 1632   6.401   3.686   5.619
  245SOL     OW 1633   4.891   2.331   4.335
  245SOL    HW1 1634   4.973   2.307   4.388
  245SOL    HW2 1635   4.887   2.430   4.323
  246SOL     OW 1636   4.778   2.152   3.425
  246SOL    HW1 1637   4.743   2.141   3.518
  246SOL    HW2 1638   4.877   2.142   3.425
  247SOL     OW 1639   2.704   2.059   0.577
  247SOL    HW1 1640   2.732   1.963   0.575
  247SOL    HW2 1641   2.664   2.085   0.489
  248SOL     OW 1642   3.682   1.206   2.797
  248SOL    HW1 1643   3.773   1.168   2.813
  248SOL    HW2 1644   3.640   1.160   2.718
  249SOL     OW 1645   5.205   0.172   5.063
  249SOL    HW1 1646   5.131   0.108   5.084
  249SOL    HW2 1647   5.242   0.209   5.148
  250SOL     OW 1648   5.058   3.412   0.017
  250SOL    HW1 1649   5.103   3.428   0.105
  250SOL    HW2 1650   5.064   3.494   6.985
  251SOL     OW 1651   4.686   3.288   5.313
  251SOL    HW1 1652   4.657   3.326   5.401
  251SOL    HW2 1653   4.666   3.354   5.240
  252SOL     OW 1654   6.877   6.563   5.210
  252SOL    HW1 1655   6.861   6.662   5.200
  252SOL    HW2 1656   6.972   6.542   5.187
  253SOL     OW 1657   2.634   5.260   5.890
  253SOL    HW1 1658   2.701   5.215   5.832
  253SOL    HW2 1659   2.661   5.356   5.904
  254SOL     OW 1660   6.206   2.669   3.897
  254SOL    HW1 1661   6.221   2.644   3.993
  254SOL    HW2 1662   6.125   2.727   3.890
  255SOL     OW 1663   2.142   4.943   5.542
  255SOL    HW1 1664   2.222   4.924   5.598
  255SOL    HW2 1665   2.110   5.037   5.560
  256SOL     OW 1666   6.018   3.893   5.798
  256SOL    HW1 1667   6.051   3.876   5.706
  256SOL    HW2 1668   6.048   3.983   5.829
  257SOL     OW 1669   4.847   0.476   3.641
  257SOL    HW1 1670   4.888   0.397   3.596
  257SOL    HW2 1671   4.859   0.557   3.583
  258SOL     OW 1672   2.281   4.980   5.262
  258SOL    HW1 1673   2.238   5.003   5.349
  258SOL    HW2 1674   2.262   4.884   5.240
  259SOL     OW 1675   6.603   1.782   2.886
  259SOL    HW1 1676   6.627   1.724   2.964
  259SOL    HW2 1677   6.514   1.756   2.851
  260SOL     OW 1678   4.174   6.482   2.138
  260SOL    HW1 1679   4.266   6.517   2.120
  260SOL    HW2 1680   4.121   6.483   2.053
  261SOL     OW 1681   6.263   3.013   0.766
  261SOL    HW1 1682   6.269   3.068   0.683
  261SOL    HW2 1683   6.243   2.918   0.741
  262SOL     OW 1684   0.757   3.787   0.139
  262SOL    HW1 1685   0.820   3.757   0.210
  262SOL    HW2 1686   0.667   3.805   0.179
  263SOL     OW 1687   2.328   0.566   4.845
  263SOL    HW1 1688   2.426   0.587   4.842
  263SOL    HW2 1689   2.315   0.475   4.884
  264SOL     OW 1690   5.953   3.026   6.784
  264SOL    HW1 1691   5.935   3.086   6.706
  264SOL    HW2 1692   5.977   3.082   6.863
  265SOL     OW 1693   5.699   6.472   2.818
  265SOL    HW1 1694   5.633   6.468   2.893
  265SOL    HW2 1695   5.661   6.524   2.742
  266SOL     OW 1696   3.419   2.839   5.898
  266SOL    HW1 1697   3.440   2.842   5.800
  266SOL    HW2 1698   3.435   2.746   5.932
  267SOL     OW 1699   0.701   1.442   6.361
  267SOL    HW1 1700   0.725   1.531   6.323
  267SOL    HW2 1701   0.651   1.455   6.447
  268SOL     OW 1702   3.183   1.220   6.377
  268SOL    HW1 1703   3.096   1.266   6.393
  268SOL    HW2 1704   3.197   1.207   6.279
  269SOL     OW 1705   1.430   3.648   1.389
  269SOL    HW1 1706   1.454   3.589   1.467
  269SOL    HW2 1707   1.377   3.595   1.323
  270SOL     OW 1708   1.283   6.095   0.488
  270SOL    HW1 1709   1.294   6.050   0.400
  270SOL    HW2 1710   1.370   6.133   0.518
  271SOL     OW 1711   6.915   1.793   6.993
  271SOL    HW1 1712   7.004   1.775   6.951
  271SOL    HW2 1713   6.848   1.812   6.921
  272SOL     OW 1714   3.487   5.576   3.737
  272SOL    HW1 1715   3.410   5.635   3.762
  272SOL    HW2 1716   3.529   5.609   3.653
  273SOL     OW 1717   2.622   4.639   4.437
  273SOL    HW1 1718   2.576   4.552   4.456
  273SOL    HW2 1719   2.630   4.691   4.522
  274SOL     OW 1720   3.894   1.919   2.898
  274SOL    HW1 1721   3.874   2.010   2.933
  274SOL    HW2 1722   3.984   1.918   2.855
  275SOL     OW 1723   6.577   5.316   3.599
  275SOL    HW1 1724   6.631   5.284   3.677
  275SOL    HW2 1725   6.610   5.273   3.515
  276SOL     OW 1726   6.797   6.146   2.486
  276SOL    HW1 1727   6.875   6.104   2.438
  276SOL    HW2 1728   6.779   6.097   2.571
  277SOL     OW 1729   1.602   4.259   0.398
  277SOL    HW1 1730   1.540   4.323   0.443
  277SOL    HW2 1731   1.552   4.177   0.371
  278SOL     OW 1732   0.077   4.552   1.885
  278SOL    HW1 1733   0.065   4.652   1.887
  278SOL    HW2 1734   0.076   4.517   1.979
  279SOL     OW 1735   5.840   3.234   4.387
  279SOL    HW1 1736   5.876   3.226   4.293
  279SOL    HW2 1737   5.834   3.143   4.428
  280SOL     OW 1738   3.154   6.058   3.266
  280SOL    HW1 1739   3.127   6.126   3.198
  280SOL    HW2 1740   3.157   5.967   3.224
  281SOL     OW 1741   2.344   4.340   1.576
  281SOL    HW1 1742   2.343   4.365   1.479
  281SOL    HW2 1743   2.265   4.282   1.596
  282SOL     OW 1744   3.110   1.126   5.855
  282SOL    HW1 1745   3.045   1.194   5.888
  282SOL    HW2 1746   3.170   1.169   5.786
  283SOL     OW 1747   5.835   2.307   6.096
  283SOL    HW1 1748   5.935   2.310   6.089
  283SOL    HW2 1749   5.795   2.381   6.042
  284SOL     OW 1750   1.257   3.955   3.865
  284SOL    HW1 1751   1.189   4.018   3.828
  284SOL    HW2 1752   1.215   3.899   3.936
  285SOL     OW 1753   5.797   4.846   4.309
  285SOL    HW1 1754   5.744   4.848   4.224
  285SOL    HW2 1755   5.852   4.930   4.315
  286SOL     OW 1756   3.315   5.372   6.503
  286SOL    HW1 1757   3.228   5.327   6.480
  286SOL    HW2 1758   3.313   5.403   6.597
  287SOL     OW 1759   0.934   3.685   1.403
  287SOL    HW1 1760   0.932   3.597   1.357
  287SOL    HW2 1761   0.866   3.746   1.362
  288SOL     OW 1762   3.308   1.476   6.966
  288SOL    HW1 1763   3.337   1.560   7.011
  288SOL    HW2 1764   3.387   1.416   6.952
  289SOL     OW 1765   1.782   4.552   5.764
  289SOL    HW1 1766   1.696   4.603   5.773
  289SOL    HW2 1767   1.817   4.563   5.671
  290SOL     OW 1768   6.176   2.067   4.622
  290SOL    HW1 1769   6.275   2.066   4.606
  290SOL    HW2 1770   6.157   2.036   4.715
  291SOL     OW 1771   1.206   2.319   4.687
  291SOL    HW1 1772   1.238   2.324   4.782
  291SOL    HW2 1773   1.280   2.286   4.628
  292SOL     OW 1774   1.564   2.364   3.311
  292SOL    HW1 1775   1.554   2.359   3.410
  292SOL    HW2 1776   1.604   2.453   3.286
  293SOL     OW 1777   4.118   6.523   2.729
  293SOL    HW1 1778   4.176   6.456   2.778
  293SOL    HW2 1779   4.112   6.497   2.633
  294SOL     OW 1780   0.678   6.231   6.691
  294SOL    HW1 1781   0.618   6.266   6.618
  294SOL    HW2 1782   0.630   6.159   6.741
  295SOL     OW 1783   3.791   1.199   3.651
  295SOL    HW1 1784   3.775   1.285   3.603
  295SOL    HW2 1785   3.806   1.126   3.585
  296SOL     OW 1786   3.771   2.172   2.928
  296SOL    HW1 1787   3.784   2.176   2.829
  296SOL    HW2 1788   3.674   2.184   2.950
  297SOL     OW 1789   2.723   4.776   3.407
  297SOL    HW1 1790   2.822   4.772   3.389
  297SOL    HW2 1791   2.697   4.703   3.470
  298SOL     OW 1792   3.351   5.496   1.767
  298SOL    HW1 1793   3.298   5.580   1.780
  298SOL    HW2 1794   3.442   5.519   1.733
  299SOL     OW 1795   5.526   3.240   6.262
  299SOL    HW1 1796   5.441   3.275   6.223
  299SOL    HW2 1797   5.603   3.292   6.225
  300SOL     OW 1798   6.459   0.792   2.709
  300SOL    HW1 1799   6.443   0.869   2.647
  300SOL    HW2 1800   6.557   0.782   2.726
  301SOL     OW 1801   4.848   3.239   1.296
  301SOL    HW1 1802   4.861   3.193   1.384
  301SOL    HW2 1803   4.935   3.276   1.264
  302SOL     OW 1804   1.172   0.337   3.622
  302SOL    HW1 1805   1.139   0.389   3.543
  302SOL    HW2 1806   1.269   0.357   3.637
  303SOL     OW 1807   5.865   0.742   2.074
  303SOL    HW1 1808   5.765   0.749   2.079
  303SOL    HW2 1809   5.892   0.714   1.982
  304SOL     OW 1810   2.451   0.268   3.494
  304SOL    HW1 1811   2.455   0.168   3.506
  304SOL    HW2 1812   2.357   0.299   3.501
  305SOL     OW 1813   0.126   3.489   0.119
  305SOL    HW1 1814   0.079   3.406   0.150
  305SOL    HW2 1815   0.117   3.497   0.020
  306SOL     OW 1816   1.692   0.343   3.768
  306SOL    HW1 1817   1.752   0.287   3.825
  306SOL    HW2 1818   1.740   0.370   3.685
  307SOL     OW 1819   4.614   6.720   0.741
  307SOL    HW1 1820   4.566   6.807   0.735
  307SOL    HW2 1821   4.680   6.723   0.817
  308SOL     OW 1822   6.381   4.097   4.896
  308SOL    HW1 1823   6.335   4.054   4.819
  308SOL    HW2 1824   6.365   4.045   4.980
  309SOL     OW 1825   4.332   3.857   6.075
  309SOL    HW1 1826   4.400   3.878   6.146
  309SOL    HW2 1827   4.371   3.875   5.985
  310SOL     OW 1828   6.677   6.822   5.791
  310SOL    HW1 1829   6.687   6.732   5.832
  310SOL    HW2 1830   6.767   6.861   5.773
  311SOL     OW 1831   6.681   5.066   1.805
  311SOL    HW1 1832   6.758   5.004   1.792
  311SOL    HW2 1833   6.601   5.015   1.835
  312SOL     OW 1834   4.429   2.183   5.788
  312SOL    HW1 1835   4.396   2.180   5.694
  312SOL    HW2 1836   4.373   2.124   5.846
  313SOL     OW 1837   3.049   4.308   1.723
  313SOL    HW1 1838   2.997   4.384   1.764
  313SOL    HW2 1839   3.119   4.345   1.662
  314SOL     OW 1840   3.040   5.474   0.036
  314SOL    HW1 1841   2.980   5.518   0.103
  314SOL    HW2 1842   3.101   5.409   0.083
  315SOL     OW 1843   1.157   2.647   3.574
  315SOL    HW1 1844   1.151   2.621   3.670
  315SOL    HW2 1845   1.163   2.747   3.567
  316SOL     OW 1846   2.138   2.293   4.194
  316SOL    HW1 1847   2.117   2.306   4.097
  316SOL    HW2 1848   2.229   2.329   4.214
  317SOL     OW 1849   1.031   0.986   0.789
  317SOL    HW1 1850   0.931   0.997   0.792
  317SOL    HW2 1851   1.074   1.076   0.789
  318SOL     OW 1852   0.976   5.764   0.364
  318SOL    HW1 1853   0.945   5.750   0.270
  318SOL    HW2 1854   1.057   5.708   0.382
  319SOL     OW 1855   6.996   0.591   2.524
  319SOL    HW1 1856   7.008   0.650   2.604
  319SOL    HW2 1857   6.982   0.497   2.555
  320SOL     OW 1858   5.156   2.542   6.537
  320SOL    HW1 1859   5.171   2.634   6.573
  320SOL    HW2 1860   5.103   2.548   6.453
  321SOL     OW 1861   2.912   1.262   2.198
  321SOL    HW1 1862   2.904   1.198   2.121
  321SOL    HW2 1863   2.962   1.343   2.168
  322SOL     OW 1864   3.220   3.516   4.405
  322SOL    HW1 1865   3.220   3.610   4.370
  322SOL    HW2 1866   3.140   3.502   4.462
  323SOL     OW 1867   0.390   4.249   6.899
  323SOL    HW1 1868   0.385   4.193   6.982
  323SOL    HW2 1869   0.302   4.248   6.853
  324SOL     OW 1870   1.873   2.963   3.770
  324SOL    HW1 1871   1.881   3.010   3.858
  324SOL    HW2 1872   1.964   2.956   3.728
  325SOL     OW 1873   1.920   3.002   1.450
  325SOL    HW1 1874   1.933   2.937   1.525
  325SOL    HW2 1875   1.994   3.069   1.451
  326SOL     OW 1876   1.946   5.515   6.733
  326SOL    HW1 1877   2.015   5.446   6.756
  326SOL    HW2 1878   1.991   5.595   6.692
  327SOL     OW 1879   1.281   5.372   3.591
  327SOL    HW1 1880   1.285   5.299   3.659
  327SOL    HW2 1881   1.196   5.423   3.602
  328SOL     OW 1882   3.124   4.863   2.652
  328SOL    HW1 1883   3.160   4.888   2.562
  328SOL    HW2 1884   3.167   4.778   2.682
  329SOL     OW 1885   3.380   4.124   4.239
  329SOL    HW1 1886   3.317   4.079   4.302
  329SOL    HW2 1887   3.329   4.157   4.160
  330SOL     OW 1888   3.255   5.983   2.161
  330SOL    HW1 1889   3.174   5.929   2.187
  330SOL    HW2 1890   3.316   5.926   2.106
  331SOL     OW 1891   4.524   4.916   6.743
  331SOL    HW1 1892   4.596   4.961   6.796
  331SOL    HW2 1893   4.549   4.915   6.646
  332SOL     OW 1894   3.667   2.109   4.470
  332SOL    HW1 1895   3.758   2.147   4.454
  332SOL    HW2 1896   3.619   2.099   4.383
  333SOL     OW 1897   3.775   0.088   6.845
  333SOL    HW1 1898   3.834   0.128   6.775
  333SOL    HW2 1899   3.820   0.093   6.934
  334SOL     OW 1900   2.921   6.825   1.167
  334SOL    HW1 1901   2.880   6.767   1.096
  334SOL    HW2 1902   2.886   6.797   1.257
  335SOL     OW 1903   3.380   6.778   3.920
  335SOL    HW1 1904   3.289   6.778   3.961
  335SOL    HW2 1905   3.428   6.863   3.945
  336SOL     OW 1906   2.420   0.593   3.522
  336SOL    HW1 1907   2.497   0.580   3.584
  336SOL    HW2 1908   2.436   0.542   3.437
  337SOL     OW 1909   0.397   3.382   0.673
  337SOL    HW1 1910   0.399   3.477   0.641
  337SOL    HW2 1911   0.305   3.345   0.661
  338SOL     OW 1912   2.672   2.529   0.943
  338SOL    HW1 1913   2.595   2.507   0.883
  338SOL    HW2 1914   2.653   2.496   1.036
  339SOL     OW 1915   3.761   6.813   3.981
  339SOL    HW1 1916   3.804   6.849   3.899
  339SOL    HW2 1917   3.827   6.757   4.032
  340SOL     OW 1918   5.391   4.300   4.876
  340SOL    HW1 1919   5.450   4.257   4.944
  340SOL    HW2 1920   5.444   4.366   4.823
  341SOL     OW 1921   6.517   6.928   4.002
  341SOL    HW1 1922   6.588   6.981   3.955
  341SOL    HW2 1923   6.437   6.986   4.017
  342SOL     OW 1924   5.984   4.146   6.936
  342SOL    HW1 1925   5.960   4.051   6.920
  342SOL    HW2 1926   5.901   4.201   6.943
  343SOL     OW 1927   2.383   5.801   0.910
  343SOL    HW1 1928   2.470   5.805   0.861
  343SOL    HW2 1929   2.334   5.718   0.883
  344SOL     OW 1930   1.942   5.499   1.347
  344SOL    HW1 1931   2.032   5.495   1.304
  344SOL    HW2 1932   1.952   5.524   1.443
  345SOL     OW 1933   6.753   1.034   5.762
  345SOL    HW1 1934   6.695   1.026   5.681
  345SOL    HW2 1935   6.849   1.034   5.735
  346SOL     OW 1936   2.378   0.110   1.770
  346SOL    HW1 1937   2.302   0.060   1.812
  346SOL    HW2 1938   2.427   0.162   1.839
  347SOL     OW 1939   4.757   0.082   6.477
  347SOL    HW1 1940   4.773   0.042   6.386
  347SOL    HW2 1941   4.773   0.013   6.547
  348SOL     OW 1942   4.699   4.955   1.508
  348SOL    HW1 1943   4.741   4.866   1.525
  348SOL    HW2 1944   4.687   4.969   1.409
  349SOL     OW 1945   6.878   4.514   2.209
  349SOL    HW1 1946   6.858   4.593   2.150
  349SOL    HW2 1947   6.816   4.515   2.288
  350SOL     OW 1948   3.706   3.654   1.725
  350SOL    HW1 1949   3.655   3.569   1.715
  350SOL    HW2 1950   3.654   3.717   1.783
  351SOL     OW 1951   2.471   2.714   0.657
  351SOL    HW1 1952   2.512   2.625   0.677
  351SOL    HW2 1953   2.372   2.709   0.670
  352SOL     OW 1954   3.543   6.822   4.943
  352SOL    HW1 1955   3.562   6.898   4.881
  352SOL    HW2 1956   3.630   6.780   4.970
  353SOL     OW 1957   2.998   0.023   0.774
  353SOL    HW1 1958   3.082   0.065   0.741
  353SOL    HW2 1959   2.920   0.078   0.744
  354SOL     OW 1960   4.182   2.478   0.254
  354SOL    HW1 1961   4.251   2.477   0.182
  354SOL    HW2 1962   4.111   2.545   0.232
  355SOL     OW 1963   6.524   2.952   2.855
  355SOL    HW1 1964   6.536   2.854   2.844
  355SOL    HW2 1965   6.604   2.990   2.902
  356SOL     OW 1966   4.210   5.374   4.475
  356SOL    HW1 1967   4.122   5.330   4.459
  356SOL    HW2 1968   4.281   5.303   4.483
  357SOL     OW 1969   6.785   6.813   5.239
  357SOL    HW1 1970   6.776   6.836   5.336
  357SOL    HW2 1971   6.695   6.812   5.196
  358SOL     OW 1972   6.419   0.210   1.066
  358SOL    HW1 1973   6.322   0.194   1.054
  358SOL    HW2 1974   6.446   0.294   1.019
  359SOL     OW 1975   1.775   2.464   2.351
  359SOL    HW1 1976   1.720   2.383   2.372
  359SOL    HW2 1977   1.812   2.456   2.259
  360SOL     OW 1978   2.535   6.233   6.363
  360SOL    HW1 1979   2.633   6.220   6.349
  360SOL    HW2 1980   2.493   6.267   6.278
  361SOL     OW 1981   5.496   5.481   2.689
  361SOL    HW1 1982   5.544   5.394   2.697
  361SOL    HW2 1983   5.507   5.534   2.773
  362SOL     OW 1984   3.444   3.604   0.708
  362SOL    HW1 1985   3.446   3.696   0.670
  362SOL    HW2 1986   3.352   3.566   0.698
  363SOL     OW 1987   3.619   4.921   3.679
  363SOL    HW1 1988   3.558   4.944   3.755
  363SOL    HW2 1989   3.674   4.842   3.704
  364SOL     OW 1990   0.693   5.504   5.206
  364SOL    HW1 1991   0.704   5.467   5.113
  364SOL    HW2 1992   0.609   5.467   5.246
  365SOL     OW 1993   4.482   6.602   2.796
  365SOL    HW1 1994   4.561   6.646   2.840
  365SOL    HW2 1995   4.495   6.604   2.697
  366SOL     OW 1996   5.388   0.827   0.209
  366SOL    HW1 1997   5.472   0.796   0.253
  366SOL    HW2 1998   5.408   0.908   0.153
  367SOL     OW 1999   5.169   2.601   0.935
  367SOL    HW1 2000   5.247   2.610   0.872
  367SOL    HW2 2001   5.084   2.609   0.883
  368SOL     OW 2002   1.213   4.265   5.338
  368SOL    HW1 2003   1.237   4.258   5.241
  368SOL    HW2 2004   1.291   4.235   5.394
  369SOL     OW 2005   6.538   4.473   1.784
  369SOL    HW1 2006   6.627   4.442   1.749
  369SOL    HW2 2007   6.525   4.436   1.876
  370SOL     OW 2008   2.723   1.541   5.158
  370SOL    HW1 2009   2.760   1.451   5.180
  370SOL    HW2 2010   2.795   1.598   5.119
  371SOL     OW 2011   2.199   3.874   6.501
  371SOL    HW1 2012   2.101   3.856   6.496
  371SOL    HW2 2013   2.222   3.948   6.438
  372SOL     OW 2014   0.082   0.691   5.246
  372SOL    HW1 2015   0.144   0.615   5.269
  372SOL    HW2 2016   7.013   0.659   5.249
  373SOL     OW 2017   6.971   6.681   5.494
  373SOL    HW1 2018   6.879   6.651   5.469
  373SOL    HW2 2019   6.992   6.649   5.587
  374SOL     OW 2020   4.445   6.888   2.485
  374SOL    HW1 2021   4.376   6.953   2.514
  374SOL    HW2 2022   4.536   6.922   2.510
  375SOL     OW 2023   7.012   4.486   3.521
  375SOL    HW1 2024   7.015   4.442   3.611
  375SOL    HW2 2025   6.968   4.426   3.455
  376SOL     OW 2026   1.846   3.597   3.657
  376SOL    HW1 2027   1.786   3.617   3.580
  376SOL    HW2 2028   1.830   3.503   3.688
  377SOL     OW 2029   6.133   3.030   2.607
  377SOL    HW1 2030   6.233   3.033   2.597
  377SOL    HW2 2031   6.097   2.957   2.549
  378SOL     OW 2032   3.747   2.907   5.576
  378SOL    HW1 2033   3.790   2.984   5.528
  378SOL    HW2 2034   3.653   2.932   5.601
  379SOL     OW 2035   5.714   3.626   1.463
  379SOL    HW1 2036   5.788   3.589   1.518
  379SOL    HW2 2037   5.642   3.557   1.454
  380SOL     OW 2038   2.360   1.656   1.796
  380SOL    HW1 2039   2.397   1.563   1.804
  380SOL    HW2 2040   2.435   1.720   1.777
  381SOL     OW 2041   1.580   4.656   1.367
  381SOL    HW1 2042   1.486   4.632   1.392
  381SOL    HW2 2043   1.629   4.574   1.339
  382SOL     OW 2044   3.891   5.803   6.861
  382SOL    HW1 2045   3.990   5.810   6.845
  382SOL    HW2 2046   3.874   5.794   6.959
  383SOL     OW 2047   6.352   3.083   6.195
  383SOL    HW1 2048   6.258   3.047   6.190
  383SOL    HW2 2049   6.417   3.009   6.179
  384SOL     OW 2050   1.122   3.689   4.869
  384SOL    HW1 2051   1.187   3.707   4.942
  384SOL    HW2 2052   1.144   3.745   4.789
  385SOL     OW 2053   5.237   6.499   0.279
  385SOL    HW1 2054   5.138   6.501   0.288
  385SOL    HW2 2055   5.270   6.590   0.251
  386SOL     OW 2056   4.044   6.749   5.175
  386SOL    HW1 2057   4.131   6.701   5.183
  386SOL    HW2 2058   4.058   6.833   5.122
  387SOL     OW 2059   0.246   6.902   4.081
  387SOL    HW1 2060   0.167   6.864   4.032
  387SOL    HW2 2061   0.218   6.929   4.173
  388SOL     OW 2062   0.116   2.018   4.976
  388SOL    HW1 2063   0.144   1.969   5.058
  388SOL    HW2 2064   0.120   1.957   4.897
  389SOL     OW 2065   4.368   4.103   1.671
  389SOL    HW1 2066   4.334   4.025   1.723
  389SOL    HW2 2067   4.402   4.173   1.733
  390SOL     OW 2068   3.621   1.248   0.437
  390SOL    HW1 2069   3.642   1.311   0.512
  390SOL    HW2 2070   3.603   1.300   0.354
  391SOL     OW 2071   2.813   4.152   5.433
  391SOL    HW1 2072   2.725   4.117   5.404
  391SOL    HW2 2073   2.836   4.114   5.523
  392SOL     OW 2074   1.320   3.266   2.250
  392SOL    HW1 2075   1.417   3.245   2.235
  392SOL    HW2 2076   1.304   3.363   2.236
  393SOL     OW 2077   1.223   4.546   0.762
  393SOL    HW1 2078   1.297   4.613   0.766
  393SOL    HW2 2079   1.176   4.544   0.851
  394SOL     OW 2080   0.280   3.057   0.064
  394SOL    HW1 2081   0.292   3.125   7.017
  394SOL    HW2 2082   0.361   3.055   0.122
  395SOL     OW 2083   5.526   4.090   1.950
  395SOL    HW1 2084   5.511   4.116   2.045
  395SOL    HW2 2085   5.624   4.085   1.932
  396SOL     OW 2086   2.622   2.054   2.347
  396SOL    HW1 2087   2.604   2.148   2.375
  396SOL    HW2 2088   2.549   2.023   2.285
  397SOL     OW 2089   4.756   1.449   5.688
  397SOL    HW1 2090   4.710   1.469   5.774
  397SOL    HW2 2091   4.834   1.389   5.705
  398SOL     OW 2092   1.272   6.535   4.434
  398SOL    HW1 2093   1.236   6.628   4.427
  398SOL    HW2 2094   1.280   6.495   4.343
  399SOL     OW 2095   6.109   6.291   3.941
  399SOL    HW1 2096   6.062   6.204   3.936
  399SOL    HW2 2097   6.126   6.315   4.036
  400SOL     OW 2098   6.778   0.037   4.797
  400SOL    HW1 2099   6.778   6.966   4.824
  400SOL    HW2 2100   6.685   0.065   4.774
  401SOL     OW 2101   6.465   1.169   6.334
  401SOL    HW1 2102   6.429   1.151   6.243
  401SOL    HW2 2103   6.448   1.091   6.394
  402SOL     OW 2104   6.251   0.655   2.532
  402SOL    HW1 2105   6.215   0.676   2.441
  402SOL    HW2 2106   6.284   0.740   2.575
  403SOL     OW 2107   2.912   0.269   5.809
  403SOL    HW1 2108   2.883   0.189   5.861
  403SOL    HW2 2109   3.006   0.294   5.835
  404SOL     OW 2110   3.648   6.089   5.577
  404SOL    HW1 2111   3.601   6.177   5.575
  404SOL    HW2 2112   3.716   6.089   5.650
  405SOL     OW 2113   1.734   4.166   3.205
  405SOL    HW1 2114   1.820   4.135   3.246
  405SOL    HW2 2115   1.703   4.098   3.138
  406SOL     OW 2116   0.816   4.755   5.089
  406SOL    HW1 2117   0.754   4.787   5.161
  406SOL    HW2 2118   0.894   4.708   5.130
  407SOL     OW 2119   1.780   3.349   3.728
  407SOL    HW1 2120   1.719   3.295   3.786
  407SOL    HW2 2121   1.834   3.287   3.671
  408SOL     OW 2122   3.784   2.145   2.644
  408SOL    HW1 2123   3.882   2.127   2.631
  408SOL    HW2 2124   3.732   2.067   2.610
  409SOL     OW 2125   0.292   3.657   1.791
  409SOL    HW1 2126   0.239   3.596   1.850
  409SOL    HW2 2127   0.233   3.691   1.717
  410SOL     OW 2128   1.558   2.383   1.292
  410SOL    HW1 2129   1.531   2.367   1.387
  410SOL    HW2 2130   1.504   2.323   1.232
  411SOL     OW 2131   0.339   1.983   1.661
  411SOL    HW1 2132   0.401   1.951   1.589
  411SOL    HW2 2133   0.384   1.976   1.749
  412SOL     OW 2134   2.693   4.737   2.904
  412SOL    HW1 2135   2.678   4.703   2.811
  412SOL    HW2 2136   2.790   4.727   2.927
  413SOL     OW 2137   3.320   4.905   2.445
  413SOL    HW1 2138   3.354   4.998   2.457
  413SOL    HW2 2139   3.282   4.894   2.353
  414SOL     OW 2140   3.203   0.128   3.980
  414SOL    HW1 2141   3.291   0.168   3.955
  414SOL    HW2 2142   3.132   0.198   3.977
  415SOL     OW 2143   6.825   1.442   0.481
  415SOL    HW1 2144   6.919   1.478   0.484
  415SOL    HW2 2145   6.768   1.493   0.545
  416SOL     OW 2146   5.394   3.753   4.906
  416SOL    HW1 2147   5.366   3.698   4.985
  416SOL    HW2 2148   5.324   3.821   4.886
  417SOL     OW 2149   2.359   1.665   6.778
  417SOL    HW1 2150   2.266   1.676   6.742
  417SOL    HW2 2151   2.356   1.672   6.878
  418SOL     OW 2152   3.485   6.686   4.707
  418SOL    HW1 2153   3.501   6.750   4.782
  418SOL    HW2 2154   3.416   6.725   4.645
  419SOL     OW 2155   6.844   6.870   1.867
  419SOL    HW1 2156   6.868   6.884   1.771
  419SOL    HW2 2157   6.918   6.903   1.925
  420SOL     OW 2158   5.282   0.718   6.734
  420SOL    HW1 2159   5.205   0.680   6.682
  420SOL    HW2 2160   5.333   0.643   6.777
  421SOL     OW 2161   4.974   4.358   4.788
  421SOL    HW1 2162   5.049   4.335   4.850
  421SOL    HW2 2163   5.008   4.419   4.716
  422SOL     OW 2164   4.767   2.049   1.243
  422SOL    HW1 2165   4.681   2.066   1.194
  422SOL    HW2 2166   4.747   2.024   1.337
  423SOL     OW 2167   2.881   0.828   6.526
  423SOL    HW1 2168   2.874   0.861   6.620
  423SOL    HW2 2169   2.903   0.904   6.465
  424SOL     OW 2170   1.438   4.931   2.620
  424SOL    HW1 2171   1.534   4.926   2.593
  424SOL    HW2 2172   1.410   4.844   2.662
  425SOL     OW 2173   4.702   1.079   5.042
  425SOL    HW1 2174   4.634   1.107   4.975
  425SOL    HW2 2175   4.734   1.160   5.092
  426SOL     OW 2176   2.634   2.496   4.824
  426SOL    HW1 2177   2.561   2.515   4.890
  426SOL    HW2 2178   2.669   2.582   4.787
  427SOL     OW 2179   4.687   1.578   3.801
  427SOL    HW1 2180   4.679   1.520   3.882
  427SOL    HW2 2181   4.733   1.528   3.728
  428SOL     OW 2182   2.901   0.912   4.876
  428SOL    HW1 2183   2.815   0.906   4.824
  428SOL    HW2 2184   2.939   1.004   4.866
  429SOL     OW 2185   0.922   6.101   4.068
  429SOL    HW1 2186   0.834   6.057   4.085
  429SOL    HW2 2187   0.945   6.093   3.971
  430SOL     OW 2188   1.638   6.874   3.868
  430SOL    HW1 2189   1.708   6.803   3.865
  430SOL    HW2 2190   1.657   6.935   3.945
  431SOL     OW 2191   3.077   1.970   1.215
  431SOL    HW1 2192   3.161   1.930   1.179
  431SOL    HW2 2193   3.041   2.037   1.149
  432SOL     OW 2194   4.978   2.227   1.210
  432SOL    HW1 2195   4.915   2.169   1.260
  432SOL    HW2 2196   4.928   2.276   1.138
  433SOL     OW 2197   2.995   6.308   6.487
  433SOL    HW1 2198   3.024   6.378   6.422
  433SOL    HW2 2199   2.991   6.348   6.578
  434SOL     OW 2200   3.624   6.424   3.717
  434SOL    HW1 2201   3.539   6.428   3.664
  434SOL    HW2 2202   3.681   6.503   3.694
  435SOL     OW 2203   3.383   1.760   5.879
  435SOL    HW1 2204   3.474   1.718   5.880
  435SOL    HW2 2205   3.367   1.805   5.792
  436SOL     OW 2206   3.592   5.860   3.528
  436SOL    HW1 2207   3.552   5.784   3.476
  436SOL    HW2 2208   3.527   5.937   3.530
  437SOL     OW 2209   0.012   1.080   4.534
  437SOL    HW1 2210   6.989   1.004   4.492
  437SOL    HW2 2211   0.078   1.118   4.469
  438SOL     OW 2212   0.902   5.134   3.641
  438SOL    HW1 2213   0.878   5.188   3.559
  438SOL    HW2 2214   0.913   5.038   3.615
  439SOL     OW 2215   6.057   0.509   2.646
  439SOL    HW1 2216   6.120   0.584   2.626
  439SOL    HW2 2217   6.092   0.456   2.723
  440SOL     OW 2218   3.794   0.787   0.198
  440SOL    HW1 2219   3.728   0.713   0.199
  440SOL    HW2 2220   3.747   0.875   0.203
  441SOL     OW 2221   6.557   4.507   3.138
  441SOL    HW1 2222   6.512   4.463   3.215
  441SOL    HW2 2223   6.488   4.533   3.070
  442SOL     OW 2224   4.933   3.892   5.849
  442SOL    HW1 2225   4.986   3.914   5.767
  442SOL    HW2 2226   4.992   3.897   5.930
  443SOL     OW 2227   4.644   4.294   2.986
  443SOL    HW1 2228   4.672   4.221   3.048
  443SOL    HW2 2229   4.646   4.259   2.892
  444SOL     OW 2230   4.035   0.924   0.939
  444SOL    HW1 2231   4.088   0.840   0.923
  444SOL    HW2 2232   4.095   0.994   0.979
  445SOL     OW 2233   2.512   5.819   3.028
  445SOL    HW1 2234   2.528   5.745   2.962
  445SOL    HW2 2235   2.437   5.794   3.088
  446SOL     OW 2236   5.484   5.591   2.985
  446SOL    HW1 2237   5.490   5.598   3.084
  446SOL    HW2 2238   5.400   5.634   2.953
  447SOL     OW 2239   5.605   4.446   6.232
  447SOL    HW1 2240   5.507   4.462   6.244
  447SOL    HW2 2241   5.623   4.424   6.136
  448SOL     OW 2242   3.198   1.629   2.506
  448SOL    HW1 2243   3.111   1.627   2.458
  448SOL    HW2 2244   3.182   1.645   2.603
  449SOL     OW 2245   1.890   2.695   3.732
  449SOL    HW1 2246   1.856   2.676   3.639
  449SOL    HW2 2247   1.871   2.790   3.756
  450SOL     OW 2248   0.492   4.819   3.115
  450SOL    HW1 2249   0.535   4.737   3.076
  450SOL    HW2 2250   0.555   4.896   3.107
  451SOL     OW 2251   0.116   2.361   3.632
  451SOL    HW1 2252   0.207   2.326   3.655
  451SOL    HW2 2253   0.080   2.413   3.709
  452SOL     OW 2254   3.766   6.334   3.134
  452SOL    HW1 2255   3.697   6.275   3.092
  452SOL    HW2 2256   3.827   6.370   3.064
  453SOL     OW 2257   4.097   7.023   0.007
  453SOL    HW1 2258   4.169   0.058   6.997
  453SOL    HW2 2259   4.137   6.953   0.065
  454SOL     OW 2260   6.677   4.506   5.811
  454SOL    HW1 2261   6.594   4.491   5.864
  454SOL    HW2 2262   6.710   4.418   5.776
  455SOL     OW 2263   6.869   4.232   6.046
  455SOL    HW1 2264   6.942   4.191   5.991
  455SOL    HW2 2265   6.781   4.217   6.000
  456SOL     OW 2266   1.966   0.974   3.139
  456SOL    HW1 2267   1.920   0.901   3.089
  456SOL    HW2 2268   2.017   0.934   3.216
  457SOL     OW 2269   1.861   6.160   6.212
  457SOL    HW1 2270   1.953   6.127   6.231
  457SOL    HW2 2271   1.863   6.259   6.197
  458SOL     OW 2272   2.608   1.676   3.657
  458SOL    HW1 2273   2.688   1.619   3.642
  458SOL    HW2 2274   2.553   1.678   3.573
  459SOL     OW 2275   2.135   0.195   5.443
  459SOL    HW1 2276   2.117   0.293   5.453
  459SOL    HW2 2277   2.227   0.181   5.408
  460SOL     OW 2278   1.167   1.653   5.154
  460SOL    HW1 2279   1.267   1.661   5.149
  460SOL    HW2 2280   1.135   1.587   5.086
  461SOL     OW 2281   0.172   4.589   5.241
  461SOL    HW1 2282   0.210   4.565   5.330
  461SOL    HW2 2283   0.129   4.679   5.245
  462SOL     OW 2284   3.732   3.770   4.040
  462SOL    HW1 2285   3.724   3.757   4.138
  462SOL    HW2 2286   3.785   3.853   4.021
  463SOL     OW 2287   6.195   6.803   2.593
  463SOL    HW1 2288   6.156   6.749   2.518
  463SOL    HW2 2289   6.223   6.893   2.559
  464SOL     OW 2290   3.442   6.226   5.983
  464SOL    HW1 2291   3.487   6.140   5.959
  464SOL    HW2 2292   3.352   6.230   5.939
  465SOL     OW 2293   1.335   2.154   0.746
  465SOL    HW1 2294   1.359   2.196   0.659
  465SOL    HW2 2295   1.237   2.166   0.763
  466SOL     OW 2296   3.340   6.368   5.148
  466SOL    HW1 2297   3.395   6.405   5.223
  466SOL    HW2 2298   3.351   6.425   5.067
  467SOL     OW 2299   0.035   1.920   2.622
  467SOL    HW1 2300   6.979   1.979   2.616
  467SOL    HW2 2301   0.040   1.863   2.540
  468SOL     OW 2302   4.282   0.672   6.465
  468SOL    HW1 2303   4.334   0.718   6.538
  468SOL    HW2 2304   4.292   0.573   6.475
  469SOL     OW 2305   2.929   4.464   6.191
  469SOL    HW1 2306   2.843   4.425   6.156
  469SOL    HW2 2307   3.006   4.425   6.141
  470SOL     OW 2308   2.492   5.338   3.422
  470SOL    HW1 2309   2.559   5.289   3.366
  470SOL    HW2 2310   2.456   5.415   3.370
  471SOL     OW 2311   2.668   2.228   3.811
  471SOL    HW1 2312   2.679   2.157   3.881
  471SOL    HW2 2313   2.757   2.252   3.773
  472SOL     OW 2314   6.226   4.246   6.253
  472SOL    HW1 2315   6.296   4.211   6.191
  472SOL    HW2 2316   6.259   4.238   6.347
  473SOL     OW 2317   6.807   2.379   2.877
  473SOL    HW1 2318   6.747   2.458   2.862
  473SOL    HW2 2319   6.760   2.312   2.934
  474SOL     OW 2320   6.418   6.032   4.876
  474SOL    HW1 2321   6.418   5.939   4.838
  474SOL    HW2 2322   6.490   6.040   4.944
  475SOL     OW 2323   5.586   1.803   0.323
  475SOL    HW1 2324   5.644   1.789   0.243
  475SOL    HW2 2325   5.495   1.765   0.305
  476SOL     OW 2326   0.892   3.898   2.142
  476SOL    HW1 2327   0.977   3.889   2.089
  476SOL    HW2 2328   0.911   3.876   2.238
  477SOL     OW 2329   2.652   6.038   3.694
  477SOL    HW1 2330   2.575   6.079   3.742
  477SOL    HW2 2331   2.708   5.986   3.758
  478SOL     OW 2332   4.454   5.762   2.801
  478SOL    HW1 2333   4.503   5.700   2.861
  478SOL    HW2 2334   4.368   5.789   2.845
  479SOL     OW 2335   4.156   3.471   3.811
  479SOL    HW1 2336   4.151   3.433   3.904
  479SOL    HW2 2337   4.240   3.525   3.801
  480SOL     OW 2338   1.377   6.804   2.796
  480SOL    HW1 2339   1.430   6.794   2.880
  480SOL    HW2 2340   1.439   6.826   2.720
  481SOL     OW 2341   0.690   6.200   0.404
  481SOL    HW1 2342   0.749   6.272   0.440
  481SOL    HW2 2343   0.696   6.199   0.304
  482SOL     OW 2344   5.230   4.593   2.452
  482SOL    HW1 2345   5.163   4.518   2.448
  482SOL    HW2 2346   5.322   4.555   2.443
  483SOL     OW 2347   5.650   2.208   3.132
  483SOL    HW1 2348   5.591   2.134   3.097
  483SOL    HW2 2349   5.679   2.187   3.225
  484SOL     OW 2350   2.242   4.435   4.577
  484SOL    HW1 2351   2.258   4.370   4.652
  484SOL    HW2 2352   2.283   4.523   4.600
  485SOL     OW 2353   5.513   3.527   2.725
  485SOL    HW1 2354   5.598   3.477   2.711
  485SOL    HW2 2355   5.470   3.496   2.810
  486SOL     OW 2356   6.120   6.686   6.182
  486SOL    HW1 2357   6.204   6.633   6.184
  486SOL    HW2 2358   6.134   6.773   6.230
  487SOL     OW 2359   0.224   6.511   4.029
  487SOL    HW1 2360   0.229   6.570   4.109
  487SOL    HW2 2361   0.193   6.565   3.950
  488SOL     OW 2362   1.976   6.543   3.690
  488SOL    HW1 2363   2.003   6.465   3.634
  488SOL    HW2 2364   1.965   6.623   3.631
  489SOL     OW 2365   6.815   6.001   4.939
  489SOL    HW1 2366   6.749   5.950   4.995
  489SOL    HW2 2367   6.865   6.065   4.998
  490SOL     OW 2368   1.422   5.060   5.791
  490SOL    HW1 2369   1.495   5.090   5.853
  490SOL    HW2 2370   1.461   5.002   5.720
  491SOL     OW 2371   0.327   2.977   0.789
  491SOL    HW1 2372   0.310   2.896   0.846
  491SOL    HW2 2373   0.291   2.960   0.697
  492SOL     OW 2374   1.322   1.549   5.682
  492SOL    HW1 2375   1.243   1.525   5.626
  492SOL    HW2 2376   1.332   1.481   5.756
  493SOL     OW 2377   2.543   6.279   5.044
  493SOL    HW1 2378   2.542   6.179   5.051
  493SOL    HW2 2379   2.637   6.311   5.035
  494SOL     OW 2380   2.199   0.690   5.544
  494SOL    HW1 2381   2.295   0.719   5.553
  494SOL    HW2 2382   2.143   0.741   5.610
  495SOL     OW 2383   4.164   6.177   5.488
  495SOL    HW1 2384   4.145   6.130   5.403
  495SOL    HW2 2385   4.154   6.276   5.475
  496SOL     OW 2386   5.849   2.300   2.788
  496SOL    HW1 2387   5.865   2.281   2.885
  496SOL    HW2 2388   5.851   2.214   2.737
  497SOL     OW 2389   3.274   1.101   6.695
  497SOL    HW1 2390   3.317   1.064   6.777
  497SOL    HW2 2391   3.227   1.028   6.646
  498SOL     OW 2392   0.535   5.304   2.216
  498SOL    HW1 2393   0.445   5.306   2.260
  498SOL    HW2 2394   0.555   5.394   2.176
  499SOL     OW 2395   3.486   5.022   6.882
  499SOL    HW1 2396   3.519   4.979   6.798
  499SOL    HW2 2397   3.562   5.029   6.947
  500SOL     OW 2398   6.042   2.581   6.712
  500SOL    HW1 2399   6.057   2.513   6.784
  500SOL    HW2 2400   5.992   2.659   6.750
  501SOL     OW 2401   1.182   6.947   2.927
  501SOL    HW1 2402   1.104   6.884   2.928
  501SOL    HW2 2403   1.255   6.910   2.869
  502SOL     OW 2404   2.145   4.445   6.511
  502SOL    HW1 2405   2.125   4.349   6.529
  502SOL    HW2 2406   2.122   4.467   6.416
  503SOL     OW 2407   3.547   4.940   6.634
  503SOL    HW1 2408   3.555   5.004   6.558
  503SOL    HW2 2409   3.622   4.874   6.629
  504SOL     OW 2410   6.338   6.095   1.961
  504SOL    HW1 2411   6.277   6.148   2.019
  504SOL    HW2 2412   6.420   6.149   1.942
  505SOL     OW 2413   5.027   6.800   5.072
  505SOL    HW1 2414   4.943   6.770   5.116
  505SOL    HW2 2415   5.010   6.816   4.975
  506SOL     OW 2416   3.097   5.800   3.166
  506SOL    HW1 2417   3.099   5.835   3.072
  506SOL    HW2 2418   3.155   5.718   3.172
  507SOL     OW 2419   4.190   0.987   1.833
  507SOL    HW1 2420   4.201   0.970   1.931
  507SOL    HW2 2421   4.178   1.085   1.817
  508SOL     OW 2422   0.266   4.486   4.720
  508SOL    HW1 2423   0.201   4.533   4.659
  508SOL    HW2 2424   0.249   4.515   4.815
  509SOL     OW 2425   4.458   0.831   6.621
  509SOL    HW1 2426   4.555   0.854   6.616
  509SOL    HW2 2427   4.403   0.909   6.594
  510SOL     OW 2428   6.236   4.524   6.160
  510SOL    HW1 2429   6.313   4.557   6.214
  510SOL    HW2 2430   6.208   4.434   6.192
  511SOL     OW 2431   1.859   1.500   0.277
  511SOL    HW1 2432   1.929   1.471   0.211
  511SOL    HW2 2433   1.879   1.460   0.366
  512SOL     OW 2434   5.477   2.528   0.443
  512SOL    HW1 2435   5.471   2.599   0.373
  512SOL    HW2 2436   5.446   2.441   0.406
  513SOL     OW 2437   5.744   0.686   2.844
  513SOL    HW1 2438   5.834   0.727   2.830
  513SOL    HW2 2439   5.673   0.756   2.833
  514SOL     OW 2440   6.953   6.941   4.136
  514SOL    HW1 2441   6.987   6.976   4.049
  514SOL    HW2 2442   0.004   6.937   4.201
  515SOL     OW 2443   3.002   0.550   6.752
  515SOL    HW1 2444   2.975   0.539   6.656
  515SOL    HW2 2445   3.093   0.510   6.766
  516SOL     OW 2446   3.010   4.845   1.388
  516SOL    HW1 2447   2.990   4.748   1.396
  516SOL    HW2 2448   3.084   4.869   1.450
  517SOL     OW 2449   2.829   5.155   2.550
  517SOL    HW1 2450   2.891   5.218   2.597
  517SOL    HW2 2451   2.882   5.098   2.486
  518SOL     OW 2452   2.163   3.344   3.580
  518SOL    HW1 2453   2.177   3.440   3.605
  518SOL    HW2 2454   2.065   3.326   3.569
  519SOL     OW 2455   6.598   6.421   3.498
  519SOL    HW1 2456   6.561   6.474   3.574
  519SOL    HW2 2457   6.595   6.324   3.521
  520SOL     OW 2458   0.962   3.303   6.899
  520SOL    HW1 2459   1.010   3.346   6.976
  520SOL    HW2 2460   0.959   3.204   6.914
  521SOL     OW 2461   5.060   5.101   4.716
  521SOL    HW1 2462   5.121   5.136   4.786
  521SOL    HW2 2463   5.103   5.024   4.669
  522SOL     OW 2464   4.623   3.381   1.008
  522SOL    HW1 2465   4.599   3.318   1.081
  522SOL    HW2 2466   4.635   3.473   1.046
  523SOL     OW 2467   0.079   6.284   1.648
  523SOL    HW1 2468   0.171   6.249   1.661
  523SOL    HW2 2469   0.083   6.380   1.621
  524SOL     OW 2470   0.179   2.492   2.119
  524SOL    HW1 2471   0.124   2.573   2.099
  524SOL    HW2 2472   0.172   2.469   2.216
  525SOL     OW 2473   0.923   3.744   0.341
  525SOL    HW1 2474   0.947   3.839   0.317
  525SOL    HW2 2475   0.996   3.683   0.311
  526SOL     OW 2476   3.608   7.020   4.738
  526SOL    HW1 2477   3.557   0.063   4.688
  526SOL    HW2 2478   3.662   6.965   4.675
  527SOL     OW 2479   1.438   1.859   0.044
  527SOL    HW1 2480   1.380   1.915   0.103
  527SOL    HW2 2481   1.470   1.915   6.992
  528SOL     OW 2482   0.193   3.970   3.874
  528SOL    HW1 2483   0.217   4.046   3.935
  528SOL    HW2 2484   0.188   3.885   3.926
  529SOL     OW 2485   2.794   6.778   5.730
  529SOL    HW1 2486   2.779   6.691   5.683
  529SOL    HW2 2487   2.721   6.792   5.797
  530SOL     OW 2488   3.789   3.366   1.602
  530SOL    HW1 2489   3.714   3.423   1.634
  530SOL    HW2 2490   3.752   3.276   1.575
  531SOL     OW 2491   2.513   0.715   2.419
  531SOL    HW1 2492   2.469   0.685   2.335
  531SOL    HW2 2493   2.580   0.786   2.399
  532SOL     OW 2494   2.359   3.321   6.979
  532SOL    HW1 2495   2.316   3.245   0.003
  532SOL    HW2 2496   2.428   3.364   0.011
  533SOL     OW 2497   4.385   0.198   3.384
  533SOL    HW1 2498   4.439   0.152   3.455
  533SOL    HW2 2499   4.308   0.139   3.357
  534SOL     OW 2500   1.005   5.611   1.073
  534SOL    HW1 2501   1.090   5.615   1.020
  534SOL    HW2 2502   0.981   5.516   1.091
  535SOL     OW 2503   5.607   3.964   3.066
  535SOL    HW1 2504   5.618   3.872   3.027
  535SOL    HW2 2505   5.661   4.029   3.013
  536SOL     OW 2506   6.872   5.976   3.020
  536SOL    HW1 2507   6.967   5.959   2.992
  536SOL    HW2 2508   6.819   5.892   3.008
  537SOL     OW 2509   3.477   6.994   4.285
  537SOL    HW1 2510   3.558   7.024   4.334
  537SOL    HW2 2511   3.491   7.005   4.186
  538SOL     OW 2512   2.513   4.708   5.564
  538SOL    HW1 2513   2.485   4.702   5.660
  538SOL    HW2 2514   2.449   4.655   5.508
  539SOL     OW 2515   1.383   5.744   0.692
  539SOL    HW1 2516   1.302   5.688   0.707
  539SOL    HW2 2517   1.371   5.800   0.610
  540SOL     OW 2518   1.822   0.816   3.885
  540SOL    HW1 2519   1.775   0.878   3.948
  540SOL    HW2 2520   1.805   0.721   3.912
  541SOL     OW 2521   4.393   5.955   4.254
  541SOL    HW1 2522   4.453   6.016   4.304
  541SOL    HW2 2523   4.301   5.958   4.294
  542SOL     OW 2524   3.514   5.828   6.511
  542SOL    HW1 2525   3.437   5.811   6.449
  542SOL    HW2 2526   3.598   5.839   6.458
  543SOL     OW 2527   5.777   3.425   4.041
  543SOL    HW1 2528   5.757   3.336   4.001
  543SOL    HW2 2529   5.691   3.476   4.055
  544SOL     OW 2530   0.037   5.057   0.093
  544SOL    HW1 2531   6.969   5.023   0.103
  544SOL    HW2 2532   0.090   5.035   0.175
  545SOL     OW 2533   5.304   1.716   1.181
  545SOL    HW1 2534   5.233   1.678   1.122
  545SOL    HW2 2535   5.393   1.682   1.151
  546SOL     OW 2536   0.503   4.578   2.049
  546SOL    HW1 2537   0.494   4.633   2.132
  546SOL    HW2 2538   0.452   4.493   2.058
  547SOL     OW 2539   3.499   1.987   0.420
  547SOL    HW1 2540   3.579   2.026   0.375
  547SOL    HW2 2541   3.519   1.973   0.517
  548SOL     OW 2542   3.590   3.005   0.645
  548SOL    HW1 2543   3.598   3.037   0.551
  548SOL    HW2 2544   3.579   3.083   0.706
  549SOL     OW 2545   5.605   2.636   0.694
  549SOL    HW1 2546   5.608   2.693   0.612
  549SOL    HW2 2547   5.640   2.545   0.673
  550SOL     OW 2548   0.111   4.347   3.128
  550SOL    HW1 2549   0.141   4.336   3.034
  550SOL    HW2 2550   0.057   4.431   3.137
  551SOL     OW 2551   0.081   0.987   0.528
  551SOL    HW1 2552   0.037   1.013   0.442
  551SOL    HW2 2553   0.175   1.023   0.530
  552SOL     OW 2554   5.386   5.480   5.378
  552SOL    HW1 2555   5.400   5.439   5.288
  552SOL    HW2 2556   5.450   5.556   5.391
  553SOL     OW 2557   3.164   0.644   4.642
  553SOL    HW1 2558   3.235   0.677   4.705
  553SOL    HW2 2559   3.189   0.668   4.549
  554SOL     OW 2560   5.992   5.827   0.193
  554SOL    HW1 2561   5.966   5.865   0.104
  554SOL    HW2 2562   5.913   5.828   0.254
  555SOL     OW 2563   3.260   5.644   5.529
  555SOL    HW1 2564   3.278   5.665   5.434
  555SOL    HW2 2565   3.164   5.662   5.550
  556SOL     OW 2566   5.560   2.280   4.268
  556SOL    HW1 2567   5.479   2.227   4.241
  556SOL    HW2 2568   5.534   2.376   4.278
  557SOL     OW 2569   0.022   4.472   5.773
  557SOL    HW1 2570   0.100   4.439   5.826
  557SOL    HW2 2571   6.964   4.464   5.828
  558SOL     OW 2572   4.068   3.791   3.180
  558SOL    HW1 2573   3.992   3.856   3.171
  558SOL    HW2 2574   4.056   3.717   3.114
  559SOL     OW 2575   6.326   6.044   5.397
  559SOL    HW1 2576   6.277   6.013   5.479
  559SOL    HW2 2577   6.272   6.114   5.350
  560SOL     OW 2578   6.736   3.315   3.964
  560SOL    HW1 2579   6.776   3.320   4.055
  560SOL    HW2 2580   6.790   3.371   3.901
  561SOL     OW 2581   6.855   3.436   6.771
  561SOL    HW1 2582   6.863   3.447   6.672
  561SOL    HW2 2583   6.759   3.446   6.797
  562SOL     OW 2584   4.962   6.636   5.437
  562SOL    HW1 2585   4.883   6.674   5.387
  562SOL    HW2 2586   5.028   6.709   5.454
  563SOL     OW 2587   1.534   1.717   3.909
  563SOL    HW1 2588   1.444   1.694   3.947
  563SOL    HW2 2589   1.578   1.785   3.967
  564SOL     OW 2590   0.254   1.021   6.346
  564SOL    HW1 2591   0.315   1.087   6.391
  564SOL    HW2 2592   0.204   1.066   6.272
  565SOL     OW 2593   3.251   2.937   3.756
  565SOL    HW1 2594   3.311   2.943   3.677
  565SOL    HW2 2595   3.222   2.842   3.769
  566SOL     OW 2596   2.649   5.247   2.746
  566SOL    HW1 2597   2.697   5.190   2.679
  566SOL    HW2 2598   2.634   5.338   2.708
  567SOL     OW 2599   2.644   2.908   0.746
  567SOL    HW1 2600   2.716   2.878   0.809
  567SOL    HW2 2601   2.597   2.828   0.709
  568SOL     OW 2602   5.528   6.886   0.449
  568SOL    HW1 2603   5.579   6.957   0.402
  568SOL    HW2 2604   5.579   6.856   0.530
  569SOL     OW 2605   0.720   2.610   0.249
  569SOL    HW1 2606   0.640   2.650   0.205
  569SOL    HW2 2607   0.766   2.548   0.185
  570SOL     OW 2608   2.600   0.409   6.077
  570SOL    HW1 2609   2.648   0.322   6.065
  570SOL    HW2 2610   2.563   0.439   5.990
  571SOL     OW 2611   2.588   4.976   3.512
  571SOL    HW1 2612   2.554   5.029   3.434
  571SOL    HW2 2613   2.616   4.885   3.481
  572SOL     OW 2614   1.679   5.725   4.932
  572SOL    HW1 2615   1.637   5.656   4.990
  572SOL    HW2 2616   1.737   5.785   4.987
  573SOL     OW 2617   6.549   1.876   5.951
  573SOL    HW1 2618   6.619   1.931   5.997
  573SOL    HW2 2619   6.574   1.779   5.957
  574SOL     OW 2620   3.374   1.145   5.057
  574SOL    HW1 2621   3.343   1.214   4.992
  574SOL    HW2 2622   3.458   1.102   5.022
  575SOL     OW 2623   4.056   2.673   0.824
  575SOL    HW1 2624   3.997   2.641   0.898
  575SOL    HW2 2625   4.014   2.752   0.780
  576SOL     OW 2626   2.100   2.861   2.712
  576SOL    HW1 2627   2.191   2.866   2.754
  576SOL    HW2 2628   2.075   2.766   2.698
  577SOL     OW 2629   0.792   0.429   2.191
  577SOL    HW1 2630   0.856   0.406   2.264
  577SOL    HW2 2631   0.705   0.458   2.230
  578SOL     OW 2632   1.212   5.637   0.428
  578SOL    HW1 2633   1.272   5.715   0.410
  578SOL    HW2 2634   1.232   5.600   0.519
  579SOL     OW 2635   2.212   4.566   2.371
  579SOL    HW1 2636   2.211   4.528   2.278
  579SOL    HW2 2637   2.306   4.569   2.405
  580SOL     OW 2638   4.370   5.010   4.940
  580SOL    HW1 2639   4.293   4.966   4.986
  580SOL    HW2 2640   4.361   5.109   4.946
  581SOL     OW 2641   0.598   3.193   3.756
  581SOL    HW1 2642   0.645   3.110   3.787
  581SOL    HW2 2643   0.614   3.205   3.658
  582SOL     OW 2644   4.932   5.846   3.467
  582SOL    HW1 2645   4.920   5.754   3.505
  582SOL    HW2 2646   4.872   5.858   3.388
  583SOL     OW 2647   2.760   5.359   5.469
  583SOL    HW1 2648   2.816   5.400   5.540
  583SOL    HW2 2649   2.701   5.429   5.429
  584SOL     OW 2650   3.369   0.155   6.694
  584SOL    HW1 2651   3.282   0.106   6.696
  584SOL    HW2 2652   3.431   0.115   6.762
  585SOL     OW 2653   3.950   6.679   1.291
  585SOL    HW1 2654   3.910   6.688   1.383
  585SOL    HW2 2655   4.021   6.609   1.293
  586SOL     OW 2656   3.980   0.229   1.178
  586SOL    HW1 2657   4.068   0.194   1.208
  586SOL    HW2 2658   3.912   0.156   1.181
  587SOL     OW 2659   5.564   1.953   1.785
  587SOL    HW1 2660   5.488   1.888   1.777
  587SOL    HW2 2661   5.650   1.905   1.770
  588SOL     OW 2662   1.609   4.991   0.806
  588SOL    HW1 2663   1.656   4.939   0.735
  588SOL    HW2 2664   1.544   5.055   0.763
  589SOL     OW 2665   3.289   5.564   1.396
  589SOL    HW1 2666   3.345   5.626   1.451
  589SOL    HW2 2667   3.320   5.566   1.301
  590SOL     OW 2668   5.848   1.399   0.676
  590SOL    HW1 2669   5.864   1.338   0.598
  590SOL    HW2 2670   5.851   1.346   0.761
  591SOL     OW 2671   4.421   5.830   3.843
  591SOL    HW1 2672   4.360   5.909   3.841
  591SOL    HW2 2673   4.509   5.855   3.803
  592SOL     OW 2674   5.251   1.162   3.724
  592SOL    HW1 2675   5.334   1.106   3.728
  592SOL    HW2 2676   5.276   1.255   3.697
  593SOL     OW 2677   4.044   2.228   4.697
  593SOL    HW1 2678   4.038   2.195   4.791
  593SOL    HW2 2679   4.134   2.208   4.660
  594SOL     OW 2680   6.081   1.843   1.034
  594SOL    HW1 2681   6.104   1.768   1.095
  594SOL    HW2 2682   5.986   1.871   1.051
  595SOL     OW 2683   5.545   6.686   3.231
  595SOL    HW1 2684   5.534   6.732   3.319
  595SOL    HW2 2685   5.510   6.745   3.158
  596SOL     OW 2686   0.188   4.685   3.412
  596SOL    HW1 2687   0.146   4.611   3.464
  596SOL    HW2 2688   0.201   4.765   3.471
  597SOL     OW 2689   3.351   0.075   6.053
  597SOL    HW1 2690   3.342   7.019   5.996
  597SOL    HW2 2691   3.309   0.059   6.142
  598SOL     OW 2692   3.083   4.041   4.863
  598SOL    HW1 2693   3.172   4.083   4.882
  598SOL    HW2 2694   3.013   4.084   4.919
  599SOL     OW 2695   1.844   6.440   1.800
  599SOL    HW1 2696   1.888   6.367   1.747
  599SOL    HW2 2697   1.749   6.415   1.819
  600SOL     OW 2698   0.163   3.530   5.661
  600SOL    HW1 2699   0.104   3.505   5.584
  600SOL    HW2 2700   0.231   3.597   5.631
  601SOL     OW 2701   2.072   0.917   5.283
  601SOL    HW1 2702   2.041   0.962   5.366
  601SOL    HW2 2703   2.069   0.982   5.207
  602SOL     OW 2704   3.263   0.157   5.624
  602SOL    HW1 2705   3.189   0.101   5.659
  602SOL    HW2 2706   3.250   0.252   5.653
  603SOL     OW 2707   1.915   1.317   6.151
  603SOL    HW1 2708   1.974   1.385   6.109
  603SOL    HW2 2709   1.969   1.258   6.211
  604SOL     OW 2710   0.227   2.233   1.720
  604SOL    HW1 2711   0.259   2.138   1.718
  604SOL    HW2 2712   0.171   2.250   1.639
  605SOL     OW 2713   0.304   4.848   2.336
  605SOL    HW1 2714   0.338   4.794   2.413
  605SOL    HW2 2715   0.255   4.789   2.272
  606SOL     OW 2716   4.731   6.710   5.304
  606SOL    HW1 2717   4.666   6.644   5.266
  606SOL    HW2 2718   4.682   6.785   5.348
  607SOL     OW 2719   0.834   5.063   5.433
  607SOL    HW1 2720   0.771   5.140   5.424
  607SOL    HW2 2721   0.784   4.977   5.428
  608SOL     OW 2722   3.971   0.345   6.509
  608SOL    HW1 2723   3.928   0.297   6.432
  608SOL    HW2 2724   3.986   0.281   6.584
  609SOL     OW 2725   3.904   2.280   1.660
  609SOL    HW1 2726   3.994   2.311   1.691
  609SOL    HW2 2727   3.835   2.308   1.727
  610SOL     OW 2728   4.540   2.156   0.342
  610SOL    HW1 2729   4.518   2.253   0.352
  610SOL    HW2 2730   4.460   2.106   0.308
  611SOL     OW 2731   4.154   6.804   2.594
  611SOL    HW1 2732   4.201   6.881   2.551
  611SOL    HW2 2733   4.191   6.718   2.558
  612SOL     OW 2734   2.727   4.571   5.609
  612SOL    HW1 2735   2.658   4.642   5.590
  612SOL    HW2 2736   2.697   4.485   5.569
  613SOL     OW 2737   5.423   5.335   5.129
  613SOL    HW1 2738   5.367   5.415   5.107
  613SOL    HW2 2739   5.473   5.307   5.046
  614SOL     OW 2740   4.861   5.128   5.307
  614SOL    HW1 2741   4.768   5.098   5.325
  614SOL    HW2 2742   4.870   5.224   5.333
  615SOL     OW 2743   6.941   4.312   0.623
  615SOL    HW1 2744   6.924   4.216   0.604
  615SOL    HW2 2745   6.991   4.321   0.709
  616SOL     OW 2746   6.423   3.171   3.421
  616SOL    HW1 2747   6.463   3.218   3.342
  616SOL    HW2 2748   6.424   3.232   3.500
  617SOL     OW 2749   1.367   5.194   6.501
  617SOL    HW1 2750   1.307   5.140   6.441
  617SOL    HW2 2751   1.365   5.290   6.473
  618SOL     OW 2752   1.636   2.123   1.582
  618SOL    HW1 2753   1.554   2.181   1.586
  618SOL    HW2 2754   1.715   2.180   1.560
  619SOL     OW 2755   1.706   1.924   0.927
  619SOL    HW1 2756   1.736   1.987   0.855
  619SOL    HW2 2757   1.619   1.955   0.965
  620SOL     OW 2758   4.645   1.688   0.302
  620SOL    HW1 2759   4.561   1.715   0.347
  620SOL    HW2 2760   4.688   1.768   0.260
  621SOL     OW 2761   6.196   5.363   6.453
  621SOL    HW1 2762   6.252   5.442   6.475
  621SOL    HW2 2763   6.238   5.312   6.378
  622SOL     OW 2764   1.959   1.026   0.453
  622SOL    HW1 2765   1.933   0.990   0.364
  622SOL    HW2 2766   2.056   1.006   0.470
  623SOL     OW 2767   0.483   5.801   5.680
  623SOL    HW1 2768   0.554   5.822   5.613
  623SOL    HW2 2769   0.518   5.817   5.772
  624SOL     OW 2770   0.392   2.577   2.318
  624SOL    HW1 2771   0.341   2.501   2.278
  624SOL    HW2 2772   0.364   2.590   2.413
  625SOL     OW 2773   3.208   1.500   1.481
  625SOL    HW1 2774   3.268   1.427   1.513
  625SOL    HW2 2775   3.257   1.560   1.418
  626SOL     OW 2776   2.057   5.738   3.663
  626SOL    HW1 2777   2.142   5.790   3.663
  626SOL    HW2 2778   2.012   5.748   3.573
  627SOL     OW 2779   5.427   0.374   0.606
  627SOL    HW1 2780   5.388   0.282   0.608
  627SOL    HW2 2781   5.354   0.440   0.585
  628SOL     OW 2782   4.773   4.864   4.806
  628SOL    HW1 2783   4.772   4.951   4.757
  628SOL    HW2 2784   4.696   4.861   4.870
  629SOL     OW 2785   0.777   0.026   1.464
  629SOL    HW1 2786   0.785   7.014   1.372
  629SOL    HW2 2787   0.711   0.102   1.464
  630SOL     OW 2788   5.022   2.287   2.028
  630SOL    HW1 2789   4.927   2.318   2.018
  630SOL    HW2 2790   5.039   2.265   2.124
  631SOL     OW 2791   3.237   0.423   5.052
  631SOL    HW1 2792   3.320   0.399   5.001
  631SOL    HW2 2793   3.158   0.414   4.992
  632SOL     OW 2794   2.462   1.117   0.375
  632SOL    HW1 2795   2.534   1.050   0.393
  632SOL    HW2 2796   2.485   1.204   0.418
  633SOL     OW 2797   3.123   5.331   0.713
  633SOL    HW1 2798   3.028   5.307   0.696
  633SOL    HW2 2799   3.161   5.270   0.782
  634SOL     OW 2800   4.459   4.720   1.690
  634SOL    HW1 2801   4.426   4.692   1.780
  634SOL    HW2 2802   4.485   4.639   1.638
  635SOL     OW 2803   4.289   6.623   3.480
  635SOL    HW1 2804   4.274   6.715   3.515
  635SOL    HW2 2805   4.272   6.620   3.382
  636SOL     OW 2806   4.804   5.535   6.253
  636SOL    HW1 2807   4.867   5.535   6.176
  636SOL    HW2 2808   4.839   5.593   6.325
  637SOL     OW 2809   5.261   5.062   2.080
  637SOL    HW1 2810   5.205   5.044   2.161
  637SOL    HW2 2811   5.247   4.989   2.013
  638SOL     OW 2812   5.237   1.416   2.255
  638SOL    HW1 2813   5.197   1.331   2.290
  638SOL    HW2 2814   5.181   1.450   2.180
  639SOL     OW 2815   4.659   5.101   2.166
  639SOL    HW1 2816   4.734   5.167   2.158
  639SOL    HW2 2817   4.695   5.013   2.198
  640SOL     OW 2818   2.738   4.429   5.833
  640SOL    HW1 2819   2.656   4.380   5.806
  640SOL    HW2 2820   2.743   4.517   5.786
  641SOL     OW 2821   0.627   5.414   4.278
  641SOL    HW1 2822   0.667   5.327   4.248
  641SOL    HW2 2823   0.536   5.396   4.316
  642SOL     OW 2824   0.397   4.654   4.375
  642SOL    HW1 2825   0.491   4.675   4.350
  642SOL    HW2 2826   0.365   4.718   4.445
  643SOL     OW 2827   5.965   5.800   4.776
  643SOL    HW1 2828   5.890   5.735   4.789
  643SOL    HW2 2829   5.989   5.805   4.679
  644SOL     OW 2830   0.941   6.264   2.730
  644SOL    HW1 2831   0.991   6.320   2.795
  644SOL    HW2 2832   1.005   6.206   2.679
  645SOL     OW 2833   4.636   2.727   4.416
  645SOL    HW1 2834   4.561   2.668   4.447
  645SOL    HW2 2835   4.686   2.762   4.495
  646SOL     OW 2836   1.928   1.856   3.493
  646SOL    HW1 2837   1.914   1.767   3.449
  646SOL    HW2 2838   2.025   1.867   3.514
  647SOL     OW 2839   6.193   2.893   6.536
  647SOL    HW1 2840   6.181   2.917   6.440
  647SOL    HW2 2841   6.136   2.952   6.593
  648SOL     OW 2842   5.660   3.709   2.939
  648SOL    HW1 2843   5.698   3.693   2.848
  648SOL    HW2 2844   5.627   3.622   2.976
  649SOL     OW 2845   4.216   4.039   0.524
  649SOL    HW1 2846   4.136   4.054   0.466
  649SOL    HW2 2847   4.199   4.075   0.615
  650SOL     OW 2848   4.752   4.569   0.673
  650SOL    HW1 2849   4.798   4.506   0.610
  650SOL    HW2 2850   4.764   4.663   0.639
  651SOL     OW 2851   0.449   5.998   0.710
  651SOL    HW1 2852   0.358   5.992   0.668
  651SOL    HW2 2853   0.440   5.993   0.809
  652SOL     OW 2854   4.813   6.684   3.287
  652SOL    HW1 2855   4.719   6.704   3.316
  652SOL    HW2 2856   4.876   6.735   3.345
  653SOL     OW 2857   3.420   5.443   5.306
  653SOL    HW1 2858   3.381   5.531   5.277
  653SOL    HW2 2859   3.370   5.410   5.387
  654SOL     OW 2860   6.970   4.939   5.921
  654SOL    HW1 2861   6.929   4.926   5.831
  654SOL    HW2 2862   0.027   4.996   5.913
  655SOL     OW 2863   0.680   6.975   1.867
  655SOL    HW1 2864   0.704   6.973   1.964
  655SOL    HW2 2865   0.726   0.026   1.822
  656SOL     OW 2866   1.741   5.990   2.037
  656SOL    HW1 2867   1.748   5.900   1.996
  656SOL    HW2 2868   1.769   6.059   1.970
  657SOL     OW 2869   2.032   1.985   1.582
  657SOL    HW1 2870   2.072   1.984   1.490
  657SOL    HW2 2871   1.969   1.907   1.591
  658SOL     OW 2872   3.282   3.554   0.003
  658SOL    HW1 2873   3.362   3.591   6.981
  658SOL    HW2 2874   3.246   3.622   0.066
  659SOL     OW 2875   3.032   6.554   6.311
  659SOL    HW1 2876   3.089   6.582   6.234
  659SOL    HW2 2877   2.938   6.585   6.296
  660SOL     OW 2878   3.858   5.832   1.957
  660SOL    HW1 2879   3.830   5.899   1.888
  660SOL    HW2 2880   3.881   5.746   1.912
  661SOL     OW 2881   4.231   6.224   3.664
  661SOL    HW1 2882   4.268   6.221   3.571
  661SOL    HW2 2883   4.294   6.178   3.726
  662SOL     OW 2884   3.500   0.686   5.288
  662SOL    HW1 2885   3.434   0.731   5.229
  662SOL    HW2 2886   3.462   0.600   5.321
  663SOL     OW 2887   1.808   3.733   4.897
  663SOL    HW1 2888   1.842   3.653   4.946
  663SOL    HW2 2889   1.708   3.729   4.893
  664SOL     OW 2890   7.017   6.734   5.885
  664SOL    HW1 2891   0.069   6.676   5.858
  664SOL    HW2 2892   0.019   6.791   5.962
  665SOL     OW 2893   3.803   5.146   3.382
  665SOL    HW1 2894   3.745   5.111   3.309
  665SOL    HW2 2895   3.759   5.225   3.425
  666SOL     OW 2896   4.376   0.381   1.786
  666SOL    HW1 2897   4.380   0.314   1.711
  666SOL    HW2 2898   4.398   0.335   1.872
  667SOL     OW 2899   0.900   5.210   1.876
  667SOL    HW1 2900   0.868   5.194   1.969
  667SOL    HW2 2901   0.824   5.197   1.812
  668SOL     OW 2902   5.461   5.581   6.129
  668SOL    HW1 2903   5.541   5.561   6.184
  668SOL    HW2 2904   5.381   5.533   6.167
  669SOL     OW 2905   5.992   1.158   2.763
  669SOL    HW1 2906   6.026   1.144   2.855
  669SOL    HW2 2907   5.934   1.240   2.761
  670SOL     OW 2908   2.356   1.722   2.328
  670SOL    HW1 2909   2.272   1.766   2.298
  670SOL    HW2 2910   2.373   1.640   2.273
  671SOL     OW 2911   3.385   5.856   1.567
  671SOL    HW1 2912   3.319   5.931   1.561
  671SOL    HW2 2913   3.427   5.841   1.477
  672SOL     OW 2914   6.978   5.008   2.052
  672SOL    HW1 2915   6.914   5.085   2.053
  672SOL    HW2 2916   7.022   5.000   2.142
  673SOL     OW 2917   5.630   6.970   1.144
  673SOL    HW1 2918   5.674   0.033   1.158
  673SOL    HW2 2919   5.699   6.900   1.129
  674SOL     OW 2920   0.614   2.088   4.890
  674SOL    HW1 2921   0.670   2.012   4.922
  674SOL    HW2 2922   0.661   2.136   4.816
  675SOL     OW 2923   6.059   2.656   2.478
  675SOL    HW1 2924   6.008   2.705   2.408
  675SOL    HW2 2925   5.998   2.633   2.554
  676SOL     OW 2926   2.374   4.689   4.706
  676SOL    HW1 2927   2.456   4.733   4.669
  676SOL    HW2 2928   2.299   4.755   4.711
  677SOL     OW 2929   5.224   1.049   1.361
  677SOL    HW1 2930   5.128   1.039   1.387
  677SOL    HW2 2931   5.280   0.989   1.418
  678SOL     OW 2932   2.473   4.472   4.854
  678SOL    HW1 2933   2.560   4.484   4.902
  678SOL    HW2 2934   2.445   4.559   4.815
  679SOL     OW 2935   5.290   1.970   5.090
  679SOL    HW1 2936   5.301   1.873   5.110
  679SOL    HW2 2937   5.256   2.018   5.172
  680SOL     OW 2938   4.928   6.498   4.436
  680SOL    HW1 2939   4.844   6.549   4.419
  680SOL    HW2 2940   4.988   6.552   4.496
  681SOL     OW 2941   4.335   5.817   2.124
  681SOL    HW1 2942   4.356   5.720   2.134
  681SOL    HW2 2943   4.237   5.832   2.135
  682SOL     OW 2944   6.829   1.476   1.704
  682SOL    HW1 2945   6.787   1.524   1.781
  682SOL    HW2 2946   6.841   1.539   1.628
  683SOL     OW 2947   4.672   3.017   1.050
  683SOL    HW1 2948   4.695   3.095   1.109
  683SOL    HW2 2949   4.756   2.981   1.009
  684SOL     OW 2950   6.357   0.608   6.511
  684SOL    HW1 2951   6.339   0.510   6.521
  684SOL    HW2 2952   6.299   0.646   6.439
  685SOL     OW 2953   3.140   1.904   3.752
  685SOL    HW1 2954   3.191   1.890   3.836
  685SOL    HW2 2955   3.146   2.000   3.725
  686SOL     OW 2956   4.348   1.124   3.962
  686SOL    HW1 2957   4.353   1.108   4.061
  686SOL    HW2 2958   4.270   1.183   3.942
  687SOL     OW 2959   0.779   1.833   4.577
  687SOL    HW1 2960   0.768   1.909   4.513
  687SOL    HW2 2961   0.752   1.748   4.531
  688SOL     OW 2962   0.123   1.026   5.743
  688SOL    HW1 2963   0.172   1.044   5.657
  688SOL    HW2 2964   0.062   0.948   5.731
  689SOL     OW 2965   1.965   4.178   6.253
  689SOL    HW1 2966   1.878   4.171   6.301
  689SOL    HW2 2967   2.040   4.185   6.319
  690SOL     OW 2968   6.968   3.955   3.409
  690SOL    HW1 2969   6.982   3.876   3.350
  690SOL    HW2 2970   0.001   4.030   3.378
  691SOL     OW 2971   3.787   1.685   0.604
  691SOL    HW1 2972   3.813   1.686   0.701
  691SOL    HW2 2973   3.812   1.597   0.564
  692SOL     OW 2974   3.393   1.600   5.341
  692SOL    HW1 2975   3.421   1.543   5.418
  692SOL    HW2 2976   3.321   1.663   5.370
  693SOL     OW 2977   4.832   6.324   3.724
  693SOL    HW1 2978   4.763   6.356   3.788
  693SOL    HW2 2979   4.847   6.226   3.738
  694SOL     OW 2980   4.544   5.791   4.101
  694SOL    HW1 2981   4.491   5.777   4.017
  694SOL    HW2 2982   4.492   5.849   4.164
  695SOL     OW 2983   3.340   5.633   4.749
  695SOL    HW1 2984   3.379   5.650   4.658
  695SOL    HW2 2985   3.303   5.540   4.752
  696SOL     OW 2986   4.950   3.950   3.338
  696SOL    HW1 2987   4.947   3.881   3.265
  696SOL    HW2 2988   5.042   3.957   3.375
  697SOL     OW 2989   1.187   3.161   2.471
  697SOL    HW1 2990   1.106   3.107   2.446
  697SOL    HW2 2991   1.240   3.182   2.388
  698SOL     OW 2992   4.765   6.474   1.605
  698SOL    HW1 2993   4.683   6.528   1.619
  698SOL    HW2 2994   4.811   6.460   1.693
  699SOL     OW 2995   2.158   3.234   6.569
  699SOL    HW1 2996   2.224   3.206   6.639
  699SOL    HW2 2997   2.207   3.277   6.493
  700SOL     OW 2998   3.198   0.293   2.093
  700SOL    HW1 2999   3.100   0.295   2.070
  700SOL    HW2 3000   3.252   0.295   2.009
  701SOL     OW 3001   6.586   4.697   1.059
  701SOL    HW1 3002   6.489   4.690   1.080
  701SOL    HW2 3003   6.639   4.644   1.126
  702SOL     OW 3004   2.161   0.072   4.481
  702SOL    HW1 3005   2.130   0.166   4.466
  702SOL    HW2 3006   2.261   0.068   4.479
  703SOL     OW 3007   2.889   3.370   5.536
  703SOL    HW1 3008   2.986   3.349   5.522
  703SOL    HW2 3009   2.841   3.362   5.449
  704SOL     OW 3010   2.247   2.515   6.079
  704SOL    HW1 3011   2.307   2.478   6.007
  704SOL    HW2 3012   2.297   2.517   6.166
  705SOL     OW 3013   6.757   5.842   3.495
  705SOL    HW1 3014   6.785   5.866   3.588
  705SOL    HW2 3015   6.837   5.843   3.435
  706SOL     OW 3016   4.133   1.736   5.155
  706SOL    HW1 3017   4.192   1.658   5.133
  706SOL    HW2 3018   4.098   1.776   5.071
  707SOL     OW 3019   3.963   5.556   3.168
  707SOL    HW1 3020   3.883   5.532   3.112
  707SOL    HW2 3021   4.014   5.474   3.191
  708SOL     OW 3022   2.683   1.884   3.825
  708SOL    HW1 3023   2.769   1.906   3.779
  708SOL    HW2 3024   2.632   1.818   3.770
  709SOL     OW 3025   1.373   6.890   1.525
  709SOL    HW1 3026   1.343   6.796   1.536
  709SOL    HW2 3027   1.445   6.895   1.455
  710SOL     OW 3028   4.910   2.574   1.867
  710SOL    HW1 3029   4.830   2.516   1.881
  710SOL    HW2 3030   4.883   2.661   1.827
  711SOL     OW 3031   6.747   3.091   6.331
  711SOL    HW1 3032   6.805   3.026   6.380
  711SOL    HW2 3033   6.702   3.045   6.254
  712SOL     OW 3034   4.780   2.297   1.008
  712SOL    HW1 3035   4.790   2.397   1.011
  712SOL    HW2 3036   4.687   2.272   1.035
  713SOL     OW 3037   4.285   2.729   5.401
  713SOL    HW1 3038   4.225   2.763   5.473
  713SOL    HW2 3039   4.231   2.697   5.324
  714SOL     OW 3040   5.837   5.392   4.104
  714SOL    HW1 3041   5.850   5.491   4.117
  714SOL    HW2 3042   5.811   5.374   4.009
  715SOL     OW 3043   6.754   5.282   5.426
  715SOL    HW1 3044   6.706   5.195   5.440
  715SOL    HW2 3045   6.731   5.344   5.502
  716SOL     OW 3046   2.198   1.043   3.424
  716SOL    HW1 3047   2.152   0.970   3.375
  716SOL    HW2 3048   2.296   1.041   3.402
  717SOL     OW 3049   6.152   4.625   4.231
  717SOL    HW1 3050   6.248   4.596   4.230
  717SOL    HW2 3051   6.145   4.718   4.193
  718SOL     OW 3052   4.742   2.920   4.986
  718SOL    HW1 3053   4.694   2.948   5.070
  718SOL    HW2 3054   4.834   2.889   5.010
  719SOL     OW 3055   5.946   0.324   2.392
  719SOL    HW1 3056   5.930   0.234   2.352
  719SOL    HW2 3057   5.965   0.314   2.490
  720SOL     OW 3058   2.506   0.460   5.815
  720SOL    HW1 3059   2.561   0.422   5.741
  720SOL    HW2 3060   2.409   0.459   5.789
  721SOL     OW 3061   0.785   1.487   2.001
  721SOL    HW1 3062   0.783   1.420   1.926
  721SOL    HW2 3063   0.835   1.447   2.079
  722SOL     OW 3064   3.508   0.772   6.734
  722SOL    HW1 3065   3.442   0.822   6.790
  722SOL    HW2 3066   3.556   0.705   6.791
  723SOL     OW 3067   1.764   6.162   3.907
  723SOL    HW1 3068   1.768   6.075   3.857
  723SOL    HW2 3069   1.825   6.157   3.987
  724SOL     OW 3070   6.927   1.157   3.540
  724SOL    HW1 3071   6.898   1.241   3.586
  724SOL    HW2 3072   0.001   1.159   3.526
  725SOL     OW 3073   1.861   4.680   2.226
  725SOL    HW1 3074   1.841   4.617   2.301
  725SOL    HW2 3075   1.775   4.711   2.185
  726SOL     OW 3076   2.484   5.120   1.101
  726SOL    HW1 3077   2.569   5.171   1.118
  726SOL    HW2 3078   2.442   5.096   1.188
  727SOL     OW 3079   4.746   5.344   5.822
  727SOL    HW1 3080   4.826   5.320   5.767
  727SOL    HW2 3081   4.712   5.434   5.795
  728SOL     OW 3082   6.940   3.216   4.448
  728SOL    HW1 3083   6.866   3.179   4.504
  728SOL    HW2 3084   7.019   3.235   4.506
  729SOL     OW 3085   0.732   2.764   1.413
  729SOL    HW1 3086   0.819   2.750   1.460
  729SOL    HW2 3087   0.657   2.758   1.479
  730SOL     OW 3088   5.520   0.940   3.122
  730SOL    HW1 3089   5.442   0.979   3.170
  730SOL    HW2 3090   5.557   0.864   3.174
  731SOL     OW 3091   4.661   4.430   6.466
  731SOL    HW1 3092   4.639   4.489   6.543
  731SOL    HW2 3093   4.638   4.477   6.381
  732SOL     OW 3094   5.456   2.219   2.217
  732SOL    HW1 3095   5.529   2.263   2.166
  732SOL    HW2 3096   5.409   2.153   2.158
  733SOL     OW 3097   5.932   0.604   4.340
  733SOL    HW1 3098   6.004   0.646   4.283
  733SOL    HW2 3099   5.970   0.524   4.387
  734SOL     OW 3100   6.226   4.443   2.730
  734SOL    HW1 3101   6.284   4.377   2.683
  734SOL    HW2 3102   6.276   4.483   2.807
  735SOL     OW 3103   5.036   0.415   1.473
  735SOL    HW1 3104   4.948   0.412   1.426
  735SOL    HW2 3105   5.022   0.402   1.571
  736SOL     OW 3106   1.087   1.726   3.812
  736SOL    HW1 3107   1.129   1.637   3.791
  736SOL    HW2 3108   1.148   1.799   3.782
  737SOL     OW 3109   5.881   1.840   6.148
  737SOL    HW1 3110   5.969   1.801   6.176
  737SOL    HW2 3111   5.857   1.914   6.211
  738SOL     OW 3112   2.521   3.901   1.391
  738SOL    HW1 3113   2.522   3.891   1.292
  738SOL    HW2 3114   2.492   3.993   1.415
  739SOL     OW 3115   3.930   0.414   5.331
  739SOL    HW1 3116   3.935   0.364   5.244
  739SOL    HW2 3117   3.940   0.512   5.313
  740SOL     OW 3118   6.076   1.755   2.650
  740SOL    HW1 3119   6.055   1.753   2.747
  740SOL    HW2 3120   6.065   1.663   2.611
  741SOL     OW 3121   1.798   1.239   4.872
  741SOL    HW1 3122   1.864   1.277   4.807
  741SOL    HW2 3123   1.771   1.147   4.842
  742SOL     OW 3124   2.281   5.826   1.224
  742SOL    HW1 3125   2.338   5.905   1.246
  742SOL    HW2 3126   2.339   5.750   1.194
  743SOL     OW 3127   0.642   6.375   3.079
  743SOL    HW1 3128   0.556   6.427   3.083
  743SOL    HW2 3129   0.674   6.356   3.172
  744SOL     OW 3130   6.631   0.762   0.344
  744SOL    HW1 3131   6.586   0.717   0.267
  744SOL    HW2 3132   6.562   0.794   0.409
  745SOL     OW 3133   2.357   6.022   5.555
  745SOL    HW1 3134   2.257   6.018   5.565
  745SOL    HW2 3135   2.382   6.106   5.507
  746SOL     OW 3136   5.886   4.328   5.175
  746SOL    HW1 3137   5.890   4.263   5.099
  746SOL    HW2 3138   5.973   4.327   5.224
  747SOL     OW 3139   5.450   5.763   4.198
  747SOL    HW1 3140   5.448   5.687   4.134
  747SOL    HW2 3141   5.368   5.761   4.255
  748SOL     OW 3142   5.098   5.031   2.539
  748SOL    HW1 3143   5.119   5.128   2.529
  748SOL    HW2 3144   5.153   4.978   2.474
  749SOL     OW 3145   5.067   3.572   3.542
  749SOL    HW1 3146   5.152   3.625   3.540
  749SOL    HW2 3147   5.036   3.561   3.636
  750SOL     OW 3148   3.400   0.687   1.204
  750SOL    HW1 3149   3.441   0.636   1.128
  750SOL    HW2 3150   3.442   0.658   1.290
  751SOL     OW 3151   4.862   1.832   1.091
  751SOL    HW1 3152   4.845   1.921   1.133
  751SOL    HW2 3153   4.959   1.823   1.069
  752SOL     OW 3154   3.456   2.791   6.383
  752SOL    HW1 3155   3.386   2.755   6.445
  752SOL    HW2 3156   3.525   2.720   6.367
  753SOL     OW 3157   2.759   3.384   5.283
  753SOL    HW1 3158   2.763   3.465   5.225
  753SOL    HW2 3159   2.684   3.325   5.253
  754SOL     OW 3160   4.871   1.020   0.088
  754SOL    HW1 3161   4.776   1.038   0.113
  754SOL    HW2 3162   4.874   0.978   7.022
  755SOL     OW 3163   3.089   4.318   5.298
  755SOL    HW1 3164   3.067   4.300   5.394
  755SOL    HW2 3165   3.014   4.369   5.255
  756SOL     OW 3166   3.237   4.903   7.019
  756SOL    HW1 3167   3.316   4.856   6.980
  756SOL    HW2 3168   3.247   4.908   0.093
  757SOL     OW 3169   2.386   6.769   2.567
  757SOL    HW1 3170   2.426   6.788   2.477
  757SOL    HW2 3171   2.286   6.771   2.559
  758SOL     OW 3172   3.377   1.165   3.628
  758SOL    HW1 3173   3.417   1.227   3.560
  758SOL    HW2 3174   3.447   1.100   3.659
  759SOL     OW 3175   0.414   2.310   3.019
  759SOL    HW1 3176   0.465   2.374   2.961
  759SOL    HW2 3177   0.317   2.335   3.017
  760SOL     OW 3178   6.311   6.795   3.775
  760SOL    HW1 3179   6.390   6.855   3.761
  760SOL    HW2 3180   6.265   6.819   3.860
  761SOL     OW 3181   5.818   4.975   5.530
  761SOL    HW1 3182   5.874   4.892   5.527
  761SOL    HW2 3183   5.868   5.051   5.488
  762SOL     OW 3184   2.846   6.480   6.057
  762SOL    HW1 3185   2.931   6.521   6.090
  762SOL    HW2 3186   2.854   6.381   6.059
  763SOL     OW 3187   4.978   0.361   6.230
  763SOL    HW1 3188   5.016   0.311   6.152
  763SOL    HW2 3189   5.015   0.323   6.315
  764SOL     OW 3190   6.012   1.395   5.328
  764SOL    HW1 3191   5.994   1.383   5.230
  764SOL    HW2 3192   5.932   1.438   5.371
  765SOL     OW 3193   1.477   6.445   0.633
  765SOL    HW1 3194   1.420   6.441   0.551
  765SOL    HW2 3195   1.431   6.497   0.705
  766SOL     OW 3196   2.561   2.008   5.459
  766SOL    HW1 3197   2.574   1.948   5.380
  766SOL    HW2 3198   2.559   1.953   5.543
  767SOL     OW 3199   6.684   6.570   3.808
  767SOL    HW1 3200   6.680   6.599   3.903
  767SOL    HW2 3201   6.591   6.564   3.771
  768SOL     OW 3202   2.039   6.764   3.225
  768SOL    HW1 3203   1.945   6.756   3.192
  768SOL    HW2 3204   2.098   6.796   3.151
  769SOL     OW 3205   3.784   1.629   5.189
  769SOL    HW1 3206   3.800   1.631   5.091
  769SOL    HW2 3207   3.850   1.690   5.235
  770SOL     OW 3208   1.739   4.573   4.494
  770SOL    HW1 3209   1.679   4.504   4.453
  770SOL    HW2 3210   1.834   4.547   4.479
  771SOL     OW 3211   1.099   5.668   3.250
  771SOL    HW1 3212   1.016   5.644   3.301
  771SOL    HW2 3213   1.179   5.627   3.294
  772SOL     OW 3214   5.342   4.946   6.534
  772SOL    HW1 3215   5.435   4.979   6.522
  772SOL    HW2 3216   5.314   4.961   6.629
  773SOL     OW 3217   1.524   3.342   2.587
  773SOL    HW1 3218   1.493   3.303   2.674
  773SOL    HW2 3219   1.611   3.300   2.560
  774SOL     OW 3220   2.489   1.607   3.420
  774SOL    HW1 3221   2.399   1.568   3.440
  774SOL    HW2 3222   2.479   1.680   3.352
  775SOL     OW 3223   1.980   3.011   4.033
  775SOL    HW1 3224   2.063   2.955   4.039
  775SOL    HW2 3225   2.003   3.100   3.993
  776SOL     OW 3226   6.640   6.836   6.685
  776SOL    HW1 3227   6.585   6.798   6.610
  776SOL    HW2 3228   6.737   6.828   6.662
  777SOL     OW 3229   1.547   3.305   0.487
  777SOL    HW1 3230   1.621   3.311   0.420
  777SOL    HW2 3231   1.488   3.385   0.478
  778SOL     OW 3232   2.613   6.781   1.658
  778SOL    HW1 3233   2.627   6.853   1.591
  778SOL    HW2 3234   2.522   6.790   1.699
  779SOL     OW 3235   0.440   2.838   1.798
  779SOL    HW1 3236   0.408   2.745   1.818
  779SOL    HW2 3237   0.370   2.904   1.824
  780SOL     OW 3238   1.506   2.476   4.250
  780SOL    HW1 3239   1.426   2.511   4.298
  780SOL    HW2 3240   1.589   2.518   4.287
  781SOL     OW 3241   6.555   5.272   6.450
  781SOL    HW1 3242   6.549   5.228   6.540
  781SOL    HW2 3243   6.476   5.245   6.395
  782SOL     OW 3244   2.126   4.244   5.434
  782SOL    HW1 3245   2.186   4.263   5.357
  782SOL    HW2 3246   2.064   4.321   5.448
  783SOL     OW 3247   5.300   5.362   6.911
  783SOL    HW1 3248   5.320   5.409   6.997
  783SOL    HW2 3249   5.280   5.266   6.930
  784SOL     OW 3250   2.357   5.718   2.091
  784SOL    HW1 3251   2.411   5.638   2.062
  784SOL    HW2 3252   2.379   5.740   2.186
  785SOL     OW 3253   0.024   0.971   3.913
  785SOL    HW1 3254   0.035   0.970   4.012
  785SOL    HW2 3255   7.013   1.060   3.883
  786SOL     OW 3256   6.552   0.645   3.344
  786SOL    HW1 3257   6.484   0.574   3.328
  786SOL    HW2 3258   6.550   0.672   3.440
  787SOL     OW 3259   2.273   0.392   7.018
  787SOL    HW1 3260   2.203   0.361   0.057
  787SOL    HW2 3261   2.335   0.317   6.997
  788SOL     OW 3262   4.035   2.779   1.480
  788SOL    HW1 3263   4.122   2.731   1.476
  788SOL    HW2 3264   4.000   2.776   1.574
  789SOL     OW 3265   4.277   5.497   1.875
  789SOL    HW1 3266   4.250   5.475   1.968
  789SOL    HW2 3267   4.197   5.523   1.822
  790SOL     OW 3268   1.360   1.861   2.005
  790SOL    HW1 3269   1.320   1.947   2.037
  790SOL    HW2 3270   1.409   1.876   1.919
  791SOL     OW 3271   2.521   6.098   5.911
  791SOL    HW1 3272   2.611   6.124   5.876
  791SOL    HW2 3273   2.484   6.024   5.855
  792SOL     OW 3274   0.815   1.339   0.948
  792SOL    HW1 3275   0.762   1.266   0.992
  792SOL    HW2 3276   0.889   1.299   0.895
  793SOL     OW 3277   4.892   5.748   4.560
  793SOL    HW1 3278   4.820   5.773   4.496
  793SOL    HW2 3279   4.889   5.650   4.578
  794SOL     OW 3280   3.611   3.425   4.936
  794SOL    HW1 3281   3.650   3.391   5.021
  794SOL    HW2 3282   3.676   3.409   4.861
  795SOL     OW 3283   4.414   0.470   5.451
  795SOL    HW1 3284   4.418   0.546   5.516
  795SOL    HW2 3285   4.331   0.417   5.467
  796SOL     OW 3286   1.673   2.880   6.574
  796SOL    HW1 3287   1.581   2.845   6.556
  796SOL    HW2 3288   1.684   2.968   6.527
  797SOL     OW 3289   3.961   0.025   0.760
  797SOL    HW1 3290   3.963   0.122   0.782
  797SOL    HW2 3291   3.910   0.010   0.676
  798SOL     OW 3292   3.003   6.173   1.429
  798SOL    HW1 3293   3.020   6.264   1.467
  798SOL    HW2 3294   2.937   6.181   1.353
  799SOL     OW 3295   7.023   1.809   6.144
  799SOL    HW1 3296   6.948   1.756   6.182
  799SOL    HW2 3297   0.081   1.755   6.145
  800SOL     OW 3298   6.645   1.628   2.530
  800SOL    HW1 3299   6.665   1.649   2.434
  800SOL    HW2 3300   6.713   1.563   2.564
  801SOL     OW 3301   2.557   4.944   5.210
  801SOL    HW1 3302   2.625   4.991   5.265
  801SOL    HW2 3303   2.469   4.944   5.257
  802SOL     OW 3304   4.762   2.206   6.495
  802SOL    HW1 3305   4.780   2.239   6.588
  802SOL    HW2 3306   4.664   2.215   6.475
  803SOL     OW 3307   2.352   0.139   6.016
  803SOL    HW1 3308   2.263   0.183   6.021
  803SOL    HW2 3309   2.380   0.110   6.108
  804SOL     OW 3310   6.361   6.813   1.237
  804SOL    HW1 3311   6.364   6.772   1.328
  804SOL    HW2 3312   6.450   6.852   1.215
  805SOL     OW 3313   2.067   0.094   3.760
  805SOL    HW1 3314   2.135   0.164   3.742
  805SOL    HW2 3315   2.109   0.017   3.809
  806SOL     OW 3316   0.392   0.302   5.680
  806SOL    HW1 3317   0.370   0.240   5.755
  806SOL    HW2 3318   0.473   0.270   5.631
  807SOL     OW 3319   0.595   6.946   4.589
  807SOL    HW1 3320   0.553   7.002   4.517
  807SOL    HW2 3321   0.692   6.931   4.567
  808SOL     OW 3322   5.918   3.124   0.417
  808SOL    HW1 3323   5.970   3.039   0.406
  808SOL    HW2 3324   5.822   3.107   0.394
  809SOL     OW 3325   0.382   5.573   6.782
  809SOL    HW1 3326   0.286   5.584   6.758
  809SOL    HW2 3327   0.410   5.478   6.767
  810SOL     OW 3328   2.768   3.625   0.915
  810SOL    HW1 3329   2.741   3.669   1.001
  810SOL    HW2 3330   2.738   3.681   0.838
  811SOL     OW 3331   5.575   5.117   4.547
  811SOL    HW1 3332   5.658   5.165   4.577
  811SOL    HW2 3333   5.498   5.182   4.546
  812SOL     OW 3334   0.272   2.321   2.678
  812SOL    HW1 3335   0.306   2.243   2.731
  812SOL    HW2 3336   0.207   2.373   2.733
  813SOL     OW 3337   2.596   0.583   3.731
  813SOL    HW1 3338   2.630   0.676   3.750
  813SOL    HW2 3339   2.656   0.516   3.776
  814SOL     OW 3340   6.555   5.817   2.183
  814SOL    HW1 3341   6.492   5.751   2.224
  814SOL    HW2 3342   6.519   5.847   2.095
  815SOL     OW 3343   4.726   2.829   3.829
  815SOL    HW1 3344   4.809   2.783   3.860
  815SOL    HW2 3345   4.664   2.843   3.907
  816SOL     OW 3346   5.034   4.077   0.695
  816SOL    HW1 3347   5.013   3.980   0.704
  816SOL    HW2 3348   4.957   4.124   0.651
  817SOL     OW 3349   1.321   5.336   1.113
  817SOL    HW1 3350   1.313   5.246   1.072
  817SOL    HW2 3351   1.407   5.341   1.165
  818SOL     OW 3352   5.217   2.619   3.870
  818SOL    HW1 3353   5.252   2.633   3.778
  818SOL    HW2 3354   5.224   2.523   3.895
  819SOL     OW 3355   5.585   2.819   1.521
  819SOL    HW1 3356   5.656   2.754   1.497
  819SOL    HW2 3357   5.505   2.770   1.558
  820SOL     OW 3358   3.004   2.134   4.229
  820SOL    HW1 3359   3.008   2.180   4.140
  820SOL    HW2 3360   2.912   2.142   4.266
  821SOL     OW 3361   5.672   5.081   4.864
  821SOL    HW1 3362   5.700   5.063   4.958
  821SOL    HW2 3363   5.730   5.031   4.801
  822SOL     OW 3364   0.465   4.343   3.290
  822SOL    HW1 3365   0.436   4.438   3.293
  822SOL    HW2 3366   0.411   4.293   3.222
  823SOL     OW 3367   0.008   4.023   5.915
  823SOL    HW1 3368   0.057   3.969   5.983
  823SOL    HW2 3369   0.073   4.062   5.850
  824SOL     OW 3370   5.586   1.180   5.410
  824SOL    HW1 3371   5.639   1.170   5.494
  824SOL    HW2 3372   5.491   1.202   5.433
  825SOL     OW 3373   6.317   5.931   0.970
  825SOL    HW1 3374   6.407   5.970   0.986
  825SOL    HW2 3375   6.276   5.904   1.057
  826SOL     OW 3376   3.814   2.251   6.189
  826SOL    HW1 3377   3.834   2.283   6.096
  826SOL    HW2 3378   3.886   2.190   6.220
  827SOL     OW 3379   3.294   3.944   5.191
  827SOL    HW1 3380   3.313   3.863   5.246
  827SOL    HW2 3381   3.313   3.924   5.095
  828SOL     OW 3382   6.143   5.521   5.024
  828SOL    HW1 3383   6.190   5.609   5.028
  828SOL    HW2 3384   6.178   5.461   5.097
  829SOL     OW 3385   3.629   2.893   2.245
  829SOL    HW1 3386   3.580   2.856   2.324
  829SOL    HW2 3387   3.727   2.901   2.267
  830SOL     OW 3388   5.786   5.170   6.321
  830SOL    HW1 3389   5.816   5.259   6.288
  830SOL    HW2 3390   5.859   5.103   6.307
  831SOL     OW 3391   5.835   6.683   1.241
  831SOL    HW1 3392   5.869   6.763   1.291
  831SOL    HW2 3393   5.907   6.615   1.234
  832SOL     OW 3394   4.405   1.034   4.404
  832SOL    HW1 3395   4.370   1.118   4.364
  832SOL    HW2 3396   4.479   0.998   4.348
  833SOL     OW 3397   0.809   3.967   6.424
  833SOL    HW1 3398   0.844   3.875   6.403
  833SOL    HW2 3399   0.886   4.028   6.441
  834SOL     OW 3400   4.818   3.410   6.750
  834SOL    HW1 3401   4.912   3.380   6.767
  834SOL    HW2 3402   4.815   3.510   6.744
  835SOL     OW 3403   2.017   0.549   4.928
  835SOL    HW1 3404   1.932   0.573   4.974
  835SOL    HW2 3405   2.093   0.597   4.971
  836SOL     OW 3406   3.129   1.473   5.755
  836SOL    HW1 3407   3.198   1.402   5.757
  836SOL    HW2 3408   3.058   1.449   5.688
  837SOL     OW 3409   1.316   0.281   1.458
  837SOL    HW1 3410   1.404   0.255   1.498
  837SOL    HW2 3411   1.332   0.321   1.367
  838SOL     OW 3412   1.811   6.131   4.445
  838SOL    HW1 3413   1.905   6.131   4.478
  838SOL    HW2 3414   1.773   6.039   4.453
  839SOL     OW 3415   2.588   1.496   1.530
  839SOL    HW1 3416   2.628   1.586   1.510
  839SOL    HW2 3417   2.489   1.499   1.514
  840SOL     OW 3418   6.171   5.622   0.198
  840SOL    HW1 3419   6.103   5.694   0.186
  840SOL    HW2 3420   6.130   5.545   0.246
  841SOL     OW 3421   4.266   5.622   5.771
  841SOL    HW1 3422   4.305   5.643   5.682
  841SOL    HW2 3423   4.295   5.530   5.800
  842SOL     OW 3424   3.427   6.532   0.159
  842SOL    HW1 3425   3.449   6.464   0.090
  842SOL    HW2 3426   3.435   6.624   0.120
  843SOL     OW 3427   2.431   2.082   2.137
  843SOL    HW1 3428   2.354   2.020   2.125
  843SOL    HW2 3429   2.398   2.176   2.144
  844SOL     OW 3430   6.881   6.579   1.404
  844SOL    HW1 3431   6.955   6.629   1.449
  844SOL    HW2 3432   6.893   6.481   1.420
  845SOL     OW 3433   4.529   2.235   3.059
  845SOL    HW1 3434   4.510   2.140   3.033
  845SOL    HW2 3435   4.495   2.296   2.988
  846SOL     OW 3436   2.932   1.324   5.959
  846SOL    HW1 3437   2.835   1.308   5.942
  846SOL    HW2 3438   2.951   1.422   5.962
  847SOL     OW 3439   2.349   3.227   1.725
  847SOL    HW1 3440   2.363   3.308   1.783
  847SOL    HW2 3441   2.298   3.252   1.643
  848SOL     OW 3442   6.454   7.009   5.816
  848SOL    HW1 3443   6.383   6.946   5.786
  848SOL    HW2 3444   6.544   6.971   5.794
  849SOL     OW 3445   6.007   3.407   0.315
  849SOL    HW1 3446   5.941   3.461   0.368
  849SOL    HW2 3447   5.984   3.310   0.322
  850SOL     OW 3448   0.425   0.853   4.847
  850SOL    HW1 3449   0.382   0.796   4.777
  850SOL    HW2 3450   0.358   0.874   4.918
  851SOL     OW 3451   6.567   3.450   6.892
  851SOL    HW1 3452   6.480   3.436   6.845
  851SOL    HW2 3453   6.555   3.438   6.990
  852SOL     OW 3454   0.153   5.006   0.731
  852SOL    HW1 3455   0.151   5.047   0.823
  852SOL    HW2 3456   0.248   4.994   0.703
  853SOL     OW 3457   2.263   4.039   6.305
  853SOL    HW1 3458   2.348   4.091   6.295
  853SOL    HW2 3459   2.243   3.991   6.220
  854SOL     OW 3460   5.893   6.542   0.221
  854SOL    HW1 3461   5.970   6.605   0.205
  854SOL    HW2 3462   5.810   6.595   0.235
  855SOL     OW 3463   6.674   0.517   6.824
  855SOL    HW1 3464   6.699   0.436   6.878
  855SOL    HW2 3465   6.604   0.569   6.872
  856SOL     OW 3466   1.232   6.928   6.030
  856SOL    HW1 3467   1.148   6.873   6.030
  856SOL    HW2 3468   1.311   6.867   6.039
  857SOL     OW 3469   0.073   4.584   2.487
  857SOL    HW1 3470   7.007   4.622   2.474
  857SOL    HW2 3471   0.066   4.492   2.525
  858SOL     OW 3472   3.140   3.549   1.211
  858SOL    HW1 3473   3.212   3.589   1.153
  858SOL    HW2 3474   3.066   3.514   1.153
  859SOL     OW 3475   4.736   6.028   5.594
  859SOL    HW1 3476   4.812   5.963   5.584
  859SOL    HW2 3477   4.691   6.013   5.681
  860SOL     OW 3478   5.811   2.853   6.182
  860SOL    HW1 3479   5.832   2.758   6.208
  860SOL    HW2 3480   5.822   2.912   6.261
  861SOL     OW 3481   1.912   5.636   3.049
  861SOL    HW1 3482   2.006   5.620   3.017
  861SOL    HW2 3483   1.897   5.586   3.134
  862SOL     OW 3484   2.055   4.977   3.647
  862SOL    HW1 3485   2.065   5.027   3.560
  862SOL    HW2 3486   1.983   5.020   3.701
  863SOL     OW 3487   5.951   1.046   5.939
  863SOL    HW1 3488   6.014   1.113   5.900
  863SOL    HW2 3489   5.890   1.092   6.004
  864SOL     OW 3490   4.993   0.107   5.298
  864SOL    HW1 3491   5.087   0.080   5.322
  864SOL    HW2 3492   4.935   0.100   5.379
  865SOL     OW 3493   1.768   0.159   5.665
  865SOL    HW1 3494   1.864   0.133   5.674
  865SOL    HW2 3495   1.760   0.242   5.611
  866SOL     OW 3496   3.731   6.336   0.805
  866SOL    HW1 3497   3.821   6.329   0.762
  866SOL    HW2 3498   3.661   6.353   0.735
  867SOL     OW 3499   5.585   2.792   0.442
  867SOL    HW1 3500   5.556   2.870   0.499
  867SOL    HW2 3501   5.572   2.814   0.346
  868SOL     OW 3502   0.038   2.493   2.710
  868SOL    HW1 3503   0.020   2.588   2.686
  868SOL    HW2 3504   6.993   2.434   2.669
  869SOL     OW 3505   6.871   3.879   3.870
  869SOL    HW1 3506   6.813   3.960   3.861
  869SOL    HW2 3507   6.912   3.857   3.781
  870SOL     OW 3508   4.239   4.394   1.137
  870SOL    HW1 3509   4.319   4.412   1.079
  870SOL    HW2 3510   4.268   4.393   1.233
  871SOL     OW 3511   4.862   2.126   4.169
  871SOL    HW1 3512   4.952   2.128   4.125
  871SOL    HW2 3513   4.854   2.202   4.233
  872SOL     OW 3514   6.958   2.169   4.525
  872SOL    HW1 3515   6.943   2.129   4.434
  872SOL    HW2 3516   6.895   2.129   4.590
  873SOL     OW 3517   4.414   6.530   5.697
  873SOL    HW1 3518   4.430   6.432   5.710
  873SOL    HW2 3519   4.451   6.559   5.608
  874SOL     OW 3520   5.873   4.411   6.874
  874SOL    HW1 3521   5.903   4.503   6.848
  874SOL    HW2 3522   5.883   4.398   6.972
  875SOL     OW 3523   5.253   6.023   0.595
  875SOL    HW1 3524   5.210   5.943   0.636
  875SOL    HW2 3525   5.350   6.027   0.622
  876SOL     OW 3526   0.729   5.168   2.079
  876SOL    HW1 3527   0.676   5.136   2.001
  876SOL    HW2 3528   0.671   5.224   2.138
  877SOL     OW 3529   3.218   4.105   6.211
  877SOL    HW1 3530   3.270   4.025   6.182
  877SOL    HW2 3531   3.123   4.079   6.230
  878SOL     OW 3532   4.812   6.899   3.893
  878SOL    HW1 3533   4.770   6.820   3.849
  878SOL    HW2 3534   4.882   6.868   3.958
  879SOL     OW 3535   3.518   0.375   1.554
  879SOL    HW1 3536   3.536   0.465   1.516
  879SOL    HW2 3537   3.441   0.333   1.507
  880SOL     OW 3538   3.943   3.964   3.969
  880SOL    HW1 3539   3.982   3.874   3.951
  880SOL    HW2 3540   3.906   4.002   3.884
  881SOL     OW 3541   4.905   3.136   4.851
  881SOL    HW1 3542   4.906   3.232   4.879
  881SOL    HW2 3543   4.833   3.088   4.901
  882SOL     OW 3544   1.103   2.983   3.894
  882SOL    HW1 3545   1.196   2.969   3.927
  882SOL    HW2 3546   1.049   2.900   3.908
  883SOL     OW 3547   3.637   1.030   1.524
  883SOL    HW1 3548   3.562   0.970   1.552
  883SOL    HW2 3549   3.600   1.112   1.481
  884SOL     OW 3550   5.348   3.398   6.146
  884SOL    HW1 3551   5.294   3.325   6.105
  884SOL    HW2 3552   5.311   3.487   6.116
  885SOL     OW 3553   3.461   1.425   5.092
  885SOL    HW1 3554   3.402   1.424   5.173
  885SOL    HW2 3555   3.438   1.505   5.036
  886SOL     OW 3556   3.830   0.013   0.147
  886SOL    HW1 3557   3.921   0.051   0.130
  886SOL    HW2 3558   3.835   6.938   0.150
  887SOL     OW 3559   4.089   0.005   3.938
  887SOL    HW1 3560   4.097   6.934   3.912
  887SOL    HW2 3561   4.145   0.060   3.876
  888SOL     OW 3562   6.970   6.158   3.243
  888SOL    HW1 3563   6.986   6.093   3.168
  888SOL    HW2 3564   0.003   6.238   3.231
  889SOL     OW 3565   0.018   3.874   0.746
  889SOL    HW1 3566   0.072   3.807   0.695
  889SOL    HW2 3567   6.957   3.833   0.774
  890SOL     OW 3568   1.227   5.585   2.930
  890SOL    HW1 3569   1.321   5.552   2.935
  890SOL    HW2 3570   1.224   5.683   2.951
  891SOL     OW 3571   5.547   5.261   0.447
  891SOL    HW1 3572   5.599   5.183   0.482
  891SOL    HW2 3573   5.476   5.228   0.385
  892SOL     OW 3574   2.358   3.678   5.414
  892SOL    HW1 3575   2.263   3.701   5.436
  892SOL    HW2 3576   2.372   3.685   5.315
  893SOL     OW 3577   2.141   6.305   2.578
  893SOL    HW1 3578   2.220   6.248   2.600
  893SOL    HW2 3579   2.151   6.394   2.623
  894SOL     OW 3580   0.825   3.348   2.169
  894SOL    HW1 3581   0.908   3.299   2.197
  894SOL    HW2 3582   0.747   3.286   2.169
  895SOL     OW 3583   0.420   4.682   3.753
  895SOL    HW1 3584   0.366   4.766   3.748
  895SOL    HW2 3585   0.359   4.604   3.772
  896SOL     OW 3586   5.407   4.973   0.602
  896SOL    HW1 3587   5.506   4.970   0.583
  896SOL    HW2 3588   5.391   5.027   0.684
  897SOL     OW 3589   3.975   1.639   6.635
  897SOL    HW1 3590   3.935   1.690   6.711
  897SOL    HW2 3591   4.023   1.558   6.671
  898SOL     OW 3592   2.773   6.024   2.981
  898SOL    HW1 3593   2.814   5.935   2.962
  898SOL    HW2 3594   2.699   6.012   3.048
  899SOL     OW 3595   0.061   6.229   6.477
  899SOL    HW1 3596   0.147   6.259   6.518
  899SOL    HW2 3597   0.079   6.156   6.412
  900SOL     OW 3598   5.675   6.814   0.658
  900SOL    HW1 3599   5.768   6.778   0.646
  900SOL    HW2 3600   5.647   6.803   0.754
  901SOL     OW 3601   2.506   6.678   3.192
  901SOL    HW1 3602   2.546   6.654   3.103
  901SOL    HW2 3603   2.411   6.647   3.196
  902SOL     OW 3604   0.690   2.524   0.723
  902SOL    HW1 3605   0.705   2.430   0.690
  902SOL    HW2 3606   0.769   2.554   0.776
  903SOL     OW 3607   6.958   2.353   0.372
  903SOL    HW1 3608   7.005   2.357   0.284
  903SOL    HW2 3609   7.014   2.304   0.439
  904SOL     OW 3610   2.454   2.037   2.763
  904SOL    HW1 3611   2.371   1.982   2.752
  904SOL    HW2 3612   2.432   2.118   2.818
  905SOL     OW 3613   5.177   1.825   0.152
  905SOL    HW1 3614   5.131   1.761   0.092
  905SOL    HW2 3615   5.113   1.858   0.222
  906SOL     OW 3616   6.821   2.011   6.354
  906SOL    HW1 3617   6.887   2.083   6.375
  906SOL    HW2 3618   6.858   1.923   6.384
  907SOL     OW 3619   5.279   3.330   0.724
  907SOL    HW1 3620   5.364   3.348   0.773
  907SOL    HW2 3621   5.211   3.293   0.787
  908SOL     OW 3622   2.480   4.623   2.398
  908SOL    HW1 3623   2.516   4.553   2.336
  908SOL    HW2 3624   2.486   4.712   2.353
  909SOL     OW 3625   4.603   5.571   1.012
  909SOL    HW1 3626   4.668   5.643   0.986
  909SOL    HW2 3627   4.512   5.594   0.976
  910SOL     OW 3628   3.013   2.145   1.027
  910SOL    HW1 3629   2.928   2.133   0.977
  910SOL    HW2 3630   3.068   2.217   0.985
  911SOL     OW 3631   0.868   6.226   6.340
  911SOL    HW1 3632   0.962   6.258   6.336
  911SOL    HW2 3633   0.807   6.300   6.309
  912SOL     OW 3634   6.319   2.163   2.953
  912SOL    HW1 3635   6.356   2.253   2.930
  912SOL    HW2 3636   6.364   2.093   2.898
  913SOL     OW 3637   4.678   6.719   2.971
  913SOL    HW1 3638   4.652   6.637   3.022
  913SOL    HW2 3639   4.704   6.792   3.035
  914SOL     OW 3640   2.504   6.843   6.681
  914SOL    HW1 3641   2.448   6.763   6.700
  914SOL    HW2 3642   2.455   6.926   6.707
  915SOL     OW 3643   5.996   4.643   6.789
  915SOL    HW1 3644   6.002   4.724   6.730
  915SOL    HW2 3645   5.997   4.672   6.885
  916SOL     OW 3646   1.922   2.508   1.815
  916SOL    HW1 3647   1.924   2.579   1.886
  916SOL    HW2 3648   2.010   2.461   1.812
  917SOL     OW 3649   0.460   6.317   0.555
  917SOL    HW1 3650   0.457   6.372   0.639
  917SOL    HW2 3651   0.555   6.289   0.537
  918SOL     OW 3652   3.216   0.119   0.649
  918SOL    HW1 3653   3.183   0.142   0.558
  918SOL    HW2 3654   3.259   0.029   0.648
  919SOL     OW 3655   5.437   1.558   3.053
  919SOL    HW1 3656   5.367   1.621   3.019
  919SOL    HW2 3657   5.492   1.524   2.976
  920SOL     OW 3658   2.705   4.019   1.623
  920SOL    HW1 3659   2.717   4.109   1.582
  920SOL    HW2 3660   2.610   4.009   1.652
  921SOL     OW 3661   4.963   5.907   3.907
  921SOL    HW1 3662   5.037   5.886   3.971
  921SOL    HW2 3663   4.919   5.993   3.935
  922SOL     OW 3664   3.918   3.580   4.321
  922SOL    HW1 3665   3.888   3.674   4.329
  922SOL    HW2 3666   3.845   3.518   4.348
  923SOL     OW 3667   2.590   3.147   6.851
  923SOL    HW1 3668   2.499   3.155   6.811
  923SOL    HW2 3669   2.587   3.175   6.946
  924SOL     OW 3670   6.251   4.151   1.730
  924SOL    HW1 3671   6.193   4.070   1.728
  924SOL    HW2 3672   6.321   4.144   1.659
  925SOL     OW 3673   7.022   2.693   0.048
  925SOL    HW1 3674   0.072   2.670   0.109
  925SOL    HW2 3675   0.008   2.787   0.016
  926SOL     OW 3676   6.818   0.748   0.951
  926SOL    HW1 3677   6.882   0.813   0.908
  926SOL    HW2 3678   6.757   0.798   1.012
  927SOL     OW 3679   5.411   3.780   3.931
  927SOL    HW1 3680   5.371   3.829   3.853
  927SOL    HW2 3681   5.352   3.792   4.011
  928SOL     OW 3682   2.715   5.577   0.679
  928SOL    HW1 3683   2.791   5.635   0.649
  928SOL    HW2 3684   2.644   5.634   0.719
  929SOL     OW 3685   6.977   0.505   0.076
  929SOL    HW1 3686   6.979   0.457   7.014
  929SOL    HW2 3687   6.991   0.603   0.060
  930SOL     OW 3688   4.411   5.659   6.519
  930SOL    HW1 3689   4.490   5.626   6.572
  930SOL    HW2 3690   4.415   5.621   6.426
  931SOL     OW 3691   6.386   1.741   4.396
  931SOL    HW1 3692   6.426   1.691   4.472
  931SOL    HW2 3693   6.443   1.819   4.373
  932SOL     OW 3694   2.578   1.787   3.236
  932SOL    HW1 3695   2.563   1.806   3.139
  932SOL    HW2 3696   2.673   1.759   3.250
  933SOL     OW 3697   1.548   5.644   2.905
  933SOL    HW1 3698   1.497   5.680   2.827
  933SOL    HW2 3699   1.540   5.544   2.907
  934SOL     OW 3700   2.489   5.779   6.026
  934SOL    HW1 3701   2.416   5.753   5.963
  934SOL    HW2 3702   2.536   5.859   5.990
  935SOL     OW 3703   4.929   4.540   3.848
  935SOL    HW1 3704   4.971   4.547   3.757
  935SOL    HW2 3705   4.898   4.446   3.863
  936SOL     OW 3706   1.288   0.029   6.260
  936SOL    HW1 3707   1.227   7.004   6.321
  936SOL    HW2 3708   1.295   7.007   6.173
  937SOL     OW 3709   5.108   2.028   5.614
  937SOL    HW1 3710   5.167   1.976   5.676
  937SOL    HW2 3711   5.072   1.967   5.543
  938SOL     OW 3712   6.282   5.405   4.545
  938SOL    HW1 3713   6.218   5.385   4.619
  938SOL    HW2 3714   6.336   5.323   4.525
  939SOL     OW 3715   0.491   0.043   4.345
  939SOL    HW1 3716   0.496   0.129   4.295
  939SOL    HW2 3717   0.494   6.991   4.282
  940SOL     OW 3718   0.713   4.289   0.862
  940SOL    HW1 3719   0.788   4.315   0.801
  940SOL    HW2 3720   0.723   4.192   0.887
  941SOL     OW 3721   5.080   0.651   6.570
  941SOL    HW1 3722   5.041   0.584   6.634
  941SOL    HW2 3723   5.050   0.630   6.477
  942SOL     OW 3724   6.161   6.261   1.369
  942SOL    HW1 3725   6.147   6.223   1.461
  942SOL    HW2 3726   6.137   6.192   1.301
  943SOL     OW 3727   2.160   4.955   2.559
  943SOL    HW1 3728   2.103   4.912   2.630
  943SOL    HW2 3729   2.130   4.923   2.469
  944SOL     OW 3730   0.564   5.172   4.530
  944SOL    HW1 3731   0.479   5.224   4.521
  944SOL    HW2 3732   0.642   5.235   4.531
  945SOL     OW 3733   0.438   4.729   5.387
  945SOL    HW1 3734   0.367   4.793   5.415
  945SOL    HW2 3735   0.414   4.637   5.419
  946SOL     OW 3736   4.647   4.910   4.293
  946SOL    HW1 3737   4.622   4.906   4.390
  946SOL    HW2 3738   4.606   4.990   4.251
  947SOL     OW 3739   3.619   3.428   3.632
  947SOL    HW1 3740   3.534   3.446   3.582
  947SOL    HW2 3741   3.696   3.458   3.577
  948SOL     OW 3742   4.830   1.056   2.651
  948SOL    HW1 3743   4.771   0.984   2.616
  948SOL    HW2 3744   4.926   1.028   2.642
  949SOL     OW 3745   3.269   6.109   0.091
  949SOL    HW1 3746   3.287   6.206   0.076
  949SOL    HW2 3747   3.239   6.067   0.005
  950SOL     OW 3748   5.585   5.690   2.494
  950SOL    HW1 3749   5.559   5.647   2.581
  950SOL    HW2 3750   5.578   5.789   2.503
  951SOL     OW 3751   1.079   0.270   3.862
  951SOL    HW1 3752   1.158   0.302   3.914
  951SOL    HW2 3753   1.092   0.290   3.765
  952SOL     OW 3754   4.208   1.952   2.705
  952SOL    HW1 3755   4.143   1.941   2.630
  952SOL    HW2 3756   4.203   2.045   2.741
  953SOL     OW 3757   5.735   5.976   4.802
  953SOL    HW1 3758   5.810   6.024   4.757
  953SOL    HW2 3759   5.766   5.886   4.831
  954SOL     OW 3760   4.116   6.111   2.451
  954SOL    HW1 3761   4.148   6.157   2.369
  954SOL    HW2 3762   4.122   6.173   2.529
  955SOL     OW 3763   1.798   4.404   0.019
  955SOL    HW1 3764   1.774   4.442   0.108
  955SOL    HW2 3765   1.740   4.324   0.001
  956SOL     OW 3766   6.751   0.332   1.481
  956SOL    HW1 3767   6.816   0.387   1.533
  956SOL    HW2 3768   6.716   0.387   1.404
  957SOL     OW 3769   6.021   1.255   1.753
  957SOL    HW1 3770   6.118   1.232   1.765
  957SOL    HW2 3771   6.010   1.309   1.670
  958SOL     OW 3772   5.022   6.257   2.287
  958SOL    HW1 3773   5.063   6.290   2.372
  958SOL    HW2 3774   4.933   6.302   2.273
  959SOL     OW 3775   3.615   6.537   4.539
  959SOL    HW1 3776   3.584   6.582   4.622
  959SOL    HW2 3777   3.541   6.479   4.503
  960SOL     OW 3778   1.512   0.674   1.094
  960SOL    HW1 3779   1.422   0.652   1.057
  960SOL    HW2 3780   1.574   0.699   1.019
  961SOL     OW 3781   3.969   6.489   3.254
  961SOL    HW1 3782   3.999   6.584   3.263
  961SOL    HW2 3783   3.875   6.487   3.219
  962SOL     OW 3784   6.175   1.107   4.304
  962SOL    HW1 3785   6.210   1.128   4.213
  962SOL    HW2 3786   6.096   1.165   4.323
  963SOL     OW 3787   4.547   1.167   0.951
  963SOL    HW1 3788   4.619   1.198   0.889
  963SOL    HW2 3789   4.542   1.067   0.949
  964SOL     OW 3790   4.431   5.045   5.378
  964SOL    HW1 3791   4.383   5.120   5.333
  964SOL    HW2 3792   4.476   5.078   5.461
  965SOL     OW 3793   6.289   1.747   2.092
  965SOL    HW1 3794   6.244   1.759   2.180
  965SOL    HW2 3795   6.223   1.714   2.025
  966SOL     OW 3796   4.943   2.524   3.488
  966SOL    HW1 3797   4.972   2.488   3.399
  966SOL    HW2 3798   5.004   2.489   3.560
  967SOL     OW 3799   2.859   5.208   6.883
  967SOL    HW1 3800   2.860   5.118   6.927
  967SOL    HW2 3801   2.948   5.252   6.896
  968SOL     OW 3802   3.874   6.726   1.545
  968SOL    HW1 3803   3.811   6.724   1.623
  968SOL    HW2 3804   3.956   6.776   1.571
  969SOL     OW 3805   2.460   5.453   5.673
  969SOL    HW1 3806   2.467   5.361   5.711
  969SOL    HW2 3807   2.534   5.510   5.710
  970SOL     OW 3808   5.532   1.029   6.092
  970SOL    HW1 3809   5.516   1.128   6.094
  970SOL    HW2 3810   5.625   1.009   6.120
  971SOL     OW 3811   6.996   3.162   2.894
  971SOL    HW1 3812   0.059   3.194   2.858
  971SOL    HW2 3813   6.984   3.195   2.987
  972SOL     OW 3814   6.929   2.667   1.897
  972SOL    HW1 3815   6.922   2.742   1.832
  972SOL    HW2 3816   6.951   2.702   1.988
  973SOL     OW 3817   0.173   4.641   6.460
  973SOL    HW1 3818   0.186   4.664   6.556
  973SOL    HW2 3819   0.076   4.651   6.437
  974SOL     OW 3820   0.893   5.150   2.680
  974SOL    HW1 3821   0.945   5.112   2.604
  974SOL    HW2 3822   0.811   5.195   2.645
  975SOL     OW 3823   2.952   6.920   0.450
  975SOL    HW1 3824   2.947   6.866   0.534
  975SOL    HW2 3825   2.962   7.016   0.473
  976SOL     OW 3826   6.602   3.753   1.506
  976SOL    HW1 3827   6.620   3.809   1.425
  976SOL    HW2 3828   6.589   3.657   1.478
  977SOL     OW 3829   0.657   1.030   2.665
  977SOL    HW1 3830   0.670   0.942   2.710
  977SOL    HW2 3831   0.726   1.040   2.593
  978SOL     OW 3832   5.561   1.936   1.138
  978SOL    HW1 3833   5.536   2.033   1.143
  978SOL    HW2 3834   5.482   1.880   1.164
  979SOL     OW 3835   0.393   2.948   6.357
  979SOL    HW1 3836   0.335   3.014   6.309
  979SOL    HW2 3837   0.456   2.996   6.417
  980SOL     OW 3838   3.987   0.924   4.454
  980SOL    HW1 3839   4.025   0.914   4.362
  980SOL    HW2 3840   3.902   0.978   4.449
  981SOL     OW 3841   0.771   0.299   5.190
  981SOL    HW1 3842   0.690   0.265   5.237
  981SOL    HW2 3843   0.816   0.223   5.142
  982SOL     OW 3844   0.937   1.703   5.508
  982SOL    HW1 3845   0.868   1.684   5.439
  982SOL    HW2 3846   0.924   1.796   5.544
  983SOL     OW 3847   6.933   3.302   3.137
  983SOL    HW1 3848   6.891   3.242   3.205
  983SOL    HW2 3849   6.980   3.377   3.183
  984SOL     OW 3850   1.575   1.813   3.000
  984SOL    HW1 3851   1.610   1.834   3.092
  984SOL    HW2 3852   1.533   1.722   3.001
  985SOL     OW 3853   6.582   4.230   4.175
  985SOL    HW1 3854   6.498   4.268   4.136
  985SOL    HW2 3855   6.566   4.135   4.203
  986SOL     OW 3856   4.659   5.025   1.236
  986SOL    HW1 3857   4.628   5.103   1.291
  986SOL    HW2 3858   4.674   5.055   1.142
  987SOL     OW 3859   5.745   6.328   3.205
  987SOL    HW1 3860   5.822   6.306   3.146
  987SOL    HW2 3861   5.679   6.385   3.155
  988SOL     OW 3862   3.274   3.779   2.388
  988SOL    HW1 3863   3.202   3.849   2.392
  988SOL    HW2 3864   3.321   3.776   2.476
  989SOL     OW 3865   6.752   2.138   0.435
  989SOL    HW1 3866   6.828   2.165   0.376
  989SOL    HW2 3867   6.709   2.219   0.474
  990SOL     OW 3868   3.646   0.061   2.980
  990SOL    HW1 3869   3.664   7.022   3.055
  990SOL    HW2 3870   3.562   0.034   2.933
  991SOL     OW 3871   6.551   4.629   3.407
  991SOL    HW1 3872   6.579   4.585   3.322
  991SOL    HW2 3873   6.451   4.626   3.416
  992SOL     OW 3874   1.078   3.205   1.273
  992SOL    HW1 3875   1.083   3.107   1.294
  992SOL    HW2 3876   1.072   3.257   1.359
  993SOL     OW 3877   0.693   4.019   0.903
  993SOL    HW1 3878   0.730   3.994   0.814
  993SOL    HW2 3879   0.619   3.956   0.927
  994SOL     OW 3880   3.637   5.333   1.214
  994SOL    HW1 3881   3.677   5.255   1.261
  994SOL    HW2 3882   3.538   5.322   1.208
  995SOL     OW 3883   4.192   3.379   5.730
  995SOL    HW1 3884   4.207   3.432   5.647
  995SOL    HW2 3885   4.156   3.289   5.706
  996SOL     OW 3886   3.654   5.388   4.920
  996SOL    HW1 3887   3.650   5.407   4.822
  996SOL    HW2 3888   3.687   5.470   4.968
  997SOL     OW 3889   1.111   6.813   3.648
  997SOL    HW1 3890   1.130   6.743   3.579
  997SOL    HW2 3891   1.087   6.899   3.603
  998SOL     OW 3892   6.764   0.480   5.928
  998SOL    HW1 3893   6.805   0.390   5.941
  998SOL    HW2 3894   6.718   0.509   6.013
  999SOL     OW 3895   5.058   3.824   1.565
  999SOL    HW1 3896   4.988   3.753   1.573
  999SOL    HW2 3897   5.098   3.842   1.655
 1000SOL     OW 3898   4.352   1.261   1.631
 1000SOL    HW1 3899   4.284   1.314   1.683
 1000SOL    HW2 3900   4.304   1.193   1.576
 1001SOL     OW 3901   3.143   6.155   2.362
 1001SOL    HW1 3902   3.171   6.098   2.285
 1001SOL    HW2 3903   3.129   6.098   2.443
 1002SOL     OW 3904   5.867   2.189   1.247
 1002SOL    HW1 3905   5.936   2.258   1.268
 1002SOL    HW2 3906   5.777   2.233   1.239
 1003SOL     OW 3907   1.649   6.269   2.280
 1003SOL    HW1 3908   1.729   6.283   2.222
 1003SOL    HW2 3909   1.641   6.344   2.345
 1004SOL     OW 3910   6.367   0.955   2.519
 1004SOL    HW1 3911   6.433   0.988   2.451
 1004SOL    HW2 3912   6.280   1.002   2.507
 1005SOL     OW 3913   1.653   4.811   3.932
 1005SOL    HW1 3914   1.702   4.750   3.869
 1005SOL    HW2 3915   1.606   4.882   3.880
 1006SOL     OW 3916   2.224   3.811   0.132
 1006SOL    HW1 3917   2.144   3.831   0.190
 1006SOL    HW2 3918   2.202   3.736   0.070
 1007SOL     OW 3919   4.461   1.470   6.583
 1007SOL    HW1 3920   4.458   1.568   6.563
 1007SOL    HW2 3921   4.427   1.453   6.675
 1008SOL     OW 3922   0.312   3.588   5.082
 1008SOL    HW1 3923   0.405   3.618   5.060
 1008SOL    HW2 3924   0.288   3.509   5.025
 1009SOL     OW 3925   6.358   4.491   5.339
 1009SOL    HW1 3926   6.309   4.492   5.426
 1009SOL    HW2 3927   6.446   4.537   5.349
 1010SOL     OW 3928   2.737   2.367   1.484
 1010SOL    HW1 3929   2.698   2.398   1.571
 1010SOL    HW2 3930   2.816   2.308   1.501
 1011SOL     OW 3931   0.415   5.690   3.168
 1011SOL    HW1 3932   0.489   5.752   3.141
 1011SOL    HW2 3933   0.449   5.623   3.233
 1012SOL     OW 3934   6.678   0.145   2.596
 1012SOL    HW1 3935   6.727   0.101   2.672
 1012SOL    HW2 3936   6.737   0.145   2.515
 1013SOL     OW 3937   6.752   1.239   6.321
 1013SOL    HW1 3938   6.653   1.227   6.317
 1013SOL    HW2 3939   6.797   1.154   6.293
 1014SOL     OW 3940   0.903   3.977   4.794
 1014SOL    HW1 3941   0.827   3.952   4.855
 1014SOL    HW2 3942   0.891   4.072   4.765
 1015SOL     OW 3943   2.571   0.823   6.715
 1015SOL    HW1 3944   2.642   0.858   6.655
 1015SOL    HW2 3945   2.590   0.851   6.809
 1016SOL     OW 3946   4.804   4.788   1.240
 1016SOL    HW1 3947   4.810   4.772   1.338
 1016SOL    HW2 3948   4.799   4.886   1.222
 1017SOL     OW 3949   2.943   1.634   1.493
 1017SOL    HW1 3950   3.020   1.571   1.484
 1017SOL    HW2 3951   2.976   1.728   1.486
 1018SOL     OW 3952   6.896   4.316   3.334
 1018SOL    HW1 3953   6.982   4.263   3.334
 1018SOL    HW2 3954   6.889   4.368   3.249
 1019SOL     OW 3955   6.550   4.911   6.885
 1019SOL    HW1 3956   6.500   4.859   6.815
 1019SOL    HW2 3957   6.616   4.851   6.929
 1020SOL     OW 3958   6.139   0.780   0.630
 1020SOL    HW1 3959   6.096   0.866   0.607
 1020SOL    HW2 3960   6.085   0.733   0.700
 1021SOL     OW 3961   6.419   6.036   2.541
 1021SOL    HW1 3962   6.424   5.937   2.553
 1021SOL    HW2 3963   6.431   6.081   2.629
 1022SOL     OW 3964   2.749   5.937   6.353
 1022SOL    HW1 3965   2.690   5.942   6.434
 1022SOL    HW2 3966   2.765   6.029   6.318
 1023SOL     OW 3967   0.010   0.455   2.286
 1023SOL    HW1 3968   7.022   0.545   2.326
 1023SOL    HW2 3969   7.006   0.384   2.351
 1024SOL     OW 3970   0.617   1.579   4.111
 1024SOL    HW1 3971   0.580   1.598   4.202
 1024SOL    HW2 3972   0.629   1.664   4.061
 1025SOL     OW 3973   4.700   3.034   0.489
 1025SOL    HW1 3974   4.770   3.049   0.420
 1025SOL    HW2 3975   4.631   3.106   0.482
 1026SOL     OW 3976   3.064   2.486   1.671
 1026SOL    HW1 3977   2.994   2.478   1.742
 1026SOL    HW2 3978   3.044   2.564   1.612
 1027SOL     OW 3979   1.791   6.751   1.802
 1027SOL    HW1 3980   1.838   6.699   1.873
 1027SOL    HW2 3981   1.692   6.741   1.813
 1028SOL     OW 3982   1.551   6.512   3.183
 1028SOL    HW1 3983   1.457   6.527   3.212
 1028SOL    HW2 3984   1.551   6.456   3.100
 1029SOL     OW 3985   1.468   2.299   6.508
 1029SOL    HW1 3986   1.382   2.250   6.496
 1029SOL    HW2 3987   1.487   2.309   6.606
 1030SOL     OW 3988   3.575   3.167   1.775
 1030SOL    HW1 3989   3.605   3.122   1.691
 1030SOL    HW2 3990   3.595   3.108   1.854
 1031SOL     OW 3991   4.341   3.172   1.478
 1031SOL    HW1 3992   4.425   3.121   1.461
 1031SOL    HW2 3993   4.328   3.183   1.577
 1032SOL     OW 3994   2.325   1.121   4.965
 1032SOL    HW1 3995   2.354   1.027   4.978
 1032SOL    HW2 3996   2.370   1.180   5.033
 1033SOL     OW 3997   1.962   6.178   2.423
 1033SOL    HW1 3998   1.941   6.242   2.349
 1033SOL    HW2 3999   2.021   6.222   2.490
 1034SOL     OW 4000   2.002   6.447   4.420
 1034SOL    HW1 4001   1.928   6.490   4.472
 1034SOL    HW2 4002   2.038   6.512   4.353
 1035SOL     OW 4003   0.438   2.318   6.074
 1035SOL    HW1 4004   0.504   2.392   6.086
 1035SOL    HW2 4005   0.411   2.312   5.978
 1036SOL     OW 4006   4.545   0.951   1.701
 1036SOL    HW1 4007   4.459   1.002   1.708
 1036SOL    HW2 4008   4.534   0.862   1.745
 1037SOL     OW 4009   1.289   1.823   2.908
 1037SOL    HW1 4010   1.240   1.751   2.956
 1037SOL    HW2 4011   1.371   1.848   2.960
 1038SOL     OW 4012   1.476   1.057   6.684
 1038SOL    HW1 4013   1.526   1.100   6.758
 1038SOL    HW2 4014   1.471   1.119   6.606
 1039SOL     OW 4015   3.091   3.154   3.796
 1039SOL    HW1 4016   3.074   3.181   3.891
 1039SOL    HW2 4017   3.130   3.062   3.794
 1040SOL     OW 4018   4.938   0.862   3.105
 1040SOL    HW1 4019   4.840   0.848   3.092
 1040SOL    HW2 4020   4.955   0.958   3.130
 1041SOL     OW 4021   6.877   6.788   3.745
 1041SOL    HW1 4022   6.887   6.817   3.650
 1041SOL    HW2 4023   6.805   6.719   3.751
 1042SOL     OW 4024   4.997   5.116   2.916
 1042SOL    HW1 4025   4.994   5.023   2.881
 1042SOL    HW2 4026   4.929   5.172   2.869
 1043SOL     OW 4027   3.885   2.188   3.213
 1043SOL    HW1 4028   3.813   2.158   3.275
 1043SOL    HW2 4029   3.852   2.185   3.119
 1044SOL     OW 4030   6.070   5.522   1.563
 1044SOL    HW1 4031   5.980   5.505   1.523
 1044SOL    HW2 4032   6.105   5.437   1.604
 1045SOL     OW 4033   3.146   6.911   2.904
 1045SOL    HW1 4034   3.088   6.987   2.875
 1045SOL    HW2 4035   3.097   6.856   2.972
 1046SOL     OW 4036   2.288   1.428   0.754
 1046SOL    HW1 4037   2.271   1.454   0.849
 1046SOL    HW2 4038   2.382   1.396   0.745
 1047SOL     OW 4039   3.210   0.326   4.235
 1047SOL    HW1 4040   3.140   0.267   4.274
 1047SOL    HW2 4041   3.219   0.308   4.138
 1048SOL     OW 4042   3.126   5.094   2.799
 1048SOL    HW1 4043   3.089   5.022   2.741
 1048SOL    HW2 4044   3.214   5.124   2.762
 1049SOL     OW 4045   4.950   6.977   3.650
 1049SOL    HW1 4046   4.874   0.003   3.610
 1049SOL    HW2 4047   4.954   6.996   3.748
 1050SOL     OW 4048   3.925   5.603   2.712
 1050SOL    HW1 4049   3.829   5.622   2.692
 1050SOL    HW2 4050   3.968   5.557   2.634
 1051SOL     OW 4051   0.193   5.871   0.237
 1051SOL    HW1 4052   0.153   5.931   0.307
 1051SOL    HW2 4053   0.240   5.795   0.282
 1052SOL     OW 4054   4.947   1.482   5.281
 1052SOL    HW1 4055   5.016   1.424   5.325
 1052SOL    HW2 4056   4.887   1.521   5.351
 1053SOL     OW 4057   5.961   4.280   2.548
 1053SOL    HW1 4058   5.966   4.270   2.449
 1053SOL    HW2 4059   6.040   4.233   2.589
 1054SOL     OW 4060   3.134   3.329   0.960
 1054SOL    HW1 4061   3.163   3.270   1.034
 1054SOL    HW2 4062   3.068   3.396   0.995
 1055SOL     OW 4063   4.875   6.273   6.836
 1055SOL    HW1 4064   4.919   6.332   6.904
 1055SOL    HW2 4065   4.782   6.304   6.820
 1056SOL     OW 4066   1.206   3.804   0.453
 1056SOL    HW1 4067   1.129   3.742   0.436
 1056SOL    HW2 4068   1.263   3.810   0.371
 1057SOL     OW 4069   3.784   2.067   1.816
 1057SOL    HW1 4070   3.826   2.123   1.745
 1057SOL    HW2 4071   3.740   2.126   1.884
 1058SOL     OW 4072   4.512   2.481   3.383
 1058SOL    HW1 4073   4.571   2.424   3.325
 1058SOL    HW2 4074   4.562   2.563   3.412
 1059SOL     OW 4075   2.214   6.528   2.124
 1059SOL    HW1 4076   2.166   6.560   2.206
 1059SOL    HW2 4077   2.309   6.507   2.146
 1060SOL     OW 4078   0.148   4.643   3.983
 1060SOL    HW1 4079   0.066   4.662   4.037
 1060SOL    HW2 4080   0.227   4.685   4.027
 1061SOL     OW 4081   6.666   3.696   6.779
 1061SOL    HW1 4082   6.720   3.768   6.822
 1061SOL    HW2 4083   6.666   3.615   6.837
 1062SOL     OW 4084   3.865   6.007   5.395
 1062SOL    HW1 4085   3.789   5.949   5.425
 1062SOL    HW2 4086   3.857   6.097   5.437
 1063SOL     OW 4087   0.317   6.826   6.794
 1063SOL    HW1 4088   0.316   6.795   6.889
 1063SOL    HW2 4089   0.412   6.836   6.763
 1064SOL     OW 4090   0.354   4.226   1.776
 1064SOL    HW1 4091   0.306   4.141   1.755
 1064SOL    HW2 4092   0.403   4.258   1.695
 1065SOL     OW 4093   3.135   0.707   3.974
 1065SOL    HW1 4094   3.180   0.793   3.996
 1065SOL    HW2 4095   3.052   0.725   3.921
 1066SOL     OW 4096   4.683   6.820   2.143
 1066SOL    HW1 4097   4.751   6.822   2.217
 1066SOL    HW2 4098   4.725   6.783   2.060
 1067SOL     OW 4099   2.404   1.277   6.851
 1067SOL    HW1 4100   2.316   1.297   6.808
 1067SOL    HW2 4101   2.395   1.282   6.950
 1068SOL     OW 4102   5.940   3.585   1.004
 1068SOL    HW1 4103   6.021   3.643   1.012
 1068SOL    HW2 4104   5.912   3.580   0.908
 1069SOL     OW 4105   5.344   5.598   1.161
 1069SOL    HW1 4106   5.311   5.611   1.254
 1069SOL    HW2 4107   5.440   5.623   1.155
 1070SOL     OW 4108   2.430   6.776   2.221
 1070SOL    HW1 4109   2.479   6.810   2.141
 1070SOL    HW2 4110   2.421   6.677   2.216
 1071SOL     OW 4111   0.878   2.059   4.747
 1071SOL    HW1 4112   0.949   2.022   4.806
 1071SOL    HW2 4113   0.836   1.984   4.694
 1072SOL     OW 4114   1.986   0.706   1.671
 1072SOL    HW1 4115   1.920   0.698   1.746
 1072SOL    HW2 4116   1.972   0.630   1.607
 1073SOL     OW 4117   5.264   2.052   3.135
 1073SOL    HW1 4118   5.195   1.988   3.101
 1073SOL    HW2 4119   5.269   2.047   3.234
 1074SOL     OW 4120   2.845   5.062   1.460
 1074SOL    HW1 4121   2.877   5.153   1.487
 1074SOL    HW2 4122   2.923   5.007   1.430
 1075SOL     OW 4123   6.138   1.548   4.180
 1075SOL    HW1 4124   6.124   1.495   4.097
 1075SOL    HW2 4125   6.119   1.491   4.260
 1076SOL     OW 4126   1.592   3.331   5.769
 1076SOL    HW1 4127   1.668   3.360   5.710
 1076SOL    HW2 4128   1.567   3.237   5.747
 1077SOL     OW 4129   0.171   6.608   0.074
 1077SOL    HW1 4130   0.265   6.626   0.047
 1077SOL    HW2 4131   0.110   6.622   7.021
 1078SOL     OW 4132   6.561   0.394   3.065
 1078SOL    HW1 4133   6.564   0.296   3.049
 1078SOL    HW2 4134   6.539   0.441   2.979
 1079SOL     OW 4135   1.551   5.539   1.844
 1079SOL    HW1 4136   1.548   5.524   1.943
 1079SOL    HW2 4137   1.469   5.589   1.815
 1080SOL     OW 4138   2.328   5.645   4.986
 1080SOL    HW1 4139   2.334   5.724   4.924
 1080SOL    HW2 4140   2.241   5.598   4.971
 1081SOL     OW 4141   6.916   5.469   4.011
 1081SOL    HW1 4142   6.932   5.394   4.075
 1081SOL    HW2 4143   7.000   5.490   3.962
 1082SOL     OW 4144   6.298   2.029   6.075
 1082SOL    HW1 4145   6.378   2.087   6.060
 1082SOL    HW2 4146   6.285   1.970   5.995
 1083SOL     OW 4147   5.009   3.343   0.371
 1083SOL    HW1 4148   5.027   3.433   0.331
 1083SOL    HW2 4149   4.941   3.352   0.444
 1084SOL     OW 4150   6.991   6.503   6.446
 1084SOL    HW1 4151   0.008   6.424   6.491
 1084SOL    HW2 4152   0.031   6.579   6.444
 1085SOL     OW 4153   2.129   3.616   3.581
 1085SOL    HW1 4154   2.029   3.619   3.575
 1085SOL    HW2 4155   2.160   3.674   3.656
 1086SOL     OW 4156   6.346   5.189   6.286
 1086SOL    HW1 4157   6.415   5.166   6.218
 1086SOL    HW2 4158   6.259   5.147   6.261
 1087SOL     OW 4159   1.079   1.480   5.550
 1087SOL    HW1 4160   1.110   1.459   5.458
 1087SOL    HW2 4161   1.017   1.559   5.548
 1088SOL     OW 4162   0.226   5.087   3.257
 1088SOL    HW1 4163   0.317   5.127   3.248
 1088SOL    HW2 4164   0.224   4.998   3.211
 1089SOL     OW 4165   0.710   5.772   5.247
 1089SOL    HW1 4166   0.702   5.673   5.246
 1089SOL    HW2 4167   0.701   5.808   5.154
 1090SOL     OW 4168   5.020   1.894   3.258
 1090SOL    HW1 4169   5.058   1.975   3.303
 1090SOL    HW2 4170   5.022   1.907   3.158
 1091SOL     OW 4171   2.001   3.726   3.279
 1091SOL    HW1 4172   2.018   3.800   3.345
 1091SOL    HW2 4173   1.909   3.689   3.294
 1092SOL     OW 4174   0.823   5.083   0.678
 1092SOL    HW1 4175   0.791   5.174   0.704
 1092SOL    HW2 4176   0.747   5.030   0.643
 1093SOL     OW 4177   2.849   6.687   1.766
 1093SOL    HW1 4178   2.762   6.716   1.727
 1093SOL    HW2 4179   2.900   6.633   1.699
 1094SOL     OW 4180   0.637   6.970   2.743
 1094SOL    HW1 4181   0.678   0.036   2.751
 1094SOL    HW2 4182   0.635   6.943   2.646
 1095SOL     OW 4183   0.632   2.769   6.680
 1095SOL    HW1 4184   0.595   2.700   6.619
 1095SOL    HW2 4185   0.726   2.792   6.652
 1096SOL     OW 4186   3.340   4.536   1.194
 1096SOL    HW1 4187   3.299   4.574   1.111
 1096SOL    HW2 4188   3.300   4.446   1.213
 1097SOL     OW 4189   1.739   5.826   2.954
 1097SOL    HW1 4190   1.673   5.781   2.895
 1097SOL    HW2 4191   1.813   5.762   2.976
 1098SOL     OW 4192   5.972   4.280   6.420
 1098SOL    HW1 4193   5.915   4.360   6.401
 1098SOL    HW2 4194   6.012   4.288   6.511
 1099SOL     OW 4195   4.857   1.532   6.670
 1099SOL    HW1 4196   4.840   1.575   6.759
 1099SOL    HW2 4197   4.857   1.432   6.680
 1100SOL     OW 4198   3.618   0.773   3.951
 1100SOL    HW1 4199   3.702   0.813   3.913
 1100SOL    HW2 4200   3.616   0.787   4.050
 1101SOL     OW 4201   5.659   3.720   5.020
 1101SOL    HW1 4202   5.580   3.747   4.965
 1101SOL    HW2 4203   5.742   3.724   4.964
 1102SOL     OW 4204   2.690   1.064   4.450
 1102SOL    HW1 4205   2.680   0.990   4.384
 1102SOL    HW2 4206   2.603   1.113   4.458
 1103SOL     OW 4207   2.599   1.374   0.414
 1103SOL    HW1 4208   2.680   1.366   0.356
 1103SOL    HW2 4209   2.609   1.452   0.476
 1104SOL     OW 4210   1.748   4.221   3.654
 1104SOL    HW1 4211   1.690   4.275   3.593
 1104SOL    HW2 4212   1.775   4.277   3.733
 1105SOL     OW 4213   5.135   2.731   4.545
 1105SOL    HW1 4214   5.055   2.780   4.581
 1105SOL    HW2 4215   5.209   2.796   4.527
 1106SOL     OW 4216   0.528   1.266   0.690
 1106SOL    HW1 4217   0.543   1.200   0.763
 1106SOL    HW2 4218   0.535   1.359   0.727
 1107SOL     OW 4219   1.035   0.583   0.355
 1107SOL    HW1 4220   1.093   0.659   0.325
 1107SOL    HW2 4221   1.065   0.499   0.310
 1108SOL     OW 4222   3.792   6.360   4.747
 1108SOL    HW1 4223   3.834   6.269   4.747
 1108SOL    HW2 4224   3.816   6.408   4.663
 1109SOL     OW 4225   5.535   1.734   4.213
 1109SOL    HW1 4226   5.536   1.703   4.118
 1109SOL    HW2 4227   5.474   1.675   4.267
 1110SOL     OW 4228   3.295   0.667   3.097
 1110SOL    HW1 4229   3.281   0.765   3.085
 1110SOL    HW2 4230   3.363   0.635   3.031
 1111SOL     OW 4231   5.764   4.094   6.369
 1111SOL    HW1 4232   5.676   4.113   6.413
 1111SOL    HW2 4233   5.829   4.167   6.393
 1112SOL     OW 4234   6.432   0.159   3.359
 1112SOL    HW1 4235   6.392   0.243   3.395
 1112SOL    HW2 4236   6.531   0.161   3.372
 1113SOL     OW 4237   6.240   4.499   1.367
 1113SOL    HW1 4238   6.218   4.418   1.313
 1113SOL    HW2 4239   6.271   4.470   1.458
 1114SOL     OW 4240   3.562   2.595   5.914
 1114SOL    HW1 4241   3.515   2.516   5.877
 1114SOL    HW2 4242   3.577   2.582   6.012
 1115SOL     OW 4243   4.078   4.008   5.343
 1115SOL    HW1 4244   4.060   3.966   5.254
 1115SOL    HW2 4245   4.177   4.012   5.359
 1116SOL     OW 4246   5.202   0.332   6.795
 1116SOL    HW1 4247   5.230   0.344   6.890
 1116SOL    HW2 4248   5.102   0.327   6.790
 1117SOL     OW 4249   1.014   2.243   1.604
 1117SOL    HW1 4250   1.053   2.268   1.515
 1117SOL    HW2 4251   0.916   2.260   1.603
 1118SOL     OW 4252   2.365   5.329   0.048
 1118SOL    HW1 4253   2.337   5.318   6.978
 1118SOL    HW2 4254   2.450   5.381   0.052
 1119SOL     OW 4255   4.341   4.513   1.842
 1119SOL    HW1 4256   4.263   4.496   1.781
 1119SOL    HW2 4257   4.383   4.425   1.867
 1120SOL     OW 4258   6.038   6.251   0.990
 1120SOL    HW1 4259   6.131   6.260   0.956
 1120SOL    HW2 4260   6.033   6.177   1.057
 1121SOL     OW 4261   0.717   4.459   5.028
 1121SOL    HW1 4262   0.759   4.536   4.979
 1121SOL    HW2 4263   0.774   4.435   5.107
 1122SOL     OW 4264   6.034   2.837   2.194
 1122SOL    HW1 4265   6.044   2.766   2.124
 1122SOL    HW2 4266   6.114   2.898   2.191
 1123SOL     OW 4267   4.372   2.404   3.792
 1123SOL    HW1 4268   4.450   2.466   3.782
 1123SOL    HW2 4269   4.364   2.377   3.887
 1124SOL     OW 4270   0.977   3.218   5.689
 1124SOL    HW1 4271   0.962   3.184   5.596
 1124SOL    HW2 4272   1.022   3.307   5.685
 1125SOL     OW 4273   1.478   2.743   4.785
 1125SOL    HW1 4274   1.510   2.704   4.871
 1125SOL    HW2 4275   1.491   2.842   4.786
 1126SOL     OW 4276   4.590   6.046   5.125
 1126SOL    HW1 4277   4.637   6.093   5.200
 1126SOL    HW2 4278   4.597   6.100   5.042
 1127SOL     OW 4279   5.421   6.873   4.867
 1127SOL    HW1 4280   5.469   6.842   4.785
 1127SOL    HW2 4281   5.342   6.927   4.841
 1128SOL     OW 4282   5.771   1.578   4.958
 1128SOL    HW1 4283   5.710   1.643   5.003
 1128SOL    HW2 4284   5.717   1.510   4.909
 1129SOL     OW 4285   1.815   0.074   0.419
 1129SOL    HW1 4286   1.813   7.023   0.484
 1129SOL    HW2 4287   1.784   0.157   0.465
 1130SOL     OW 4288   1.724   5.416   1.591
 1130SOL    HW1 4289   1.718   5.478   1.512
 1130SOL    HW2 4290   1.653   5.438   1.657
 1131SOL     OW 4291   1.781   0.995   4.734
 1131SOL    HW1 4292   1.729   1.037   4.660
 1131SOL    HW2 4293   1.724   0.928   4.782
 1132SOL     OW 4294   4.608   0.352   2.728
 1132SOL    HW1 4295   4.621   0.429   2.665
 1132SOL    HW2 4296   4.662   0.368   2.811
 1133SOL     OW 4297   0.875   0.274   0.069
 1133SOL    HW1 4298   0.857   0.335   7.017
 1133SOL    HW2 4299   0.953   0.308   0.122
 1134SOL     OW 4300   5.801   6.830   2.127
 1134SOL    HW1 4301   5.835   6.839   2.220
 1134SOL    HW2 4302   5.875   6.795   2.068
 1135SOL     OW 4303   2.449   6.784   3.792
 1135SOL    HW1 4304   2.460   6.739   3.704
 1135SOL    HW2 4305   2.405   6.721   3.856
 1136SOL     OW 4306   3.470   5.123   3.067
 1136SOL    HW1 4307   3.384   5.074   3.081
 1136SOL    HW2 4308   3.546   5.067   3.100
 1137SOL     OW 4309   0.692   6.495   6.365
 1137SOL    HW1 4310   0.765   6.540   6.416
 1137SOL    HW2 4311   0.700   6.517   6.268
 1138SOL     OW 4312   1.302   2.307   4.966
 1138SOL    HW1 4313   1.241   2.362   5.023
 1138SOL    HW2 4314   1.286   2.210   4.984
 1139SOL     OW 4315   2.541   4.594   4.109
 1139SOL    HW1 4316   2.519   4.604   4.012
 1139SOL    HW2 4317   2.625   4.643   4.130
 1140SOL     OW 4318   2.316   0.400   2.614
 1140SOL    HW1 4319   2.277   0.317   2.654
 1140SOL    HW2 4320   2.359   0.377   2.526
 1141SOL     OW 4321   6.385   5.565   6.432
 1141SOL    HW1 4322   6.380   5.565   6.332
 1141SOL    HW2 4323   6.333   5.643   6.468
 1142SOL     OW 4324   2.653   6.965   3.389
 1142SOL    HW1 4325   2.576   7.000   3.443
 1142SOL    HW2 4326   2.726   0.009   3.388
 1143SOL     OW 4327   1.573   2.641   2.249
 1143SOL    HW1 4328   1.567   2.737   2.275
 1143SOL    HW2 4329   1.628   2.591   2.316
 1144SOL     OW 4330   5.550   4.598   2.440
 1144SOL    HW1 4331   5.545   4.591   2.540
 1144SOL    HW2 4332   5.571   4.508   2.402
 1145SOL     OW 4333   1.208   2.576   0.379
 1145SOL    HW1 4334   1.134   2.642   0.368
 1145SOL    HW2 4335   1.254   2.592   0.466
 1146SOL     OW 4336   0.664   2.141   1.393
 1146SOL    HW1 4337   0.676   2.151   1.491
 1146SOL    HW2 4338   0.589   2.200   1.362
 1147SOL     OW 4339   3.298   5.917   0.568
 1147SOL    HW1 4340   3.331   5.825   0.588
 1147SOL    HW2 4341   3.279   5.925   0.470
 1148SOL     OW 4342   3.856   6.035   1.627
 1148SOL    HW1 4343   3.768   6.031   1.579
 1148SOL    HW2 4344   3.844   6.082   1.714
 1149SOL     OW 4345   5.969   3.229   1.493
 1149SOL    HW1 4346   6.057   3.200   1.455
 1149SOL    HW2 4347   5.913   3.149   1.513
 1150SOL     OW 4348   0.797   4.381   0.004
 1150SOL    HW1 4349   0.716   4.324   0.020
 1150SOL    HW2 4350   0.862   4.332   6.972
 1151SOL     OW 4351   6.082   4.871   4.783
 1151SOL    HW1 4352   5.989   4.878   4.746
 1151SOL    HW2 4353   6.140   4.941   4.741
 1152SOL     OW 4354   4.555   6.322   6.692
 1152SOL    HW1 4355   4.608   6.357   6.768
 1152SOL    HW2 4356   4.537   6.396   6.626
 1153SOL     OW 4357   6.936   0.136   1.451
 1153SOL    HW1 4358   6.978   0.141   1.361
 1153SOL    HW2 4359   6.857   0.198   1.455
 1154SOL     OW 4360   0.894   4.016   1.178
 1154SOL    HW1 4361   0.847   4.039   1.092
 1154SOL    HW2 4362   0.992   4.023   1.165
 1155SOL     OW 4363   2.366   6.246   5.394
 1155SOL    HW1 4364   2.378   6.344   5.408
 1155SOL    HW2 4365   2.302   6.231   5.319
 1156SOL     OW 4366   4.398   1.573   5.039
 1156SOL    HW1 4367   4.408   1.531   4.949
 1156SOL    HW2 4368   4.445   1.517   5.107
 1157SOL     OW 4369   5.247   1.104   5.901
 1157SOL    HW1 4370   5.251   1.201   5.925
 1157SOL    HW2 4371   5.281   1.049   5.976
 1158SOL     OW 4372   6.394   6.048   4.483
 1158SOL    HW1 4373   6.415   6.122   4.419
 1158SOL    HW2 4374   6.430   6.071   4.573
 1159SOL     OW 4375   6.116   6.696   3.340
 1159SOL    HW1 4376   6.036   6.728   3.392
 1159SOL    HW2 4377   6.171   6.774   3.311
 1160SOL     OW 4378   3.928   5.556   1.936
 1160SOL    HW1 4379   3.840   5.525   1.972
 1160SOL    HW2 4380   4.001   5.535   2.002
 1161SOL     OW 4381   6.811   5.385   6.022
 1161SOL    HW1 4382   6.727   5.396   5.969
 1161SOL    HW2 4383   6.787   5.375   6.119
 1162SOL     OW 4384   2.450   2.507   5.793
 1162SOL    HW1 4385   2.411   2.569   5.724
 1162SOL    HW2 4386   2.529   2.550   5.836
 1163SOL     OW 4387   6.004   4.866   1.631
 1163SOL    HW1 4388   6.061   4.936   1.588
 1163SOL    HW2 4389   5.971   4.900   1.719
 1164SOL     OW 4390   5.630   2.503   5.083
 1164SOL    HW1 4391   5.665   2.419   5.126
 1164SOL    HW2 4392   5.641   2.497   4.984
 1165SOL     OW 4393   4.086   6.015   3.116
 1165SOL    HW1 4394   4.005   5.968   3.080
 1165SOL    HW2 4395   4.057   6.094   3.169
 1166SOL     OW 4396   2.072   5.912   0.186
 1166SOL    HW1 4397   2.038   5.995   0.229
 1166SOL    HW2 4398   2.078   5.926   0.087
 1167SOL     OW 4399   5.298   4.585   1.599
 1167SOL    HW1 4400   5.337   4.518   1.536
 1167SOL    HW2 4401   5.370   4.646   1.633
 1168SOL     OW 4402   6.243   2.261   1.685
 1168SOL    HW1 4403   6.264   2.247   1.781
 1168SOL    HW2 4404   6.325   2.292   1.637
 1169SOL     OW 4405   5.648   1.844   5.434
 1169SOL    HW1 4406   5.600   1.921   5.392
 1169SOL    HW2 4407   5.732   1.876   5.477
 1170SOL     OW 4408   4.842   0.122   2.859
 1170SOL    HW1 4409   4.750   0.097   2.831
 1170SOL    HW2 4410   4.890   0.042   2.893
 1171SOL     OW 4411   2.461   0.141   0.232
 1171SOL    HW1 4412   2.444   0.235   0.260
 1171SOL    HW2 4413   2.514   0.094   0.303
 1172SOL     OW 4414   5.091   4.239   1.202
 1172SOL    HW1 4415   5.052   4.211   1.114
 1172SOL    HW2 4416   5.080   4.165   1.268
 1173SOL     OW 4417   2.744   1.319   1.680
 1173SOL    HW1 4418   2.696   1.404   1.661
 1173SOL    HW2 4419   2.752   1.266   1.596
 1174SOL     OW 4420   3.432   4.022   1.989
 1174SOL    HW1 4421   3.506   4.061   2.044
 1174SOL    HW2 4422   3.352   4.006   2.047
 1175SOL     OW 4423   4.569   3.535   5.719
 1175SOL    HW1 4424   4.595   3.442   5.694
 1175SOL    HW2 4425   4.499   3.532   5.790
 1176SOL     OW 4426   5.236   3.733   6.633
 1176SOL    HW1 4427   5.249   3.752   6.536
 1176SOL    HW2 4428   5.142   3.703   6.649
 1177SOL     OW 4429   6.986   3.876   4.535
 1177SOL    HW1 4430   0.034   3.861   4.469
 1177SOL    HW2 4431   6.987   3.972   4.564
 1178SOL     OW 4432   2.556   3.381   0.403
 1178SOL    HW1 4433   2.589   3.440   0.330
 1178SOL    HW2 4434   2.458   3.396   0.417
 1179SOL     OW 4435   2.848   5.346   0.600
 1179SOL    HW1 4436   2.887   5.382   0.515
 1179SOL    HW2 4437   2.823   5.422   0.660
 1180SOL     OW 4438   2.900   5.858   3.361
 1180SOL    HW1 4439   2.949   5.878   3.446
 1180SOL    HW2 4440   2.962   5.815   3.296
 1181SOL     OW 4441   0.356   5.406   5.819
 1181SOL    HW1 4442   0.323   5.471   5.751
 1181SOL    HW2 4443   0.283   5.387   5.885
 1182SOL     OW 4444   4.065   5.071   3.404
 1182SOL    HW1 4445   4.118   5.130   3.466
 1182SOL    HW2 4446   3.974   5.109   3.392
 1183SOL     OW 4447   2.463   4.136   6.986
 1183SOL    HW1 4448   2.479   4.116   6.890
 1183SOL    HW2 4449   2.460   4.235   7.000
 1184SOL     OW 4450   0.013   1.193   4.807
 1184SOL    HW1 4451   0.109   1.216   4.824
 1184SOL    HW2 4452   0.003   1.157   4.714
 1185SOL     OW 4453   0.362   1.523   0.517
 1185SOL    HW1 4454   0.398   1.471   0.595
 1185SOL    HW2 4455   0.398   1.484   0.432
 1186SOL     OW 4456   5.233   6.361   5.323
 1186SOL    HW1 4457   5.241   6.268   5.357
 1186SOL    HW2 4458   5.213   6.359   5.224
 1187SOL     OW 4459   5.918   6.648   6.718
 1187SOL    HW1 4460   5.990   6.587   6.752
 1187SOL    HW2 4461   5.952   6.742   6.714
 1188SOL     OW 4462   3.673   5.807   5.449
 1188SOL    HW1 4463   3.679   5.729   5.387
 1188SOL    HW2 4464   3.586   5.803   5.499
 1189SOL     OW 4465   6.079   2.726   2.784
 1189SOL    HW1 4466   6.053   2.673   2.865
 1189SOL    HW2 4467   6.000   2.735   2.723
 1190SOL     OW 4468   2.928   5.763   4.218
 1190SOL    HW1 4469   2.959   5.682   4.268
 1190SOL    HW2 4470   2.886   5.828   4.282
 1191SOL     OW 4471   4.599   5.164   3.813
 1191SOL    HW1 4472   4.576   5.082   3.761
 1191SOL    HW2 4473   4.564   5.244   3.765
 1192SOL     OW 4474   4.064   5.664   2.938
 1192SOL    HW1 4475   4.003   5.651   2.860
 1192SOL    HW2 4476   4.018   5.634   3.022
 1193SOL     OW 4477   6.429   3.233   4.550
 1193SOL    HW1 4478   6.421   3.174   4.630
 1193SOL    HW2 4479   6.344   3.228   4.497
 1194SOL     OW 4480   5.525   0.048   1.630
 1194SOL    HW1 4481   5.522   6.993   1.690
 1194SOL    HW2 4482   5.440   0.099   1.639
 1195SOL     OW 4483   6.627   4.385   0.798
 1195SOL    HW1 4484   6.558   4.434   0.746
 1195SOL    HW2 4485   6.716   4.429   0.786
 1196SOL     OW 4486   0.125   5.937   3.064
 1196SOL    HW1 4487   0.211   5.962   3.021
 1196SOL    HW2 4488   0.143   5.873   3.139
 1197SOL     OW 4489   4.442   0.907   5.346
 1197SOL    HW1 4490   4.397   0.818   5.340
 1197SOL    HW2 4491   4.418   0.951   5.432
 1198SOL     OW 4492   1.068   2.638   2.054
 1198SOL    HW1 4493   1.159   2.628   2.094
 1198SOL    HW2 4494   1.064   2.723   2.001
 1199SOL     OW 4495   4.121   4.449   1.683
 1199SOL    HW1 4496   4.083   4.360   1.709
 1199SOL    HW2 4497   4.054   4.521   1.701
 1200SOL     OW 4498   3.365   3.554   4.057
 1200SOL    HW1 4499   3.331   3.461   4.043
 1200SOL    HW2 4500   3.434   3.574   3.988
 1201SOL     OW 4501   1.122   0.790   4.432
 1201SOL    HW1 4502   1.163   0.739   4.507
 1201SOL    HW2 4503   1.091   0.726   4.361
 1202SOL     OW 4504   0.719   5.872   5.874
 1202SOL    HW1 4505   0.792   5.889   5.940
 1202SOL    HW2 4506   0.658   5.951   5.870
 1203SOL     OW 4507   5.804   6.535   0.491
 1203SOL    HW1 4508   5.711   6.558   0.461
 1203SOL    HW2 4509   5.856   6.499   0.413
 1204SOL     OW 4510   3.232   6.377   1.495
 1204SOL    HW1 4511   3.265   6.288   1.462
 1204SOL    HW2 4512   3.306   6.444   1.490
 1205SOL     OW 4513   5.330   3.906   1.113
 1205SOL    HW1 4514   5.400   3.846   1.152
 1205SOL    HW2 4515   5.353   4.001   1.132
 1206SOL     OW 4516   3.001   2.772   5.315
 1206SOL    HW1 4517   3.005   2.721   5.401
 1206SOL    HW2 4518   2.907   2.804   5.300
 1207SOL     OW 4519   1.995   6.288   1.632
 1207SOL    HW1 4520   2.007   6.201   1.679
 1207SOL    HW2 4521   1.936   6.275   1.552
 1208SOL     OW 4522   3.169   3.517   0.770
 1208SOL    HW1 4523   3.146   3.432   0.817
 1208SOL    HW2 4524   3.139   3.595   0.825
 1209SOL     OW 4525   4.316   0.766   4.704
 1209SOL    HW1 4526   4.408   0.801   4.689
 1209SOL    HW2 4527   4.249   0.838   4.685
 1210SOL     OW 4528   2.862   0.557   3.480
 1210SOL    HW1 4529   2.812   0.474   3.507
 1210SOL    HW2 4530   2.855   0.569   3.381
 1211SOL     OW 4531   0.941   3.596   2.199
 1211SOL    HW1 4532   0.895   3.507   2.202
 1211SOL    HW2 4533   0.882   3.663   2.154
 1212SOL     OW 4534   6.492   0.140   6.701
 1212SOL    HW1 4535   6.575   0.109   6.656
 1212SOL    HW2 4536   6.508   0.147   6.800
 1213SOL     OW 4537   6.822   1.961   0.658
 1213SOL    HW1 4538   6.911   1.924   0.633
 1213SOL    HW2 4539   6.794   2.028   0.589
 1214SOL     OW 4540   0.634   3.235   6.935
 1214SOL    HW1 4541   0.696   3.275   7.002
 1214SOL    HW2 4542   0.541   3.268   6.952
 1215SOL     OW 4543   1.458   4.310   4.027
 1215SOL    HW1 4544   1.539   4.338   3.975
 1215SOL    HW2 4545   1.474   4.220   4.066
 1216SOL     OW 4546   4.768   0.648   1.020
 1216SOL    HW1 4547   4.780   0.732   1.073
 1216SOL    HW2 4548   4.829   0.649   0.940
 1217SOL     OW 4549   1.551   4.748   0.488
 1217SOL    HW1 4550   1.594   4.837   0.475
 1217SOL    HW2 4551   1.477   4.737   0.421
 1218SOL     OW 4552   2.183   3.918   4.507
 1218SOL    HW1 4553   2.229   3.893   4.422
 1218SOL    HW2 4554   2.100   3.863   4.518
 1219SOL     OW 4555   5.645   5.875   1.638
 1219SOL    HW1 4556   5.561   5.857   1.587
 1219SOL    HW2 4557   5.682   5.964   1.610
 1220SOL     OW 4558   1.117   5.064   3.350
 1220SOL    HW1 4559   1.056   5.136   3.317
 1220SOL    HW2 4560   1.091   5.039   3.443
 1221SOL     OW 4561   5.629   3.594   6.141
 1221SOL    HW1 4562   5.688   3.513   6.138
 1221SOL    HW2 4563   5.590   3.610   6.051
 1222SOL     OW 4564   6.239   0.026   6.668
 1222SOL    HW1 4565   6.335   0.034   6.694
 1222SOL    HW2 4566   6.193   0.114   6.681
 1223SOL     OW 4567   4.019   0.539   0.485
 1223SOL    HW1 4568   4.071   0.583   0.558
 1223SOL    HW2 4569   3.932   0.506   0.521
 1224SOL     OW 4570   2.845   6.178   0.199
 1224SOL    HW1 4571   2.748   6.202   0.209
 1224SOL    HW2 4572   2.892   6.252   0.151
 1225SOL     OW 4573   3.458   3.873   6.588
 1225SOL    HW1 4574   3.471   3.963   6.548
 1225SOL    HW2 4575   3.361   3.848   6.585
 1226SOL     OW 4576   2.431   5.382   0.879
 1226SOL    HW1 4577   2.530   5.387   0.893
 1226SOL    HW2 4578   2.402   5.458   0.821
 1227SOL     OW 4579   6.404   3.911   7.003
 1227SOL    HW1 4580   6.342   3.982   0.011
 1227SOL    HW2 4581   6.498   3.946   7.005
 1228SOL     OW 4582   4.756   2.950   0.110
 1228SOL    HW1 4583   4.661   2.969   0.134
 1228SOL    HW2 4584   4.802   3.035   0.085
 1229SOL     OW 4585   3.551   5.109   6.010
 1229SOL    HW1 4586   3.564   5.042   6.083
 1229SOL    HW2 4587   3.465   5.092   5.964
 1230SOL     OW 4588   4.433   6.846   3.262
 1230SOL    HW1 4589   4.480   6.790   3.330
 1230SOL    HW2 4590   4.359   6.793   3.220
 1231SOL     OW 4591   1.251   3.573   4.289
 1231SOL    HW1 4592   1.201   3.522   4.219
 1231SOL    HW2 4593   1.306   3.644   4.246
 1232SOL     OW 4594   0.769   2.382   6.532
 1232SOL    HW1 4595   0.695   2.449   6.537
 1232SOL    HW2 4596   0.816   2.377   6.620
 1233SOL     OW 4597   1.016   3.167   4.071
 1233SOL    HW1 4598   1.026   3.105   3.994
 1233SOL    HW2 4599   1.074   3.137   4.146
 1234SOL     OW 4600   6.318   4.363   4.995
 1234SOL    HW1 4601   6.362   4.287   4.947
 1234SOL    HW2 4602   6.386   4.434   5.014
 1235SOL     OW 4603   0.097   5.818   2.736
 1235SOL    HW1 4604   0.056   5.747   2.793
 1235SOL    HW2 4605   0.161   5.872   2.791
 1236SOL     OW 4606   5.200   1.310   0.058
 1236SOL    HW1 4607   5.229   1.306   0.154
 1236SOL    HW2 4608   5.209   1.219   0.017
 1237SOL     OW 4609   2.816   5.123   5.728
 1237SOL    HW1 4610   2.837   5.027   5.712
 1237SOL    HW2 4611   2.893   5.168   5.771
 1238SOL     OW 4612   2.229   1.021   0.451
 1238SOL    HW1 4613   2.248   0.923   0.454
 1238SOL    HW2 4614   2.300   1.067   0.397
 1239SOL     OW 4615   6.920   6.847   6.641
 1239SOL    HW1 4616   6.973   6.795   6.573
 1239SOL    HW2 4617   6.983   6.893   6.703
 1240SOL     OW 4618   5.408   5.604   1.985
 1240SOL    HW1 4619   5.451   5.527   1.938
 1240SOL    HW2 4620   5.350   5.569   2.059
 1241SOL     OW 4621   6.570   3.913   3.958
 1241SOL    HW1 4622   6.642   3.982   3.958
 1241SOL    HW2 4623   6.600   3.832   3.908
 1242SOL     OW 4624   0.770   3.687   1.867
 1242SOL    HW1 4625   0.693   3.719   1.812
 1242SOL    HW2 4626   0.848   3.667   1.808
 1243SOL     OW 4627   1.050   6.327   5.369
 1243SOL    HW1 4628   0.982   6.370   5.309
 1243SOL    HW2 4629   1.128   6.297   5.314
 1244SOL     OW 4630   0.134   6.456   3.544
 1244SOL    HW1 4631   0.212   6.443   3.604
 1244SOL    HW2 4632   0.049   6.441   3.595
 1245SOL     OW 4633   4.733   4.121   6.748
 1245SOL    HW1 4634   4.651   4.077   6.785
 1245SOL    HW2 4635   4.725   4.129   6.649
 1246SOL     OW 4636   2.090   6.326   1.990
 1246SOL    HW1 4637   2.129   6.235   2.003
 1246SOL    HW2 4638   2.134   6.390   2.053
 1247SOL     OW 4639   2.819   0.366   6.623
 1247SOL    HW1 4640   2.815   0.442   6.558
 1247SOL    HW2 4641   2.775   0.394   6.709
 1248SOL     OW 4642   2.437   6.761   4.488
 1248SOL    HW1 4643   2.431   6.688   4.420
 1248SOL    HW2 4644   2.500   6.734   4.561
 1249SOL     OW 4645   5.657   2.113   2.044
 1249SOL    HW1 4646   5.614   2.125   1.955
 1249SOL    HW2 4647   5.740   2.058   2.034
 1250SOL     OW 4648   6.789   4.676   4.668
 1250SOL    HW1 4649   6.814   4.634   4.755
 1250SOL    HW2 4650   6.702   4.638   4.636
 1251SOL     OW 4651   3.101   6.932   4.766
 1251SOL    HW1 4652   3.145   6.933   4.855
 1251SOL    HW2 4653   3.149   6.994   4.704
 1252SOL     OW 4654   3.630   3.945   6.171
 1252SOL    HW1 4655   3.710   3.889   6.189
 1252SOL    HW2 4656   3.608   3.942   6.073
 1253SOL     OW 4657   3.310   5.275   1.459
 1253SOL    HW1 4658   3.334   5.258   1.554
 1253SOL    HW2 4659   3.285   5.371   1.448
 1254SOL     OW 4660   6.374   3.312   2.645
 1254SOL    HW1 4661   6.283   3.352   2.633
 1254SOL    HW2 4662   6.374   3.218   2.610
 1255SOL     OW 4663   6.683   1.580   4.368
 1255SOL    HW1 4664   6.774   1.550   4.398
 1255SOL    HW2 4665   6.691   1.665   4.315
 1256SOL     OW 4666   0.018   0.009   2.928
 1256SOL    HW1 4667   0.045   6.953   2.877
 1256SOL    HW2 4668   7.000   7.007   3.014
 1257SOL     OW 4669   6.518   6.927   3.636
 1257SOL    HW1 4670   6.598   6.968   3.679
 1257SOL    HW2 4671   6.546   6.857   3.571
 1258SOL     OW 4672   0.689   5.210   3.813
 1258SOL    HW1 4673   0.655   5.125   3.854
 1258SOL    HW2 4674   0.758   5.188   3.744
 1259SOL     OW 4675   3.414   2.146   4.572
 1259SOL    HW1 4676   3.504   2.102   4.562
 1259SOL    HW2 4677   3.427   2.241   4.600
 1260SOL     OW 4678   1.178   1.466   6.950
 1260SOL    HW1 4679   1.267   1.441   6.989
 1260SOL    HW2 4680   1.158   1.561   6.971
 1261SOL     OW 4681   0.057   5.884   6.498
 1261SOL    HW1 4682   0.119   5.806   6.508
 1261SOL    HW2 4683   0.081   5.936   6.416
 1262SOL     OW 4684   5.388   5.125   1.556
 1262SOL    HW1 4685   5.305   5.128   1.611
 1262SOL    HW2 4686   5.468   5.116   1.616
 1263SOL     OW 4687   0.257   1.025   2.869
 1263SOL    HW1 4688   0.345   0.988   2.901
 1263SOL    HW2 4689   0.252   1.018   2.769
 1264SOL     OW 4690   0.331   4.028   6.626
 1264SOL    HW1 4691   0.428   4.042   6.606
 1264SOL    HW2 4692   0.288   4.116   6.648
 1265SOL     OW 4693   6.443   5.163   4.521
 1265SOL    HW1 4694   6.441   5.070   4.558
 1265SOL    HW2 4695   6.398   5.165   4.432
 1266SOL     OW 4696   0.917   0.584   4.531
 1266SOL    HW1 4697   0.929   0.494   4.572
 1266SOL    HW2 4698   0.949   0.655   4.594
 1267SOL     OW 4699   4.910   0.861   1.908
 1267SOL    HW1 4700   4.901   0.846   2.006
 1267SOL    HW2 4701   4.988   0.921   1.891
 1268SOL     OW 4702   3.196   2.470   6.107
 1268SOL    HW1 4703   3.184   2.568   6.092
 1268SOL    HW2 4704   3.165   2.420   6.026
 1269SOL     OW 4705   5.575   3.244   4.294
 1269SOL    HW1 4706   5.544   3.161   4.341
 1269SOL    HW2 4707   5.653   3.283   4.343
 1270SOL     OW 4708   2.059   4.721   1.835
 1270SOL    HW1 4709   2.064   4.819   1.852
 1270SOL    HW2 4710   1.966   4.697   1.805
 1271SOL     OW 4711   2.926   1.057   1.717
 1271SOL    HW1 4712   2.938   1.126   1.789
 1271SOL    HW2 4713   2.900   1.103   1.632
 1272SOL     OW 4714   6.167   4.531   6.593
 1272SOL    HW1 4715   6.104   4.577   6.656
 1272SOL    HW2 4716   6.160   4.432   6.605
 1273SOL     OW 4717   1.534   3.559   5.143
 1273SOL    HW1 4718   1.512   3.461   5.142
 1273SOL    HW2 4719   1.537   3.593   5.049
 1274SOL     OW 4720   0.078   4.882   1.630
 1274SOL    HW1 4721   0.088   4.799   1.574
 1274SOL    HW2 4722   0.108   4.961   1.578
 1275SOL     OW 4723   2.877   0.095   3.358
 1275SOL    HW1 4724   2.948   0.115   3.425
 1275SOL    HW2 4725   2.918   0.080   3.268
 1276SOL     OW 4726   5.362   4.730   4.449
 1276SOL    HW1 4727   5.449   4.695   4.483
 1276SOL    HW2 4728   5.314   4.658   4.399
 1277SOL     OW 4729   1.336   5.098   6.933
 1277SOL    HW1 4730   1.426   5.103   6.890
 1277SOL    HW2 4731   1.346   5.101   0.007
 1278SOL     OW 4732   1.398   6.778   3.952
 1278SOL    HW1 4733   1.347   6.847   4.004
 1278SOL    HW2 4734   1.477   6.821   3.908
 1279SOL     OW 4735   2.357   3.698   6.170
 1279SOL    HW1 4736   2.363   3.602   6.196
 1279SOL    HW2 4737   2.262   3.719   6.144
 1280SOL     OW 4738   3.639   0.595   3.431
 1280SOL    HW1 4739   3.661   0.571   3.337
 1280SOL    HW2 4740   3.548   0.560   3.454
 1281SOL     OW 4741   2.949   5.647   3.956
 1281SOL    HW1 4742   2.914   5.693   4.038
 1281SOL    HW2 4743   3.023   5.586   3.981
 1282SOL     OW 4744   0.211   2.903   0.535
 1282SOL    HW1 4745   0.124   2.869   0.570
 1282SOL    HW2 4746   0.195   2.957   0.452
 1283SOL     OW 4747   6.722   4.334   5.406
 1283SOL    HW1 4748   6.724   4.286   5.318
 1283SOL    HW2 4749   6.706   4.269   5.480
 1284SOL     OW 4750   4.120   0.458   1.140
 1284SOL    HW1 4751   4.051   0.389   1.162
 1284SOL    HW2 4752   4.177   0.474   1.220
 1285SOL     OW 4753   3.670   1.258   5.925
 1285SOL    HW1 4754   3.745   1.290   5.867
 1285SOL    HW2 4755   3.651   1.162   5.904
 1286SOL     OW 4756   4.905   2.630   0.818
 1286SOL    HW1 4757   4.843   2.578   0.759
 1286SOL    HW2 4758   4.938   2.711   0.769
 1287SOL     OW 4759   5.568   4.408   5.644
 1287SOL    HW1 4760   5.561   4.493   5.592
 1287SOL    HW2 4761   5.652   4.408   5.698
 1288SOL     OW 4762   4.406   4.398   5.861
 1288SOL    HW1 4763   4.313   4.403   5.895
 1288SOL    HW2 4764   4.405   4.398   5.761
 1289SOL     OW 4765   6.874   0.876   2.029
 1289SOL    HW1 4766   6.778   0.903   2.034
 1289SOL    HW2 4767   6.881   0.776   2.025
 1290SOL     OW 4768   1.106   0.451   1.101
 1290SOL    HW1 4769   1.036   0.521   1.110
 1290SOL    HW2 4770   1.087   0.378   1.167
 1291SOL     OW 4771   6.449   4.927   4.159
 1291SOL    HW1 4772   6.540   4.939   4.120
 1291SOL    HW2 4773   6.418   5.013   4.199
 1292SOL     OW 4774   0.566   5.590   2.096
 1292SOL    HW1 4775   0.514   5.626   2.018
 1292SOL    HW2 4776   0.582   5.663   2.163
 1293SOL     OW 4777   2.317   2.117   0.453
 1293SOL    HW1 4778   2.416   2.126   0.439
 1293SOL    HW2 4779   2.277   2.208   0.465
 1294SOL     OW 4780   1.603   4.088   6.168
 1294SOL    HW1 4781   1.661   4.076   6.087
 1294SOL    HW2 4782   1.632   4.025   6.239
 1295SOL     OW 4783   6.911   3.796   1.326
 1295SOL    HW1 4784   6.966   3.776   1.245
 1295SOL    HW2 4785   6.886   3.710   1.372
 1296SOL     OW 4786   4.794   0.141   5.505
 1296SOL    HW1 4787   4.748   0.203   5.441
 1296SOL    HW2 4788   4.727   0.104   5.569
 1297SOL     OW 4789   0.793   6.295   1.604
 1297SOL    HW1 4790   0.852   6.280   1.525
 1297SOL    HW2 4791   0.751   6.385   1.598
 1298SOL     OW 4792   5.161   6.425   3.435
 1298SOL    HW1 4793   5.192   6.518   3.414
 1298SOL    HW2 4794   5.152   6.416   3.535
 1299SOL     OW 4795   1.991   3.258   3.923
 1299SOL    HW1 4796   1.987   3.238   3.825
 1299SOL    HW2 4797   1.912   3.315   3.948
 1300SOL     OW 4798   2.014   3.430   1.349
 1300SOL    HW1 4799   2.022   3.513   1.295
 1300SOL    HW2 4800   1.919   3.419   1.380
 1301SOL     OW 4801   0.329   6.691   1.975
 1301SOL    HW1 4802   0.315   6.776   1.925
 1301SOL    HW2 4803   0.419   6.654   1.952
 1302SOL     OW 4804   5.337   0.552   5.208
 1302SOL    HW1 4805   5.305   0.631   5.261
 1302SOL    HW2 4806   5.322   0.468   5.261
 1303SOL     OW 4807   4.480   0.044   1.553
 1303SOL    HW1 4808   4.446   6.996   1.494
 1303SOL    HW2 4809   4.533   0.004   1.628
 1304SOL     OW 4810   1.813   1.234   1.505
 1304SOL    HW1 4811   1.830   1.314   1.448
 1304SOL    HW2 4812   1.818   1.152   1.449
 1305SOL     OW 4813   6.049   4.635   5.963
 1305SOL    HW1 4814   5.956   4.639   6.001
 1305SOL    HW2 4815   6.110   4.591   6.029
 1306SOL     OW 4816   0.946   5.522   4.374
 1306SOL    HW1 4817   0.859   5.499   4.417
 1306SOL    HW2 4818   0.980   5.608   4.413
 1307SOL     OW 4819   1.623   3.504   3.992
 1307SOL    HW1 4820   1.536   3.483   3.947
 1307SOL    HW2 4821   1.646   3.600   3.979
 1308SOL     OW 4822   6.517   6.815   6.125
 1308SOL    HW1 4823   6.531   6.789   6.029
 1308SOL    HW2 4824   6.541   6.738   6.184
 1309SOL     OW 4825   5.308   4.616   5.978
 1309SOL    HW1 4826   5.355   4.630   5.891
 1309SOL    HW2 4827   5.227   4.559   5.963
 1310SOL     OW 4828   0.769   4.172   3.714
 1310SOL    HW1 4829   0.828   4.097   3.682
 1310SOL    HW2 4830   0.676   4.139   3.726
 1311SOL     OW 4831   6.618   5.910   6.150
 1311SOL    HW1 4832   6.584   5.993   6.195
 1311SOL    HW2 4833   6.658   5.850   6.219
 1312SOL     OW 4834   1.910   0.434   6.858
 1312SOL    HW1 4835   1.980   0.375   6.816
 1312SOL    HW2 4836   1.948   0.476   6.940
 1313SOL     OW 4837   6.693   5.297   2.961
 1313SOL    HW1 4838   6.699   5.387   3.004
 1313SOL    HW2 4839   6.614   5.248   2.997
 1314SOL     OW 4840   3.495   1.483   4.688
 1314SOL    HW1 4841   3.439   1.413   4.644
 1314SOL    HW2 4842   3.572   1.439   4.736
 1315SOL     OW 4843   0.007   0.951   4.175
 1315SOL    HW1 4844   6.993   1.043   4.165
 1315SOL    HW2 4845   6.959   0.886   4.198
 1316SOL     OW 4846   4.056   0.058   5.197
 1316SOL    HW1 4847   4.126   0.123   5.168
 1316SOL    HW2 4848   4.004   0.027   5.118
 1317SOL     OW 4849   1.831   4.510   5.100
 1317SOL    HW1 4850   1.836   4.580   5.029
 1317SOL    HW2 4851   1.768   4.539   5.172
 1318SOL     OW 4852   1.337   2.761   6.562
 1318SOL    HW1 4853   1.407   2.690   6.554
 1318SOL    HW2 4854   1.282   2.763   6.478
 1319SOL     OW 4855   0.220   6.035   6.795
 1319SOL    HW1 4856   0.230   5.953   6.852
 1319SOL    HW2 4857   0.124   6.058   6.785
 1320SOL     OW 4858   2.951   2.938   6.644
 1320SOL    HW1 4859   2.966   2.913   6.548
 1320SOL    HW2 4860   2.853   2.938   6.663
 1321SOL     OW 4861   4.873   2.522   6.605
 1321SOL    HW1 4862   4.913   2.499   6.517
 1321SOL    HW2 4863   4.884   2.445   6.668
 1322SOL     OW 4864   3.884   0.960   4.082
 1322SOL    HW1 4865   3.806   0.922   4.131
 1322SOL    HW2 4866   3.964   0.900   4.093
 1323SOL     OW 4867   3.799   6.030   0.725
 1323SOL    HW1 4868   3.835   6.122   0.720
 1323SOL    HW2 4869   3.724   6.027   0.791
 1324SOL     OW 4870   1.339   3.810   0.720
 1324SOL    HW1 4871   1.390   3.725   0.733
 1324SOL    HW2 4872   1.298   3.811   0.629
 1325SOL     OW 4873   4.201   6.503   5.183
 1325SOL    HW1 4874   4.113   6.534   5.146
 1325SOL    HW2 4875   4.194   6.494   5.282
 1326SOL     OW 4876   4.911   4.088   5.368
 1326SOL    HW1 4877   4.900   4.131   5.278
 1326SOL    HW2 4878   4.899   3.989   5.359
 1327SOL     OW 4879   0.251   6.257   1.254
 1327SOL    HW1 4880   0.278   6.310   1.174
 1327SOL    HW2 4881   0.153   6.267   1.269
 1328SOL     OW 4882   1.594   3.125   6.468
 1328SOL    HW1 4883   1.680   3.146   6.422
 1328SOL    HW2 4884   1.518   3.144   6.406
 1329SOL     OW 4885   0.331   2.087   2.847
 1329SOL    HW1 4886   0.347   2.155   2.918
 1329SOL    HW2 4887   0.290   2.005   2.888
 1330SOL     OW 4888   0.245   2.121   1.045
 1330SOL    HW1 4889   0.336   2.137   1.006
 1330SOL    HW2 4890   0.248   2.135   1.144
 1331SOL     OW 4891   4.570   2.492   2.622
 1331SOL    HW1 4892   4.600   2.437   2.700
 1331SOL    HW2 4893   4.610   2.583   2.628
 1332SOL     OW 4894   2.345   6.795   0.586
 1332SOL    HW1 4895   2.439   6.762   0.575
 1332SOL    HW2 4896   2.294   6.776   0.502
 1333SOL     OW 4897   2.925   3.746   3.070
 1333SOL    HW1 4898   2.896   3.709   2.982
 1333SOL    HW2 4899   2.904   3.680   3.143
 1334SOL     OW 4900   6.380   2.125   3.524
 1334SOL    HW1 4901   6.393   2.224   3.519
 1334SOL    HW2 4902   6.322   2.103   3.603
 1335SOL     OW 4903   1.753   1.837   1.970
 1335SOL    HW1 4904   1.721   1.871   2.058
 1335SOL    HW2 4905   1.724   1.741   1.959
 1336SOL     OW 4906   3.707   1.828   5.556
 1336SOL    HW1 4907   3.758   1.910   5.581
 1336SOL    HW2 4908   3.682   1.832   5.459
 1337SOL     OW 4909   6.858   1.516   2.899
 1337SOL    HW1 4910   6.805   1.558   2.973
 1337SOL    HW2 4911   6.903   1.588   2.846
 1338SOL     OW 4912   6.959   4.738   4.158
 1338SOL    HW1 4913   7.021   4.804   4.201
 1338SOL    HW2 4914   6.881   4.723   4.218
 1339SOL     OW 4915   6.974   0.775   0.023
 1339SOL    HW1 4916   6.946   0.818   0.110
 1339SOL    HW2 4917   6.938   0.829   6.972
 1340SOL     OW 4918   5.338   1.723   2.658
 1340SOL    HW1 4919   5.314   1.703   2.563
 1340SOL    HW2 4920   5.434   1.699   2.673
 1341SOL     OW 4921   4.063   6.488   0.342
 1341SOL    HW1 4922   4.051   6.552   0.418
 1341SOL    HW2 4923   4.018   6.524   0.261
 1342SOL     OW 4924   3.095   5.098   6.543
 1342SOL    HW1 4925   3.061   5.052   6.624
 1342SOL    HW2 4926   3.049   5.186   6.532
 1343SOL     OW 4927   5.715   5.309   2.718
 1343SOL    HW1 4928   5.782   5.237   2.735
 1343SOL    HW2 4929   5.689   5.308   2.621
 1344SOL     OW 4930   0.256   6.233   4.364
 1344SOL    HW1 4931   0.305   6.319   4.371
 1344SOL    HW2 4932   0.286   6.184   4.282
 1345SOL     OW 4933   0.948   4.524   2.235
 1345SOL    HW1 4934   0.893   4.549   2.314
 1345SOL    HW2 4935   0.894   4.534   2.152
 1346SOL     OW 4936   1.524   5.083   6.066
 1346SOL    HW1 4937   1.549   5.158   6.128
 1346SOL    HW2 4938   1.572   5.000   6.094
 1347SOL     OW 4939   1.381   6.731   6.795
 1347SOL    HW1 4940   1.317   6.789   6.845
 1347SOL    HW2 4941   1.351   6.723   6.700
 1348SOL     OW 4942   0.406   6.500   5.378
 1348SOL    HW1 4943   0.334   6.442   5.417
 1348SOL    HW2 4944   0.398   6.592   5.416
 1349SOL     OW 4945   5.468   2.617   4.149
 1349SOL    HW1 4946   5.513   2.628   4.060
 1349SOL    HW2 4947   5.382   2.669   4.150
 1350SOL     OW 4948   4.380   4.910   6.318
 1350SOL    HW1 4949   4.345   4.827   6.275
 1350SOL    HW2 4950   4.371   4.987   6.255
 1351SOL     OW 4951   5.839   2.624   4.125
 1351SOL    HW1 4952   5.937   2.634   4.111
 1351SOL    HW2 4953   5.817   2.635   4.222
 1352SOL     OW 4954   6.867   6.385   3.369
 1352SOL    HW1 4955   6.887   6.296   3.327
 1352SOL    HW2 4956   6.770   6.390   3.392
 1353SOL     OW 4957   1.505   1.953   0.566
 1353SOL    HW1 4958   1.510   2.004   0.480
 1353SOL    HW2 4959   1.409   1.930   0.585
 1354SOL     OW 4960   0.055   3.611   2.267
 1354SOL    HW1 4961   0.081   3.584   2.174
 1354SOL    HW2 4962   0.098   3.549   2.332
 1355SOL     OW 4963   6.370   3.761   4.142
 1355SOL    HW1 4964   6.277   3.728   4.156
 1355SOL    HW2 4965   6.433   3.684   4.133
 1356SOL     OW 4966   3.617   2.974   1.973
 1356SOL    HW1 4967   3.601   2.973   2.071
 1356SOL    HW2 4968   3.712   2.948   1.954
 1357SOL     OW 4969   6.448   4.113   6.043
 1357SOL    HW1 4970   6.484   4.063   6.122
 1357SOL    HW2 4971   6.373   4.061   6.003
 1358SOL     OW 4972   6.010   6.831   0.299
 1358SOL    HW1 4973   6.020   6.911   0.358
 1358SOL    HW2 4974   5.912   6.813   0.285
 1359SOL     OW 4975   6.834   4.703   2.001
 1359SOL    HW1 4976   6.832   4.702   1.901
 1359SOL    HW2 4977   6.763   4.766   2.035
 1360SOL     OW 4978   3.284   3.305   0.117
 1360SOL    HW1 4979   3.253   3.284   0.210
 1360SOL    HW2 4980   3.270   3.402   0.098
 1361SOL     OW 4981   0.022   4.651   4.861
 1361SOL    HW1 4982   0.106   4.676   4.908
 1361SOL    HW2 4983   6.981   4.616   4.928
 1362SOL     OW 4984   3.886   3.947   2.867
 1362SOL    HW1 4985   3.960   3.994   2.818
 1362SOL    HW2 4986   3.869   3.858   2.824
 1363SOL     OW 4987   0.231   5.303   4.117
 1363SOL    HW1 4988   0.239   5.223   4.059
 1363SOL    HW2 4989   0.134   5.321   4.135
 1364SOL     OW 4990   4.382   4.151   0.317
 1364SOL    HW1 4991   4.470   4.188   0.348
 1364SOL    HW2 4992   4.338   4.103   0.392
 1365SOL     OW 4993   0.457   4.506   0.047
 1365SOL    HW1 4994   0.545   4.468   0.076
 1365SOL    HW2 4995   0.418   4.448   7.001
 1366SOL     OW 4996   1.790   6.658   5.605
 1366SOL    HW1 4997   1.721   6.592   5.635
 1366SOL    HW2 4998   1.881   6.617   5.612
 1367SOL     OW 4999   1.825   0.516   2.375
 1367SOL    HW1 5000   1.916   0.484   2.402
 1367SOL    HW2 5001   1.813   0.611   2.402
 1368SOL     OW 5002   5.288   6.814   5.110
 1368SOL    HW1 5003   5.191   6.801   5.091
 1368SOL    HW2 5004   5.335   6.846   5.027
 1369SOL     OW 5005   1.527   6.103   2.969
 1369SOL    HW1 5006   1.600   6.118   3.035
 1369SOL    HW2 5007   1.566   6.105   2.876
 1370SOL     OW 5008   3.434   0.843   1.643
 1370SOL    HW1 5009   3.342   0.878   1.625
 1370SOL    HW2 5010   3.461   0.868   1.736
 1371SOL     OW 5011   4.592   1.159   4.814
 1371SOL    HW1 5012   4.501   1.198   4.823
 1371SOL    HW2 5013   4.588   1.076   4.758
 1372SOL     OW 5014   1.810   2.755   1.064
 1372SOL    HW1 5015   1.793   2.667   1.109
 1372SOL    HW2 5016   1.740   2.821   1.091
 1373SOL     OW 5017   6.388   4.868   0.426
 1373SOL    HW1 5018   6.293   4.844   0.445
 1373SOL    HW2 5019   6.402   4.874   0.327
 1374SOL     OW 5020   4.508   2.466   0.774
 1374SOL    HW1 5021   4.472   2.374   0.759
 1374SOL    HW2 5022   4.454   2.512   0.845
 1375SOL     OW 5023   0.060   4.839   5.252
 1375SOL    HW1 5024   0.076   4.882   5.341
 1375SOL    HW2 5025   7.009   4.884   5.206
 1376SOL     OW 5026   4.558   2.562   3.988
 1376SOL    HW1 5027   4.500   2.483   4.008
 1376SOL    HW2 5028   4.568   2.571   3.889
 1377SOL     OW 5029   0.590   4.483   5.492
 1377SOL    HW1 5030   0.531   4.553   5.534
 1377SOL    HW2 5031   0.677   4.478   5.541
 1378SOL     OW 5032   1.240   2.590   6.260
 1378SOL    HW1 5033   1.319   2.555   6.210
 1378SOL    HW2 5034   1.208   2.522   6.325
 1379SOL     OW 5035   3.288   6.340   3.072
 1379SOL    HW1 5036   3.377   6.328   3.028
 1379SOL    HW2 5037   3.293   6.416   3.137
 1380SOL     OW 5038   6.592   6.777   2.221
 1380SOL    HW1 5039   6.573   6.693   2.270
 1380SOL    HW2 5040   6.690   6.796   2.225
 1381SOL     OW 5041   5.779   3.012   0.135
 1381SOL    HW1 5042   5.823   3.091   0.091
 1381SOL    HW2 5043   5.715   3.044   0.205
 1382SOL     OW 5044   6.077   5.510   5.875
 1382SOL    HW1 5045   6.154   5.563   5.839
 1382SOL    HW2 5046   6.110   5.449   5.947
 1383SOL     OW 5047   0.826   0.959   0.471
 1383SOL    HW1 5048   0.908   0.994   0.426
 1383SOL    HW2 5049   0.776   0.900   0.408
 1384SOL     OW 5050   3.519   1.444   3.729
 1384SOL    HW1 5051   3.519   1.370   3.797
 1384SOL    HW2 5052   3.428   1.452   3.689
 1385SOL     OW 5053   6.193   2.744   3.394
 1385SOL    HW1 5054   6.197   2.692   3.479
 1385SOL    HW2 5055   6.131   2.698   3.330
 1386SOL     OW 5056   2.004   3.015   4.453
 1386SOL    HW1 5057   2.070   3.071   4.403
 1386SOL    HW2 5058   2.052   2.953   4.514
 1387SOL     OW 5059   3.722   0.551   4.365
 1387SOL    HW1 5060   3.800   0.508   4.321
 1387SOL    HW2 5061   3.641   0.493   4.354
 1388SOL     OW 5062   6.688   0.479   4.242
 1388SOL    HW1 5063   6.759   0.440   4.300
 1388SOL    HW2 5064   6.682   0.578   4.258
 1389SOL     OW 5065   6.460   0.073   4.216
 1389SOL    HW1 5066   6.495   7.011   4.183
 1389SOL    HW2 5067   6.399   0.058   4.294
 1390SOL     OW 5068   4.505   1.724   1.202
 1390SOL    HW1 5069   4.458   1.796   1.254
 1390SOL    HW2 5070   4.596   1.710   1.241
 1391SOL     OW 5071   6.587   0.534   4.928
 1391SOL    HW1 5072   6.605   0.548   5.025
 1391SOL    HW2 5073   6.519   0.461   4.917
 1392SOL     OW 5074   4.454   6.026   6.468
 1392SOL    HW1 5075   4.360   6.007   6.499
 1392SOL    HW2 5076   4.456   6.114   6.420
 1393SOL     OW 5077   6.602   1.724   6.589
 1393SOL    HW1 5078   6.577   1.766   6.502
 1393SOL    HW2 5079   6.618   1.626   6.575
 1394SOL     OW 5080   4.157   6.473   3.705
 1394SOL    HW1 5081   4.187   6.382   3.677
 1394SOL    HW2 5082   4.207   6.542   3.652
 1395SOL     OW 5083   1.119   4.869   3.149
 1395SOL    HW1 5084   1.128   4.916   3.237
 1395SOL    HW2 5085   1.202   4.884   3.095
 1396SOL     OW 5086   2.025   1.300   4.597
 1396SOL    HW1 5087   2.096   1.367   4.575
 1396SOL    HW2 5088   2.047   1.256   4.684
 1397SOL     OW 5089   0.808   4.587   4.786
 1397SOL    HW1 5090   0.786   4.643   4.706
 1397SOL    HW2 5091   0.906   4.591   4.804
 1398SOL     OW 5092   1.374   1.152   0.980
 1398SOL    HW1 5093   1.381   1.067   1.031
 1398SOL    HW2 5094   1.465   1.180   0.949
 1399SOL     OW 5095   4.004   6.943   0.394
 1399SOL    HW1 5096   3.953   6.888   0.328
 1399SOL    HW2 5097   3.947   7.020   0.423
 1400SOL     OW 5098   6.579   0.616   4.515
 1400SOL    HW1 5099   6.532   0.652   4.596
 1400SOL    HW2 5100   6.628   0.532   4.540
 1401SOL     OW 5101   5.516   0.822   3.736
 1401SOL    HW1 5102   5.513   0.781   3.645
 1401SOL    HW2 5103   5.589   0.889   3.740
 1402SOL     OW 5104   5.562   3.773   1.156
 1402SOL    HW1 5105   5.621   3.695   1.135
 1402SOL    HW2 5106   5.619   3.849   1.188
 1403SOL     OW 5107   3.990   3.133   6.897
 1403SOL    HW1 5108   3.936   3.101   6.819
 1403SOL    HW2 5109   3.935   3.195   6.953
 1404SOL     OW 5110   4.146   7.024   0.951
 1404SOL    HW1 5111   4.229   0.037   0.909
 1404SOL    HW2 5112   4.066   0.045   0.914
 1405SOL     OW 5113   2.304   3.490   0.981
 1405SOL    HW1 5114   2.398   3.460   0.963
 1405SOL    HW2 5115   2.240   3.433   0.930
 1406SOL     OW 5116   2.209   3.145   0.885
 1406SOL    HW1 5117   2.301   3.107   0.894
 1406SOL    HW2 5118   2.173   3.169   0.975
 1407SOL     OW 5119   0.677   3.135   1.734
 1407SOL    HW1 5120   0.664   3.036   1.738
 1407SOL    HW2 5121   0.619   3.179   1.803
 1408SOL     OW 5122   5.487   6.075   6.147
 1408SOL    HW1 5123   5.506   6.173   6.143
 1408SOL    HW2 5124   5.571   6.024   6.132
 1409SOL     OW 5125   6.730   0.910   6.020
 1409SOL    HW1 5126   6.698   0.954   5.937
 1409SOL    HW2 5127   6.806   0.849   5.999
 1410SOL     OW 5128   2.988   2.798   5.654
 1410SOL    HW1 5129   3.070   2.841   5.691
 1410SOL    HW2 5130   2.927   2.773   5.730
 1411SOL     OW 5131   3.926   6.004   0.237
 1411SOL    HW1 5132   4.003   5.961   0.285
 1411SOL    HW2 5133   3.887   5.940   0.172
 1412SOL     OW 5134   1.321   2.595   0.650
 1412SOL    HW1 5135   1.273   2.533   0.711
 1412SOL    HW2 5136   1.416   2.565   0.639
 1413SOL     OW 5137   1.841   1.553   5.397
 1413SOL    HW1 5138   1.930   1.553   5.441
 1413SOL    HW2 5139   1.772   1.518   5.460
 1414SOL     OW 5140   0.583   3.228   2.266
 1414SOL    HW1 5141   0.507   3.291   2.247
 1414SOL    HW2 5142   0.635   3.261   2.344
 1415SOL     OW 5143   2.755   2.068   4.030
 1415SOL    HW1 5144   2.709   2.094   4.115
 1415SOL    HW2 5145   2.697   2.004   3.979
 1416SOL     OW 5146   4.007   0.129   5.556
 1416SOL    HW1 5147   4.037   0.036   5.578
 1416SOL    HW2 5148   3.937   0.126   5.485
 1417SOL     OW 5149   3.315   2.922   6.193
 1417SOL    HW1 5150   3.376   2.870   6.253
 1417SOL    HW2 5151   3.369   2.987   6.139
 1418SOL     OW 5152   3.752   3.331   0.164
 1418SOL    HW1 5153   3.694   3.395   0.215
 1418SOL    HW2 5154   3.828   3.302   0.222
 1419SOL     OW 5155   1.853   5.307   3.610
 1419SOL    HW1 5156   1.943   5.334   3.643
 1419SOL    HW2 5157   1.799   5.388   3.590
 1420SOL     OW 5158   3.878   5.249   2.999
 1420SOL    HW1 5159   3.804   5.275   3.060
 1420SOL    HW2 5160   3.853   5.270   2.904
 1421SOL     OW 5161   0.819   5.400   5.728
 1421SOL    HW1 5162   0.735   5.359   5.764
 1421SOL    HW2 5163   0.819   5.390   5.628
 1422SOL     OW 5164   2.749   3.718   5.944
 1422SOL    HW1 5165   2.700   3.789   5.893
 1422SOL    HW2 5166   2.828   3.687   5.890
 1423SOL     OW 5167   4.312   0.484   4.702
 1423SOL    HW1 5168   4.216   0.457   4.708
 1423SOL    HW2 5169   4.318   0.584   4.709
 1424SOL     OW 5170   5.679   3.312   6.476
 1424SOL    HW1 5171   5.609   3.293   6.407
 1424SOL    HW2 5172   5.737   3.232   6.489
 1425SOL     OW 5173   3.720   6.753   4.414
 1425SOL    HW1 5174   3.685   6.679   4.471
 1425SOL    HW2 5175   3.767   6.820   4.471
 1426SOL     OW 5176   2.553   1.935   0.057
 1426SOL    HW1 5177   2.551   1.915   6.984
 1426SOL    HW2 5178   2.595   2.024   0.071
 1427SOL     OW 5179   1.086   1.221   3.032
 1427SOL    HW1 5180   1.069   1.129   3.065
 1427SOL    HW2 5181   1.034   1.287   3.087
 1428SOL     OW 5182   6.544   3.257   3.166
 1428SOL    HW1 5183   6.587   3.345   3.149
 1428SOL    HW2 5184   6.614   3.186   3.176
 1429SOL     OW 5185   6.176   1.415   0.704
 1429SOL    HW1 5186   6.106   1.455   0.645
 1429SOL    HW2 5187   6.168   1.455   0.796
 1430SOL     OW 5188   2.160   3.101   3.095
 1430SOL    HW1 5189   2.158   3.162   3.175
 1430SOL    HW2 5190   2.183   3.008   3.125
 1431SOL     OW 5191   2.704   1.447   6.396
 1431SOL    HW1 5192   2.708   1.469   6.494
 1431SOL    HW2 5193   2.613   1.413   6.374
 1432SOL     OW 5194   2.964   1.090   1.001
 1432SOL    HW1 5195   2.949   0.991   1.008
 1432SOL    HW2 5196   2.888   1.138   1.046
 1433SOL     OW 5197   2.953   0.228   4.471
 1433SOL    HW1 5198   3.029   0.182   4.518
 1433SOL    HW2 5199   2.887   0.160   4.440
 1434SOL     OW 5200   0.027   2.967   0.001
 1434SOL    HW1 5201   0.117   2.957   0.044
 1434SOL    HW2 5202   0.038   3.011   6.937
 1435SOL     OW 5203   1.185   0.301   4.526
 1435SOL    HW1 5204   1.166   0.390   4.486
 1435SOL    HW2 5205   1.278   0.272   4.503
 1436SOL     OW 5206   5.768   1.921   0.474
 1436SOL    HW1 5207   5.698   1.873   0.421
 1436SOL    HW2 5208   5.737   1.932   0.568
 1437SOL     OW 5209   4.147   1.576   6.165
 1437SOL    HW1 5210   4.059   1.583   6.211
 1437SOL    HW2 5211   4.137   1.520   6.083
 1438SOL     OW 5212   2.333   1.140   2.051
 1438SOL    HW1 5213   2.247   1.112   2.008
 1438SOL    HW2 5214   2.315   1.210   2.120
 1439SOL     OW 5215   6.553   5.262   6.710
 1439SOL    HW1 5216   6.610   5.213   6.776
 1439SOL    HW2 5217   6.457   5.244   6.729
 1440SOL     OW 5218   3.366   2.908   3.257
 1440SOL    HW1 5219   3.439   2.902   3.189
 1440SOL    HW2 5220   3.280   2.876   3.217
 1441SOL     OW 5221   7.018   2.901   4.521
 1441SOL    HW1 5222   6.983   2.958   4.595
 1441SOL    HW2 5223   6.942   2.873   4.462
 1442SOL     OW 5224   4.946   4.170   0.233
 1442SOL    HW1 5225   4.884   4.168   0.155
 1442SOL    HW2 5226   4.946   4.261   0.273
 1443SOL     OW 5227   0.893   1.617   3.339
 1443SOL    HW1 5228   0.883   1.626   3.439
 1443SOL    HW2 5229   0.967   1.676   3.308
 1444SOL     OW 5230   4.584   0.653   3.305
 1444SOL    HW1 5231   4.676   0.686   3.322
 1444SOL    HW2 5232   4.519   0.704   3.362
 1445SOL     OW 5233   6.632   2.289   1.862
 1445SOL    HW1 5234   6.542   2.270   1.902
 1445SOL    HW2 5235   6.690   2.208   1.871
 1446SOL     OW 5236   4.296   2.267   1.449
 1446SOL    HW1 5237   4.350   2.236   1.528
 1446SOL    HW2 5238   4.209   2.217   1.447
 1447SOL     OW 5239   6.501   1.546   5.157
 1447SOL    HW1 5240   6.413   1.520   5.198
 1447SOL    HW2 5241   6.559   1.588   5.227
 1448SOL     OW 5242   5.323   1.197   6.410
 1448SOL    HW1 5243   5.234   1.153   6.398
 1448SOL    HW2 5244   5.311   1.282   6.462
 1449SOL     OW 5245   5.329   6.005   0.954
 1449SOL    HW1 5246   5.277   6.051   1.026
 1449SOL    HW2 5247   5.266   5.970   0.884
 1450SOL     OW 5248   5.691   3.085   2.657
 1450SOL    HW1 5249   5.681   3.184   2.653
 1450SOL    HW2 5250   5.753   3.060   2.732
 1451SOL     OW 5251   1.789   6.841   2.902
 1451SOL    HW1 5252   1.852   6.782   2.852
 1451SOL    HW2 5253   1.840   6.898   2.965
 1452SOL     OW 5254   5.278   0.599   4.934
 1452SOL    HW1 5255   5.295   0.561   5.025
 1452SOL    HW2 5256   5.338   0.678   4.919
 1453SOL     OW 5257   5.136   4.201   4.973
 1453SOL    HW1 5258   5.229   4.221   4.942
 1453SOL    HW2 5259   5.133   4.206   5.073
 1454SOL     OW 5260   5.135   2.793   1.889
 1454SOL    HW1 5261   5.175   2.778   1.979
 1454SOL    HW2 5262   5.093   2.708   1.856
 1455SOL     OW 5263   1.061   0.773   1.948
 1455SOL    HW1 5264   1.089   0.688   1.903
 1455SOL    HW2 5265   1.114   0.849   1.912
 1456SOL     OW 5266   6.851   6.720   4.276
 1456SOL    HW1 5267   6.820   6.759   4.363
 1456SOL    HW2 5268   6.913   6.785   4.231
 1457SOL     OW 5269   2.240   0.689   3.689
 1457SOL    HW1 5270   2.295   0.645   3.618
 1457SOL    HW2 5271   2.299   0.738   3.752
 1458SOL     OW 5272   5.178   6.484   5.807
 1458SOL    HW1 5273   5.102   6.517   5.752
 1458SOL    HW2 5274   5.150   6.402   5.857
 1459SOL     OW 5275   2.977   5.965   0.046
 1459SOL    HW1 5276   2.962   6.031   0.119
 1459SOL    HW2 5277   2.893   5.954   7.019
 1460SOL     OW 5278   1.054   6.394   6.922
 1460SOL    HW1 5279   1.135   6.423   6.973
 1460SOL    HW2 5280   0.985   6.361   6.986
 1461SOL     OW 5281   5.998   4.560   2.626
 1461SOL    HW1 5282   5.974   4.490   2.560
 1461SOL    HW2 5283   6.078   4.531   2.678
 1462SOL     OW 5284   6.126   0.676   0.394
 1462SOL    HW1 5285   6.122   0.708   0.489
 1462SOL    HW2 5286   6.057   0.606   0.380
 1463SOL     OW 5287   1.236   0.884   4.749
 1463SOL    HW1 5288   1.145   0.915   4.774
 1463SOL    HW2 5289   1.301   0.959   4.761
 1464SOL     OW 5290   0.026   6.339   0.424
 1464SOL    HW1 5291   0.074   6.401   0.485
 1464SOL    HW2 5292   6.971   6.385   0.385
 1465SOL     OW 5293   0.535   0.536   4.409
 1465SOL    HW1 5294   0.505   0.526   4.504
 1465SOL    HW2 5295   0.615   0.478   4.393
 1466SOL     OW 5296   5.923   5.531   3.025
 1466SOL    HW1 5297   6.013   5.536   2.981
 1466SOL    HW2 5298   5.861   5.597   2.981
 1467SOL     OW 5299   0.834   0.950   3.382
 1467SOL    HW1 5300   0.905   1.020   3.385
 1467SOL    HW2 5301   0.750   0.989   3.346
 1468SOL     OW 5302   5.488   5.748   3.822
 1468SOL    HW1 5303   5.416   5.814   3.844
 1468SOL    HW2 5304   5.575   5.780   3.859
 1469SOL     OW 5305   0.979   0.412   2.413
 1469SOL    HW1 5306   1.004   0.332   2.468
 1469SOL    HW2 5307   1.013   0.495   2.457
 1470SOL     OW 5308   1.126   0.562   3.069
 1470SOL    HW1 5309   1.191   0.582   3.142
 1470SOL    HW2 5310   1.159   0.484   3.016
 1471SOL     OW 5311   0.159   0.249   6.931
 1471SOL    HW1 5312   0.198   0.339   6.953
 1471SOL    HW2 5313   0.062   0.259   6.910
 1472SOL     OW 5314   5.032   0.508   5.963
 1472SOL    HW1 5315   5.115   0.510   5.907
 1472SOL    HW2 5316   4.999   0.602   5.975
 1473SOL     OW 5317   6.271   5.120   2.812
 1473SOL    HW1 5318   6.231   5.156   2.727
 1473SOL    HW2 5319   6.286   5.196   2.875
 1474SOL     OW 5320   6.008   5.512   4.444
 1474SOL    HW1 5321   5.918   5.554   4.432
 1474SOL    HW2 5322   6.046   5.539   4.532
 1475SOL     OW 5323   6.705   0.954   2.660
 1475SOL    HW1 5324   6.698   0.995   2.751
 1475SOL    HW2 5325   6.751   0.866   2.666
 1476SOL     OW 5326   1.054   1.642   2.315
 1476SOL    HW1 5327   1.041   1.559   2.261
 1476SOL    HW2 5328   0.967   1.691   2.322
 1477SOL     OW 5329   3.133   6.765   5.521
 1477SOL    HW1 5330   3.080   6.688   5.556
 1477SOL    HW2 5331   3.189   6.735   5.444
 1478SOL     OW 5332   6.102   5.213   1.264
 1478SOL    HW1 5333   6.053   5.262   1.192
 1478SOL    HW2 5334   6.055   5.128   1.285
 1479SOL     OW 5335   1.985   4.534   0.581
 1479SOL    HW1 5336   2.003   4.629   0.605
 1479SOL    HW2 5337   1.998   4.522   0.482
 1480SOL     OW 5338   2.054   1.828   0.293
 1480SOL    HW1 5339   2.012   1.816   0.203
 1480SOL    HW2 5340   2.121   1.902   0.290
 1481SOL     OW 5341   6.089   2.222   6.147
 1481SOL    HW1 5342   6.153   2.154   6.111
 1481SOL    HW2 5343   6.110   2.240   6.243
 1482SOL     OW 5344   5.628   0.792   6.844
 1482SOL    HW1 5345   5.603   0.863   6.779
 1482SOL    HW2 5346   5.655   0.834   6.931
 1483SOL     OW 5347   6.446   2.996   0.370
 1483SOL    HW1 5348   6.426   3.035   0.280
 1483SOL    HW2 5349   6.545   2.982   0.379
 1484SOL     OW 5350   6.854   4.693   2.478
 1484SOL    HW1 5351   6.777   4.638   2.445
 1484SOL    HW2 5352   6.863   4.775   2.421
 1485SOL     OW 5353   5.299   2.816   4.073
 1485SOL    HW1 5354   5.246   2.766   4.004
 1485SOL    HW2 5355   5.345   2.894   4.029
 1486SOL     OW 5356   4.833   2.496   3.008
 1486SOL    HW1 5357   4.818   2.460   3.100
 1486SOL    HW2 5358   4.904   2.566   3.010
 1487SOL     OW 5359   5.672   1.818   5.814
 1487SOL    HW1 5360   5.648   1.763   5.894
 1487SOL    HW2 5361   5.771   1.829   5.809
 1488SOL     OW 5362   4.797   1.270   3.361
 1488SOL    HW1 5363   4.730   1.197   3.378
 1488SOL    HW2 5364   4.803   1.328   3.442
 1489SOL     OW 5365   3.839   5.007   4.727
 1489SOL    HW1 5366   3.800   5.010   4.635
 1489SOL    HW2 5367   3.929   4.964   4.724
 1490SOL     OW 5368   1.082   2.063   0.361
 1490SOL    HW1 5369   1.010   1.997   0.341
 1490SOL    HW2 5370   1.044   2.141   0.409
 1491SOL     OW 5371   0.224   3.502   3.778
 1491SOL    HW1 5372   0.198   3.598   3.763
 1491SOL    HW2 5373   0.203   3.449   3.696
 1492SOL     OW 5374   5.236   2.216   1.541
 1492SOL    HW1 5375   5.164   2.284   1.529
 1492SOL    HW2 5376   5.234   2.153   1.463
 1493SOL     OW 5377   4.890   0.415   5.005
 1493SOL    HW1 5378   4.839   0.501   5.007
 1493SOL    HW2 5379   4.968   0.421   5.067
 1494SOL     OW 5380   4.112   2.323   6.031
 1494SOL    HW1 5381   4.167   2.246   6.061
 1494SOL    HW2 5382   4.034   2.290   5.977
 1495SOL     OW 5383   0.812   3.022   2.927
 1495SOL    HW1 5384   0.782   2.974   2.844
 1495SOL    HW2 5385   0.911   3.036   2.922
 1496SOL     OW 5386   6.587   0.313   1.973
 1496SOL    HW1 5387   6.547   0.383   1.915
 1496SOL    HW2 5388   6.641   0.250   1.917
 1497SOL     OW 5389   6.963   5.039   4.002
 1497SOL    HW1 5390   6.867   5.065   3.995
 1497SOL    HW2 5391   6.986   4.977   3.927
 1498SOL     OW 5392   2.132   4.517   6.233
 1498SOL    HW1 5393   2.197   4.452   6.191
 1498SOL    HW2 5394   2.127   4.599   6.176
 1499SOL     OW 5395   1.078   3.406   4.899
 1499SOL    HW1 5396   1.060   3.382   4.995
 1499SOL    HW2 5397   1.122   3.495   4.894
 1500SOL     OW 5398   5.305   6.989   0.005
 1500SOL    HW1 5399   5.209   7.017   0.008
 1500SOL    HW2 5400   5.342   7.005   6.939
 1501SOL     OW 5401   4.278   0.436   6.591
 1501SOL    HW1 5402   4.179   0.422   6.585
 1501SOL    HW2 5403   4.325   0.367   6.535
 1502SOL     OW 5404   6.253   6.462   0.011
 1502SOL    HW1 5405   6.256   6.367   0.043
 1502SOL    HW2 5406   6.216   6.520   0.084
 1503SOL     OW 5407   2.683   2.917   6.996
 1503SOL    HW1 5408   2.741   2.835   6.991
 1503SOL    HW2 5409   2.712   2.982   6.926
 1504SOL     OW 5410   3.474   6.857   5.513
 1504SOL    HW1 5411   3.403   6.860   5.444
 1504SOL    HW2 5412   3.468   6.938   5.571
 1505SOL     OW 5413   5.830   6.669   5.349
 1505SOL    HW1 5414   5.743   6.704   5.385
 1505SOL    HW2 5415   5.854   6.585   5.398
 1506SOL     OW 5416   0.847   5.604   3.848
 1506SOL    HW1 5417   0.875   5.590   3.942
 1506SOL    HW2 5418   0.775   5.538   3.824
 1507SOL     OW 5419   1.707   1.342   5.767
 1507SOL    HW1 5420   1.666   1.387   5.688
 1507SOL    HW2 5421   1.691   1.397   5.849
 1508SOL     OW 5422   4.435   6.930   0.687
 1508SOL    HW1 5423   4.408   0.001   0.691
 1508SOL    HW2 5424   4.370   6.880   0.630
 1509SOL     OW 5425   4.546   2.821   6.655
 1509SOL    HW1 5426   4.602   2.858   6.730
 1509SOL    HW2 5427   4.562   2.723   6.647
 1510SOL     OW 5428   6.833   2.443   4.366
 1510SOL    HW1 5429   6.907   2.503   4.338
 1510SOL    HW2 5430   6.765   2.436   4.293
 1511SOL     OW 5431   2.869   1.697   0.166
 1511SOL    HW1 5432   2.796   1.681   0.100
 1511SOL    HW2 5433   2.830   1.728   0.253
 1512SOL     OW 5434   6.947   0.475   1.635
 1512SOL    HW1 5435   6.930   0.573   1.640
 1512SOL    HW2 5436   7.020   0.450   1.699
 1513SOL     OW 5437   3.207   0.013   4.259
 1513SOL    HW1 5438   3.304   7.016   4.264
 1513SOL    HW2 5439   3.182   0.029   4.163
 1514SOL     OW 5440   5.596   2.108   5.067
 1514SOL    HW1 5441   5.584   2.136   4.972
 1514SOL    HW2 5442   5.658   2.172   5.113
 1515SOL     OW 5443   0.099   4.345   5.115
 1515SOL    HW1 5444   0.108   4.424   5.176
 1515SOL    HW2 5445   0.190   4.307   5.097
 1516SOL     OW 5446   0.549   1.829   0.689
 1516SOL    HW1 5447   0.505   1.741   0.707
 1516SOL    HW2 5448   0.556   1.881   0.774
 1517SOL     OW 5449   4.487   6.188   3.457
 1517SOL    HW1 5450   4.543   6.268   3.436
 1517SOL    HW2 5451   4.399   6.195   3.410
 1518SOL     OW 5452   6.690   4.296   0.486
 1518SOL    HW1 5453   6.758   4.334   0.550
 1518SOL    HW2 5454   6.720   4.312   0.392
 1519SOL     OW 5455   6.329   4.663   1.058
 1519SOL    HW1 5456   6.328   4.563   1.058
 1519SOL    HW2 5457   6.260   4.696   1.123
 1520SOL     OW 5458   2.083   3.337   2.405
 1520SOL    HW1 5459   2.095   3.286   2.320
 1520SOL    HW2 5460   2.097   3.277   2.483
 1521SOL     OW 5461   1.443   3.261   0.112
 1521SOL    HW1 5462   1.526   3.225   0.156
 1521SOL    HW2 5463   1.443   3.236   0.016
 1522SOL     OW 5464   5.825   2.013   6.562
 1522SOL    HW1 5465   5.791   2.044   6.651
 1522SOL    HW2 5466   5.922   1.993   6.568
 1523SOL     OW 5467   6.191   2.739   1.353
 1523SOL    HW1 5468   6.279   2.763   1.393
 1523SOL    HW2 5469   6.160   2.813   1.293
 1524SOL     OW 5470   0.162   1.341   1.317
 1524SOL    HW1 5471   0.256   1.306   1.316
 1524SOL    HW2 5472   0.155   1.416   1.382
 1525SOL     OW 5473   3.740   1.986   5.936
 1525SOL    HW1 5474   3.787   1.900   5.916
 1525SOL    HW2 5475   3.667   1.999   5.869
 1526SOL     OW 5476   0.538   1.880   1.482
 1526SOL    HW1 5477   0.549   1.958   1.421
 1526SOL    HW2 5478   0.627   1.837   1.498
 1527SOL     OW 5479   3.232   1.977   5.244
 1527SOL    HW1 5480   3.288   2.055   5.218
 1527SOL    HW2 5481   3.139   1.990   5.209
 1528SOL     OW 5482   4.249   6.640   3.199
 1528SOL    HW1 5483   4.161   6.687   3.205
 1528SOL    HW2 5484   4.246   6.572   3.126
 1529SOL     OW 5485   3.576   0.652   6.483
 1529SOL    HW1 5486   3.676   0.649   6.480
 1529SOL    HW2 5487   3.546   0.701   6.565
 1530SOL     OW 5488   2.632   6.326   2.154
 1530SOL    HW1 5489   2.699   6.349   2.083
 1530SOL    HW2 5490   2.609   6.229   2.148
 1531SOL     OW 5491   7.008   0.086   3.892
 1531SOL    HW1 5492   0.071   0.121   3.924
 1531SOL    HW2 5493   6.942   0.161   3.885
 1532SOL     OW 5494   3.394   2.269   5.334
 1532SOL    HW1 5495   3.333   2.328   5.281
 1532SOL    HW2 5496   3.450   2.324   5.394
 1533SOL     OW 5497   6.304   3.639   0.018
 1533SOL    HW1 5498   6.349   3.716   6.998
 1533SOL    HW2 5499   6.211   3.665   0.045
 1534SOL     OW 5500   0.871   5.722   0.658
 1534SOL    HW1 5501   0.877   5.665   0.576
 1534SOL    HW2 5502   0.873   5.819   0.632
 1535SOL     OW 5503   5.237   4.531   4.275
 1535SOL    HW1 5504   5.199   4.459   4.334
 1535SOL    HW2 5505   5.174   4.549   4.199
 1536SOL     OW 5506   2.282   5.888   4.405
 1536SOL    HW1 5507   2.318   5.801   4.370
 1536SOL    HW2 5508   2.185   5.878   4.425
 1537SOL     OW 5509   2.683   5.598   4.523
 1537SOL    HW1 5510   2.676   5.674   4.457
 1537SOL    HW2 5511   2.644   5.516   4.483
 1538SOL     OW 5512   2.665   4.987   0.026
 1538SOL    HW1 5513   2.606   4.919   0.070
 1538SOL    HW2 5514   2.745   4.941   7.012
 1539SOL     OW 5515   3.389   4.598   1.672
 1539SOL    HW1 5516   3.376   4.501   1.655
 1539SOL    HW2 5517   3.462   4.611   1.739
 1540SOL     OW 5518   1.036   0.455   5.033
 1540SOL    HW1 5519   1.061   0.409   4.948
 1540SOL    HW2 5520   1.044   0.391   5.109
 1541SOL     OW 5521   4.375   2.707   0.920
 1541SOL    HW1 5522   4.329   2.755   0.846
 1541SOL    HW2 5523   4.344   2.744   1.008
 1542SOL     OW 5524   0.372   6.238   1.640
 1542SOL    HW1 5525   0.437   6.162   1.643
 1542SOL    HW2 5526   0.404   6.311   1.700
 1543SOL     OW 5527   3.292   3.778   3.703
 1543SOL    HW1 5528   3.322   3.850   3.640
 1543SOL    HW2 5529   3.293   3.690   3.656
 1544SOL     OW 5530   3.064   3.980   2.627
 1544SOL    HW1 5531   3.069   3.976   2.726
 1544SOL    HW2 5532   3.122   4.054   2.593
 1545SOL     OW 5533   6.182   0.701   4.914
 1545SOL    HW1 5534   6.162   0.737   4.823
 1545SOL    HW2 5535   6.136   0.613   4.926
 1546SOL     OW 5536   6.346   6.540   6.223
 1546SOL    HW1 5537   6.444   6.547   6.208
 1546SOL    HW2 5538   6.311   6.456   6.181
 1547SOL     OW 5539   2.957   4.816   2.956
 1547SOL    HW1 5540   2.906   4.892   2.917
 1547SOL    HW2 5541   3.055   4.826   2.936
 1548SOL     OW 5542   4.325   4.464   5.615
 1548SOL    HW1 5543   4.236   4.509   5.621
 1548SOL    HW2 5544   4.321   4.394   5.544
 1549SOL     OW 5545   6.579   2.643   1.577
 1549SOL    HW1 5546   6.514   2.571   1.601
 1549SOL    HW2 5547   6.656   2.604   1.527
 1550SOL     OW 5548   2.068   6.073   5.095
 1550SOL    HW1 5549   2.145   6.074   5.031
 1550SOL    HW2 5550   2.069   5.987   5.146
 1551SOL     OW 5551   1.815   3.270   1.134
 1551SOL    HW1 5552   1.765   3.220   1.204
 1551SOL    HW2 5553   1.776   3.250   1.044
 1552SOL     OW 5554   1.370   0.578   1.358
 1552SOL    HW1 5555   1.431   0.551   1.433
 1552SOL    HW2 5556   1.388   0.519   1.279
 1553SOL     OW 5557   5.940   2.160   7.019
 1553SOL    HW1 5558   5.972   2.140   0.087
 1553SOL    HW2 5559   5.942   2.076   6.965
 1554SOL     OW 5560   4.470   2.157   2.697
 1554SOL    HW1 5561   4.498   2.145   2.602
 1554SOL    HW2 5562   4.549   2.145   2.757
 1555SOL     OW 5563   4.700   1.424   4.793
 1555SOL    HW1 5564   4.694   1.332   4.754
 1555SOL    HW2 5565   4.759   1.422   4.874
 1556SOL     OW 5566   3.669   0.299   0.850
 1556SOL    HW1 5567   3.591   0.237   0.841
 1556SOL    HW2 5568   3.673   0.334   0.944
 1557SOL     OW 5569   1.973   1.964   0.948
 1557SOL    HW1 5570   1.989   2.033   1.019
 1557SOL    HW2 5571   1.876   1.943   0.944
 1558SOL     OW 5572   6.154   3.455   5.183
 1558SOL    HW1 5573   6.163   3.461   5.083
 1558SOL    HW2 5574   6.163   3.547   5.222
 1559SOL     OW 5575   1.259   4.136   2.725
 1559SOL    HW1 5576   1.307   4.212   2.682
 1559SOL    HW2 5577   1.229   4.072   2.654
 1560SOL     OW 5578   4.216   1.099   1.056
 1560SOL    HW1 5579   4.233   1.142   0.967
 1560SOL    HW2 5580   4.281   1.132   1.123
 1561SOL     OW 5581   5.314   6.366   2.233
 1561SOL    HW1 5582   5.338   6.269   2.223
 1561SOL    HW2 5583   5.322   6.392   2.329
 1562SOL     OW 5584   2.962   0.233   1.980
 1562SOL    HW1 5585   2.927   0.323   1.956
 1562SOL    HW2 5586   2.987   0.183   1.897
 1563SOL     OW 5587   3.170   2.062   4.684
 1563SOL    HW1 5588   3.255   2.092   4.642
 1563SOL    HW2 5589   3.093   2.084   4.624
 1564SOL     OW 5590   0.813   1.774   2.321
 1564SOL    HW1 5591   0.764   1.859   2.302
 1564SOL    HW2 5592   0.754   1.696   2.299
 1565SOL     OW 5593   3.529   6.661   4.231
 1565SOL    HW1 5594   3.579   6.696   4.311
 1565SOL    HW2 5595   3.581   6.681   4.148
 1566SOL     OW 5596   5.020   4.368   3.553
 1566SOL    HW1 5597   5.077   4.439   3.513
 1566SOL    HW2 5598   4.928   4.403   3.568
 1567SOL     OW 5599   5.701   5.813   5.693
 1567SOL    HW1 5600   5.799   5.797   5.687
 1567SOL    HW2 5601   5.659   5.744   5.752
 1568SOL     OW 5602   2.007   6.371   3.154
 1568SOL    HW1 5603   2.101   6.340   3.168
 1568SOL    HW2 5604   1.948   6.329   3.224
 1569SOL     OW 5605   2.789   0.064   2.710
 1569SOL    HW1 5606   2.711   0.049   2.649
 1569SOL    HW2 5607   2.770   0.026   2.800
 1570SOL     OW 5608   3.175   0.054   0.138
 1570SOL    HW1 5609   3.224   6.993   0.146
 1570SOL    HW2 5610   3.079   0.037   0.117
 1571SOL     OW 5611   1.265   2.680   3.869
 1571SOL    HW1 5612   1.220   2.762   3.907
 1571SOL    HW2 5613   1.333   2.647   3.934
 1572SOL     OW 5614   1.786   5.017   1.701
 1572SOL    HW1 5615   1.698   5.051   1.735
 1572SOL    HW2 5616   1.770   4.945   1.633
 1573SOL     OW 5617   4.304   5.169   1.318
 1573SOL    HW1 5618   4.296   5.073   1.292
 1573SOL    HW2 5619   4.397   5.188   1.349
 1574SOL     OW 5620   5.984   3.709   1.808
 1574SOL    HW1 5621   5.893   3.689   1.771
 1574SOL    HW2 5622   6.043   3.743   1.735
 1575SOL     OW 5623   1.092   1.149   1.182
 1575SOL    HW1 5624   1.070   1.180   1.089
 1575SOL    HW2 5625   1.185   1.112   1.183
 1576SOL     OW 5626   0.454   5.813   1.943
 1576SOL    HW1 5627   0.495   5.840   2.031
 1576SOL    HW2 5628   0.356   5.800   1.956
 1577SOL     OW 5629   3.629   0.248   6.649
 1577SOL    HW1 5630   3.674   0.163   6.677
 1577SOL    HW2 5631   3.539   0.227   6.612
 1578SOL     OW 5632   4.641   0.965   0.297
 1578SOL    HW1 5633   4.684   0.974   0.387
 1578SOL    HW2 5634   4.595   0.876   0.291
 1579SOL     OW 5635   1.399   2.649   1.509
 1579SOL    HW1 5636   1.339   2.584   1.555
 1579SOL    HW2 5637   1.476   2.672   1.568
 1580SOL     OW 5638   3.050   3.947   2.910
 1580SOL    HW1 5639   3.099   3.960   2.996
 1580SOL    HW2 5640   2.988   3.869   2.918
 1581SOL     OW 5641   0.229   4.367   5.937
 1581SOL    HW1 5642   0.193   4.361   6.030
 1581SOL    HW2 5643   0.305   4.432   5.934
 1582SOL     OW 5644   4.945   6.622   5.743
 1582SOL    HW1 5645   4.868   6.567   5.776
 1582SOL    HW2 5646   4.943   6.624   5.643
 1583SOL     OW 5647   1.224   5.755   5.039
 1583SOL    HW1 5648   1.139   5.787   5.082
 1583SOL    HW2 5649   1.235   5.801   4.951
 1584SOL     OW 5650   0.704   5.603   6.555
 1584SOL    HW1 5651   0.628   5.588   6.492
 1584SOL    HW2 5652   0.778   5.649   6.507
 1585SOL     OW 5653   3.924   0.491   3.061
 1585SOL    HW1 5654   3.947   0.456   3.152
 1585SOL    HW2 5655   3.943   0.420   2.993
 1586SOL     OW 5656   3.038   5.544   4.397
 1586SOL    HW1 5657   3.134   5.516   4.402
 1586SOL    HW2 5658   2.989   5.510   4.477
 1587SOL     OW 5659   1.594   6.303   6.221
 1587SOL    HW1 5660   1.535   6.285   6.142
 1587SOL    HW2 5661   1.667   6.235   6.224
 1588SOL     OW 5662   5.772   0.421   2.186
 1588SOL    HW1 5663   5.819   0.408   2.273
 1588SOL    HW2 5664   5.814   0.496   2.136
 1589SOL     OW 5665   6.674   4.143   2.803
 1589SOL    HW1 5666   6.697   4.180   2.713
 1589SOL    HW2 5667   6.755   4.144   2.862
 1590SOL     OW 5668   5.729   2.396   3.454
 1590SOL    HW1 5669   5.700   2.391   3.550
 1590SOL    HW2 5670   5.749   2.491   3.430
 1591SOL     OW 5671   0.153   5.969   1.401
 1591SOL    HW1 5672   0.206   5.904   1.456
 1591SOL    HW2 5673   0.202   6.056   1.395
 1592SOL     OW 5674   1.398   4.134   6.804
 1592SOL    HW1 5675   1.369   4.048   6.844
 1592SOL    HW2 5676   1.392   4.207   6.872
 1593SOL     OW 5677   1.062   0.132   6.572
 1593SOL    HW1 5678   1.002   0.210   6.593
 1593SOL    HW2 5679   1.014   0.047   6.592
 1594SOL     OW 5680   6.983   0.833   2.269
 1594SOL    HW1 5681   6.946   0.858   2.180
 1594SOL    HW2 5682   6.920   0.772   2.316
 1595SOL     OW 5683   1.272   4.064   6.556
 1595SOL    HW1 5684   1.326   4.097   6.478
 1595SOL    HW2 5685   1.322   4.083   6.641
 1596SOL     OW 5686   5.943   4.534   2.307
 1596SOL    HW1 5687   5.973   4.591   2.231
 1596SOL    HW2 5688   5.860   4.485   2.281
 1597SOL     OW 5689   3.238   5.462   1.100
 1597SOL    HW1 5690   3.317   5.503   1.056
 1597SOL    HW2 5691   3.266   5.380   1.149
 1598SOL     OW 5692   2.063   5.637   0.166
 1598SOL    HW1 5693   2.063   5.735   0.189
 1598SOL    HW2 5694   2.014   5.623   0.080
 1599SOL     OW 5695   3.748   5.232   4.084
 1599SOL    HW1 5696   3.734   5.261   3.990
 1599SOL    HW2 5697   3.668   5.181   4.116
 1600SOL     OW 5698   3.350   0.358   2.895
 1600SOL    HW1 5699   3.435   0.329   2.937
 1600SOL    HW2 5700   3.364   0.446   2.848
 1601SOL     OW 5701   6.540   6.664   4.444
 1601SOL    HW1 5702   6.611   6.698   4.384
 1601SOL    HW2 5703   6.451   6.702   4.417
 1602SOL     OW 5704   4.773   5.471   4.169
 1602SOL    HW1 5705   4.816   5.561   4.165
 1602SOL    HW2 5706   4.814   5.410   4.101
 1603SOL     OW 5707   3.100   5.804   4.478
 1603SOL    HW1 5708   3.174   5.848   4.427
 1603SOL    HW2 5709   3.088   5.710   4.445
 1604SOL     OW 5710   4.008   4.809   2.161
 1604SOL    HW1 5711   4.080   4.743   2.141
 1604SOL    HW2 5712   3.959   4.833   2.077
 1605SOL     OW 5713   4.957   5.267   1.818
 1605SOL    HW1 5714   4.947   5.212   1.900
 1605SOL    HW2 5715   5.046   5.312   1.818
 1606SOL     OW 5716   4.180   5.971   3.816
 1606SOL    HW1 5717   4.110   6.014   3.759
 1606SOL    HW2 5718   4.179   6.011   3.907
 1607SOL     OW 5719   4.516   6.633   2.517
 1607SOL    HW1 5720   4.473   6.599   2.433
 1607SOL    HW2 5721   4.522   6.733   2.514
 1608SOL     OW 5722   6.962   1.146   2.813
 1608SOL    HW1 5723   7.010   1.081   2.754
 1608SOL    HW2 5724   7.023   1.222   2.834
 1609SOL     OW 5725   3.301   6.215   0.656
 1609SOL    HW1 5726   3.309   6.297   0.598
 1609SOL    HW2 5727   3.307   6.133   0.599
 1610SOL     OW 5728   3.640   6.365   6.799
 1610SOL    HW1 5729   3.654   6.444   6.740
 1610SOL    HW2 5730   3.570   6.306   6.759
 1611SOL     OW 5731   1.116   4.041   1.639
 1611SOL    HW1 5732   1.202   4.043   1.690
 1611SOL    HW2 5733   1.125   3.980   1.560
 1612SOL     OW 5734   2.962   5.510   0.963
 1612SOL    HW1 5735   3.022   5.559   0.899
 1612SOL    HW2 5736   3.018   5.464   1.032
 1613SOL     OW 5737   0.664   5.895   2.671
 1613SOL    HW1 5738   0.618   5.978   2.704
 1613SOL    HW2 5739   0.743   5.921   2.615
 1614SOL     OW 5740   5.644   2.762   6.715
 1614SOL    HW1 5741   5.648   2.672   6.672
 1614SOL    HW2 5742   5.634   2.832   6.644
 1615SOL     OW 5743   0.149   5.416   6.492
 1615SOL    HW1 5744   0.152   5.516   6.485
 1615SOL    HW2 5745   0.228   5.377   6.444
 1616SOL     OW 5746   3.687   0.838   5.449
 1616SOL    HW1 5747   3.654   0.886   5.531
 1616SOL    HW2 5748   3.609   0.797   5.401
 1617SOL     OW 5749   4.738   6.660   3.771
 1617SOL    HW1 5750   4.700   6.572   3.800
 1617SOL    HW2 5751   4.820   6.643   3.715
 1618SOL     OW 5752   1.614   6.121   2.708
 1618SOL    HW1 5753   1.604   6.046   2.642
 1618SOL    HW2 5754   1.708   6.154   2.707
 1619SOL     OW 5755   0.862   5.112   6.741
 1619SOL    HW1 5756   0.768   5.097   6.711
 1619SOL    HW2 5757   0.872   5.082   6.836
 1620SOL     OW 5758   3.257   5.187   0.889
 1620SOL    HW1 5759   3.316   5.252   0.937
 1620SOL    HW2 5760   3.233   5.112   0.950
 1621SOL     OW 5761   5.773   6.218   0.948
 1621SOL    HW1 5762   5.758   6.248   0.854
 1621SOL    HW2 5763   5.859   6.257   0.982
 1622SOL     OW 5764   0.972   3.640   5.586
 1622SOL    HW1 5765   0.944   3.735   5.599
 1622SOL    HW2 5766   0.891   3.581   5.585
 1623SOL     OW 5767   0.861   2.393   5.120
 1623SOL    HW1 5768   0.802   2.403   5.200
 1623SOL    HW2 5769   0.814   2.430   5.039
 1624SOL     OW 5770   3.424   0.824   0.685
 1624SOL    HW1 5771   3.501   0.830   0.748
 1624SOL    HW2 5772   3.340   0.850   0.732
 1625SOL     OW 5773   2.196   5.219   0.396
 1625SOL    HW1 5774   2.260   5.169   0.336
 1625SOL    HW2 5775   2.248   5.272   0.463
 1626SOL     OW 5776   3.239   1.822   2.107
 1626SOL    HW1 5777   3.187   1.759   2.049
 1626SOL    HW2 5778   3.273   1.898   2.051
 1627SOL     OW 5779   4.980   2.436   4.740
 1627SOL    HW1 5780   4.919   2.381   4.684
 1627SOL    HW2 5781   5.074   2.427   4.708
 1628SOL     OW 5782   4.941   5.644   6.454
 1628SOL    HW1 5783   5.010   5.601   6.513
 1628SOL    HW2 5784   4.898   5.720   6.502
 1629SOL     OW 5785   3.162   2.135   3.297
 1629SOL    HW1 5786   3.062   2.145   3.301
 1629SOL    HW2 5787   3.185   2.038   3.287
 1630SOL     OW 5788   0.156   4.588   0.058
 1630SOL    HW1 5789   0.248   4.582   0.096
 1630SOL    HW2 5790   0.151   4.668   7.023
 1631SOL     OW 5791   6.869   3.465   0.935
 1631SOL    HW1 5792   6.872   3.565   0.935
 1631SOL    HW2 5793   6.804   3.434   1.004
 1632SOL     OW 5794   5.455   5.064   2.383
 1632SOL    HW1 5795   5.520   5.038   2.311
 1632SOL    HW2 5796   5.495   5.043   2.473
 1633SOL     OW 5797   4.898   4.277   3.951
 1633SOL    HW1 5798   4.887   4.269   4.050
 1633SOL    HW2 5799   4.812   4.252   3.907
 1634SOL     OW 5800   4.061   0.391   4.674
 1634SOL    HW1 5801   4.067   0.438   4.585
 1634SOL    HW2 5802   3.973   0.412   4.716
 1635SOL     OW 5803   3.570   4.602   5.766
 1635SOL    HW1 5804   3.547   4.535   5.837
 1635SOL    HW2 5805   3.550   4.563   5.676
 1636SOL     OW 5806   4.028   5.916   1.279
 1636SOL    HW1 5807   4.072   5.937   1.366
 1636SOL    HW2 5808   4.031   5.818   1.263
 1637SOL     OW 5809   6.994   6.623   3.101
 1637SOL    HW1 5810   0.032   6.582   3.035
 1637SOL    HW2 5811   6.996   6.570   3.186
 1638SOL     OW 5812   6.753   3.211   1.914
 1638SOL    HW1 5813   6.710   3.173   1.996
 1638SOL    HW2 5814   6.683   3.233   1.846
 1639SOL     OW 5815   6.462   4.124   1.907
 1639SOL    HW1 5816   6.370   4.143   1.872
 1639SOL    HW2 5817   6.529   4.136   1.834
 1640SOL     OW 5818   5.665   0.546   1.102
 1640SOL    HW1 5819   5.663   0.547   1.202
 1640SOL    HW2 5820   5.714   0.464   1.070
 1641SOL     OW 5821   6.807   2.476   3.737
 1641SOL    HW1 5822   6.730   2.430   3.695
 1641SOL    HW2 5823   6.802   2.467   3.837
 1642SOL     OW 5824   6.408   2.503   6.477
 1642SOL    HW1 5825   6.440   2.508   6.572
 1642SOL    HW2 5826   6.316   2.541   6.471
 1643SOL     OW 5827   3.190   4.894   4.010
 1643SOL    HW1 5828   3.190   4.993   4.019
 1643SOL    HW2 5829   3.126   4.854   4.075
 1644SOL     OW 5830   5.833   2.769   0.876
 1644SOL    HW1 5831   5.889   2.710   0.934
 1644SOL    HW2 5832   5.739   2.735   0.874
 1645SOL     OW 5833   2.801   0.565   6.168
 1645SOL    HW1 5834   2.715   0.521   6.143
 1645SOL    HW2 5835   2.805   0.656   6.125
 1646SOL     OW 5836   1.906   5.639   6.976
 1646SOL    HW1 5837   1.878   5.733   6.958
 1646SOL    HW2 5838   1.932   5.595   6.890
 1647SOL     OW 5839   6.012   2.867   3.920
 1647SOL    HW1 5840   6.043   2.958   3.891
 1647SOL    HW2 5841   5.933   2.840   3.864
 1648SOL     OW 5842   5.034   6.140   0.492
 1648SOL    HW1 5843   5.076   6.060   0.534
 1648SOL    HW2 5844   5.105   6.205   0.466
 1649SOL     OW 5845   3.099   0.117   3.585
 1649SOL    HW1 5846   3.098   0.216   3.603
 1649SOL    HW2 5847   3.180   0.094   3.531
 1650SOL     OW 5848   1.673   4.871   6.129
 1650SOL    HW1 5849   1.762   4.847   6.092
 1650SOL    HW2 5850   1.611   4.792   6.123
 1651SOL     OW 5851   0.552   2.849   3.639
 1651SOL    HW1 5852   0.633   2.794   3.620
 1651SOL    HW2 5853   0.542   2.919   3.569
 1652SOL     OW 5854   1.074   2.590   1.714
 1652SOL    HW1 5855   1.046   2.600   1.619
 1652SOL    HW2 5856   1.003   2.539   1.764
 1653SOL     OW 5857   0.319   5.286   2.366
 1653SOL    HW1 5858   0.326   5.255   2.460
 1653SOL    HW2 5859   0.261   5.368   2.362
 1654SOL     OW 5860   0.848   3.013   1.410
 1654SOL    HW1 5861   0.764   2.963   1.428
 1654SOL    HW2 5862   0.834   3.110   1.429
 1655SOL     OW 5863   6.861   1.351   4.532
 1655SOL    HW1 5864   6.890   1.256   4.537
 1655SOL    HW2 5865   6.877   1.396   4.620
 1656SOL     OW 5866   2.281   5.462   4.575
 1656SOL    HW1 5867   2.218   5.418   4.512
 1656SOL    HW2 5868   2.272   5.420   4.666
 1657SOL     OW 5869   0.218   1.155   5.137
 1657SOL    HW1 5870   0.295   1.210   5.106
 1657SOL    HW2 5871   0.215   1.070   5.084
 1658SOL     OW 5872   0.060   6.674   0.314
 1658SOL    HW1 5873   6.989   6.649   0.325
 1658SOL    HW2 5874   0.092   6.647   0.224
 1659SOL     OW 5875   4.116   6.986   6.440
 1659SOL    HW1 5876   4.163   0.026   6.381
 1659SOL    HW2 5877   4.018   6.991   6.424
 1660SOL     OW 5878   1.432   6.631   1.884
 1660SOL    HW1 5879   1.483   6.546   1.873
 1660SOL    HW2 5880   1.362   6.620   1.955
 1661SOL     OW 5881   2.582   4.575   2.152
 1661SOL    HW1 5882   2.544   4.648   2.095
 1661SOL    HW2 5883   2.682   4.580   2.150
 1662SOL     OW 5884   0.037   1.693   5.501
 1662SOL    HW1 5885   0.052   1.598   5.475
 1662SOL    HW2 5886   6.975   1.725   5.462
 1663SOL     OW 5887   4.897   5.197   2.209
 1663SOL    HW1 5888   4.930   5.291   2.201
 1663SOL    HW2 5889   4.973   5.136   2.229
 1664SOL     OW 5890   0.937   0.161   4.967
 1664SOL    HW1 5891   0.987   0.150   4.881
 1664SOL    HW2 5892   0.978   0.104   5.038
 1665SOL     OW 5893   1.709   3.554   1.179
 1665SOL    HW1 5894   1.707   3.590   1.272
 1665SOL    HW2 5895   1.754   3.464   1.180
 1666SOL     OW 5896   5.429   6.989   6.340
 1666SOL    HW1 5897   5.430   6.896   6.377
 1666SOL    HW2 5898   5.483   0.024   6.400
 1667SOL     OW 5899   0.267   6.478   1.043
 1667SOL    HW1 5900   0.312   6.552   0.994
 1667SOL    HW2 5901   0.187   6.513   1.092
 1668SOL     OW 5902   5.038   5.058   3.748
 1668SOL    HW1 5903   4.947   5.052   3.788
 1668SOL    HW2 5904   5.054   5.149   3.711
 1669SOL     OW 5905   0.298   4.260   5.543
 1669SOL    HW1 5906   0.241   4.198   5.489
 1669SOL    HW2 5907   0.394   4.240   5.527
 1670SOL     OW 5908   1.573   4.886   5.595
 1670SOL    HW1 5909   1.642   4.845   5.535
 1670SOL    HW2 5910   1.518   4.950   5.542
 1671SOL     OW 5911   4.802   1.920   2.782
 1671SOL    HW1 5912   4.725   1.974   2.748
 1671SOL    HW2 5913   4.767   1.836   2.825
 1672SOL     OW 5914   1.210   3.412   0.016
 1672SOL    HW1 5915   1.253   3.322   0.008
 1672SOL    HW2 5916   1.276   3.483   7.018
 1673SOL     OW 5917   2.314   1.626   4.547
 1673SOL    HW1 5918   2.281   1.593   4.636
 1673SOL    HW2 5919   2.289   1.722   4.536
 1674SOL     OW 5920   5.658   2.769   2.355
 1674SOL    HW1 5921   5.634   2.771   2.259
 1674SOL    HW2 5922   5.651   2.675   2.390
 1675SOL     OW 5923   5.210   0.674   1.369
 1675SOL    HW1 5924   5.152   0.665   1.451
 1675SOL    HW2 5925   5.156   0.714   1.295
 1676SOL     OW 5926   2.197   2.197   2.714
 1676SOL    HW1 5927   2.207   2.097   2.722
 1676SOL    HW2 5928   2.100   2.220   2.706
 1677SOL     OW 5929   3.871   3.989   3.138
 1677SOL    HW1 5930   3.777   4.007   3.168
 1677SOL    HW2 5931   3.872   3.972   3.040
 1678SOL     OW 5932   0.675   6.492   0.715
 1678SOL    HW1 5933   0.667   6.419   0.782
 1678SOL    HW2 5934   0.740   6.465   0.644
 1679SOL     OW 5935   1.776   1.216   5.382
 1679SOL    HW1 5936   1.871   1.242   5.366
 1679SOL    HW2 5937   1.724   1.296   5.409
 1680SOL     OW 5938   5.401   3.146   4.637
 1680SOL    HW1 5939   5.430   3.217   4.700
 1680SOL    HW2 5940   5.477   3.121   4.577
 1681SOL     OW 5941   1.731   5.862   4.474
 1681SOL    HW1 5942   1.685   5.832   4.558
 1681SOL    HW2 5943   1.699   5.806   4.398
 1682SOL     OW 5944   3.220   0.321   5.816
 1682SOL    HW1 5945   3.310   0.296   5.852
 1682SOL    HW2 5946   3.228   0.402   5.757
 1683SOL     OW 5947   5.682   5.331   2.467
 1683SOL    HW1 5948   5.723   5.292   2.384
 1683SOL    HW2 5949   5.666   5.429   2.453
 1684SOL     OW 5950   1.248   4.674   1.944
 1684SOL    HW1 5951   1.249   4.648   2.041
 1684SOL    HW2 5952   1.222   4.771   1.937
 1685SOL     OW 5953   1.430   1.470   6.068
 1685SOL    HW1 5954   1.528   1.477   6.048
 1685SOL    HW2 5955   1.417   1.429   6.159
 1686SOL     OW 5956   4.888   6.059   3.659
 1686SOL    HW1 5957   4.928   6.022   3.743
 1686SOL    HW2 5958   4.893   5.989   3.587
 1687SOL     OW 5959   0.318   3.881   1.989
 1687SOL    HW1 5960   0.398   3.888   2.048
 1687SOL    HW2 5961   0.323   3.797   1.935
 1688SOL     OW 5962   2.002   2.115   3.378
 1688SOL    HW1 5963   2.057   2.079   3.303
 1688SOL    HW2 5964   1.963   2.039   3.430
 1689SOL     OW 5965   6.736   1.264   2.076
 1689SOL    HW1 5966   6.816   1.211   2.047
 1689SOL    HW2 5967   6.766   1.353   2.111
 1690SOL     OW 5968   0.688   3.551   4.086
 1690SOL    HW1 5969   0.701   3.465   4.037
 1690SOL    HW2 5970   0.773   3.576   4.132
 1691SOL     OW 5971   4.877   3.518   4.378
 1691SOL    HW1 5972   4.870   3.418   4.382
 1691SOL    HW2 5973   4.868   3.548   4.283
 1692SOL     OW 5974   5.779   5.639   1.554
 1692SOL    HW1 5975   5.736   5.706   1.614
 1692SOL    HW2 5976   5.849   5.684   1.498
 1693SOL     OW 5977   6.887   1.866   4.496
 1693SOL    HW1 5978   6.822   1.820   4.436
 1693SOL    HW2 5979   6.837   1.922   4.562
 1694SOL     OW 5980   5.662   1.236   4.626
 1694SOL    HW1 5981   5.632   1.301   4.696
 1694SOL    HW2 5982   5.660   1.143   4.664
 1695SOL     OW 5983   3.607   0.631   6.943
 1695SOL    HW1 5984   3.569   0.607   0.007
 1695SOL    HW2 5985   3.654   0.551   6.905
 1696SOL     OW 5986   4.292   5.572   0.800
 1696SOL    HW1 5987   4.293   5.575   0.900
 1696SOL    HW2 5988   4.198   5.579   0.767
 1697SOL     OW 5989   6.147   2.494   0.748
 1697SOL    HW1 5990   6.235   2.495   0.797
 1697SOL    HW2 5991   6.083   2.435   0.796
 1698SOL     OW 5992   3.858   0.930   1.655
 1698SOL    HW1 5993   3.846   0.834   1.680
 1698SOL    HW2 5994   3.771   0.968   1.624
 1699SOL     OW 5995   2.662   1.731   6.248
 1699SOL    HW1 5996   2.677   1.662   6.318
 1699SOL    HW2 5997   2.694   1.820   6.281
 1700SOL     OW 5998   5.879   3.358   3.634
 1700SOL    HW1 5999   5.967   3.385   3.675
 1700SOL    HW2 6000   5.847   3.431   3.574
 1701SOL     OW 6001   6.495   5.235   4.777
 1701SOL    HW1 6002   6.458   5.152   4.818
 1701SOL    HW2 6003   6.505   5.221   4.678
 1702SOL     OW 6004   1.741   1.013   6.576
 1702SOL    HW1 6005   1.750   1.085   6.645
 1702SOL    HW2 6006   1.648   0.977   6.578
 1703SOL     OW 6007   3.196   1.913   6.087
 1703SOL    HW1 6008   3.264   1.897   6.016
 1703SOL    HW2 6009   3.107   1.932   6.046
 1704SOL     OW 6010   1.960   1.308   0.484
 1704SOL    HW1 6011   1.987   1.212   0.476
 1704SOL    HW2 6012   1.903   1.320   0.565
 1705SOL     OW 6013   3.825   1.817   1.750
 1705SOL    HW1 6014   3.790   1.907   1.776
 1705SOL    HW2 6015   3.916   1.803   1.789
 1706SOL     OW 6016   4.393   1.657   0.975
 1706SOL    HW1 6017   4.416   1.570   0.933
 1706SOL    HW2 6018   4.443   1.668   1.061
 1707SOL     OW 6019   4.727   1.779   3.013
 1707SOL    HW1 6020   4.678   1.695   3.033
 1707SOL    HW2 6021   4.746   1.828   3.099
 1708SOL     OW 6022   3.497   5.294   2.056
 1708SOL    HW1 6023   3.413   5.260   2.100
 1708SOL    HW2 6024   3.573   5.289   2.121
 1709SOL     OW 6025   5.044   5.902   0.742
 1709SOL    HW1 6026   4.957   5.946   0.718
 1709SOL    HW2 6027   5.033   5.803   0.737
 1710SOL     OW 6028   4.540   5.366   3.412
 1710SOL    HW1 6029   4.529   5.388   3.315
 1710SOL    HW2 6030   4.558   5.268   3.422
 1711SOL     OW 6031   3.229   5.841   5.768
 1711SOL    HW1 6032   3.232   5.741   5.778
 1711SOL    HW2 6033   3.201   5.864   5.675
 1712SOL     OW 6034   0.085   2.372   4.609
 1712SOL    HW1 6035   0.166   2.328   4.646
 1712SOL    HW2 6036   0.019   2.303   4.581
 1713SOL     OW 6037   3.798   0.986   3.200
 1713SOL    HW1 6038   3.854   0.921   3.251
 1713SOL    HW2 6039   3.838   1.003   3.110
 1714SOL     OW 6040   3.606   2.344   6.617
 1714SOL    HW1 6041   3.704   2.342   6.598
 1714SOL    HW2 6042   3.587   2.408   6.692
 1715SOL     OW 6043   1.478   6.135   2.026
 1715SOL    HW1 6044   1.421   6.059   1.996
 1715SOL    HW2 6045   1.563   6.099   2.064
 1716SOL     OW 6046   4.592   0.350   3.995
 1716SOL    HW1 6047   4.628   0.444   3.999
 1716SOL    HW2 6048   4.520   0.339   4.063
 1717SOL     OW 6049   3.696   6.199   5.185
 1717SOL    HW1 6050   3.657   6.203   5.093
 1717SOL    HW2 6051   3.795   6.193   5.179
 1718SOL     OW 6052   2.391   2.142   2.489
 1718SOL    HW1 6053   2.380   2.116   2.585
 1718SOL    HW2 6054   2.466   2.091   2.448
 1719SOL     OW 6055   1.222   4.566   1.236
 1719SOL    HW1 6056   1.273   4.494   1.283
 1719SOL    HW2 6057   1.225   4.551   1.138
 1720SOL     OW 6058   0.097   2.925   6.065
 1720SOL    HW1 6059   0.067   2.842   6.112
 1720SOL    HW2 6060   0.165   2.973   6.122
 1721SOL     OW 6061   1.331   0.096   2.368
 1721SOL    HW1 6062   1.415   0.139   2.400
 1721SOL    HW2 6063   1.340   0.076   2.270
 1722SOL     OW 6064   3.490   2.130   2.962
 1722SOL    HW1 6065   3.508   2.040   3.001
 1722SOL    HW2 6066   3.467   2.120   2.865
 1723SOL     OW 6067   4.628   2.218   6.883
 1723SOL    HW1 6068   4.613   2.277   6.962
 1723SOL    HW2 6069   4.696   2.260   6.823
 1724SOL     OW 6070   6.519   2.322   1.605
 1724SOL    HW1 6071   6.562   2.266   1.534
 1724SOL    HW2 6072   6.551   2.293   1.695
 1725SOL     OW 6073   1.996   4.880   6.906
 1725SOL    HW1 6074   1.977   4.783   6.921
 1725SOL    HW2 6075   1.960   4.907   6.817
 1726SOL     OW 6076   6.102   4.570   3.599
 1726SOL    HW1 6077   6.112   4.471   3.592
 1726SOL    HW2 6078   6.030   4.592   3.664
 1727SOL     OW 6079   3.443   3.325   3.241
 1727SOL    HW1 6080   3.375   3.324   3.315
 1727SOL    HW2 6081   3.500   3.244   3.247
 1728SOL     OW 6082   5.147   4.217   5.439
 1728SOL    HW1 6083   5.049   4.199   5.426
 1728SOL    HW2 6084   5.198   4.133   5.423
 1729SOL     OW 6085   1.629   3.596   1.623
 1729SOL    HW1 6086   1.561   3.668   1.638
 1729SOL    HW2 6087   1.721   3.634   1.639
 1730SOL     OW 6088   2.153   5.679   5.366
 1730SOL    HW1 6089   2.112   5.630   5.443
 1730SOL    HW2 6090   2.245   5.644   5.350
 1731SOL     OW 6091   4.982   4.918   4.179
 1731SOL    HW1 6092   4.910   4.936   4.112
 1731SOL    HW2 6093   5.017   4.825   4.167
 1732SOL     OW 6094   2.081   4.189   6.504
 1732SOL    HW1 6095   2.140   4.116   6.538
 1732SOL    HW2 6096   1.994   4.188   6.554
 1733SOL     OW 6097   2.726   4.032   0.383
 1733SOL    HW1 6098   2.678   3.945   0.397
 1733SOL    HW2 6099   2.817   4.014   0.346
 1734SOL     OW 6100   6.613   3.126   1.661
 1734SOL    HW1 6101   6.561   3.181   1.726
 1734SOL    HW2 6102   6.573   3.136   1.569
 1735SOL     OW 6103   4.688   5.351   6.920
 1735SOL    HW1 6104   4.616   5.417   6.899
 1735SOL    HW2 6105   4.773   5.380   6.876
 1736SOL     OW 6106   4.626   3.604   1.508
 1736SOL    HW1 6107   4.708   3.592   1.453
 1736SOL    HW2 6108   4.596   3.516   1.544
 1737SOL     OW 6109   4.810   0.920   4.544
 1737SOL    HW1 6110   4.906   0.935   4.523
 1737SOL    HW2 6111   4.764   1.008   4.557
 1738SOL     OW 6112   1.852   4.030   4.074
 1738SOL    HW1 6113   1.760   4.066   4.085
 1738SOL    HW2 6114   1.866   3.952   4.136
 1739SOL     OW 6115   5.490   0.558   3.570
 1739SOL    HW1 6116   5.402   0.518   3.596
 1739SOL    HW2 6117   5.561   0.487   3.576
 1740SOL     OW 6118   6.555   2.500   4.911
 1740SOL    HW1 6119   6.632   2.501   4.975
 1740SOL    HW2 6120   6.514   2.592   4.908
 1741SOL     OW 6121   1.465   1.906   4.314
 1741SOL    HW1 6122   1.534   1.881   4.381
 1741SOL    HW2 6123   1.506   1.965   4.244
 1742SOL     OW 6124   6.176   7.004   6.081
 1742SOL    HW1 6125   6.155   0.056   6.141
 1742SOL    HW2 6126   6.258   6.958   6.114
 1743SOL     OW 6127   0.980   1.203   3.362
 1743SOL    HW1 6128   1.006   1.244   3.449
 1743SOL    HW2 6129   0.962   1.274   3.295
 1744SOL     OW 6130   5.334   2.250   3.601
 1744SOL    HW1 6131   5.375   2.160   3.615
 1744SOL    HW2 6132   5.371   2.291   3.518
 1745SOL     OW 6133   6.037   6.484   1.260
 1745SOL    HW1 6134   6.100   6.529   1.196
 1745SOL    HW2 6135   6.067   6.390   1.274
 1746SOL     OW 6136   1.914   3.834   3.804
 1746SOL    HW1 6137   1.902   3.743   3.764
 1746SOL    HW2 6138   1.983   3.831   3.876
 1747SOL     OW 6139   3.596   1.448   1.981
 1747SOL    HW1 6140   3.599   1.513   2.057
 1747SOL    HW2 6141   3.510   1.396   1.985
 1748SOL     OW 6142   6.514   1.616   4.588
 1748SOL    HW1 6143   6.471   1.561   4.659
 1748SOL    HW2 6144   6.558   1.556   4.521
 1749SOL     OW 6145   2.775   5.710   1.142
 1749SOL    HW1 6146   2.809   5.679   1.231
 1749SOL    HW2 6147   2.804   5.646   1.071
 1750SOL     OW 6148   4.232   1.046   5.038
 1750SOL    HW1 6149   4.171   1.008   5.107
 1750SOL    HW2 6150   4.312   1.086   5.083
 1751SOL     OW 6151   6.421   2.750   4.909
 1751SOL    HW1 6152   6.453   2.802   4.988
 1751SOL    HW2 6153   6.335   2.703   4.932
 1752SOL     OW 6154   6.562   1.396   0.935
 1752SOL    HW1 6155   6.550   1.375   0.838
 1752SOL    HW2 6156   6.497   1.341   0.989
 1753SOL     OW 6157   6.871   1.642   1.511
 1753SOL    HW1 6158   6.846   1.723   1.565
 1753SOL    HW2 6159   6.844   1.656   1.416
 1754SOL     OW 6160   2.936   6.209   6.060
 1754SOL    HW1 6161   3.031   6.227   6.036
 1754SOL    HW2 6162   2.910   6.117   6.030
 1755SOL     OW 6163   6.435   6.979   5.053
 1755SOL    HW1 6164   6.425   6.910   4.982
 1755SOL    HW2 6165   6.428   6.935   5.143
 1756SOL     OW 6166   5.511   0.333   5.958
 1756SOL    HW1 6167   5.577   0.401   5.925
 1756SOL    HW2 6168   5.541   0.298   6.047
 1757SOL     OW 6169   2.426   5.208   4.298
 1757SOL    HW1 6170   2.440   5.265   4.217
 1757SOL    HW2 6171   2.405   5.114   4.270
 1758SOL     OW 6172   2.218   0.097   5.129
 1758SOL    HW1 6173   2.281   0.143   5.066
 1758SOL    HW2 6174   2.139   0.155   5.145
 1759SOL     OW 6175   1.363   6.280   6.518
 1759SOL    HW1 6176   1.457   6.293   6.548
 1759SOL    HW2 6177   1.307   6.247   6.594
 1760SOL     OW 6178   6.103   0.462   4.706
 1760SOL    HW1 6179   6.010   0.450   4.741
 1760SOL    HW2 6180   6.111   0.552   4.663
 1761SOL     OW 6181   0.187   1.892   1.346
 1761SOL    HW1 6182   0.130   1.861   1.270
 1761SOL    HW2 6183   0.275   1.845   1.344
 1762SOL     OW 6184   0.789   1.642   5.297
 1762SOL    HW1 6185   0.779   1.572   5.368
 1762SOL    HW2 6186   0.806   1.597   5.209
 1763SOL     OW 6187   1.135   3.339   4.604
 1763SOL    HW1 6188   1.176   3.419   4.560
 1763SOL    HW2 6189   1.167   3.333   4.699
 1764SOL     OW 6190   1.785   4.683   1.777
 1764SOL    HW1 6191   1.747   4.591   1.784
 1764SOL    HW2 6192   1.715   4.745   1.741
 1765SOL     OW 6193   5.012   3.059   1.959
 1765SOL    HW1 6194   4.913   3.055   1.969
 1765SOL    HW2 6195   5.050   2.967   1.952
 1766SOL     OW 6196   4.261   4.723   3.792
 1766SOL    HW1 6197   4.238   4.664   3.715
 1766SOL    HW2 6198   4.239   4.818   3.769
 1767SOL     OW 6199   6.947   5.433   2.257
 1767SOL    HW1 6200   0.010   5.473   2.231
 1767SOL    HW2 6201   6.906   5.487   2.331
 1768SOL     OW 6202   4.587   6.210   1.910
 1768SOL    HW1 6203   4.669   6.153   1.920
 1768SOL    HW2 6204   4.602   6.299   1.953
 1769SOL     OW 6205   6.086   0.245   6.721
 1769SOL    HW1 6206   6.036   0.287   6.645
 1769SOL    HW2 6207   6.021   0.219   6.793
 1770SOL     OW 6208   1.726   4.753   5.406
 1770SOL    HW1 6209   1.823   4.775   5.403
 1770SOL    HW2 6210   1.712   4.659   5.375
 1771SOL     OW 6211   0.705   3.878   6.837
 1771SOL    HW1 6212   0.795   3.900   6.801
 1771SOL    HW2 6213   0.694   3.778   6.839
 1772SOL     OW 6214   2.713   4.767   3.822
 1772SOL    HW1 6215   2.763   4.766   3.908
 1772SOL    HW2 6216   2.728   4.854   3.775
 1773SOL     OW 6217   1.240   0.260   4.889
 1773SOL    HW1 6218   1.324   0.282   4.840
 1773SOL    HW2 6219   1.185   0.196   4.835
 1774SOL     OW 6220   6.063   6.348   1.859
 1774SOL    HW1 6221   6.091   6.314   1.949
 1774SOL    HW2 6222   6.143   6.379   1.808
 1775SOL     OW 6223   1.647   5.477   6.681
 1775SOL    HW1 6224   1.633   5.386   6.642
 1775SOL    HW2 6225   1.742   5.486   6.711
 1776SOL     OW 6226   4.348   1.237   5.463
 1776SOL    HW1 6227   4.440   1.274   5.452
 1776SOL    HW2 6228   4.351   1.159   5.526
 1777SOL     OW 6229   4.272   6.377   6.535
 1777SOL    HW1 6230   4.290   6.317   6.613
 1777SOL    HW2 6231   4.358   6.412   6.499
 1778SOL     OW 6232   5.948   1.106   3.952
 1778SOL    HW1 6233   5.991   1.027   3.909
 1778SOL    HW2 6234   5.871   1.076   4.008
 1779SOL     OW 6235   5.823   0.053   4.476
 1779SOL    HW1 6236   5.893   0.060   4.405
 1779SOL    HW2 6237   5.785   6.985   4.476
 1780SOL     OW 6238   1.450   5.180   4.770
 1780SOL    HW1 6239   1.505   5.235   4.708
 1780SOL    HW2 6240   1.357   5.219   4.775
 1781SOL     OW 6241   4.271   0.272   3.836
 1781SOL    HW1 6242   4.239   0.325   3.914
 1781SOL    HW2 6243   4.324   0.193   3.869
 1782SOL     OW 6244   1.909   1.682   2.754
 1782SOL    HW1 6245   1.827   1.712   2.705
 1782SOL    HW2 6246   1.987   1.683   2.692
 1783SOL     OW 6247   2.131   4.015   5.578
 1783SOL    HW1 6248   2.137   3.937   5.516
 1783SOL    HW2 6249   2.154   4.099   5.529
 1784SOL     OW 6250   2.663   0.587   1.088
 1784SOL    HW1 6251   2.614   0.526   1.025
 1784SOL    HW2 6252   2.602   0.613   1.163
 1785SOL     OW 6253   0.422   6.806   4.748
 1785SOL    HW1 6254   0.458   6.796   4.841
 1785SOL    HW2 6255   0.491   6.851   4.691
 1786SOL     OW 6256   1.964   5.609   0.721
 1786SOL    HW1 6257   1.925   5.517   0.716
 1786SOL    HW2 6258   1.895   5.676   0.695
 1787SOL     OW 6259   1.930   3.035   5.595
 1787SOL    HW1 6260   1.988   3.063   5.672
 1787SOL    HW2 6261   1.981   2.973   5.536
 1788SOL     OW 6262   5.008   4.121   0.964
 1788SOL    HW1 6263   5.027   4.027   0.993
 1788SOL    HW2 6264   5.013   4.126   0.864
 1789SOL     OW 6265   6.801   3.625   1.786
 1789SOL    HW1 6266   6.814   3.645   1.883
 1789SOL    HW2 6267   6.717   3.572   1.774
 1790SOL     OW 6268   2.898   2.289   4.031
 1790SOL    HW1 6269   2.828   2.217   4.031
 1790SOL    HW2 6270   2.950   2.285   3.946
 1791SOL     OW 6271   6.332   0.407   3.648
 1791SOL    HW1 6272   6.385   0.328   3.678
 1791SOL    HW2 6273   6.264   0.377   3.581
 1792SOL     OW 6274   6.322   1.933   5.391
 1792SOL    HW1 6275   6.289   2.015   5.437
 1792SOL    HW2 6276   6.257   1.907   5.319
 1793SOL     OW 6277   0.459   1.249   5.113
 1793SOL    HW1 6278   0.521   1.199   5.173
 1793SOL    HW2 6279   0.511   1.294   5.041
 1794SOL     OW 6280   6.994   0.257   6.014
 1794SOL    HW1 6281   7.015   0.347   6.051
 1794SOL    HW2 6282   0.010   0.186   6.072
 1795SOL     OW 6283   6.060   4.550   0.259
 1795SOL    HW1 6284   6.089   4.455   0.254
 1795SOL    HW2 6285   6.028   4.571   0.351
 1796SOL     OW 6286   1.073   0.060   5.182
 1796SOL    HW1 6287   1.053   0.007   5.264
 1796SOL    HW2 6288   1.104   0.152   5.208
 1797SOL     OW 6289   2.443   6.043   4.559
 1797SOL    HW1 6290   2.394   5.980   4.499
 1797SOL    HW2 6291   2.455   6.131   4.514
 1798SOL     OW 6292   3.274   3.589   4.697
 1798SOL    HW1 6293   3.179   3.600   4.728
 1798SOL    HW2 6294   3.276   3.584   4.597
 1799SOL     OW 6295   3.166   1.055   0.204
 1799SOL    HW1 6296   3.207   0.984   0.261
 1799SOL    HW2 6297   3.164   1.141   0.255
 1800SOL     OW 6298   4.795   3.911   4.248
 1800SOL    HW1 6299   4.713   3.855   4.242
 1800SOL    HW2 6300   4.832   3.907   4.341
 1801SOL     OW 6301   1.177   1.663   2.071
 1801SOL    HW1 6302   1.243   1.736   2.051
 1801SOL    HW2 6303   1.145   1.672   2.165
 1802SOL     OW 6304   6.413   4.828   3.627
 1802SOL    HW1 6305   6.330   4.789   3.587
 1802SOL    HW2 6306   6.392   4.866   3.717
 1803SOL     OW 6307   0.703   6.347   2.825
 1803SOL    HW1 6308   0.797   6.332   2.793
 1803SOL    HW2 6309   0.698   6.332   2.923
 1804SOL     OW 6310   2.866   3.764   6.189
 1804SOL    HW1 6311   2.944   3.709   6.219
 1804SOL    HW2 6312   2.832   3.728   6.102
 1805SOL     OW 6313   0.262   6.398   6.124
 1805SOL    HW1 6314   0.327   6.324   6.110
 1805SOL    HW2 6315   0.179   6.380   6.072
 1806SOL     OW 6316   0.051   2.655   2.430
 1806SOL    HW1 6317   0.046   2.581   2.363
 1806SOL    HW2 6318   0.145   2.690   2.434
 1807SOL     OW 6319   6.225   4.071   1.327
 1807SOL    HW1 6320   6.267   4.087   1.416
 1807SOL    HW2 6321   6.254   4.143   1.263
 1808SOL     OW 6322   5.635   2.277   5.483
 1808SOL    HW1 6323   5.691   2.239   5.556
 1808SOL    HW2 6324   5.567   2.210   5.454
 1809SOL     OW 6325   3.860   2.131   5.122
 1809SOL    HW1 6326   3.919   2.102   5.197
 1809SOL    HW2 6327   3.765   2.107   5.143
 1810SOL     OW 6328   0.502   6.862   4.150
 1810SOL    HW1 6329   0.551   6.863   4.063
 1810SOL    HW2 6330   0.405   6.841   4.133
 1811SOL     OW 6331   3.631   5.071   2.617
 1811SOL    HW1 6332   3.623   4.990   2.558
 1811SOL    HW2 6333   3.713   5.122   2.593
 1812SOL     OW 6334   4.423   0.469   6.273
 1812SOL    HW1 6335   4.505   0.503   6.319
 1812SOL    HW2 6336   4.400   0.379   6.311
 1813SOL     OW 6337   4.373   5.053   2.723
 1813SOL    HW1 6338   4.434   5.068   2.645
 1813SOL    HW2 6339   4.294   4.999   2.694
 1814SOL     OW 6340   0.872   6.653   0.335
 1814SOL    HW1 6341   0.939   6.618   0.269
 1814SOL    HW2 6342   0.917   6.664   0.424
 1815SOL     OW 6343   5.610   5.898   2.257
 1815SOL    HW1 6344   5.704   5.870   2.279
 1815SOL    HW2 6345   5.594   5.990   2.293
 1816SOL     OW 6346   3.998   5.551   5.746
 1816SOL    HW1 6347   4.004   5.477   5.679
 1816SOL    HW2 6348   4.089   5.591   5.760
 1817SOL     OW 6349   2.057   1.270   3.453
 1817SOL    HW1 6350   2.096   1.178   3.452
 1817SOL    HW2 6351   1.961   1.266   3.479
 1818SOL     OW 6352   2.314   6.609   0.148
 1818SOL    HW1 6353   2.305   6.704   0.179
 1818SOL    HW2 6354   2.323   6.549   0.227
 1819SOL     OW 6355   1.837   4.976   3.180
 1819SOL    HW1 6356   1.771   4.917   3.134
 1819SOL    HW2 6357   1.788   5.037   3.243
 1820SOL     OW 6358   3.748   0.463   3.649
 1820SOL    HW1 6359   3.687   0.453   3.727
 1820SOL    HW2 6360   3.699   0.507   3.574
 1821SOL     OW 6361   4.462   1.381   2.177
 1821SOL    HW1 6362   4.526   1.343   2.109
 1821SOL    HW2 6363   4.463   1.323   2.258
 1822SOL     OW 6364   0.527   3.242   1.928
 1822SOL    HW1 6365   0.519   3.150   1.966
 1822SOL    HW2 6366   0.492   3.309   1.994
 1823SOL     OW 6367   3.594   6.332   2.314
 1823SOL    HW1 6368   3.664   6.266   2.284
 1823SOL    HW2 6369   3.510   6.317   2.262
 1824SOL     OW 6370   4.339   3.609   0.913
 1824SOL    HW1 6371   4.282   3.571   0.986
 1824SOL    HW2 6372   4.416   3.658   0.954
 1825SOL     OW 6373   1.809   1.855   5.350
 1825SOL    HW1 6374   1.815   1.771   5.403
 1825SOL    HW2 6375   1.765   1.837   5.262
 1826SOL     OW 6376   3.277   2.058   1.905
 1826SOL    HW1 6377   3.260   1.980   1.846
 1826SOL    HW2 6378   3.316   2.133   1.851
 1827SOL     OW 6379   5.972   4.701   0.031
 1827SOL    HW1 6380   5.960   4.788   0.079
 1827SOL    HW2 6381   5.985   4.628   0.098
 1828SOL     OW 6382   1.379   3.494   5.830
 1828SOL    HW1 6383   1.440   3.419   5.802
 1828SOL    HW2 6384   1.427   3.554   5.894
 1829SOL     OW 6385   3.334   0.868   4.091
 1829SOL    HW1 6386   3.384   0.926   4.156
 1829SOL    HW2 6387   3.397   0.801   4.051
 1830SOL     OW 6388   5.978   6.747   4.743
 1830SOL    HW1 6389   5.926   6.737   4.827
 1830SOL    HW2 6390   6.027   6.834   4.745
 1831SOL     OW 6391   4.911   5.600   2.823
 1831SOL    HW1 6392   4.902   5.662   2.901
 1831SOL    HW2 6393   4.926   5.654   2.740
 1832SOL     OW 6394   2.533   3.412   0.872
 1832SOL    HW1 6395   2.509   3.342   0.805
 1832SOL    HW2 6396   2.600   3.475   0.832
 1833SOL     OW 6397   4.914   0.276   1.674
 1833SOL    HW1 6398   4.912   0.219   1.592
 1833SOL    HW2 6399   4.954   0.225   1.750
 1834SOL     OW 6400   2.223   2.837   0.245
 1834SOL    HW1 6401   2.216   2.937   0.245
 1834SOL    HW2 6402   2.268   2.807   0.161
 1835SOL     OW 6403   0.198   5.093   1.510
 1835SOL    HW1 6404   0.148   5.156   1.569
 1835SOL    HW2 6405   0.146   5.077   1.426
 1836SOL     OW 6406   5.752   1.892   1.385
 1836SOL    HW1 6407   5.659   1.861   1.364
 1836SOL    HW2 6408   5.779   1.961   1.318
 1837SOL     OW 6409   2.954   1.628   5.989
 1837SOL    HW1 6410   2.932   1.681   5.907
 1837SOL    HW2 6411   2.984   1.689   6.062
 1838SOL     OW 6412   6.134   1.158   0.784
 1838SOL    HW1 6413   6.066   1.186   0.851
 1838SOL    HW2 6414   6.151   1.233   0.720
 1839SOL     OW 6415   5.319   1.534   6.997
 1839SOL    HW1 6416   5.267   1.458   0.012
 1839SOL    HW2 6417   5.403   1.498   6.956
 1840SOL     OW 6418   4.177   6.955   3.075
 1840SOL    HW1 6419   4.109   7.002   3.019
 1840SOL    HW2 6420   4.228   6.890   3.017
 1841SOL     OW 6421   2.291   0.971   2.318
 1841SOL    HW1 6422   2.295   0.959   2.219
 1841SOL    HW2 6423   2.380   1.004   2.351
 1842SOL     OW 6424   1.602   4.997   0.435
 1842SOL    HW1 6425   1.582   4.981   0.338
 1842SOL    HW2 6426   1.564   5.085   0.462
 1843SOL     OW 6427   3.281   1.355   4.876
 1843SOL    HW1 6428   3.294   1.338   4.778
 1843SOL    HW2 6429   3.295   1.452   4.895
 1844SOL     OW 6430   4.838   1.673   6.904
 1844SOL    HW1 6431   4.891   1.661   6.987
 1844SOL    HW2 6432   4.741   1.681   6.927
 1845SOL     OW 6433   2.526   1.312   3.384
 1845SOL    HW1 6434   2.432   1.314   3.350
 1845SOL    HW2 6435   2.553   1.404   3.412
 1846SOL     OW 6436   4.363   1.222   2.376
 1846SOL    HW1 6437   4.416   1.226   2.461
 1846SOL    HW2 6438   4.265   1.217   2.398
 1847SOL     OW 6439   1.932   0.103   4.848
 1847SOL    HW1 6440   2.012   0.055   4.813
 1847SOL    HW2 6441   1.940   0.201   4.827
 1848SOL     OW 6442   2.379   5.631   4.350
 1848SOL    HW1 6443   2.378   5.576   4.266
 1848SOL    HW2 6444   2.361   5.572   4.429
 1849SOL     OW 6445   4.448   2.412   2.392
 1849SOL    HW1 6446   4.468   2.446   2.484
 1849SOL    HW2 6447   4.499   2.465   2.325
 1850SOL     OW 6448   5.301   2.022   2.074
 1850SOL    HW1 6449   5.297   1.961   1.995
 1850SOL    HW2 6450   5.210   2.032   2.114
 1851SOL     OW 6451   6.770   2.966   5.740
 1851SOL    HW1 6452   6.835   2.963   5.664
 1851SOL    HW2 6453   6.809   2.917   5.819
 1852SOL     OW 6454   1.522   5.096   1.776
 1852SOL    HW1 6455   1.538   5.070   1.871
 1852SOL    HW2 6456   1.434   5.142   1.768
 1853SOL     OW 6457   0.579   2.946   4.902
 1853SOL    HW1 6458   0.556   2.852   4.925
 1853SOL    HW2 6459   0.505   2.988   4.850
 1854SOL     OW 6460   0.534   6.162   3.302
 1854SOL    HW1 6461   0.522   6.089   3.370
 1854SOL    HW2 6462   0.482   6.242   3.331
 1855SOL     OW 6463   4.894   3.378   4.951
 1855SOL    HW1 6464   4.889   3.477   4.939
 1855SOL    HW2 6465   4.877   3.354   5.047
 1856SOL     OW 6466   3.873   3.433   6.958
 1856SOL    HW1 6467   3.948   3.484   6.999
 1856SOL    HW2 6468   3.818   3.391   0.005
 1857SOL     OW 6469   5.024   0.542   0.309
 1857SOL    HW1 6470   4.970   0.459   0.296
 1857SOL    HW2 6471   5.097   0.546   0.242
 1858SOL     OW 6472   4.494   2.368   4.319
 1858SOL    HW1 6473   4.543   2.287   4.353
 1858SOL    HW2 6474   4.560   2.440   4.298
 1859SOL     OW 6475   5.863   2.154   4.645
 1859SOL    HW1 6476   5.938   2.139   4.709
 1859SOL    HW2 6477   5.898   2.164   4.552
 1860SOL     OW 6478   1.311   1.552   4.854
 1860SOL    HW1 6479   1.260   1.550   4.767
 1860SOL    HW2 6480   1.400   1.596   4.839
 1861SOL     OW 6481   6.737   0.610   3.160
 1861SOL    HW1 6482   6.695   0.538   3.106
 1861SOL    HW2 6483   6.678   0.630   3.239
 1862SOL     OW 6484   2.339   6.593   6.709
 1862SOL    HW1 6485   2.254   6.621   6.663
 1862SOL    HW2 6486   2.363   6.501   6.679
 1863SOL     OW 6487   0.287   3.432   1.465
 1863SOL    HW1 6488   0.309   3.453   1.370
 1863SOL    HW2 6489   0.363   3.461   1.524
 1864SOL     OW 6490   3.099   6.165   3.043
 1864SOL    HW1 6491   3.174   6.230   3.055
 1864SOL    HW2 6492   3.012   6.211   3.060
 1865SOL     OW 6493   5.269   1.440   6.556
 1865SOL    HW1 6494   5.218   1.426   6.641
 1865SOL    HW2 6495   5.252   1.531   6.521
 1866SOL     OW 6496   0.626   4.707   3.922
 1866SOL    HW1 6497   0.558   4.716   3.849
 1866SOL    HW2 6498   0.622   4.614   3.960
 1867SOL     OW 6499   2.580   2.218   1.155
 1867SOL    HW1 6500   2.629   2.259   1.233
 1867SOL    HW2 6501   2.509   2.282   1.123
 1868SOL     OW 6502   5.815   4.455   5.793
 1868SOL    HW1 6503   5.894   4.465   5.733
 1868SOL    HW2 6504   5.818   4.524   5.866
 1869SOL     OW 6505   4.562   2.123   4.441
 1869SOL    HW1 6506   4.562   2.037   4.389
 1869SOL    HW2 6507   4.552   2.103   4.538
 1870SOL     OW 6508   1.389   4.589   4.090
 1870SOL    HW1 6509   1.450   4.615   4.165
 1870SOL    HW2 6510   1.392   4.490   4.077
 1871SOL     OW 6511   0.994   6.308   0.265
 1871SOL    HW1 6512   1.040   6.388   0.226
 1871SOL    HW2 6513   1.028   6.293   0.358
 1872SOL     OW 6514   2.848   2.344   0.798
 1872SOL    HW1 6515   2.766   2.287   0.797
 1872SOL    HW2 6516   2.830   2.427   0.851
 1873SOL     OW 6517   6.426   0.681   0.162
 1873SOL    HW1 6518   6.451   0.654   0.069
 1873SOL    HW2 6519   6.344   0.739   0.159
 1874SOL     OW 6520   1.244   6.153   6.909
 1874SOL    HW1 6521   1.284   6.063   6.893
 1874SOL    HW2 6522   1.193   6.181   6.827
 1875SOL     OW 6523   6.179   5.360   6.991
 1875SOL    HW1 6524   6.094   5.394   6.952
 1875SOL    HW2 6525   6.256   5.414   6.958
 1876SOL     OW 6526   5.900   6.420   6.318
 1876SOL    HW1 6527   5.980   6.464   6.359
 1876SOL    HW2 6528   5.905   6.321   6.331
 1877SOL     OW 6529   0.337   1.296   2.287
 1877SOL    HW1 6530   0.254   1.240   2.294
 1877SOL    HW2 6531   0.311   1.393   2.293
 1878SOL     OW 6532   0.413   4.615   3.293
 1878SOL    HW1 6533   0.316   4.629   3.312
 1878SOL    HW2 6534   0.440   4.669   3.214
 1879SOL     OW 6535   3.649   5.599   5.285
 1879SOL    HW1 6536   3.684   5.581   5.193
 1879SOL    HW2 6537   3.578   5.532   5.307
 1880SOL     OW 6538   0.163   2.125   3.239
 1880SOL    HW1 6539   0.192   2.039   3.198
 1880SOL    HW2 6540   0.080   2.157   3.194
 1881SOL     OW 6541   0.858   1.827   3.933
 1881SOL    HW1 6542   0.849   1.923   3.904
 1881SOL    HW2 6543   0.932   1.784   3.882
 1882SOL     OW 6544   1.524   5.668   0.061
 1882SOL    HW1 6545   1.478   5.581   0.041
 1882SOL    HW2 6546   1.525   5.683   0.160
 1883SOL     OW 6547   1.465   3.237   3.123
 1883SOL    HW1 6548   1.459   3.337   3.130
 1883SOL    HW2 6549   1.560   3.209   3.120
 1884SOL     OW 6550   3.036   0.697   0.736
 1884SOL    HW1 6551   3.020   0.788   0.773
 1884SOL    HW2 6552   3.063   0.704   0.640
 1885SOL     OW 6553   0.290   2.766   0.961
 1885SOL    HW1 6554   0.383   2.732   0.970
 1885SOL    HW2 6555   0.261   2.810   1.046
 1886SOL     OW 6556   2.391   2.489   0.065
 1886SOL    HW1 6557   2.330   2.567   0.052
 1886SOL    HW2 6558   2.351   2.407   0.022
 1887SOL     OW 6559   1.442   5.921   5.668
 1887SOL    HW1 6560   1.389   5.948   5.749
 1887SOL    HW2 6561   1.435   5.993   5.599
 1888SOL     OW 6562   1.773   2.009   6.284
 1888SOL    HW1 6563   1.859   2.032   6.240
 1888SOL    HW2 6564   1.724   2.094   6.307
 1889SOL     OW 6565   4.505   3.018   0.169
 1889SOL    HW1 6566   4.472   3.036   0.261
 1889SOL    HW2 6567   4.484   3.096   0.110
 1890SOL     OW 6568   0.281   5.934   6.081
 1890SOL    HW1 6569   0.373   5.899   6.096
 1890SOL    HW2 6570   0.242   5.891   6.000
 1891SOL     OW 6571   5.613   3.468   5.633
 1891SOL    HW1 6572   5.674   3.477   5.554
 1891SOL    HW2 6573   5.555   3.388   5.621
 1892SOL     OW 6574   3.526   5.183   1.651
 1892SOL    HW1 6575   3.481   5.190   1.740
 1892SOL    HW2 6576   3.541   5.086   1.629
 1893SOL     OW 6577   3.891   2.093   3.923
 1893SOL    HW1 6578   3.905   2.061   3.829
 1893SOL    HW2 6579   3.961   2.160   3.946
 1894SOL     OW 6580   4.668   3.830   1.300
 1894SOL    HW1 6581   4.654   3.767   1.377
 1894SOL    HW2 6582   4.735   3.791   1.237
 1895SOL     OW 6583   6.211   0.953   3.179
 1895SOL    HW1 6584   6.306   0.945   3.210
 1895SOL    HW2 6585   6.152   0.974   3.257
 1896SOL     OW 6586   6.306   1.483   4.733
 1896SOL    HW1 6587   6.294   1.418   4.658
 1896SOL    HW2 6588   6.262   1.448   4.815
 1897SOL     OW 6589   5.824   5.065   2.699
 1897SOL    HW1 6590   5.906   5.008   2.691
 1897SOL    HW2 6591   5.749   5.021   2.651
 1898SOL     OW 6592   5.335   5.432   1.426
 1898SOL    HW1 6593   5.298   5.376   1.352
 1898SOL    HW2 6594   5.259   5.470   1.479
 1899SOL     OW 6595   0.228   3.091   3.204
 1899SOL    HW1 6596   0.193   3.032   3.277
 1899SOL    HW2 6597   0.267   3.034   3.132
 1900SOL     OW 6598   1.312   5.837   5.937
 1900SOL    HW1 6599   1.392   5.777   5.942
 1900SOL    HW2 6600   1.310   5.898   6.016
 1901SOL     OW 6601   1.785   0.283   0.041
 1901SOL    HW1 6602   1.844   0.202   0.037
 1901SOL    HW2 6603   1.828   0.358   7.016
 1902SOL     OW 6604   0.681   3.085   4.537
 1902SOL    HW1 6605   0.704   2.991   4.563
 1902SOL    HW2 6606   0.735   3.112   4.458
 1903SOL     OW 6607   6.166   4.053   2.888
 1903SOL    HW1 6608   6.095   4.086   2.950
 1903SOL    HW2 6609   6.253   4.097   2.911
 1904SOL     OW 6610   6.554   0.296   4.096
 1904SOL    HW1 6611   6.604   0.365   4.148
 1904SOL    HW2 6612   6.543   0.214   4.153
 1905SOL     OW 6613   0.381   2.148   4.230
 1905SOL    HW1 6614   0.467   2.157   4.280
 1905SOL    HW2 6615   0.394   2.089   4.150
 1906SOL     OW 6616   2.342   6.717   6.398
 1906SOL    HW1 6617   2.297   6.787   6.452
 1906SOL    HW2 6618   2.435   6.702   6.432
 1907SOL     OW 6619   3.384   6.066   3.495
 1907SOL    HW1 6620   3.315   6.039   3.427
 1907SOL    HW2 6621   3.452   6.125   3.451
 1908SOL     OW 6622   4.005   1.603   5.686
 1908SOL    HW1 6623   4.099   1.579   5.661
 1908SOL    HW2 6624   3.948   1.521   5.683
 1909SOL     OW 6625   2.010   4.539   4.434
 1909SOL    HW1 6626   2.065   4.616   4.402
 1909SOL    HW2 6627   2.066   4.481   4.493
 1910SOL     OW 6628   5.535   2.314   6.043
 1910SOL    HW1 6629   5.590   2.393   6.016
 1910SOL    HW2 6630   5.595   2.236   6.061
 1911SOL     OW 6631   6.731   2.477   5.258
 1911SOL    HW1 6632   6.749   2.503   5.353
 1911SOL    HW2 6633   6.747   2.556   5.199
 1912SOL     OW 6634   3.168   6.892   2.340
 1912SOL    HW1 6635   3.081   6.866   2.383
 1912SOL    HW2 6636   3.241   6.835   2.376
 1913SOL     OW 6637   1.426   5.702   5.217
 1913SOL    HW1 6638   1.340   5.724   5.171
 1913SOL    HW2 6639   1.480   5.785   5.228
 1914SOL     OW 6640   2.881   2.526   6.092
 1914SOL    HW1 6641   2.965   2.472   6.095
 1914SOL    HW2 6642   2.878   2.577   6.006
 1915SOL     OW 6643   4.048   0.700   6.121
 1915SOL    HW1 6644   3.951   0.678   6.112
 1915SOL    HW2 6645   4.060   0.799   6.113
 1916SOL     OW 6646   3.069   5.814   2.234
 1916SOL    HW1 6647   2.999   5.885   2.230
 1916SOL    HW2 6648   3.025   5.724   2.241
 1917SOL     OW 6649   2.930   3.754   4.337
 1917SOL    HW1 6650   2.933   3.754   4.238
 1917SOL    HW2 6651   2.961   3.843   4.371
 1918SOL     OW 6652   5.715   6.108   5.680
 1918SOL    HW1 6653   5.702   6.011   5.657
 1918SOL    HW2 6654   5.629   6.147   5.711
 1919SOL     OW 6655   0.502   6.177   2.199
 1919SOL    HW1 6656   0.486   6.123   2.282
 1919SOL    HW2 6657   0.414   6.204   2.160
 1920SOL     OW 6658   0.053   5.837   3.780
 1920SOL    HW1 6659   0.109   5.896   3.839
 1920SOL    HW2 6660   7.003   5.890   3.742
 1921SOL     OW 6661   1.553   5.881   6.385
 1921SOL    HW1 6662   1.609   5.938   6.445
 1921SOL    HW2 6663   1.563   5.785   6.411
 1922SOL     OW 6664   3.894   3.462   1.372
 1922SOL    HW1 6665   3.864   3.423   1.285
 1922SOL    HW2 6666   3.840   3.423   1.447
 1923SOL     OW 6667   2.272   1.147   0.938
 1923SOL    HW1 6668   2.223   1.230   0.966
 1923SOL    HW2 6669   2.290   1.151   0.840
 1924SOL     OW 6670   6.822   4.053   2.099
 1924SOL    HW1 6671   6.866   3.982   2.154
 1924SOL    HW2 6672   6.890   4.097   2.041
 1925SOL     OW 6673   3.552   3.811   1.872
 1925SOL    HW1 6674   3.544   3.903   1.910
 1925SOL    HW2 6675   3.496   3.748   1.927
 1926SOL     OW 6676   1.599   0.260   4.385
 1926SOL    HW1 6677   1.536   0.213   4.447
 1926SOL    HW2 6678   1.616   0.353   4.420
 1927SOL     OW 6679   4.418   3.647   6.876
 1927SOL    HW1 6680   4.353   3.714   6.840
 1927SOL    HW2 6681   4.439   3.579   6.806
 1928SOL     OW 6682   6.378   4.027   5.619
 1928SOL    HW1 6683   6.399   3.929   5.621
 1928SOL    HW2 6684   6.290   4.041   5.574
 1929SOL     OW 6685   1.350   5.955   0.926
 1929SOL    HW1 6686   1.332   5.918   1.017
 1929SOL    HW2 6687   1.325   5.888   0.857
 1930SOL     OW 6688   6.042   4.688   6.378
 1930SOL    HW1 6689   6.114   4.629   6.415
 1930SOL    HW2 6690   5.960   4.633   6.362
 1931SOL     OW 6691   0.860   3.582   3.506
 1931SOL    HW1 6692   0.810   3.587   3.420
 1931SOL    HW2 6693   0.808   3.627   3.578
 1932SOL     OW 6694   4.816   4.120   1.978
 1932SOL    HW1 6695   4.762   4.051   1.929
 1932SOL    HW2 6696   4.755   4.184   2.024
 1933SOL     OW 6697   2.710   4.407   0.807
 1933SOL    HW1 6698   2.681   4.433   0.715
 1933SOL    HW2 6699   2.701   4.308   0.818
 1934SOL     OW 6700   0.863   6.886   5.783
 1934SOL    HW1 6701   0.946   6.940   5.783
 1934SOL    HW2 6702   0.786   6.943   5.810
 1935SOL     OW 6703   2.358   7.007   4.153
 1935SOL    HW1 6704   2.433   6.943   4.136
 1935SOL    HW2 6705   2.349   7.023   4.251
 1936SOL     OW 6706   5.460   6.379   4.662
 1936SOL    HW1 6707   5.402   6.455   4.692
 1936SOL    HW2 6708   5.404   6.309   4.617
 1937SOL     OW 6709   3.822   6.461   1.685
 1937SOL    HW1 6710   3.742   6.462   1.626
 1937SOL    HW2 6711   3.890   6.527   1.652
 1938SOL     OW 6712   4.003   1.280   3.383
 1938SOL    HW1 6713   4.005   1.255   3.480
 1938SOL    HW2 6714   4.053   1.366   3.370
 1939SOL     OW 6715   1.724   1.030   4.083
 1939SOL    HW1 6716   1.823   1.040   4.069
 1939SOL    HW2 6717   1.685   1.119   4.108
 1940SOL     OW 6718   6.298   5.181   6.710
 1940SOL    HW1 6719   6.290   5.134   6.798
 1940SOL    HW2 6720   6.215   5.165   6.656
 1941SOL     OW 6721   6.007   3.851   2.748
 1941SOL    HW1 6722   6.040   3.920   2.813
 1941SOL    HW2 6723   6.081   3.787   2.726
 1942SOL     OW 6724   6.364   5.774   2.561
 1942SOL    HW1 6725   6.394   5.749   2.469
 1942SOL    HW2 6726   6.277   5.728   2.581
 1943SOL     OW 6727   2.140   4.847   2.877
 1943SOL    HW1 6728   2.235   4.834   2.848
 1943SOL    HW2 6729   2.137   4.908   2.956
 1944SOL     OW 6730   5.528   1.333   6.637
 1944SOL    HW1 6731   5.435   1.351   6.604
 1944SOL    HW2 6732   5.593   1.384   6.581
 1945SOL     OW 6733   4.511   5.435   3.163
 1945SOL    HW1 6734   4.438   5.396   3.108
 1945SOL    HW2 6735   4.596   5.384   3.149
 1946SOL     OW 6736   1.562   6.676   0.518
 1946SOL    HW1 6737   1.557   6.612   0.595
 1946SOL    HW2 6738   1.476   6.727   0.512
 1947SOL     OW 6739   5.696   6.837   4.464
 1947SOL    HW1 6740   5.718   6.754   4.411
 1947SOL    HW2 6741   5.623   6.887   4.417
 1948SOL     OW 6742   6.994   5.293   4.193
 1948SOL    HW1 6743   6.923   5.323   4.257
 1948SOL    HW2 6744   6.963   5.212   4.145
 1949SOL     OW 6745   4.665   4.449   5.890
 1949SOL    HW1 6746   4.704   4.495   5.969
 1949SOL    HW2 6747   4.569   4.427   5.908
 1950SOL     OW 6748   3.678   3.632   6.695
 1950SOL    HW1 6749   3.606   3.575   6.656
 1950SOL    HW2 6750   3.748   3.575   6.738
 1951SOL     OW 6751   5.376   1.649   0.218
 1951SOL    HW1 6752   5.307   1.721   0.219
 1951SOL    HW2 6753   5.379   1.607   0.127
 1952SOL     OW 6754   4.019   1.626   1.048
 1952SOL    HW1 6755   4.031   1.562   1.124
 1952SOL    HW2 6756   4.058   1.715   1.072
 1953SOL     OW 6757   6.994   2.217   0.062
 1953SOL    HW1 6758   0.055   2.251   0.023
 1953SOL    HW2 6759   6.935   2.186   7.013
 1954SOL     OW 6760   4.932   1.824   3.514
 1954SOL    HW1 6761   4.959   1.849   3.421
 1954SOL    HW2 6762   4.836   1.798   3.516
 1955SOL     OW 6763   1.079   6.825   2.229
 1955SOL    HW1 6764   1.021   6.770   2.290
 1955SOL    HW2 6765   1.022   6.864   2.157
 1956SOL     OW 6766   5.222   5.691   2.941
 1956SOL    HW1 6767   5.199   5.737   2.855
 1956SOL    HW2 6768   5.165   5.610   2.951
 1957SOL     OW 6769   0.421   5.664   4.551
 1957SOL    HW1 6770   0.474   5.590   4.591
 1957SOL    HW2 6771   0.362   5.629   4.479
 1958SOL     OW 6772   5.329   3.629   5.151
 1958SOL    HW1 6773   5.233   3.604   5.163
 1958SOL    HW2 6774   5.381   3.599   5.231
 1959SOL     OW 6775   1.234   2.713   5.710
 1959SOL    HW1 6776   1.155   2.656   5.732
 1959SOL    HW2 6777   1.272   2.686   5.621
 1960SOL     OW 6778   6.231   5.174   0.644
 1960SOL    HW1 6779   6.176   5.257   0.629
 1960SOL    HW2 6780   6.215   5.110   0.569
 1961SOL     OW 6781   5.721   4.848   3.940
 1961SOL    HW1 6782   5.675   4.936   3.954
 1961SOL    HW2 6783   5.655   4.780   3.909
 1962SOL     OW 6784   1.241   6.216   3.302
 1962SOL    HW1 6785   1.181   6.178   3.372
 1962SOL    HW2 6786   1.231   6.164   3.217
 1963SOL     OW 6787   0.535   0.566   2.293
 1963SOL    HW1 6788   0.456   0.509   2.318
 1963SOL    HW2 6789   0.518   0.659   2.323
 1964SOL     OW 6790   4.723   2.784   1.794
 1964SOL    HW1 6791   4.676   2.719   1.735
 1964SOL    HW2 6792   4.659   2.855   1.823
 1965SOL     OW 6793   0.191   3.458   1.959
 1965SOL    HW1 6794   0.091   3.460   1.960
 1965SOL    HW2 6795   0.222   3.367   1.933
 1966SOL     OW 6796   0.141   5.261   4.496
 1966SOL    HW1 6797   0.177   5.176   4.533
 1966SOL    HW2 6798   0.044   5.251   4.474
 1967SOL     OW 6799   5.535   2.700   5.868
 1967SOL    HW1 6800   5.557   2.798   5.858
 1967SOL    HW2 6801   5.464   2.675   5.803
 1968SOL     OW 6802   2.676   5.424   0.022
 1968SOL    HW1 6803   2.722   5.478   0.093
 1968SOL    HW2 6804   2.739   5.356   7.011
 1969SOL     OW 6805   0.152   2.770   1.686
 1969SOL    HW1 6806   0.073   2.780   1.747
 1969SOL    HW2 6807   0.163   2.854   1.633
 1970SOL     OW 6808   1.254   0.644   6.130
 1970SOL    HW1 6809   1.259   0.637   6.230
 1970SOL    HW2 6810   1.312   0.719   6.099
 1971SOL     OW 6811   0.099   0.087   6.188
 1971SOL    HW1 6812   0.188   0.077   6.231
 1971SOL    HW2 6813   0.032   0.031   6.237
 1972SOL     OW 6814   0.645   3.766   3.651
 1972SOL    HW1 6815   0.622   3.747   3.746
 1972SOL    HW2 6816   0.561   3.784   3.599
 1973SOL     OW 6817   3.881   2.725   1.713
 1973SOL    HW1 6818   3.853   2.797   1.777
 1973SOL    HW2 6819   3.803   2.667   1.691
 1974SOL     OW 6820   5.931   6.326   4.498
 1974SOL    HW1 6821   5.996   6.259   4.533
 1974SOL    HW2 6822   5.940   6.411   4.550
 1975SOL     OW 6823   2.283   0.452   4.573
 1975SOL    HW1 6824   2.365   0.405   4.542
 1975SOL    HW2 6825   2.291   0.474   4.670
 1976SOL     OW 6826   0.686   5.980   0.555
 1976SOL    HW1 6827   0.679   6.064   0.501
 1976SOL    HW2 6828   0.607   5.974   0.616
 1977SOL     OW 6829   0.737   2.992   4.252
 1977SOL    HW1 6830   0.810   3.053   4.283
 1977SOL    HW2 6831   0.649   3.040   4.256
 1978SOL     OW 6832   0.795   1.361   4.158
 1978SOL    HW1 6833   0.788   1.458   4.134
 1978SOL    HW2 6834   0.710   1.314   4.133
 1979SOL     OW 6835   6.975   4.363   4.873
 1979SOL    HW1 6836   7.014   4.356   4.965
 1979SOL    HW2 6837   0.004   4.426   4.819
 1980SOL     OW 6838   3.300   0.346   0.910
 1980SOL    HW1 6839   3.328   0.263   0.862
 1980SOL    HW2 6840   3.288   0.421   0.845
 1981SOL     OW 6841   5.328   2.135   2.867
 1981SOL    HW1 6842   5.332   2.235   2.856
 1981SOL    HW2 6843   5.306   2.113   2.962
 1982SOL     OW 6844   6.171   5.262   5.159
 1982SOL    HW1 6845   6.130   5.207   5.087
 1982SOL    HW2 6846   6.269   5.272   5.144
 1983SOL     OW 6847   1.588   2.163   3.044
 1983SOL    HW1 6848   1.511   2.187   2.985
 1983SOL    HW2 6849   1.623   2.245   3.088
 1984SOL     OW 6850   4.688   1.678   6.228
 1984SOL    HW1 6851   4.607   1.706   6.279
 1984SOL    HW2 6852   4.769   1.691   6.284
 1985SOL     OW 6853   0.791   0.893   1.957
 1985SOL    HW1 6854   0.884   0.856   1.955
 1985SOL    HW2 6855   0.726   0.819   1.974
 1986SOL     OW 6856   1.172   1.878   6.624
 1986SOL    HW1 6857   1.075   1.893   6.643
 1986SOL    HW2 6858   1.188   1.782   6.604
 1987SOL     OW 6859   2.910   3.101   1.732
 1987SOL    HW1 6860   2.971   3.083   1.810
 1987SOL    HW2 6861   2.876   3.014   1.696
 1988SOL     OW 6862   5.097   4.314   6.975
 1988SOL    HW1 6863   5.150   4.294   6.893
 1988SOL    HW2 6864   5.044   4.234   7.002
 1989SOL     OW 6865   2.151   6.988   4.743
 1989SOL    HW1 6866   2.126   6.892   4.758
 1989SOL    HW2 6867   2.131   7.012   4.648
 1990SOL     OW 6868   2.691   0.949   1.306
 1990SOL    HW1 6869   2.656   0.868   1.354
 1990SOL    HW2 6870   2.631   0.970   1.229
 1991SOL     OW 6871   3.518   5.601   5.669
 1991SOL    HW1 6872   3.480   5.690   5.643
 1991SOL    HW2 6873   3.610   5.614   5.706
 1992SOL     OW 6874   2.445   6.906   5.481
 1992SOL    HW1 6875   2.354   6.864   5.485
 1992SOL    HW2 6876   2.499   6.861   5.410
 1993SOL     OW 6877   3.963   3.442   5.375
 1993SOL    HW1 6878   4.003   3.533   5.374
 1993SOL    HW2 6879   3.932   3.419   5.467
 1994SOL     OW 6880   0.478   1.965   1.875
 1994SOL    HW1 6881   0.560   2.008   1.838
 1994SOL    HW2 6882   0.501   1.917   1.959
 1995SOL     OW 6883   6.238   2.216   2.183
 1995SOL    HW1 6884   6.330   2.250   2.202
 1995SOL    HW2 6885   6.179   2.231   2.262
 1996SOL     OW 6886   3.871   3.162   0.951
 1996SOL    HW1 6887   3.896   3.174   0.855
 1996SOL    HW2 6888   3.941   3.106   0.997
 1997SOL     OW 6889   5.932   1.115   5.036
 1997SOL    HW1 6890   5.935   1.210   5.068
 1997SOL    HW2 6891   5.867   1.064   5.092
 1998SOL     OW 6892   3.098   3.921   6.540
 1998SOL    HW1 6893   3.101   3.842   6.480
 1998SOL    HW2 6894   3.143   3.899   6.627
 1999SOL     OW 6895   2.325   0.248   2.079
 1999SOL    HW1 6896   2.247   0.187   2.071
 1999SOL    HW2 6897   2.296   0.335   2.118
 2000SOL     OW 6898   4.322   1.371   4.527
 2000SOL    HW1 6899   4.243   1.381   4.466
 2000SOL    HW2 6900   4.319   1.281   4.570
 2001SOL     OW 6901   3.432   1.652   1.775
 2001SOL    HW1 6902   3.512   1.698   1.813
 2001SOL    HW2 6903   3.397   1.705   1.698
 2002SOL     OW 6904   1.892   6.534   6.152
 2002SOL    HW1 6905   1.864   6.525   6.248
 2002SOL    HW2 6906   1.969   6.597   6.145
 2003SOL     OW 6907   5.115   0.294   3.563
 2003SOL    HW1 6908   5.164   0.216   3.524
 2003SOL    HW2 6909   5.071   0.346   3.491
 2004SOL     OW 6910   4.222   1.013   4.596
 2004SOL    HW1 6911   4.136   0.978   4.561
 2004SOL    HW2 6912   4.286   1.027   4.520
 2005SOL     OW 6913   1.897   5.873   6.787
 2005SOL    HW1 6914   1.803   5.843   6.774
 2005SOL    HW2 6915   1.955   5.833   6.716
 2006SOL     OW 6916   4.779   4.116   3.696
 2006SOL    HW1 6917   4.840   4.052   3.650
 2006SOL    HW2 6918   4.749   4.186   3.632
 2007SOL     OW 6919   4.771   5.075   6.862
 2007SOL    HW1 6920   4.753   5.170   6.890
 2007SOL    HW2 6921   4.835   5.034   6.926
 2008SOL     OW 6922   6.619   6.264   3.830
 2008SOL    HW1 6923   6.625   6.243   3.732
 2008SOL    HW2 6924   6.529   6.235   3.864
 2009SOL     OW 6925   6.426   0.328   1.684
 2009SOL    HW1 6926   6.491   0.257   1.709
 2009SOL    HW2 6927   6.466   0.418   1.703
 2010SOL     OW 6928   1.397   1.164   1.370
 2010SOL    HW1 6929   1.317   1.167   1.430
 2010SOL    HW2 6930   1.417   1.257   1.338
 2011SOL     OW 6931   6.812   2.649   5.041
 2011SOL    HW1 6932   6.775   2.673   4.951
 2011SOL    HW2 6933   6.886   2.712   5.064
 2012SOL     OW 6934   1.096   3.863   1.933
 2012SOL    HW1 6935   1.118   3.909   1.847
 2012SOL    HW2 6936   1.127   3.768   1.929
 2013SOL     OW 6937   5.075   1.613   3.236
 2013SOL    HW1 6938   5.125   1.610   3.323
 2013SOL    HW2 6939   5.028   1.700   3.227
 2014SOL     OW 6940   1.068   5.920   3.205
 2014SOL    HW1 6941   1.056   5.826   3.238
 2014SOL    HW2 6942   1.146   5.962   3.251
 2015SOL     OW 6943   3.712   1.037   0.266
 2015SOL    HW1 6944   3.694   1.126   0.307
 2015SOL    HW2 6945   3.628   0.982   0.269
 2016SOL     OW 6946   0.929   5.275   4.266
 2016SOL    HW1 6947   0.932   5.369   4.301
 2016SOL    HW2 6948   1.010   5.226   4.296
 2017SOL     OW 6949   3.061   6.523   3.609
 2017SOL    HW1 6950   3.079   6.455   3.538
 2017SOL    HW2 6951   2.992   6.488   3.672
 2018SOL     OW 6952   6.934   5.736   5.177
 2018SOL    HW1 6953   6.852   5.687   5.205
 2018SOL    HW2 6954   6.913   5.833   5.165
 2019SOL     OW 6955   5.502   2.681   0.956
 2019SOL    HW1 6956   5.513   2.653   0.860
 2019SOL    HW2 6957   5.490   2.781   0.959
 2020SOL     OW 6958   1.636   5.014   4.968
 2020SOL    HW1 6959   1.587   5.072   4.904
 2020SOL    HW2 6960   1.734   5.017   4.948
 2021SOL     OW 6961   1.863   0.467   2.699
 2021SOL    HW1 6962   1.917   0.550   2.714
 2021SOL    HW2 6963   1.790   0.486   2.634
 2022SOL     OW 6964   2.036   3.443   1.815
 2022SOL    HW1 6965   2.095   3.463   1.737
 2022SOL    HW2 6966   2.091   3.421   1.895
 2023SOL     OW 6967   0.298   1.243   6.900
 2023SOL    HW1 6968   0.388   1.277   6.872
 2023SOL    HW2 6969   0.305   1.147   6.926
 2024SOL     OW 6970   6.472   0.910   3.264
 2024SOL    HW1 6971   6.476   0.814   3.291
 2024SOL    HW2 6972   6.534   0.926   3.187
 2025SOL     OW 6973   1.241   1.805   1.600
 2025SOL    HW1 6974   1.265   1.763   1.512
 2025SOL    HW2 6975   1.317   1.860   1.633
 2026SOL     OW 6976   1.977   2.167   5.923
 2026SOL    HW1 6977   2.029   2.111   5.858
 2026SOL    HW2 6978   2.007   2.147   6.016
 2027SOL     OW 6979   0.243   0.650   2.233
 2027SOL    HW1 6980   0.160   0.704   2.235
 2027SOL    HW2 6981   0.265   0.626   2.139
 2028SOL     OW 6982   3.826   1.077   0.841
 2028SOL    HW1 6983   3.904   1.020   0.866
 2028SOL    HW2 6984   3.784   1.040   0.758
 2029SOL     OW 6985   1.105   0.602   6.827
 2029SOL    HW1 6986   1.081   0.666   6.900
 2029SOL    HW2 6987   1.121   0.511   6.867
 2030SOL     OW 6988   2.122   2.126   3.729
 2030SOL    HW1 6989   2.053   2.055   3.714
 2030SOL    HW2 6990   2.117   2.194   3.656
 2031SOL     OW 6991   5.322   5.835   2.176
 2031SOL    HW1 6992   5.227   5.806   2.167
 2031SOL    HW2 6993   5.348   5.833   2.272
 2032SOL     OW 6994   5.022   6.568   1.120
 2032SOL    HW1 6995   5.074   6.484   1.103
 2032SOL    HW2 6996   4.991   6.570   1.215
 2033SOL     OW 6997   4.206   4.756   6.035
 2033SOL    HW1 6998   4.124   4.802   6.002
 2033SOL    HW2 6999   4.287   4.797   5.992
 2034SOL     OW 7000   2.057   6.318   3.540
 2034SOL    HW1 7001   2.075   6.238   3.597
 2034SOL    HW2 7002   2.143   6.358   3.510
 2035SOL     OW 7003   6.827   1.866   2.494
 2035SOL    HW1 7004   6.763   1.796   2.526
 2035SOL    HW2 7005   6.844   1.855   2.396
 2036SOL     OW 7006   0.238   5.738   1.544
 2036SOL    HW1 7007   0.322   5.772   1.585
 2036SOL    HW2 7008   0.210   5.654   1.591
 2037SOL     OW 7009   6.961   2.439   5.714
 2037SOL    HW1 7010   6.947   2.393   5.627
 2037SOL    HW2 7011   7.012   2.524   5.700
 2038SOL     OW 7012   1.165   1.482   6.295
 2038SOL    HW1 7013   1.091   1.440   6.242
 2038SOL    HW2 7014   1.170   1.580   6.273
 2039SOL     OW 7015   0.208   5.996   3.972
 2039SOL    HW1 7016   0.269   6.075   3.964
 2039SOL    HW2 7017   0.115   6.029   3.987
 2040SOL     OW 7018   3.573   3.103   4.066
 2040SOL    HW1 7019   3.538   3.132   3.977
 2040SOL    HW2 7020   3.497   3.088   4.129
 2041SOL     OW 7021   5.899   5.675   6.021
 2041SOL    HW1 7022   5.938   5.611   5.955
 2041SOL    HW2 7023   5.958   5.679   6.102
 2042SOL     OW 7024   5.571   5.395   0.878
 2042SOL    HW1 7025   5.604   5.302   0.860
 2042SOL    HW2 7026   5.594   5.421   0.972
 2043SOL     OW 7027   6.256   5.477   2.008
 2043SOL    HW1 7028   6.333   5.540   2.014
 2043SOL    HW2 7029   6.224   5.455   2.100
 2044SOL     OW 7030   5.862   0.022   1.828
 2044SOL    HW1 7031   5.775   7.006   1.802
 2044SOL    HW2 7032   5.845   0.096   1.893
 2045SOL     OW 7033   2.018   4.765   5.357
 2045SOL    HW1 7034   2.045   4.669   5.357
 2045SOL    HW2 7035   2.042   4.807   5.445
 2046SOL     OW 7036   6.762   0.525   4.727
 2046SOL    HW1 7037   6.697   0.527   4.804
 2046SOL    HW2 7038   6.836   0.590   4.744
 2047SOL     OW 7039   4.565   2.153   1.071
 2047SOL    HW1 7040   4.504   2.174   1.148
 2047SOL    HW2 7041   4.522   2.084   1.013
 2048SOL     OW 7042   3.401   6.325   6.963
 2048SOL    HW1 7043   3.420   6.261   6.889
 2048SOL    HW2 7044   3.389   6.417   6.925
 2049SOL     OW 7045   4.883   2.283   6.759
 2049SOL    HW1 7046   4.875   2.214   6.831
 2049SOL    HW2 7047   4.979   2.288   6.729
 2050SOL     OW 7048   6.146   3.103   3.855
 2050SOL    HW1 7049   6.243   3.082   3.850
 2050SOL    HW2 7050   6.133   3.200   3.877
 2051SOL     OW 7051   0.236   5.041   6.662
 2051SOL    HW1 7052   0.174   5.119   6.671
 2051SOL    HW2 7053   0.218   4.994   6.576
 2052SOL     OW 7054   0.247   3.588   6.699
 2052SOL    HW1 7055   0.344   3.595   6.674
 2052SOL    HW2 7056   0.195   3.657   6.650
 2053SOL     OW 7057   6.065   0.060   0.393
 2053SOL    HW1 7058   6.033   0.134   0.452
 2053SOL    HW2 7059   6.130   0.097   0.326
 2054SOL     OW 7060   5.773   2.692   1.215
 2054SOL    HW1 7061   5.796   2.699   1.312
 2054SOL    HW2 7062   5.679   2.658   1.205
 2055SOL     OW 7063   5.535   3.167   2.957
 2055SOL    HW1 7064   5.535   3.080   3.006
 2055SOL    HW2 7065   5.612   3.170   2.893
 2056SOL     OW 7066   1.953   1.549   3.002
 2056SOL    HW1 7067   1.918   1.574   2.911
 2056SOL    HW2 7068   2.051   1.535   2.997
 2057SOL     OW 7069   5.474   2.088   3.918
 2057SOL    HW1 7070   5.562   2.054   3.951
 2057SOL    HW2 7071   5.471   2.187   3.926
 2058SOL     OW 7072   0.980   2.032   3.035
 2058SOL    HW1 7073   0.882   2.046   3.025
 2058SOL    HW2 7074   1.020   2.007   2.947
 2059SOL     OW 7075   2.414   6.854   7.009
 2059SOL    HW1 7076   2.473   6.859   6.928
 2059SOL    HW2 7077   2.464   6.812   0.060
 2060SOL     OW 7078   0.032   4.320   1.268
 2060SOL    HW1 7079   0.033   4.419   1.280
 2060SOL    HW2 7080   0.071   4.276   1.350
 2061SOL     OW 7081   0.393   1.301   2.628
 2061SOL    HW1 7082   0.374   1.217   2.577
 2061SOL    HW2 7083   0.488   1.299   2.661
 2062SOL     OW 7084   5.222   6.989   2.979
 2062SOL    HW1 7085   5.224   0.035   3.048
 2062SOL    HW2 7086   5.139   6.934   2.990
 2063SOL     OW 7087   0.994   1.073   6.866
 2063SOL    HW1 7088   0.925   1.066   6.795
 2063SOL    HW2 7089   1.083   1.093   6.825
 2064SOL     OW 7090   0.647   2.493   5.843
 2064SOL    HW1 7091   0.549   2.473   5.836
 2064SOL    HW2 7092   0.674   2.497   5.939
 2065SOL     OW 7093   5.875   3.747   2.201
 2065SOL    HW1 7094   5.895   3.816   2.131
 2065SOL    HW2 7095   5.828   3.669   2.159
 2066SOL     OW 7096   0.722   5.585   4.520
 2066SOL    HW1 7097   0.746   5.673   4.559
 2066SOL    HW2 7098   0.669   5.598   4.436
 2067SOL     OW 7099   6.956   6.601   0.775
 2067SOL    HW1 7100   0.021   6.597   0.732
 2067SOL    HW2 7101   6.891   6.641   0.710
 2068SOL     OW 7102   1.829   1.006   5.573
 2068SOL    HW1 7103   1.765   0.979   5.645
 2068SOL    HW2 7104   1.790   1.080   5.519
 2069SOL     OW 7105   0.606   2.801   2.429
 2069SOL    HW1 7106   0.572   2.806   2.335
 2069SOL    HW2 7107   0.683   2.864   2.439
 2070SOL     OW 7108   1.797   0.313   2.208
 2070SOL    HW1 7109   1.704   0.289   2.180
 2070SOL    HW2 7110   1.795   0.396   2.263
 2071SOL     OW 7111   0.739   6.664   4.514
 2071SOL    HW1 7112   0.667   6.732   4.523
 2071SOL    HW2 7113   0.737   6.603   4.594
 2072SOL     OW 7114   4.525   5.794   1.710
 2072SOL    HW1 7115   4.519   5.710   1.763
 2072SOL    HW2 7116   4.527   5.873   1.772
 2073SOL     OW 7117   3.810   7.011   4.538
 2073SOL    HW1 7118   3.766   0.059   4.487
 2073SOL    HW2 7119   3.894   0.021   4.581
 2074SOL     OW 7120   0.549   1.894   6.577
 2074SOL    HW1 7121   0.509   1.827   6.514
 2074SOL    HW2 7122   0.634   1.857   6.614
 2075SOL     OW 7123   4.878   3.083   1.500
 2075SOL    HW1 7124   4.924   3.037   1.576
 2075SOL    HW2 7125   4.871   3.021   1.422
 2076SOL     OW 7126   5.448   5.969   6.928
 2076SOL    HW1 7127   5.438   6.064   6.956
 2076SOL    HW2 7128   5.418   5.959   6.833
 2077SOL     OW 7129   5.185   2.517   2.010
 2077SOL    HW1 7130   5.104   2.469   2.043
 2077SOL    HW2 7131   5.242   2.454   1.957
 2078SOL     OW 7132   2.494   6.011   6.494
 2078SOL    HW1 7133   2.512   6.102   6.457
 2078SOL    HW2 7134   2.416   5.970   6.446
 2079SOL     OW 7135   5.514   1.135   3.787
 2079SOL    HW1 7136   5.520   1.233   3.774
 2079SOL    HW2 7137   5.552   1.110   3.876
 2080SOL     OW 7138   2.583   1.192   4.806
 2080SOL    HW1 7139   2.494   1.177   4.764
 2080SOL    HW2 7140   2.572   1.231   4.897
 2081SOL     OW 7141   1.528   5.938   5.279
 2081SOL    HW1 7142   1.561   5.967   5.368
 2081SOL    HW2 7143   1.445   5.988   5.256
 2082SOL     OW 7144   5.850   0.449   1.645
 2082SOL    HW1 7145   5.841   0.547   1.666
 2082SOL    HW2 7146   5.761   0.412   1.618
 2083SOL     OW 7147   4.114   4.406   6.598
 2083SOL    HW1 7148   4.095   4.411   6.696
 2083SOL    HW2 7149   4.134   4.311   6.573
 2084SOL     OW 7150   0.006   3.102   3.919
 2084SOL    HW1 7151   0.099   3.126   3.946
 2084SOL    HW2 7152   7.010   3.144   3.831
 2085SOL     OW 7153   5.231   1.009   6.793
 2085SOL    HW1 7154   5.142   1.016   6.748
 2085SOL    HW2 7155   5.278   0.926   6.761
 2086SOL     OW 7156   2.760   5.675   6.445
 2086SOL    HW1 7157   2.756   5.768   6.408
 2086SOL    HW2 7158   2.709   5.613   6.384
 2087SOL     OW 7159   4.779   6.205   1.585
 2087SOL    HW1 7160   4.815   6.167   1.670
 2087SOL    HW2 7161   4.766   6.303   1.595
 2088SOL     OW 7162   3.384   5.632   0.555
 2088SOL    HW1 7163   3.477   5.650   0.523
 2088SOL    HW2 7164   3.380   5.540   0.594
 2089SOL     OW 7165   4.310   1.475   0.398
 2089SOL    HW1 7166   4.296   1.378   0.376
 2089SOL    HW2 7167   4.391   1.484   0.455
 2090SOL     OW 7168   4.083   3.230   4.518
 2090SOL    HW1 7169   4.016   3.169   4.476
 2090SOL    HW2 7170   4.119   3.293   4.450
 2091SOL     OW 7171   0.518   6.349   6.967
 2091SOL    HW1 7172   0.440   6.333   6.906
 2091SOL    HW2 7173   0.521   6.277   0.011
 2092SOL     OW 7174   5.083   5.587   0.474
 2092SOL    HW1 7175   5.022   5.611   0.398
 2092SOL    HW2 7176   5.155   5.656   0.481
 2093SOL     OW 7177   1.503   1.892   1.744
 2093SOL    HW1 7178   1.561   1.963   1.703
 2093SOL    HW2 7179   1.548   1.803   1.735
 2094SOL     OW 7180   5.851   1.168   1.526
 2094SOL    HW1 7181   5.923   1.101   1.506
 2094SOL    HW2 7182   5.891   1.260   1.528
 2095SOL     OW 7183   5.939   0.350   3.701
 2095SOL    HW1 7184   5.938   0.263   3.652
 2095SOL    HW2 7185   5.999   0.343   3.780
 2096SOL     OW 7186   4.938   3.908   2.683
 2096SOL    HW1 7187   4.931   3.876   2.777
 2096SOL    HW2 7188   5.014   3.861   2.637
 2097SOL     OW 7189   1.354   3.002   6.332
 2097SOL    HW1 7190   1.269   3.032   6.288
 2097SOL    HW2 7191   1.387   2.919   6.287
 2098SOL     OW 7192   3.591   5.876   3.836
 2098SOL    HW1 7193   3.626   5.916   3.751
 2098SOL    HW2 7194   3.647   5.798   3.862
 2099SOL     OW 7195   2.306   1.758   4.893
 2099SOL    HW1 7196   2.250   1.838   4.872
 2099SOL    HW2 7197   2.271   1.678   4.845
 2100SOL     OW 7198   3.843   3.780   6.526
 2100SOL    HW1 7199   3.788   3.752   6.448
 2100SOL    HW2 7200   3.799   3.748   6.611
 2101SOL     OW 7201   1.226   6.649   2.087
 2101SOL    HW1 7202   1.168   6.709   2.142
 2101SOL    HW2 7203   1.288   6.598   2.147
 2102SOL     OW 7204   0.481   5.027   2.009
 2102SOL    HW1 7205   0.446   4.942   1.971
 2102SOL    HW2 7206   0.502   5.014   2.106
 2103SOL     OW 7207   2.812   3.819   0.133
 2103SOL    HW1 7208   2.866   3.867   0.202
 2103SOL    HW2 7209   2.842   3.846   0.041
 2104SOL     OW 7210   1.391   3.625   6.930
 2104SOL    HW1 7211   1.409   3.583   6.840
 2104SOL    HW2 7212   1.478   3.656   6.970
 2105SOL     OW 7213   5.299   5.213   3.681
 2105SOL    HW1 7214   5.326   5.120   3.657
 2105SOL    HW2 7215   5.326   5.275   3.607
 2106SOL     OW 7216   4.238   5.292   0.508
 2106SOL    HW1 7217   4.295   5.282   0.590
 2106SOL    HW2 7218   4.288   5.346   0.440
 2107SOL     OW 7219   4.363   3.011   5.593
 2107SOL    HW1 7220   4.320   3.061   5.518
 2107SOL    HW2 7221   4.447   3.057   5.620
 2108SOL     OW 7222   6.219   6.448   5.928
 2108SOL    HW1 7223   6.243   6.352   5.915
 2108SOL    HW2 7224   6.123   6.455   5.957
 2109SOL     OW 7225   5.207   6.693   3.385
 2109SOL    HW1 7226   5.157   6.694   3.472
 2109SOL    HW2 7227   5.297   6.733   3.397
 2110SOL     OW 7228   3.106   3.663   6.044
 2110SOL    HW1 7229   3.055   3.584   6.011
 2110SOL    HW2 7230   3.136   3.718   5.966
 2111SOL     OW 7231   0.414   1.821   6.166
 2111SOL    HW1 7232   0.407   1.784   6.259
 2111SOL    HW2 7233   0.468   1.759   6.110
 2112SOL     OW 7234   4.778   1.713   1.344
 2112SOL    HW1 7235   4.807   1.754   1.257
 2112SOL    HW2 7236   4.795   1.777   1.418
 2113SOL     OW 7237   1.127   0.183   4.182
 2113SOL    HW1 7238   1.195   0.250   4.212
 2113SOL    HW2 7239   1.047   0.231   4.146
 2114SOL     OW 7240   1.642   2.842   0.551
 2114SOL    HW1 7241   1.618   2.875   0.460
 2114SOL    HW2 7242   1.588   2.892   0.619
 2115SOL     OW 7243   1.997   4.237   2.788
 2115SOL    HW1 7244   1.920   4.278   2.837
 2115SOL    HW2 7245   2.069   4.306   2.774
 2116SOL     OW 7246   0.095   4.151   3.309
 2116SOL    HW1 7247   0.110   4.234   3.254
 2116SOL    HW2 7248   0.122   4.071   3.256
 2117SOL     OW 7249   6.822   4.799   1.713
 2117SOL    HW1 7250   6.858   4.750   1.634
 2117SOL    HW2 7251   6.722   4.797   1.710
 2118SOL     OW 7252   0.192   3.188   2.560
 2118SOL    HW1 7253   0.242   3.156   2.480
 2118SOL    HW2 7254   0.255   3.196   2.637
 2119SOL     OW 7255   2.257   5.579   0.744
 2119SOL    HW1 7256   2.158   5.579   0.753
 2119SOL    HW2 7257   2.283   5.637   0.667
 2120SOL     OW 7258   6.886   5.530   3.591
 2120SOL    HW1 7259   6.978   5.567   3.590
 2120SOL    HW2 7260   6.828   5.583   3.653
 2121SOL     OW 7261   1.272   4.459   5.778
 2121SOL    HW1 7262   1.186   4.434   5.824
 2121SOL    HW2 7263   1.262   4.549   5.736
 2122SOL     OW 7264   6.454   4.048   5.302
 2122SOL    HW1 7265   6.508   4.114   5.250
 2122SOL    HW2 7266   6.357   4.066   5.289
 2123SOL     OW 7267   0.482   4.480   2.696
 2123SOL    HW1 7268   0.555   4.453   2.633
 2123SOL    HW2 7269   0.427   4.552   2.654
 2124SOL     OW 7270   2.154   1.264   1.783
 2124SOL    HW1 7271   2.160   1.295   1.689
 2124SOL    HW2 7272   2.242   1.228   1.813
 2125SOL     OW 7273   1.499   0.360   0.796
 2125SOL    HW1 7274   1.423   0.338   0.857
 2125SOL    HW2 7275   1.465   0.406   0.714
 2126SOL     OW 7276   2.989   0.552   1.366
 2126SOL    HW1 7277   2.941   0.522   1.283
 2126SOL    HW2 7278   2.929   0.537   1.445
 2127SOL     OW 7279   6.186   3.488   4.649
 2127SOL    HW1 7280   6.281   3.488   4.619
 2127SOL    HW2 7281   6.127   3.457   4.574
 2128SOL     OW 7282   0.084   4.424   4.404
 2128SOL    HW1 7283   0.088   4.502   4.467
 2128SOL    HW2 7284   7.020   4.380   4.411
 2129SOL     OW 7285   4.515   2.798   5.644
 2129SOL    HW1 7286   4.484   2.748   5.725
 2129SOL    HW2 7287   4.449   2.869   5.621
 2130SOL     OW 7288   4.968   6.854   2.660
 2130SOL    HW1 7289   4.874   6.881   2.683
 2130SOL    HW2 7290   5.017   6.933   2.624
 2131SOL     OW 7291   0.029   0.909   0.988
 2131SOL    HW1 7292   0.033   0.993   0.934
 2131SOL    HW2 7293   0.090   0.840   0.947
 2132SOL     OW 7294   4.258   2.815   1.180
 2132SOL    HW1 7295   4.334   2.853   1.232
 2132SOL    HW2 7296   4.193   2.771   1.243
 2133SOL     OW 7297   3.055   2.496   5.419
 2133SOL    HW1 7298   3.113   2.452   5.351
 2133SOL    HW2 7299   2.959   2.478   5.398
 2134SOL     OW 7300   0.148   2.198   0.805
 2134SOL    HW1 7301   0.154   2.151   0.893
 2134SOL    HW2 7302   0.213   2.274   0.804
 2135SOL     OW 7303   0.344   4.383   4.284
 2135SOL    HW1 7304   0.391   4.469   4.305
 2135SOL    HW2 7305   0.247   4.391   4.308
 2136SOL     OW 7306   2.536   5.103   2.431
 2136SOL    HW1 7307   2.509   5.194   2.400
 2136SOL    HW2 7308   2.636   5.096   2.433
 2137SOL     OW 7309   2.899   5.001   5.242
 2137SOL    HW1 7310   2.966   5.074   5.234
 2137SOL    HW2 7311   2.814   5.037   5.280
 2138SOL     OW 7312   6.273   0.828   2.893
 2138SOL    HW1 7313   6.270   0.925   2.917
 2138SOL    HW2 7314   6.341   0.813   2.821
 2139SOL     OW 7315   3.805   0.476   4.800
 2139SOL    HW1 7316   3.771   0.483   4.894
 2139SOL    HW2 7317   3.780   0.558   4.750
 2140SOL     OW 7318   3.322   6.793   4.530
 2140SOL    HW1 7319   3.362   6.821   4.443
 2140SOL    HW2 7320   3.230   6.832   4.538
 2141SOL     OW 7321   6.214   3.738   2.181
 2141SOL    HW1 7322   6.309   3.714   2.200
 2141SOL    HW2 7323   6.158   3.656   2.183
 2142SOL     OW 7324   1.066   1.829   3.473
 2142SOL    HW1 7325   1.049   1.822   3.374
 2142SOL    HW2 7326   1.133   1.760   3.501
 2143SOL     OW 7327   1.947   5.272   1.000
 2143SOL    HW1 7328   1.858   5.226   0.999
 2143SOL    HW2 7329   2.012   5.218   0.946
 2144SOL     OW 7330   0.336   5.124   4.298
 2144SOL    HW1 7331   0.433   5.116   4.275
 2144SOL    HW2 7332   0.296   5.198   4.245
 2145SOL     OW 7333   3.948   6.683   4.144
 2145SOL    HW1 7334   3.972   6.749   4.215
 2145SOL    HW2 7335   3.906   6.603   4.185
 2146SOL     OW 7336   2.041   2.198   1.110
 2146SOL    HW1 7337   1.948   2.216   1.143
 2146SOL    HW2 7338   2.103   2.189   1.188
 2147SOL     OW 7339   6.718   1.506   6.417
 2147SOL    HW1 7340   6.733   1.416   6.458
 2147SOL    HW2 7341   6.636   1.504   6.360
 2148SOL     OW 7342   6.729   3.318   6.492
 2148SOL    HW1 7343   6.737   3.255   6.415
 2148SOL    HW2 7344   6.633   3.337   6.510
 2149SOL     OW 7345   1.545   1.596   1.226
 2149SOL    HW1 7346   1.640   1.619   1.250
 2149SOL    HW2 7347   1.520   1.643   1.142
 2150SOL     OW 7348   2.712   2.518   1.732
 2150SOL    HW1 7349   2.638   2.544   1.794
 2150SOL    HW2 7350   2.783   2.470   1.784
 2151SOL     OW 7351   1.119   6.172   6.673
 2151SOL    HW1 7352   1.057   6.097   6.695
 2151SOL    HW2 7353   1.066   6.257   6.661
 2152SOL     OW 7354   3.619   4.860   2.456
 2152SOL    HW1 7355   3.642   4.850   2.359
 2152SOL    HW2 7356   3.521   4.846   2.468
 2153SOL     OW 7357   4.950   1.802   2.473
 2153SOL    HW1 7358   4.990   1.858   2.545
 2153SOL    HW2 7359   4.980   1.707   2.484
 2154SOL     OW 7360   2.772   6.826   4.385
 2154SOL    HW1 7361   2.852   6.780   4.346
 2154SOL    HW2 7362   2.748   6.783   4.472
 2155SOL     OW 7363   4.127   6.717   0.865
 2155SOL    HW1 7364   4.055   6.653   0.890
 2155SOL    HW2 7365   4.095   6.811   0.876
 2156SOL     OW 7366   6.861   0.401   4.476
 2156SOL    HW1 7367   6.901   0.310   4.484
 2156SOL    HW2 7368   6.835   0.435   4.567
 2157SOL     OW 7369   4.722   5.760   3.775
 2157SOL    HW1 7370   4.699   5.849   3.736
 2157SOL    HW2 7371   4.804   5.770   3.831
 2158SOL     OW 7372   4.224   6.335   0.783
 2158SOL    HW1 7373   4.249   6.238   0.785
 2158SOL    HW2 7374   4.283   6.383   0.718
 2159SOL     OW 7375   1.783   0.630   5.039
 2159SOL    HW1 7376   1.791   0.721   4.999
 2159SOL    HW2 7377   1.709   0.630   5.106
 2160SOL     OW 7378   5.131   4.974   6.364
 2160SOL    HW1 7379   5.210   4.995   6.422
 2160SOL    HW2 7380   5.102   4.879   6.381
 2161SOL     OW 7381   6.578   3.913   2.089
 2161SOL    HW1 7382   6.540   3.969   2.016
 2161SOL    HW2 7383   6.670   3.945   2.112
 2162SOL     OW 7384   2.660   6.985   2.919
 2162SOL    HW1 7385   2.660   0.042   2.975
 2162SOL    HW2 7386   2.688   6.907   2.975
 2163SOL     OW 7387   1.622   3.898   0.291
 2163SOL    HW1 7388   1.629   3.861   0.383
 2163SOL    HW2 7389   1.527   3.896   0.261
 2164SOL     OW 7390   2.236   2.710   6.969
 2164SOL    HW1 7391   2.139   2.710   6.944
 2164SOL    HW2 7392   2.283   2.784   6.920
 2165SOL     OW 7393   0.649   1.918   4.112
 2165SOL    HW1 7394   0.568   1.939   4.057
 2165SOL    HW2 7395   0.725   1.893   4.051
 2166SOL     OW 7396   0.166   4.139   4.202
 2166SOL    HW1 7397   0.131   4.226   4.167
 2166SOL    HW2 7398   0.263   4.132   4.182
 2167SOL     OW 7399   0.707   3.012   3.965
 2167SOL    HW1 7400   0.745   2.983   4.053
 2167SOL    HW2 7401   0.662   2.935   3.920
 2168SOL     OW 7402   0.971   1.892   2.492
 2168SOL    HW1 7403   0.911   1.838   2.434
 2168SOL    HW2 7404   1.063   1.851   2.492
 2169SOL     OW 7405   0.139   0.158   0.943
 2169SOL    HW1 7406   0.046   0.169   0.909
 2169SOL    HW2 7407   0.188   0.092   0.886
 2170SOL     OW 7408   6.855   4.247   4.430
 2170SOL    HW1 7409   6.882   4.209   4.341
 2170SOL    HW2 7410   6.910   4.206   4.502
 2171SOL     OW 7411   0.768   5.893   1.453
 2171SOL    HW1 7412   0.831   5.952   1.403
 2171SOL    HW2 7413   0.697   5.859   1.392
 2172SOL     OW 7414   1.965   1.877   5.733
 2172SOL    HW1 7415   2.043   1.887   5.671
 2172SOL    HW2 7416   1.899   1.951   5.718
 2173SOL     OW 7417   4.986   0.251   5.929
 2173SOL    HW1 7418   4.979   0.346   5.961
 2173SOL    HW2 7419   5.005   0.251   5.831
 2174SOL     OW 7420   6.993   6.591   4.911
 2174SOL    HW1 7421   7.022   6.660   4.978
 2174SOL    HW2 7422   0.024   6.509   4.921
 2175SOL     OW 7423   1.833   2.524   4.815
 2175SOL    HW1 7424   1.818   2.433   4.774
 2175SOL    HW2 7425   1.931   2.539   4.826
 2176SOL     OW 7426   5.195   2.036   1.236
 2176SOL    HW1 7427   5.150   2.126   1.234
 2176SOL    HW2 7428   5.172   1.986   1.153
 2177SOL     OW 7429   6.517   0.517   2.183
 2177SOL    HW1 7430   6.526   0.419   2.165
 2177SOL    HW2 7431   6.481   0.563   2.101
 2178SOL     OW 7432   1.121   1.169   2.131
 2178SOL    HW1 7433   1.161   1.120   2.208
 2178SOL    HW2 7434   1.184   1.241   2.101
 2179SOL     OW 7435   1.832   3.215   6.350
 2179SOL    HW1 7436   1.860   3.280   6.421
 2179SOL    HW2 7437   1.833   3.259   6.261
 2180SOL     OW 7438   1.361   3.014   1.983
 2180SOL    HW1 7439   1.311   3.072   2.048
 2180SOL    HW2 7440   1.330   2.919   1.992
 2181SOL     OW 7441   4.519   5.147   4.182
 2181SOL    HW1 7442   4.518   5.182   4.088
 2181SOL    HW2 7443   4.564   5.214   4.242
 2182SOL     OW 7444   0.916   4.740   3.889
 2182SOL    HW1 7445   0.936   4.677   3.814
 2182SOL    HW2 7446   0.819   4.763   3.889
 2183SOL     OW 7447   2.409   3.847   0.509
 2183SOL    HW1 7448   2.347   3.921   0.482
 2183SOL    HW2 7449   2.463   3.817   0.430
 2184SOL     OW 7450   4.169   0.155   6.246
 2184SOL    HW1 7451   4.157   0.124   6.152
 2184SOL    HW2 7452   4.140   0.250   6.254
 2185SOL     OW 7453   1.367   0.905   6.971
 2185SOL    HW1 7454   1.379   0.806   6.963
 2185SOL    HW2 7455   1.371   0.947   6.880
 2186SOL     OW 7456   6.291   5.952   6.229
 2186SOL    HW1 7457   6.312   5.886   6.156
 2186SOL    HW2 7458   6.347   6.033   6.218
 2187SOL     OW 7459   0.061   6.140   2.357
 2187SOL    HW1 7460   0.060   6.239   2.345
 2187SOL    HW2 7461   0.058   6.095   2.268
 2188SOL     OW 7462   2.029   5.203   5.557
 2188SOL    HW1 7463   2.053   5.255   5.475
 2188SOL    HW2 7464   1.930   5.190   5.560
 2189SOL     OW 7465   1.531   0.257   2.155
 2189SOL    HW1 7466   1.488   0.213   2.076
 2189SOL    HW2 7467   1.484   0.343   2.175
 2190SOL     OW 7468   6.523   3.564   1.925
 2190SOL    HW1 7469   6.488   3.639   1.869
 2190SOL    HW2 7470   6.499   3.581   2.021
 2191SOL     OW 7471   2.723   1.326   5.589
 2191SOL    HW1 7472   2.823   1.328   5.595
 2191SOL    HW2 7473   2.693   1.242   5.544
 2192SOL     OW 7474   5.289   0.387   2.614
 2192SOL    HW1 7475   5.323   0.449   2.685
 2192SOL    HW2 7476   5.254   0.304   2.658
 2193SOL     OW 7477   6.618   0.210   5.959
 2193SOL    HW1 7478   6.620   0.299   5.914
 2193SOL    HW2 7479   6.567   0.145   5.902
 2194SOL     OW 7480   1.050   3.952   5.873
 2194SOL    HW1 7481   0.990   4.010   5.928
 2194SOL    HW2 7482   1.138   3.942   5.919
 2195SOL     OW 7483   0.127   6.358   5.348
 2195SOL    HW1 7484   0.154   6.418   5.273
 2195SOL    HW2 7485   0.028   6.354   5.355
 2196SOL     OW 7486   3.266   6.629   5.293
 2196SOL    HW1 7487   3.281   6.666   5.202
 2196SOL    HW2 7488   3.354   6.604   5.334
 2197SOL     OW 7489   2.961   3.520   6.332
 2197SOL    HW1 7490   2.886   3.568   6.376
 2197SOL    HW2 7491   3.047   3.563   6.356
 2198SOL     OW 7492   6.470   6.880   0.778
 2198SOL    HW1 7493   6.377   6.898   0.745
 2198SOL    HW2 7494   6.470   6.796   0.833
 2199SOL     OW 7495   5.211   0.338   4.846
 2199SOL    HW1 7496   5.217   0.437   4.862
 2199SOL    HW2 7497   5.237   0.290   4.930
 2200SOL     OW 7498   2.517   1.523   4.010
 2200SOL    HW1 7499   2.466   1.455   3.956
 2200SOL    HW2 7500   2.453   1.589   4.049
 2201SOL     OW 7501   6.071   3.106   3.177
 2201SOL    HW1 7502   6.152   3.057   3.145
 2201SOL    HW2 7503   5.988   3.059   3.146
 2202SOL     OW 7504   3.318   5.581   2.253
 2202SOL    HW1 7505   3.308   5.490   2.213
 2202SOL    HW2 7506   3.359   5.643   2.187
 2203SOL     OW 7507   2.789   3.497   1.493
 2203SOL    HW1 7508   2.771   3.427   1.424
 2203SOL    HW2 7509   2.702   3.529   1.531
 2204SOL     OW 7510   4.448   2.679   0.510
 2204SOL    HW1 7511   4.499   2.727   0.581
 2204SOL    HW2 7512   4.379   2.620   0.553
 2205SOL     OW 7513   1.349   7.012   0.212
 2205SOL    HW1 7514   1.388   7.019   0.304
 2205SOL    HW2 7515   1.403   6.948   0.157
 2206SOL     OW 7516   2.433   4.469   6.141
 2206SOL    HW1 7517   2.435   4.569   6.131
 2206SOL    HW2 7518   2.507   4.441   6.203
 2207SOL     OW 7519   3.407   4.677   0.173
 2207SOL    HW1 7520   3.472   4.644   0.241
 2207SOL    HW2 7521   3.332   4.724   0.219
 2208SOL     OW 7522   0.520   5.381   3.065
 2208SOL    HW1 7523   0.467   5.421   2.989
 2208SOL    HW2 7524   0.566   5.453   3.115
 2209SOL     OW 7525   2.861   6.041   4.728
 2209SOL    HW1 7526   2.763   6.063   4.722
 2209SOL    HW2 7527   2.872   5.943   4.744
 2210SOL     OW 7528   6.632   5.540   3.045
 2210SOL    HW1 7529   6.705   5.594   3.087
 2210SOL    HW2 7530   6.558   5.601   3.017
 2211SOL     OW 7531   6.407   0.571   0.460
 2211SOL    HW1 7532   6.484   0.623   0.423
 2211SOL    HW2 7533   6.322   0.621   0.444
 2212SOL     OW 7534   1.698   5.379   0.167
 2212SOL    HW1 7535   1.670   5.400   0.261
 2212SOL    HW2 7536   1.720   5.464   0.119
 2213SOL     OW 7537   4.443   2.631   5.830
 2213SOL    HW1 7538   4.501   2.562   5.787
 2213SOL    HW2 7539   4.349   2.596   5.835
 2214SOL     OW 7540   3.056   3.487   4.881
 2214SOL    HW1 7541   3.000   3.406   4.900
 2214SOL    HW2 7542   3.096   3.520   4.967
 2215SOL     OW 7543   5.924   1.733   6.532
 2215SOL    HW1 7544   5.828   1.749   6.510
 2215SOL    HW2 7545   5.931   1.692   6.623
 2216SOL     OW 7546   7.009   0.806   5.683
 2216SOL    HW1 7547   6.913   0.779   5.692
 2216SOL    HW2 7548   0.007   0.812   5.586
 2217SOL     OW 7549   4.480   7.025   2.820
 2217SOL    HW1 7550   4.438   0.076   2.771
 2217SOL    HW2 7551   4.422   6.944   2.810
 2218SOL     OW 7552   6.950   4.991   6.670
 2218SOL    HW1 7553   6.864   4.975   6.622
 2218SOL    HW2 7554   6.964   5.090   6.681
 2219SOL     OW 7555   6.412   2.103   1.272
 2219SOL    HW1 7556   6.346   2.105   1.196
 2219SOL    HW2 7557   6.374   2.049   1.347
 2220SOL     OW 7558   1.456   5.634   5.606
 2220SOL    HW1 7559   1.451   5.732   5.626
 2220SOL    HW2 7560   1.535   5.616   5.548
 2221SOL     OW 7561   6.663   1.699   5.353
 2221SOL    HW1 7562   6.663   1.797   5.370
 2221SOL    HW2 7563   6.615   1.651   5.427
 2222SOL     OW 7564   6.110   0.354   0.764
 2222SOL    HW1 7565   6.073   0.435   0.809
 2222SOL    HW2 7566   6.202   0.374   0.729
 2223SOL     OW 7567   6.321   1.535   6.420
 2223SOL    HW1 7568   6.302   1.628   6.388
 2223SOL    HW2 7569   6.238   1.496   6.461
 2224SOL     OW 7570   5.978   3.294   1.859
 2224SOL    HW1 7571   6.069   3.336   1.855
 2224SOL    HW2 7572   5.919   3.347   1.920
 2225SOL     OW 7573   6.648   6.735   3.447
 2225SOL    HW1 7574   6.695   6.650   3.421
 2225SOL    HW2 7575   6.707   6.813   3.425
 2226SOL     OW 7576   3.445   5.408   0.883
 2226SOL    HW1 7577   3.471   5.499   0.916
 2226SOL    HW2 7578   3.417   5.415   0.787
 2227SOL     OW 7579   4.991   2.670   1.533
 2227SOL    HW1 7580   4.962   2.755   1.576
 2227SOL    HW2 7581   4.911   2.620   1.500
 2228SOL     OW 7582   3.959   5.263   0.475
 2228SOL    HW1 7583   3.928   5.199   0.545
 2228SOL    HW2 7584   4.057   5.280   0.486
 2229SOL     OW 7585   4.082   3.245   4.986
 2229SOL    HW1 7586   3.995   3.281   5.022
 2229SOL    HW2 7587   4.065   3.200   4.898
 2230SOL     OW 7588   5.508   6.515   0.904
 2230SOL    HW1 7589   5.484   6.457   0.982
 2230SOL    HW2 7590   5.607   6.526   0.899
 2231SOL     OW 7591   0.429   0.624   0.287
 2231SOL    HW1 7592   0.349   0.676   0.317
 2231SOL    HW2 7593   0.408   0.526   0.291
 2232SOL     OW 7594   1.150   1.401   5.015
 2232SOL    HW1 7595   1.229   1.434   4.964
 2232SOL    HW2 7596   1.074   1.384   4.951
 2233SOL     OW 7597   2.486   3.179   0.658
 2233SOL    HW1 7598   2.573   3.176   0.610
 2233SOL    HW2 7599   2.483   3.106   0.727
 2234SOL     OW 7600   3.564   1.367   0.680
 2234SOL    HW1 7601   3.629   1.370   0.756
 2234SOL    HW2 7602   3.472   1.350   0.716
 2235SOL     OW 7603   2.721   0.101   1.796
 2235SOL    HW1 7604   2.665   0.071   1.718
 2235SOL    HW2 7605   2.675   0.176   1.843
 2236SOL     OW 7606   1.939   3.527   6.261
 2236SOL    HW1 7607   1.986   3.466   6.198
 2236SOL    HW2 7608   1.968   3.508   6.355
 2237SOL     OW 7609   6.189   4.964   4.449
 2237SOL    HW1 7610   6.163   5.016   4.368
 2237SOL    HW2 7611   6.147   4.874   4.446
 2238SOL     OW 7612   4.346   5.197   2.362
 2238SOL    HW1 7613   4.394   5.130   2.418
 2238SOL    HW2 7614   4.350   5.169   2.266
 2239SOL     OW 7615   4.794   6.124   3.970
 2239SOL    HW1 7616   4.733   6.202   3.953
 2239SOL    HW2 7617   4.803   6.111   4.069
 2240SOL     OW 7618   3.529   5.441   2.839
 2240SOL    HW1 7619   3.628   5.432   2.825
 2240SOL    HW2 7620   3.509   5.437   2.937
 2241SOL     OW 7621   6.633   6.317   2.079
 2241SOL    HW1 7622   6.558   6.309   2.145
 2241SOL    HW2 7623   6.699   6.244   2.095
 2242SOL     OW 7624   5.063   3.558   2.631
 2242SOL    HW1 7625   5.025   3.565   2.539
 2242SOL    HW2 7626   5.157   3.591   2.631
 2243SOL     OW 7627   2.021   7.009   6.999
 2243SOL    HW1 7628   2.049   0.011   6.907
 2243SOL    HW2 7629   2.095   0.002   0.038
 2244SOL     OW 7630   2.947   6.980   1.763
 2244SOL    HW1 7631   2.864   0.008   1.777
 2244SOL    HW2 7632   2.946   6.900   1.823
 2245SOL     OW 7633   0.575   1.532   1.281
 2245SOL    HW1 7634   0.505   1.588   1.325
 2245SOL    HW2 7635   0.539   1.440   1.266
 2246SOL     OW 7636   2.308   0.724   4.339
 2246SOL    HW1 7637   2.337   0.768   4.424
 2246SOL    HW2 7638   2.364   0.642   4.323
 2247SOL     OW 7639   2.910   3.302   3.480
 2247SOL    HW1 7640   2.851   3.268   3.554
 2247SOL    HW2 7641   2.984   3.237   3.464
 2248SOL     OW 7642   6.266   4.035   4.656
 2248SOL    HW1 7643   6.329   4.065   4.585
 2248SOL    HW2 7644   6.174   4.028   4.619
 2249SOL     OW 7645   5.147   6.638   3.856
 2249SOL    HW1 7646   5.125   6.691   3.937
 2249SOL    HW2 7647   5.245   6.615   3.856
 2250SOL     OW 7648   3.305   3.706   5.325
 2250SOL    HW1 7649   3.291   3.746   5.415
 2250SOL    HW2 7650   3.345   3.614   5.334
 2251SOL     OW 7651   5.121   0.291   6.437
 2251SOL    HW1 7652   5.104   0.214   6.499
 2251SOL    HW2 7653   5.150   0.370   6.491
 2252SOL     OW 7654   4.739   1.438   3.124
 2252SOL    HW1 7655   4.656   1.494   3.131
 2252SOL    HW2 7656   4.744   1.376   3.202
 2253SOL     OW 7657   6.865   3.296   0.020
 2253SOL    HW1 7658   6.809   3.367   7.004
 2253SOL    HW2 7659   6.873   3.219   6.982
 2254SOL     OW 7660   3.138   3.021   4.367
 2254SOL    HW1 7661   3.080   3.102   4.362
 2254SOL    HW2 7662   3.083   2.939   4.348
 2255SOL     OW 7663   3.631   3.638   5.893
 2255SOL    HW1 7664   3.713   3.695   5.882
 2255SOL    HW2 7665   3.554   3.696   5.920
 2256SOL     OW 7666   5.315   6.978   2.355
 2256SOL    HW1 7667   5.371   6.906   2.313
 2256SOL    HW2 7668   5.372   0.007   2.416
 2257SOL     OW 7669   0.485   1.584   4.369
 2257SOL    HW1 7670   0.515   1.575   4.464
 2257SOL    HW2 7671   0.411   1.652   4.363
 2258SOL     OW 7672   1.297   5.908   4.806
 2258SOL    HW1 7673   1.328   5.815   4.783
 2258SOL    HW2 7674   1.371   5.957   4.851
 2259SOL     OW 7675   5.619   2.690   5.320
 2259SOL    HW1 7676   5.714   2.720   5.328
 2259SOL    HW2 7677   5.614   2.614   5.255
 2260SOL     OW 7678   0.305   3.666   0.930
 2260SOL    HW1 7679   0.301   3.566   0.926
 2260SOL    HW2 7680   0.222   3.701   0.972
 2261SOL     OW 7681   6.506   5.211   0.736
 2261SOL    HW1 7682   6.504   5.188   0.833
 2261SOL    HW2 7683   6.415   5.199   0.696
 2262SOL     OW 7684   6.141   0.198   2.801
 2262SOL    HW1 7685   6.182   0.268   2.861
 2262SOL    HW2 7686   6.189   0.111   2.813
 2263SOL     OW 7687   2.447   6.089   0.403
 2263SOL    HW1 7688   2.478   6.073   0.310
 2263SOL    HW2 7689   2.363   6.039   0.420
 2264SOL     OW 7690   3.316   6.355   6.234
 2264SOL    HW1 7691   3.282   6.274   6.282
 2264SOL    HW2 7692   3.362   6.327   6.150
 2265SOL     OW 7693   1.944   0.991   4.364
 2265SOL    HW1 7694   1.995   0.955   4.287
 2265SOL    HW2 7695   1.949   0.926   4.441
 2266SOL     OW 7696   5.058   1.919   6.338
 2266SOL    HW1 7697   5.017   1.907   6.248
 2266SOL    HW2 7698   5.150   1.955   6.329
 2267SOL     OW 7699   4.940   3.302   5.208
 2267SOL    HW1 7700   4.981   3.275   5.296
 2267SOL    HW2 7701   4.843   3.280   5.208
 2268SOL     OW 7702   5.807   4.487   6.369
 2268SOL    HW1 7703   5.724   4.462   6.318
 2268SOL    HW2 7704   5.783   4.509   6.463
 2269SOL     OW 7705   0.654   3.843   5.242
 2269SOL    HW1 7706   0.564   3.840   5.286
 2269SOL    HW2 7707   0.670   3.935   5.207
 2270SOL     OW 7708   4.182   2.734   6.013
 2270SOL    HW1 7709   4.184   2.663   5.942
 2270SOL    HW2 7710   4.207   2.822   5.973
 2271SOL     OW 7711   5.664   4.778   6.770
 2271SOL    HW1 7712   5.682   4.747   6.863
 2271SOL    HW2 7713   5.584   4.838   6.769
 2272SOL     OW 7714   5.897   1.078   6.787
 2272SOL    HW1 7715   5.859   1.091   6.879
 2272SOL    HW2 7716   5.953   0.995   6.786
 2273SOL     OW 7717   1.486   1.702   2.209
 2273SOL    HW1 7718   1.430   1.765   2.154
 2273SOL    HW2 7719   1.566   1.751   2.245
 2274SOL     OW 7720   0.426   1.705   6.423
 2274SOL    HW1 7721   0.336   1.724   6.463
 2274SOL    HW2 7722   0.461   1.618   6.459
 2275SOL     OW 7723   6.287   6.888   3.241
 2275SOL    HW1 7724   6.375   6.876   3.195
 2275SOL    HW2 7725   6.298   6.953   3.317
 2276SOL     OW 7726   2.335   5.510   1.757
 2276SOL    HW1 7727   2.400   5.571   1.712
 2276SOL    HW2 7728   2.337   5.420   1.712
 2277SOL     OW 7729   3.605   4.149   4.398
 2277SOL    HW1 7730   3.525   4.164   4.340
 2277SOL    HW2 7731   3.687   4.151   4.342
 2278SOL     OW 7732   5.868   3.124   4.150
 2278SOL    HW1 7733   5.848   3.029   4.129
 2278SOL    HW2 7734   5.845   3.182   4.072
 2279SOL     OW 7735   5.827   0.241   5.184
 2279SOL    HW1 7736   5.728   0.241   5.201
 2279SOL    HW2 7737   5.875   0.210   5.266
 2280SOL     OW 7738   6.750   6.900   4.469
 2280SOL    HW1 7739   6.832   6.957   4.463
 2280SOL    HW2 7740   6.675   6.954   4.508
 2281SOL     OW 7741   3.884   0.672   1.814
 2281SOL    HW1 7742   3.824   0.636   1.743
 2281SOL    HW2 7743   3.974   0.628   1.807
 2282SOL     OW 7744   5.351   6.624   5.342
 2282SOL    HW1 7745   5.322   6.669   5.258
 2282SOL    HW2 7746   5.331   6.526   5.337
 2283SOL     OW 7747   1.891   0.005   1.882
 2283SOL    HW1 7748   1.872   0.065   1.960
 2283SOL    HW2 7749   1.861   6.938   1.904
 2284SOL     OW 7750   1.210   3.220   6.462
 2284SOL    HW1 7751   1.264   3.142   6.431
 2284SOL    HW2 7752   1.207   3.290   6.390
 2285SOL     OW 7753   1.003   2.763   0.379
 2285SOL    HW1 7754   1.005   2.847   0.433
 2285SOL    HW2 7755   0.909   2.742   0.351
 2286SOL     OW 7756   5.523   0.217   3.217
 2286SOL    HW1 7757   5.587   0.210   3.141
 2286SOL    HW2 7758   5.432   0.190   3.187
 2287SOL     OW 7759   2.220   0.359   3.656
 2287SOL    HW1 7760   2.288   0.306   3.707
 2287SOL    HW2 7761   2.237   0.456   3.667
 2288SOL     OW 7762   6.021   4.968   3.914
 2288SOL    HW1 7763   6.001   5.053   3.865
 2288SOL    HW2 7764   5.938   4.914   3.923
 2289SOL     OW 7765   6.839   5.021   0.772
 2289SOL    HW1 7766   6.748   4.994   0.804
 2289SOL    HW2 7767   6.901   4.943   0.777
 2290SOL     OW 7768   0.728   3.809   1.249
 2290SOL    HW1 7769   0.648   3.791   1.192
 2290SOL    HW2 7770   0.795   3.864   1.198
 2291SOL     OW 7771   2.322   2.268   5.714
 2291SOL    HW1 7772   2.227   2.289   5.690
 2291SOL    HW2 7773   2.368   2.351   5.744
 2292SOL     OW 7774   0.996   2.064   4.255
 2292SOL    HW1 7775   1.078   2.093   4.305
 2292SOL    HW2 7776   0.925   2.038   4.320
 2293SOL     OW 7777   4.892   6.573   1.378
 2293SOL    HW1 7778   4.815   6.559   1.441
 2293SOL    HW2 7779   4.977   6.581   1.430
 2294SOL     OW 7780   3.129   0.672   0.469
 2294SOL    HW1 7781   3.170   0.612   0.400
 2294SOL    HW2 7782   3.187   0.753   0.479
 2295SOL     OW 7783   0.530   1.940   2.661
 2295SOL    HW1 7784   0.502   1.853   2.620
 2295SOL    HW2 7785   0.448   1.993   2.685
 2296SOL     OW 7786   3.621   5.783   0.497
 2296SOL    HW1 7787   3.615   5.883   0.489
 2296SOL    HW2 7788   3.682   5.748   0.427
 2297SOL     OW 7789   3.556   4.198   5.115
 2297SOL    HW1 7790   3.481   4.225   5.175
 2297SOL    HW2 7791   3.604   4.279   5.082
 2298SOL     OW 7792   4.245   2.887   1.733
 2298SOL    HW1 7793   4.208   2.857   1.820
 2298SOL    HW2 7794   4.279   2.981   1.741
 2299SOL     OW 7795   5.087   6.778   6.508
 2299SOL    HW1 7796   5.150   6.749   6.581
 2299SOL    HW2 7797   5.068   6.699   6.449
 2300SOL     OW 7798   2.762   4.494   1.666
 2300SOL    HW1 7799   2.831   4.480   1.737
 2300SOL    HW2 7800   2.759   4.591   1.640
 2301SOL     OW 7801   3.102   3.102   3.502
 2301SOL    HW1 7802   3.185   3.051   3.479
 2301SOL    HW2 7803   3.103   3.127   3.598
 2302SOL     OW 7804   3.662   6.708   1.718
 2302SOL    HW1 7805   3.638   6.776   1.787
 2302SOL    HW2 7806   3.581   6.654   1.695
 2303SOL     OW 7807   1.950   3.423   6.515
 2303SOL    HW1 7808   1.938   3.477   6.598
 2303SOL    HW2 7809   2.021   3.354   6.530
 2304SOL     OW 7810   3.215   0.095   3.182
 2304SOL    HW1 7811   3.184   0.068   3.091
 2304SOL    HW2 7812   3.205   0.194   3.194
 2305SOL     OW 7813   2.804   6.277   3.031
 2305SOL    HW1 7814   2.790   6.343   2.957
 2305SOL    HW2 7815   2.782   6.185   2.998
 2306SOL     OW 7816   2.406   5.029   1.811
 2306SOL    HW1 7817   2.392   5.128   1.823
 2306SOL    HW2 7818   2.352   4.997   1.733
 2307SOL     OW 7819   1.666   3.465   2.339
 2307SOL    HW1 7820   1.592   3.470   2.406
 2307SOL    HW2 7821   1.742   3.523   2.368
 2308SOL     OW 7822   1.658   6.607   0.002
 2308SOL    HW1 7823   1.634   6.549   6.949
 2308SOL    HW2 7824   1.699   6.551   0.074
 2309SOL     OW 7825   3.371   6.600   6.896
 2309SOL    HW1 7826   3.414   6.658   6.827
 2309SOL    HW2 7827   3.275   6.587   6.873
 2310SOL     OW 7828   5.787   6.345   1.852
 2310SOL    HW1 7829   5.798   6.443   1.839
 2310SOL    HW2 7830   5.877   6.302   1.852
 2311SOL     OW 7831   2.380   6.103   2.624
 2311SOL    HW1 7832   2.408   6.194   2.652
 2311SOL    HW2 7833   2.427   6.034   2.680
 2312SOL     OW 7834   3.806   6.324   4.187
 2312SOL    HW1 7835   3.708   6.340   4.201
 2312SOL    HW2 7836   3.823   6.306   4.090
 2313SOL     OW 7837   5.184   5.467   2.110
 2313SOL    HW1 7838   5.090   5.438   2.126
 2313SOL    HW2 7839   5.228   5.403   2.047
 2314SOL     OW 7840   5.549   0.825   4.423
 2314SOL    HW1 7841   5.544   0.771   4.507
 2314SOL    HW2 7842   5.628   0.887   4.429
 2315SOL     OW 7843   5.068   3.573   5.178
 2315SOL    HW1 7844   5.007   3.603   5.105
 2315SOL    HW2 7845   5.033   3.488   5.219
 2316SOL     OW 7846   3.329   0.435   4.655
 2316SOL    HW1 7847   3.246   0.489   4.668
 2316SOL    HW2 7848   3.335   0.365   4.726
 2317SOL     OW 7849   6.471   6.064   3.110
 2317SOL    HW1 7850   6.391   6.114   3.145
 2317SOL    HW2 7851   6.554   6.115   3.132
 2318SOL     OW 7852   2.153   3.348   4.140
 2318SOL    HW1 7853   2.115   3.306   4.058
 2318SOL    HW2 7854   2.167   3.446   4.124
 2319SOL     OW 7855   2.982   5.389   4.892
 2319SOL    HW1 7856   2.900   5.333   4.899
 2319SOL    HW2 7857   3.045   5.367   4.966
 2320SOL     OW 7858   1.265   2.539   5.315
 2320SOL    HW1 7859   1.214   2.506   5.235
 2320SOL    HW2 7860   1.225   2.500   5.398
 2321SOL     OW 7861   1.470   5.197   0.650
 2321SOL    HW1 7862   1.492   5.295   0.652
 2321SOL    HW2 7863   1.372   5.185   0.634
 2322SOL     OW 7864   1.797   4.449   2.746
 2322SOL    HW1 7865   1.703   4.457   2.713
 2322SOL    HW2 7866   1.860   4.482   2.676
 2323SOL     OW 7867   3.278   4.844   1.731
 2323SOL    HW1 7868   3.283   4.747   1.706
 2323SOL    HW2 7869   3.327   4.859   1.817
 2324SOL     OW 7870   6.471   5.921   0.314
 2324SOL    HW1 7871   6.538   5.968   0.372
 2324SOL    HW2 7872   6.390   5.899   0.369
 2325SOL     OW 7873   0.494   4.348   1.563
 2325SOL    HW1 7874   0.570   4.381   1.620
 2325SOL    HW2 7875   0.522   4.350   1.467
 2326SOL     OW 7876   1.975   6.486   0.001
 2326SOL    HW1 7877   1.925   6.438   6.954
 2326SOL    HW2 7878   2.058   6.525   6.988
 2327SOL     OW 7879   6.943   1.612   3.874
 2327SOL    HW1 7880   6.974   1.588   3.966
 2327SOL    HW2 7881   6.886   1.694   3.877
 2328SOL     OW 7882   1.785   1.285   2.964
 2328SOL    HW1 7883   1.770   1.203   3.018
 2328SOL    HW2 7884   1.861   1.338   3.003
 2329SOL     OW 7885   1.484   3.959   4.799
 2329SOL    HW1 7886   1.483   3.965   4.899
 2329SOL    HW2 7887   1.492   4.051   4.761
 2330SOL     OW 7888   0.495   2.803   1.526
 2330SOL    HW1 7889   0.440   2.827   1.606
 2330SOL    HW2 7890   0.487   2.875   1.457
 2331SOL     OW 7891   4.131   5.370   0.092
 2331SOL    HW1 7892   4.223   5.336   0.111
 2331SOL    HW2 7893   4.133   5.470   0.086
 2332SOL     OW 7894   6.569   0.402   5.343
 2332SOL    HW1 7895   6.616   0.395   5.254
 2332SOL    HW2 7896   6.554   0.310   5.379
 2333SOL     OW 7897   0.223   3.891   3.208
 2333SOL    HW1 7898   0.309   3.864   3.166
 2333SOL    HW2 7899   0.151   3.827   3.181
 2334SOL     OW 7900   1.833   0.773   6.480
 2334SOL    HW1 7901   1.807   0.870   6.489
 2334SOL    HW2 7902   1.884   0.745   6.561
 2335SOL     OW 7903   6.437   1.010   4.399
 2335SOL    HW1 7904   6.436   0.920   4.355
 2335SOL    HW2 7905   6.355   1.060   4.371
 2336SOL     OW 7906   3.812   1.396   4.385
 2336SOL    HW1 7907   3.754   1.456   4.440
 2336SOL    HW2 7908   3.796   1.413   4.288
 2337SOL     OW 7909   4.226   0.118   1.652
 2337SOL    HW1 7910   4.179   0.190   1.601
 2337SOL    HW2 7911   4.287   0.068   1.590
 2338SOL     OW 7912   0.489   2.714   5.061
 2338SOL    HW1 7913   0.562   2.653   5.030
 2338SOL    HW2 7914   0.477   2.706   5.160
 2339SOL     OW 7915   3.022   3.848   3.302
 2339SOL    HW1 7916   2.979   3.829   3.213
 2339SOL    HW2 7917   2.991   3.782   3.369
 2340SOL     OW 7918   6.798   4.452   6.206
 2340SOL    HW1 7919   6.705   4.419   6.221
 2340SOL    HW2 7920   6.828   4.425   6.114
 2341SOL     OW 7921   2.999   4.815   2.019
 2341SOL    HW1 7922   2.999   4.814   1.919
 2341SOL    HW2 7923   2.930   4.751   2.053
 2342SOL     OW 7924   0.763   6.655   5.672
 2342SOL    HW1 7925   0.784   6.744   5.714
 2342SOL    HW2 7926   0.808   6.649   5.583
 2343SOL     OW 7927   1.493   5.130   2.785
 2343SOL    HW1 7928   1.455   5.055   2.731
 2343SOL    HW2 7929   1.564   5.177   2.733
 2344SOL     OW 7930   1.216   5.785   6.969
 2344SOL    HW1 7931   1.289   5.822   6.912
 2344SOL    HW2 7932   1.252   5.708   7.022
 2345SOL     OW 7933   3.264   5.656   5.249
 2345SOL    HW1 7934   3.169   5.685   5.257
 2345SOL    HW2 7935   3.300   5.682   5.160
 2346SOL     OW 7936   3.705   3.790   5.251
 2346SOL    HW1 7937   3.668   3.757   5.337
 2346SOL    HW2 7938   3.765   3.721   5.212
 2347SOL     OW 7939   3.449   2.015   1.613
 2347SOL    HW1 7940   3.540   2.016   1.571
 2347SOL    HW2 7941   3.444   2.086   1.683
 2348SOL     OW 7942   2.589   6.853   4.179
 2348SOL    HW1 7943   2.644   6.887   4.103
 2348SOL    HW2 7944   2.647   6.841   4.260
 2349SOL     OW 7945   0.949   5.051   5.676
 2349SOL    HW1 7946   0.899   5.049   5.589
 2349SOL    HW2 7947   0.916   5.128   5.731
 2350SOL     OW 7948   6.209   7.023   6.391
 2350SOL    HW1 7949   6.241   0.002   6.486
 2350SOL    HW2 7950   6.118   6.982   6.389
 2351SOL     OW 7951   2.539   5.349   4.507
 2351SOL    HW1 7952   2.458   5.399   4.538
 2351SOL    HW2 7953   2.514   5.289   4.431
 2352SOL     OW 7954   0.676   4.465   2.470
 2352SOL    HW1 7955   0.653   4.393   2.404
 2352SOL    HW2 7956   0.730   4.426   2.544
 2353SOL     OW 7957   3.281   5.142   5.403
 2353SOL    HW1 7958   3.298   5.231   5.446
 2353SOL    HW2 7959   3.293   5.070   5.471
 2354SOL     OW 7960   2.714   1.606   5.491
 2354SOL    HW1 7961   2.710   1.509   5.516
 2354SOL    HW2 7962   2.696   1.616   5.393
 2355SOL     OW 7963   2.090   6.356   0.220
 2355SOL    HW1 7964   2.130   6.401   0.300
 2355SOL    HW2 7965   2.050   6.424   0.160
 2356SOL     OW 7966   0.910   3.721   6.363
 2356SOL    HW1 7967   0.915   3.711   6.264
 2356SOL    HW2 7968   0.940   3.637   6.407
 2357SOL     OW 7969   4.689   0.001   2.516
 2357SOL    HW1 7970   4.730   7.022   2.607
 2357SOL    HW2 7971   4.723   0.082   2.468
 2358SOL     OW 7972   3.630   5.122   4.872
 2358SOL    HW1 7973   3.650   5.204   4.926
 2358SOL    HW2 7974   3.715   5.075   4.850
 2359SOL     OW 7975   6.332   0.705   5.148
 2359SOL    HW1 7976   6.307   0.615   5.183
 2359SOL    HW2 7977   6.317   0.708   5.049
 2360SOL     OW 7978   5.279   3.958   0.173
 2360SOL    HW1 7979   5.324   3.872   0.147
 2360SOL    HW2 7980   5.195   3.937   0.224
 2361SOL     OW 7981   3.063   1.052   5.211
 2361SOL    HW1 7982   3.015   0.965   5.206
 2361SOL    HW2 7983   3.051   1.103   5.126
 2362SOL     OW 7984   2.547   6.439   4.070
 2362SOL    HW1 7985   2.469   6.453   4.008
 2362SOL    HW2 7986   2.587   6.349   4.053
 2363SOL     OW 7987   4.669   2.385   4.861
 2363SOL    HW1 7988   4.700   2.480   4.872
 2363SOL    HW2 7989   4.571   2.380   4.882
 2364SOL     OW 7990   1.008   2.219   2.767
 2364SOL    HW1 7991   0.941   2.237   2.839
 2364SOL    HW2 7992   0.967   2.162   2.696
 2365SOL     OW 7993   6.139   2.591   6.464
 2365SOL    HW1 7994   6.145   2.686   6.432
 2365SOL    HW2 7995   6.131   2.590   6.564
 2366SOL     OW 7996   2.250   4.864   6.481
 2366SOL    HW1 7997   2.285   4.850   6.574
 2366SOL    HW2 7998   2.327   4.863   6.417
 2367SOL     OW 7999   2.500   3.827   0.783
 2367SOL    HW1 8000   2.472   3.873   0.698
 2367SOL    HW2 8001   2.557   3.748   0.761
 2368SOL     OW 8002   4.091   0.425   4.002
 2368SOL    HW1 8003   3.995   0.398   3.996
 2368SOL    HW2 8004   4.117   0.473   3.918
 2369SOL     OW 8005   1.498   1.165   5.685
 2369SOL    HW1 8006   1.532   1.071   5.686
 2369SOL    HW2 8007   1.573   1.227   5.707
 2370SOL     OW 8008   4.889   3.187   0.087
 2370SOL    HW1 8009   4.978   3.232   0.088
 2370SOL    HW2 8010   4.832   3.228   0.015
 2371SOL     OW 8011   0.041   6.949   2.055
 2371SOL    HW1 8012   0.082   6.871   2.102
 2371SOL    HW2 8013   0.076   0.009   2.095
 2372SOL     OW 8014   0.217   2.784   2.764
 2372SOL    HW1 8015   0.224   2.788   2.864
 2372SOL    HW2 8016   0.150   2.851   2.733
 2373SOL     OW 8017   0.133   2.034   6.390
 2373SOL    HW1 8018   0.210   2.070   6.338
 2373SOL    HW2 8019   0.113   2.094   6.467
 2374SOL     OW 8020   5.790   1.299   3.584
 2374SOL    HW1 8021   5.828   1.206   3.588
 2374SOL    HW2 8022   5.752   1.316   3.492
 2375SOL     OW 8023   2.867   6.732   5.113
 2375SOL    HW1 8024   2.905   6.666   5.178
 2375SOL    HW2 8025   2.823   6.683   5.038
 2376SOL     OW 8026   6.853   2.493   4.640
 2376SOL    HW1 8027   6.952   2.486   4.655
 2376SOL    HW2 8028   6.833   2.479   4.543
 2377SOL     OW 8029   3.565   4.037   3.109
 2377SOL    HW1 8030   3.586   4.070   3.202
 2377SOL    HW2 8031   3.466   4.031   3.098
 2378SOL     OW 8032   5.229   1.242   0.375
 2378SOL    HW1 8033   5.217   1.243   0.474
 2378SOL    HW2 8034   5.326   1.229   0.354
 2379SOL     OW 8035   5.661   1.715   6.908
 2379SOL    HW1 8036   5.612   1.628   6.916
 2379SOL    HW2 8037   5.596   1.788   6.888
 2380SOL     OW 8038   1.025   1.031   0.223
 2380SOL    HW1 8039   0.934   1.044   0.183
 2380SOL    HW2 8040   1.084   1.107   0.196
 2381SOL     OW 8041   1.907   4.230   4.690
 2381SOL    HW1 8042   1.931   4.306   4.750
 2381SOL    HW2 8043   1.963   4.233   4.607
 2382SOL     OW 8044   2.264   4.128   4.121
 2382SOL    HW1 8045   2.335   4.176   4.070
 2382SOL    HW2 8046   2.187   4.189   4.137
 2383SOL     OW 8047   5.131   6.557   1.511
 2383SOL    HW1 8048   5.185   6.634   1.476
 2383SOL    HW2 8049   5.144   6.550   1.610
 2384SOL     OW 8050   5.532   0.867   2.801
 2384SOL    HW1 8051   5.439   0.877   2.765
 2384SOL    HW2 8052   5.537   0.909   2.892
 2385SOL     OW 8053   1.305   6.914   0.654
 2385SOL    HW1 8054   1.257   7.002   0.653
 2385SOL    HW2 8055   1.330   6.890   0.748
 2386SOL     OW 8056   6.056   5.792   4.510
 2386SOL    HW1 8057   6.154   5.783   4.496
 2386SOL    HW2 8058   6.014   5.831   4.428
 2387SOL     OW 8059   1.799   2.252   3.518
 2387SOL    HW1 8060   1.866   2.207   3.459
 2387SOL    HW2 8061   1.718   2.193   3.528
 2388SOL     OW 8062   0.568   2.440   4.719
 2388SOL    HW1 8063   0.639   2.378   4.686
 2388SOL    HW2 8064   0.554   2.514   4.653
 2389SOL     OW 8065   4.898   3.881   2.939
 2389SOL    HW1 8066   4.875   3.979   2.936
 2389SOL    HW2 8067   4.895   3.849   3.033
 2390SOL     OW 8068   3.875   2.999   3.040
 2390SOL    HW1 8069   3.884   2.979   3.137
 2390SOL    HW2 8070   3.891   3.097   3.025
 2391SOL     OW 8071   5.113   3.980   6.041
 2391SOL    HW1 8072   5.201   3.990   5.994
 2391SOL    HW2 8073   5.105   4.050   6.112
 2392SOL     OW 8074   4.559   6.532   5.212
 2392SOL    HW1 8075   4.463   6.523   5.188
 2392SOL    HW2 8076   4.611   6.459   5.167
 2393SOL     OW 8077   5.767   3.852   6.192
 2393SOL    HW1 8078   5.674   3.815   6.197
 2393SOL    HW2 8079   5.771   3.940   6.238
 2394SOL     OW 8080   1.067   2.803   4.477
 2394SOL    HW1 8081   1.111   2.791   4.566
 2394SOL    HW2 8082   1.133   2.843   4.414
 2395SOL     OW 8083   5.448   2.666   6.401
 2395SOL    HW1 8084   5.465   2.615   6.485
 2395SOL    HW2 8085   5.357   2.708   6.405
 2396SOL     OW 8086   3.600   5.025   1.234
 2396SOL    HW1 8087   3.515   4.981   1.264
 2396SOL    HW2 8088   3.654   5.051   1.314
 2397SOL     OW 8089   0.253   4.130   5.773
 2397SOL    HW1 8090   0.261   4.189   5.692
 2397SOL    HW2 8091   0.225   4.185   5.852
 2398SOL     OW 8092   2.635   3.169   0.128
 2398SOL    HW1 8093   2.675   3.127   0.209
 2398SOL    HW2 8094   2.569   3.239   0.156
 2399SOL     OW 8095   4.641   1.758   1.888
 2399SOL    HW1 8096   4.641   1.708   1.801
 2399SOL    HW2 8097   4.713   1.722   1.947
 2400SOL     OW 8098   3.187   3.976   0.745
 2400SOL    HW1 8099   3.241   3.998   0.664
 2400SOL    HW2 8100   3.091   3.999   0.727
 2401SOL     OW 8101   4.447   6.435   6.157
 2401SOL    HW1 8102   4.519   6.502   6.176
 2401SOL    HW2 8103   4.483   6.342   6.173
 2402SOL     OW 8104   6.735   0.604   3.973
 2402SOL    HW1 8105   6.657   0.560   3.928
 2402SOL    HW2 8106   6.787   0.656   3.905
 2403SOL     OW 8107   1.968   2.728   0.165
 2403SOL    HW1 8108   1.919   2.652   0.207
 2403SOL    HW2 8109   2.053   2.744   0.215
 2404SOL     OW 8110   3.554   1.066   1.041
 2404SOL    HW1 8111   3.624   1.055   1.112
 2404SOL    HW2 8112   3.584   1.021   0.957
 2405SOL     OW 8113   3.869   3.334   2.603
 2405SOL    HW1 8114   3.891   3.254   2.659
 2405SOL    HW2 8115   3.779   3.369   2.629
 2406SOL     OW 8116   2.839   6.485   2.851
 2406SOL    HW1 8117   2.785   6.542   2.789
 2406SOL    HW2 8118   2.932   6.474   2.814
 2407SOL     OW 8119   5.580   1.616   2.399
 2407SOL    HW1 8120   5.566   1.520   2.377
 2407SOL    HW2 8121   5.526   1.672   2.336
 2408SOL     OW 8122   3.652   4.937   3.160
 2408SOL    HW1 8123   3.667   4.919   3.063
 2408SOL    HW2 8124   3.718   4.885   3.214
 2409SOL     OW 8125   1.704   4.832   2.020
 2409SOL    HW1 8126   1.750   4.814   1.933
 2409SOL    HW2 8127   1.636   4.760   2.037
 2410SOL     OW 8128   4.133   2.769   5.654
 2410SOL    HW1 8129   4.035   2.787   5.655
 2410SOL    HW2 8130   4.174   2.803   5.738
 2411SOL     OW 8131   4.112   5.439   4.765
 2411SOL    HW1 8132   4.130   5.488   4.679
 2411SOL    HW2 8133   4.187   5.374   4.782
 2412SOL     OW 8134   5.019   5.183   1.047
 2412SOL    HW1 8135   5.023   5.093   1.004
 2412SOL    HW2 8136   5.090   5.242   1.007
 2413SOL     OW 8137   6.221   2.072   1.061
 2413SOL    HW1 8138   6.160   1.994   1.046
 2413SOL    HW2 8139   6.248   2.112   0.974
 2414SOL     OW 8140   4.882   4.594   2.701
 2414SOL    HW1 8141   4.963   4.548   2.736
 2414SOL    HW2 8142   4.803   4.533   2.707
 2415SOL     OW 8143   6.732   0.703   2.747
 2415SOL    HW1 8144   6.804   0.724   2.814
 2415SOL    HW2 8145   6.745   0.610   2.712
 2416SOL     OW 8146   4.286   2.131   5.578
 2416SOL    HW1 8147   4.269   2.034   5.595
 2416SOL    HW2 8148   4.315   2.143   5.483
 2417SOL     OW 8149   3.517   3.185   5.486
 2417SOL    HW1 8150   3.560   3.195   5.575
 2417SOL    HW2 8151   3.420   3.209   5.493
 2418SOL     OW 8152   2.959   3.242   4.370
 2418SOL    HW1 8153   2.932   3.329   4.328
 2418SOL    HW2 8154   2.950   3.250   4.469
 2419SOL     OW 8155   0.316   0.203   4.914
 2419SOL    HW1 8156   0.273   0.254   4.840
 2419SOL    HW2 8157   0.312   0.105   4.894
 2420SOL     OW 8158   2.940   0.970   2.511
 2420SOL    HW1 8159   3.010   0.930   2.451
 2420SOL    HW2 8160   2.967   1.063   2.536
 2421SOL     OW 8161   2.490   2.031   4.697
 2421SOL    HW1 8162   2.503   2.049   4.794
 2421SOL    HW2 8163   2.578   2.036   4.650
 2422SOL     OW 8164   5.486   1.587   1.018
 2422SOL    HW1 8165   5.428   1.526   0.964
 2422SOL    HW2 8166   5.550   1.532   1.073
 2423SOL     OW 8167   1.410   5.935   2.577
 2423SOL    HW1 8168   1.328   5.975   2.617
 2423SOL    HW2 8169   1.423   5.969   2.484
 2424SOL     OW 8170   6.098   0.401   6.092
 2424SOL    HW1 8171   6.160   0.463   6.045
 2424SOL    HW2 8172   6.150   0.339   6.150
 2425SOL     OW 8173   5.718   0.786   3.521
 2425SOL    HW1 8174   5.697   0.766   3.425
 2425SOL    HW2 8175   5.715   0.701   3.573
 2426SOL     OW 8176   1.014   6.086   5.154
 2426SOL    HW1 8177   0.968   6.144   5.088
 2426SOL    HW2 8178   1.009   5.990   5.126
 2427SOL     OW 8179   5.698   6.277   5.301
 2427SOL    HW1 8180   5.655   6.323   5.379
 2427SOL    HW2 8181   5.627   6.241   5.241
 2428SOL     OW 8182   6.254   0.301   2.479
 2428SOL    HW1 8183   6.185   0.229   2.488
 2428SOL    HW2 8184   6.210   0.385   2.445
 2429SOL     OW 8185   5.334   5.660   3.613
 2429SOL    HW1 8186   5.287   5.728   3.558
 2429SOL    HW2 8187   5.397   5.705   3.676
 2430SOL     OW 8188   5.598   1.237   1.453
 2430SOL    HW1 8189   5.689   1.201   1.478
 2430SOL    HW2 8190   5.553   1.273   1.534
 2431SOL     OW 8191   4.162   0.608   2.322
 2431SOL    HW1 8192   4.143   0.648   2.232
 2431SOL    HW2 8193   4.117   0.519   2.329
 2432SOL     OW 8194   3.134   6.239   2.752
 2432SOL    HW1 8195   3.133   6.216   2.849
 2432SOL    HW2 8196   3.109   6.336   2.741
 2433SOL     OW 8197   3.737   1.332   0.889
 2433SOL    HW1 8198   3.658   1.327   0.950
 2433SOL    HW2 8199   3.783   1.243   0.886
 2434SOL     OW 8200   3.576   1.000   5.878
 2434SOL    HW1 8201   3.495   0.947   5.903
 2434SOL    HW2 8202   3.560   1.046   5.791
 2435SOL     OW 8203   4.327   5.085   5.753
 2435SOL    HW1 8204   4.252   5.103   5.690
 2435SOL    HW2 8205   4.295   5.099   5.847
 2436SOL     OW 8206   1.213   5.549   0.716
 2436SOL    HW1 8207   1.206   5.501   0.804
 2436SOL    HW2 8208   1.171   5.493   0.644
 2437SOL     OW 8209   5.334   6.479   6.491
 2437SOL    HW1 8210   5.257   6.464   6.551
 2437SOL    HW2 8211   5.334   6.410   6.418
 2438SOL     OW 8212   3.357   0.947   6.904
 2438SOL    HW1 8213   3.306   0.866   6.875
 2438SOL    HW2 8214   3.336   0.967   7.000
 2439SOL     OW 8215   1.324   4.410   6.167
 2439SOL    HW1 8216   1.285   4.331   6.119
 2439SOL    HW2 8217   1.423   4.410   6.158
 2440SOL     OW 8218   4.677   6.222   5.985
 2440SOL    HW1 8219   4.720   6.311   6.000
 2440SOL    HW2 8220   4.719   6.177   5.906
 2441SOL     OW 8221   0.805   1.556   0.536
 2441SOL    HW1 8222   0.851   1.585   0.620
 2441SOL    HW2 8223   0.714   1.597   0.532
 2442SOL     OW 8224   0.779   3.224   5.885
 2442SOL    HW1 8225   0.833   3.246   5.804
 2442SOL    HW2 8226   0.830   3.251   5.967
 2443SOL     OW 8227   3.647   5.363   5.912
 2443SOL    HW1 8228   3.605   5.281   5.951
 2443SOL    HW2 8229   3.653   5.353   5.812
 2444SOL     OW 8230   3.066   4.349   6.696
 2444SOL    HW1 8231   2.988   4.331   6.636
 2444SOL    HW2 8232   3.143   4.291   6.670
 2445SOL     OW 8233   6.986   1.153   1.361
 2445SOL    HW1 8234   6.954   1.089   1.291
 2445SOL    HW2 8235   0.015   1.225   1.317
 2446SOL     OW 8236   6.488   4.435   3.876
 2446SOL    HW1 8237   6.559   4.461   3.941
 2446SOL    HW2 8238   6.488   4.499   3.799
 2447SOL     OW 8239   2.072   3.067   0.528
 2447SOL    HW1 8240   2.110   2.986   0.572
 2447SOL    HW2 8241   2.038   3.043   0.437
 2448SOL     OW 8242   0.254   0.731   4.664
 2448SOL    HW1 8243   0.216   0.725   4.572
 2448SOL    HW2 8244   0.191   0.688   4.729
 2449SOL     OW 8245   6.693   4.711   0.001
 2449SOL    HW1 8246   6.659   4.640   0.063
 2449SOL    HW2 8247   6.768   4.673   6.972
 2450SOL     OW 8248   2.431   4.573   2.948
 2450SOL    HW1 8249   2.523   4.606   2.967
 2450SOL    HW2 8250   2.406   4.595   2.853
 2451SOL     OW 8251   1.662   0.579   3.929
 2451SOL    HW1 8252   1.658   0.490   3.883
 2451SOL    HW2 8253   1.703   0.568   4.019
 2452SOL     OW 8254   2.064   3.486   2.716
 2452SOL    HW1 8255   2.050   3.480   2.815
 2452SOL    HW2 8256   2.092   3.397   2.681
 2453SOL     OW 8257   6.644   5.016   1.375
 2453SOL    HW1 8258   6.736   4.997   1.410
 2453SOL    HW2 8259   6.644   5.014   1.276
 2454SOL     OW 8260   3.492   0.945   1.885
 2454SOL    HW1 8261   3.410   0.964   1.940
 2454SOL    HW2 8262   3.553   1.024   1.887
 2455SOL     OW 8263   5.276   6.304   0.446
 2455SOL    HW1 8264   5.276   6.384   0.386
 2455SOL    HW2 8265   5.307   6.331   0.538
 2456SOL     OW 8266   5.399   6.731   2.225
 2456SOL    HW1 8267   5.419   6.674   2.145
 2456SOL    HW2 8268   5.381   6.672   2.304
 2457SOL     OW 8269   5.263   6.757   0.441
 2457SOL    HW1 8270   5.342   6.813   0.467
 2457SOL    HW2 8271   5.235   6.703   0.520
 2458SOL     OW 8272   2.552   5.874   3.507
 2458SOL    HW1 8273   2.588   5.937   3.576
 2458SOL    HW2 8274   2.601   5.886   3.421
 2459SOL     OW 8275   2.248   6.822   0.853
 2459SOL    HW1 8276   2.260   6.798   0.756
 2459SOL    HW2 8277   2.158   6.862   0.866
 2460SOL     OW 8278   2.156   6.975   1.885
 2460SOL    HW1 8279   2.062   6.974   1.850
 2460SOL    HW2 8280   2.158   6.937   1.978
 2461SOL     OW 8281   5.601   0.721   2.086
 2461SOL    HW1 8282   5.541   0.744   2.163
 2461SOL    HW2 8283   5.548   0.676   2.015
 2462SOL     OW 8284   2.703   5.119   0.521
 2462SOL    HW1 8285   2.641   5.164   0.457
 2462SOL    HW2 8286   2.772   5.185   0.552
 2463SOL     OW 8287   6.593   2.195   3.911
 2463SOL    HW1 8288   6.565   2.099   3.924
 2463SOL    HW2 8289   6.537   2.253   3.970
 2464SOL     OW 8290   0.794   4.477   1.111
 2464SOL    HW1 8291   0.725   4.505   1.045
 2464SOL    HW2 8292   0.766   4.391   1.155
 2465SOL     OW 8293   0.090   5.591   1.777
 2465SOL    HW1 8294   0.051   5.507   1.816
 2465SOL    HW2 8295   0.038   5.616   1.695
 2466SOL     OW 8296   4.700   1.488   2.467
 2466SOL    HW1 8297   4.742   1.505   2.556
 2466SOL    HW2 8298   4.634   1.560   2.447
 2467SOL     OW 8299   6.279   1.519   5.933
 2467SOL    HW1 8300   6.379   1.511   5.939
 2467SOL    HW2 8301   6.243   1.550   6.021
 2468SOL     OW 8302   6.838   6.149   2.157
 2468SOL    HW1 8303   6.828   6.099   2.243
 2468SOL    HW2 8304   6.935   6.152   2.131
 2469SOL     OW 8305   3.165   3.644   5.684
 2469SOL    HW1 8306   3.091   3.699   5.721
 2469SOL    HW2 8307   3.233   3.703   5.640
 2470SOL     OW 8308   3.067   3.890   5.850
 2470SOL    HW1 8309   2.994   3.913   5.915
 2470SOL    HW2 8310   3.149   3.944   5.871
 2471SOL     OW 8311   0.653   6.063   1.639
 2471SOL    HW1 8312   0.704   6.149   1.632
 2471SOL    HW2 8313   0.684   6.000   1.569
 2472SOL     OW 8314   5.641   2.018   4.760
 2472SOL    HW1 8315   5.680   1.933   4.796
 2472SOL    HW2 8316   5.714   2.073   4.718
 2473SOL     OW 8317   1.161   5.024   4.052
 2473SOL    HW1 8318   1.181   5.120   4.029
 2473SOL    HW2 8319   1.156   4.970   3.968
 2474SOL     OW 8320   7.005   5.176   5.395
 2474SOL    HW1 8321   6.917   5.221   5.412
 2474SOL    HW2 8322   0.004   5.186   5.298
 2475SOL     OW 8323   4.160   2.249   0.404
 2475SOL    HW1 8324   4.214   2.262   0.488
 2475SOL    HW2 8325   4.160   2.334   0.352
 2476SOL     OW 8326   0.907   2.025   3.589
 2476SOL    HW1 8327   0.968   1.971   3.532
 2476SOL    HW2 8328   0.812   2.001   3.569
 2477SOL     OW 8329   5.688   6.137   1.192
 2477SOL    HW1 8330   5.709   6.164   1.098
 2477SOL    HW2 8331   5.647   6.046   1.191
 2478SOL     OW 8332   6.585   6.781   2.527
 2478SOL    HW1 8333   6.677   6.820   2.523
 2478SOL    HW2 8334   6.518   6.854   2.516
 2479SOL     OW 8335   0.152   2.545   1.520
 2479SOL    HW1 8336   0.146   2.612   1.594
 2479SOL    HW2 8337   0.248   2.525   1.501
 2480SOL     OW 8338   6.723   3.281   1.145
 2480SOL    HW1 8339   6.706   3.339   1.225
 2480SOL    HW2 8340   6.761   3.194   1.176
 2481SOL     OW 8341   3.952   5.587   1.199
 2481SOL    HW1 8342   3.998   5.613   1.284
 2481SOL    HW2 8343   3.953   5.664   1.135
 2482SOL     OW 8344   4.897   3.443   5.558
 2482SOL    HW1 8345   4.865   3.511   5.492
 2482SOL    HW2 8346   4.973   3.391   5.518
 2483SOL     OW 8347   1.347   0.935   1.153
 2483SOL    HW1 8348   1.350   0.922   1.252
 2483SOL    HW2 8349   1.386   0.854   1.108
 2484SOL     OW 8350   2.312   0.496   0.709
 2484SOL    HW1 8351   2.277   0.585   0.737
 2484SOL    HW2 8352   2.360   0.505   0.622
 2485SOL     OW 8353   0.047   5.001   2.294
 2485SOL    HW1 8354   0.132   4.964   2.329
 2485SOL    HW2 8355   7.017   5.037   2.370
 2486SOL     OW 8356   2.071   5.552   3.872
 2486SOL    HW1 8357   2.067   5.463   3.826
 2486SOL    HW2 8358   2.060   5.625   3.804
 2487SOL     OW 8359   3.851   6.783   0.223
 2487SOL    HW1 8360   3.904   6.718   0.169
 2487SOL    HW2 8361   3.767   6.739   0.255
 2488SOL     OW 8362   2.733   4.349   1.349
 2488SOL    HW1 8363   2.697   4.325   1.439
 2488SOL    HW2 8364   2.776   4.269   1.308
 2489SOL     OW 8365   1.698   5.654   5.411
 2489SOL    HW1 8366   1.770   5.602   5.458
 2489SOL    HW2 8367   1.739   5.728   5.359
 2490SOL     OW 8368   6.713   4.664   0.464
 2490SOL    HW1 8369   6.682   4.626   0.377
 2490SOL    HW2 8370   6.758   4.752   0.448
 2491SOL     OW 8371   3.095   5.509   3.165
 2491SOL    HW1 8372   3.048   5.452   3.098
 2491SOL    HW2 8373   3.152   5.451   3.224
 2492SOL     OW 8374   4.871   3.281   6.072
 2492SOL    HW1 8375   4.771   3.287   6.075
 2492SOL    HW2 8376   4.902   3.220   6.144
 2493SOL     OW 8377   5.806   1.071   2.491
 2493SOL    HW1 8378   5.717   1.028   2.481
 2493SOL    HW2 8379   5.794   1.170   2.506
 2494SOL     OW 8380   4.701   2.730   2.580
 2494SOL    HW1 8381   4.745   2.710   2.492
 2494SOL    HW2 8382   4.739   2.815   2.617
 2495SOL     OW 8383   4.776   1.298   5.169
 2495SOL    HW1 8384   4.694   1.350   5.196
 2495SOL    HW2 8385   4.855   1.359   5.172
 2496SOL     OW 8386   0.610   5.234   0.035
 2496SOL    HW1 8387   0.650   5.325   0.024
 2496SOL    HW2 8388   0.580   5.222   0.130
 2497SOL     OW 8389   0.093   1.291   0.499
 2497SOL    HW1 8390   0.156   1.356   0.540
 2497SOL    HW2 8391   0.032   1.255   0.570
 2498SOL     OW 8392   2.069   2.926   3.583
 2498SOL    HW1 8393   2.013   2.921   3.500
 2498SOL    HW2 8394   2.142   2.858   3.579
 2499SOL     OW 8395   5.122   0.786   4.503
 2499SOL    HW1 8396   5.110   0.744   4.593
 2499SOL    HW2 8397   5.183   0.865   4.511
 2500SOL     OW 8398   5.120   2.996   5.943
 2500SOL    HW1 8399   5.117   3.043   5.855
 2500SOL    HW2 8400   5.027   2.975   5.973
 2501SOL     OW 8401   5.813   4.351   0.108
 2501SOL    HW1 8402   5.839   4.347   0.204
 2501SOL    HW2 8403   5.740   4.285   0.091
 2502SOL     OW 8404   2.259   6.576   3.199
 2502SOL    HW1 8405   2.199   6.656   3.203
 2502SOL    HW2 8406   2.216   6.505   3.143
 2503SOL     OW 8407   4.010   5.243   6.107
 2503SOL    HW1 8408   3.953   5.169   6.070
 2503SOL    HW2 8409   3.970   5.331   6.082
 2504SOL     OW 8410   1.880   4.671   4.844
 2504SOL    HW1 8411   1.935   4.588   4.837
 2504SOL    HW2 8412   1.926   4.746   4.796
 2505SOL     OW 8413   3.976   5.704   4.208
 2505SOL    HW1 8414   3.979   5.784   4.148
 2505SOL    HW2 8415   4.054   5.705   4.270
 2506SOL     OW 8416   6.470   3.288   6.342
 2506SOL    HW1 8417   6.438   3.367   6.290
 2506SOL    HW2 8418   6.432   3.205   6.302
 2507SOL     OW 8419   6.081   5.929   0.773
 2507SOL    HW1 8420   6.153   5.965   0.833
 2507SOL    HW2 8421   6.114   5.846   0.728
 2508SOL     OW 8422   2.754   1.858   2.115
 2508SOL    HW1 8423   2.688   1.925   2.150
 2508SOL    HW2 8424   2.838   1.865   2.168
 2509SOL     OW 8425   5.634   2.704   3.250
 2509SOL    HW1 8426   5.608   2.784   3.196
 2509SOL    HW2 8427   5.607   2.621   3.201
 2510SOL     OW 8428   3.294   4.953   0.259
 2510SOL    HW1 8429   3.260   4.959   0.353
 2510SOL    HW2 8430   3.323   5.044   0.228
 2511SOL     OW 8431   1.285   0.598   4.975
 2511SOL    HW1 8432   1.215   0.534   5.008
 2511SOL    HW2 8433   1.278   0.684   5.025
 2512SOL     OW 8434   4.856   4.092   5.107
 2512SOL    HW1 8435   4.794   4.165   5.079
 2512SOL    HW2 8436   4.912   4.064   5.029
 2513SOL     OW 8437   1.042   2.591   6.711
 2513SOL    HW1 8438   0.999   2.673   6.672
 2513SOL    HW2 8439   0.974   2.539   6.762
 2514SOL     OW 8440   0.834   1.280   4.586
 2514SOL    HW1 8441   0.741   1.253   4.560
 2514SOL    HW2 8442   0.886   1.198   4.612
 2515SOL     OW 8443   1.306   6.094   0.210
 2515SOL    HW1 8444   1.252   6.104   0.126
 2515SOL    HW2 8445   1.380   6.160   0.209
 2516SOL     OW 8446   6.331   6.272   3.520
 2516SOL    HW1 8447   6.358   6.327   3.441
 2516SOL    HW2 8448   6.271   6.326   3.579
 2517SOL     OW 8449   2.725   4.855   0.348
 2517SOL    HW1 8450   2.723   4.951   0.377
 2517SOL    HW2 8451   2.649   4.806   0.391
 2518SOL     OW 8452   2.406   3.017   6.523
 2518SOL    HW1 8453   2.435   3.103   6.482
 2518SOL    HW2 8454   2.379   3.033   6.618
 2519SOL     OW 8455   4.948   4.651   4.847
 2519SOL    HW1 8456   4.871   4.589   4.864
 2519SOL    HW2 8457   4.914   4.743   4.828
 2520SOL     OW 8458   2.607   3.518   1.162
 2520SOL    HW1 8459   2.620   3.444   1.228
 2520SOL    HW2 8460   2.611   3.481   1.069
 2521SOL     OW 8461   6.774   0.676   5.714
 2521SOL    HW1 8462   6.715   0.647   5.639
 2521SOL    HW2 8463   6.745   0.632   5.799
 2522SOL     OW 8464   1.158   3.135   4.312
 2522SOL    HW1 8465   1.228   3.202   4.337
 2522SOL    HW2 8466   1.193   3.043   4.330
 2523SOL     OW 8467   6.630   3.776   0.644
 2523SOL    HW1 8468   6.533   3.798   0.643
 2523SOL    HW2 8469   6.675   3.814   0.563
 2524SOL     OW 8470   1.330   6.493   3.932
 2524SOL    HW1 8471   1.385   6.411   3.917
 2524SOL    HW2 8472   1.390   6.570   3.954
 2525SOL     OW 8473   1.401   4.134   4.366
 2525SOL    HW1 8474   1.436   4.130   4.273
 2525SOL    HW2 8475   1.464   4.088   4.428
 2526SOL     OW 8476   6.893   2.034   4.266
 2526SOL    HW1 8477   6.991   2.022   4.275
 2526SOL    HW2 8478   6.875   2.110   4.203
 2527SOL     OW 8479   5.289   6.737   4.280
 2527SOL    HW1 8480   5.357   6.739   4.206
 2527SOL    HW2 8481   5.304   6.656   4.337
 2528SOL     OW 8482   5.838   5.458   0.750
 2528SOL    HW1 8483   5.791   5.371   0.768
 2528SOL    HW2 8484   5.771   5.533   0.752
 2529SOL     OW 8485   5.110   5.880   4.524
 2529SOL    HW1 8486   5.161   5.868   4.439
 2529SOL    HW2 8487   5.028   5.822   4.522
 2530SOL     OW 8488   1.329   6.940   3.289
 2530SOL    HW1 8489   1.249   6.882   3.298
 2530SOL    HW2 8490   1.410   6.890   3.319
 2531SOL     OW 8491   4.613   0.825   5.684
 2531SOL    HW1 8492   4.652   0.900   5.630
 2531SOL    HW2 8493   4.686   0.770   5.722
 2532SOL     OW 8494   1.177   5.063   6.690
 2532SOL    HW1 8495   1.242   5.004   6.736
 2532SOL    HW2 8496   1.223   5.112   6.616
 2533SOL     OW 8497   5.239   6.970   5.354
 2533SOL    HW1 8498   5.263   6.913   5.276
 2533SOL    HW2 8499   5.322   7.012   5.392
 2534SOL     OW 8500   2.030   0.261   3.449
 2534SOL    HW1 8501   2.067   0.289   3.537
 2534SOL    HW2 8502   2.070   0.174   3.421
 2535SOL     OW 8503   1.413   1.330   3.730
 2535SOL    HW1 8504   1.491   1.385   3.763
 2535SOL    HW2 8505   1.438   1.233   3.731
 2536SOL     OW 8506   5.836   1.593   4.436
 2536SOL    HW1 8507   5.859   1.524   4.505
 2536SOL    HW2 8508   5.899   1.670   4.444
 2537SOL     OW 8509   4.999   5.701   1.242
 2537SOL    HW1 8510   5.047   5.727   1.159
 2537SOL    HW2 8511   4.917   5.757   1.252
 2538SOL     OW 8512   1.959   4.873   4.682
 2538SOL    HW1 8513   1.875   4.873   4.627
 2538SOL    HW2 8514   2.032   4.829   4.631
 2539SOL     OW 8515   4.597   0.237   5.070
 2539SOL    HW1 8516   4.517   0.188   5.106
 2539SOL    HW2 8517   4.568   0.300   4.999
 2540SOL     OW 8518   5.305   1.139   1.675
 2540SOL    HW1 8519   5.344   1.060   1.628
 2540SOL    HW2 8520   5.359   1.159   1.757
 2541SOL     OW 8521   1.293   6.912   5.695
 2541SOL    HW1 8522   1.354   6.944   5.768
 2541SOL    HW2 8523   1.277   6.986   5.630
 2542SOL     OW 8524   3.490   1.696   4.237
 2542SOL    HW1 8525   3.464   1.630   4.166
 2542SOL    HW2 8526   3.415   1.762   4.249
 2543SOL     OW 8527   1.104   1.228   2.749
 2543SOL    HW1 8528   1.079   1.140   2.708
 2543SOL    HW2 8529   1.104   1.220   2.848
 2544SOL     OW 8530   6.758   5.343   1.107
 2544SOL    HW1 8531   6.744   5.344   1.206
 2544SOL    HW2 8532   6.698   5.410   1.064
 2545SOL     OW 8533   0.832   1.631   1.742
 2545SOL    HW1 8534   0.906   1.570   1.712
 2545SOL    HW2 8535   0.861   1.680   1.825
 2546SOL     OW 8536   6.231   3.950   2.008
 2546SOL    HW1 8537   6.317   3.977   1.964
 2546SOL    HW2 8538   6.241   3.858   2.046
 2547SOL     OW 8539   5.574   4.708   0.446
 2547SOL    HW1 8540   5.643   4.733   0.377
 2547SOL    HW2 8541   5.489   4.681   0.399
 2548SOL     OW 8542   0.275   0.169   5.327
 2548SOL    HW1 8543   0.219   0.132   5.401
 2548SOL    HW2 8544   0.218   0.222   5.265
 2549SOL     OW 8545   1.831   2.075   1.819
 2549SOL    HW1 8546   1.831   2.074   1.719
 2549SOL    HW2 8547   1.784   1.994   1.853
 2550SOL     OW 8548   4.548   0.383   6.795
 2550SOL    HW1 8549   4.600   0.361   6.714
 2550SOL    HW2 8550   4.499   0.469   6.781
 2551SOL     OW 8551   3.135   5.658   6.771
 2551SOL    HW1 8552   3.126   5.664   6.671
 2551SOL    HW2 8553   3.044   5.649   6.811
 2552SOL     OW 8554   1.989   5.235   0.217
 2552SOL    HW1 8555   2.055   5.206   0.286
 2552SOL    HW2 8556   2.027   5.218   0.126
 2553SOL     OW 8557   3.833   2.304   6.505
 2553SOL    HW1 8558   3.829   2.286   6.407
 2553SOL    HW2 8559   3.825   2.219   6.555
 2554SOL     OW 8560   2.012   5.785   1.135
 2554SOL    HW1 8561   1.994   5.708   1.074
 2554SOL    HW2 8562   2.108   5.784   1.163
 2555SOL     OW 8563   6.018   6.702   5.898
 2555SOL    HW1 8564   6.040   6.792   5.860
 2555SOL    HW2 8565   6.067   6.690   5.985
 2556SOL     OW 8566   3.234   6.810   1.653
 2556SOL    HW1 8567   3.156   6.851   1.605
 2556SOL    HW2 8568   3.317   6.857   1.626
 2557SOL     OW 8569   3.438   0.562   0.432
 2557SOL    HW1 8570   3.377   0.506   0.375
 2557SOL    HW2 8571   3.397   0.575   0.522
 2558SOL     OW 8572   5.621   4.652   6.540
 2558SOL    HW1 8573   5.605   4.561   6.578
 2558SOL    HW2 8574   5.670   4.708   6.607
 2559SOL     OW 8575   0.744   3.895   3.086
 2559SOL    HW1 8576   0.745   3.935   3.177
 2559SOL    HW2 8577   0.779   3.961   3.020
 2560SOL     OW 8578   4.691   2.746   3.209
 2560SOL    HW1 8579   4.671   2.670   3.148
 2560SOL    HW2 8580   4.705   2.829   3.155
 2561SOL     OW 8581   3.002   0.998   4.054
 2561SOL    HW1 8582   2.980   1.086   4.097
 2561SOL    HW2 8583   3.100   0.979   4.065
 2562SOL     OW 8584   3.570   6.426   3.399
 2562SOL    HW1 8585   3.637   6.393   3.465
 2562SOL    HW2 8586   3.594   6.393   3.308
 2563SOL     OW 8587   2.859   1.276   7.009
 2563SOL    HW1 8588   2.782   1.329   6.972
 2563SOL    HW2 8589   2.939   1.335   7.017
 2564SOL     OW 8590   1.743   0.628   0.863
 2564SOL    HW1 8591   1.834   0.613   0.824
 2564SOL    HW2 8592   1.698   0.703   0.814
 2565SOL     OW 8593   0.814   1.786   6.602
 2565SOL    HW1 8594   0.841   1.783   6.506
 2565SOL    HW2 8595   0.823   1.695   6.642
 2566SOL     OW 8596   3.243   1.159   1.692
 2566SOL    HW1 8597   3.206   1.112   1.772
 2566SOL    HW2 8598   3.221   1.108   1.609
 2567SOL     OW 8599   1.298   0.193   0.059
 2567SOL    HW1 8600   1.367   0.181   7.013
 2567SOL    HW2 8601   1.323   0.138   0.139
 2568SOL     OW 8602   2.599   6.139   1.106
 2568SOL    HW1 8603   2.597   6.143   1.006
 2568SOL    HW2 8604   2.560   6.223   1.143
 2569SOL     OW 8605   1.913   1.387   1.041
 2569SOL    HW1 8606   1.814   1.403   1.033
 2569SOL    HW2 8607   1.935   1.295   1.009
 2570SOL     OW 8608   5.006   5.968   6.924
 2570SOL    HW1 8609   4.930   6.032   6.923
 2570SOL    HW2 8610   5.062   5.984   7.006
 2571SOL     OW 8611   3.763   2.914   4.183
 2571SOL    HW1 8612   3.738   2.978   4.110
 2571SOL    HW2 8613   3.681   2.890   4.236
 2572SOL     OW 8614   2.632   5.126   1.670
 2572SOL    HW1 8615   2.708   5.072   1.633
 2572SOL    HW2 8616   2.576   5.068   1.729
 2573SOL     OW 8617   6.842   2.515   4.072
 2573SOL    HW1 8618   6.860   2.419   4.093
 2573SOL    HW2 8619   6.926   2.568   4.081
 2574SOL     OW 8620   6.574   3.397   1.359
 2574SOL    HW1 8621   6.564   3.473   1.296
 2574SOL    HW2 8622   6.497   3.397   1.423
 2575SOL     OW 8623   5.229   4.277   0.661
 2575SOL    HW1 8624   5.157   4.209   0.678
 2575SOL    HW2 8625   5.299   4.237   0.602
 2576SOL     OW 8626   2.255   6.831   3.529
 2576SOL    HW1 8627   2.330   6.765   3.528
 2576SOL    HW2 8628   2.168   6.782   3.527
 2577SOL     OW 8629   3.389   0.038   2.888
 2577SOL    HW1 8630   3.395   0.091   2.803
 2577SOL    HW2 8631   3.297   0.000   2.898
 2578SOL     OW 8632   4.520   2.572   4.630
 2578SOL    HW1 8633   4.443   2.591   4.692
 2578SOL    HW2 8634   4.550   2.477   4.643
 2579SOL     OW 8635   0.408   2.058   6.705
 2579SOL    HW1 8636   0.469   2.004   6.647
 2579SOL    HW2 8637   0.427   2.037   6.801
 2580SOL     OW 8638   1.711   2.265   6.336
 2580SOL    HW1 8639   1.624   2.276   6.384
 2580SOL    HW2 8640   1.731   2.347   6.284
 2581SOL     OW 8641   5.151   5.635   2.333
 2581SOL    HW1 8642   5.222   5.631   2.403
 2581SOL    HW2 8643   5.166   5.561   2.266
 2582SOL     OW 8644   0.982   5.426   2.563
 2582SOL    HW1 8645   0.996   5.362   2.487
 2582SOL    HW2 8646   1.042   5.505   2.550
 2583SOL     OW 8647   0.507   0.239   0.796
 2583SOL    HW1 8648   0.453   0.163   0.760
 2583SOL    HW2 8649   0.536   0.297   0.720
 2584SOL     OW 8650   3.149   6.213   1.130
 2584SOL    HW1 8651   3.154   6.233   1.032
 2584SOL    HW2 8652   3.061   6.245   1.165
 2585SOL     OW 8653   3.208   6.650   0.858
 2585SOL    HW1 8654   3.158   6.735   0.839
 2585SOL    HW2 8655   3.219   6.640   0.957
 2586SOL     OW 8656   5.900   1.395   4.654
 2586SOL    HW1 8657   5.941   1.357   4.736
 2586SOL    HW2 8658   5.821   1.340   4.627
 2587SOL     OW 8659   6.323   7.017   4.435
 2587SOL    HW1 8660   6.269   6.953   4.381
 2587SOL    HW2 8661   6.262   0.055   4.483
 2588SOL     OW 8662   5.664   0.632   1.370
 2588SOL    HW1 8663   5.627   0.599   1.457
 2588SOL    HW2 8664   5.595   0.689   1.324
 2589SOL     OW 8665   6.607   0.323   5.618
 2589SOL    HW1 8666   6.601   0.235   5.570
 2589SOL    HW2 8667   6.568   0.395   5.561
 2590SOL     OW 8668   3.630   6.683   2.541
 2590SOL    HW1 8669   3.601   6.674   2.446
 2590SOL    HW2 8670   3.619   6.595   2.588
 2591SOL     OW 8671   4.974   6.316   1.328
 2591SOL    HW1 8672   5.041   6.303   1.400
 2591SOL    HW2 8673   4.929   6.405   1.341
 2592SOL     OW 8674   3.351   5.238   1.191
 2592SOL    HW1 8675   3.346   5.237   1.291
 2592SOL    HW2 8676   3.287   5.172   1.153
 2593SOL     OW 8677   3.512   6.420   2.960
 2593SOL    HW1 8678   3.546   6.514   2.960
 2593SOL    HW2 8679   3.491   6.391   2.867
 2594SOL     OW 8680   0.279   0.670   6.756
 2594SOL    HW1 8681   0.262   0.605   6.830
 2594SOL    HW2 8682   0.272   0.623   6.668
 2595SOL     OW 8683   6.700   3.533   4.741
 2595SOL    HW1 8684   6.694   3.434   4.757
 2595SOL    HW2 8685   6.778   3.553   4.682
 2596SOL     OW 8686   4.010   2.061   2.037
 2596SOL    HW1 8687   3.968   2.016   2.116
 2596SOL    HW2 8688   3.962   2.034   1.954
 2597SOL     OW 8689   2.683   3.317   1.329
 2597SOL    HW1 8690   2.687   3.268   1.417
 2597SOL    HW2 8691   2.703   3.253   1.255
 2598SOL     OW 8692   6.669   3.052   4.309
 2598SOL    HW1 8693   6.693   3.148   4.302
 2598SOL    HW2 8694   6.596   3.031   4.244
 2599SOL     OW 8695   4.091   6.080   6.202
 2599SOL    HW1 8696   4.097   6.036   6.291
 2599SOL    HW2 8697   4.131   6.172   6.207
 2600SOL     OW 8698   5.631   3.954   3.688
 2600SOL    HW1 8699   5.660   3.879   3.748
 2600SOL    HW2 8700   5.610   4.035   3.743
 2601SOL     OW 8701   3.443   2.894   5.623
 2601SOL    HW1 8702   3.387   2.814   5.600
 2601SOL    HW2 8703   3.424   2.967   5.558
 2602SOL     OW 8704   0.084   4.948   4.700
 2602SOL    HW1 8705   0.147   4.999   4.641
 2602SOL    HW2 8706   0.132   4.918   4.782
 2603SOL     OW 8707   2.318   2.382   1.769
 2603SOL    HW1 8708   2.414   2.378   1.798
 2603SOL    HW2 8709   2.273   2.460   1.812
 2604SOL     OW 8710   5.177   0.225   1.044
 2604SOL    HW1 8711   5.113   0.288   1.088
 2604SOL    HW2 8712   5.263   0.272   1.024
 2605SOL     OW 8713   4.330   4.661   3.516
 2605SOL    HW1 8714   4.347   4.623   3.425
 2605SOL    HW2 8715   4.327   4.761   3.510
 2606SOL     OW 8716   6.704   4.162   0.922
 2606SOL    HW1 8717   6.662   4.236   0.868
 2606SOL    HW2 8718   6.797   4.189   0.948
 2607SOL     OW 8719   1.804   1.228   3.540
 2607SOL    HW1 8720   1.748   1.263   3.616
 2607SOL    HW2 8721   1.770   1.266   3.454
 2608SOL     OW 8722   5.589   0.225   1.837
 2608SOL    HW1 8723   5.532   0.308   1.833
 2608SOL    HW2 8724   5.552   0.157   1.773
 2609SOL     OW 8725   0.672   2.526   2.457
 2609SOL    HW1 8726   0.625   2.614   2.448
 2609SOL    HW2 8727   0.625   2.458   2.400
 2610SOL     OW 8728   6.915   5.362   4.784
 2610SOL    HW1 8729   6.854   5.330   4.857
 2610SOL    HW2 8730   6.896   5.458   4.765
 2611SOL     OW 8731   5.247   6.912   0.709
 2611SOL    HW1 8732   5.186   6.877   0.637
 2611SOL    HW2 8733   5.289   6.835   0.757
 2612SOL     OW 8734   5.569   6.721   4.167
 2612SOL    HW1 8735   5.568   6.768   4.078
 2612SOL    HW2 8736   5.660   6.683   4.183
 2613SOL     OW 8737   3.168   6.920   2.062
 2613SOL    HW1 8738   3.086   6.872   2.031
 2613SOL    HW2 8739   3.160   6.940   2.160
 2614SOL     OW 8740   6.410   6.857   5.494
 2614SOL    HW1 8741   6.488   6.904   5.536
 2614SOL    HW2 8742   6.344   6.833   5.565
 2615SOL     OW 8743   5.467   5.530   4.001
 2615SOL    HW1 8744   5.460   5.433   3.978
 2615SOL    HW2 8745   5.488   5.582   3.919
 2616SOL     OW 8746   4.019   3.496   3.474
 2616SOL    HW1 8747   3.972   3.584   3.478
 2616SOL    HW2 8748   4.002   3.446   3.560
 2617SOL     OW 8749   3.564   5.072   0.964
 2617SOL    HW1 8750   3.645   5.119   0.930
 2617SOL    HW2 8751   3.568   5.065   1.063
 2618SOL     OW 8752   0.139   6.942   2.479
 2618SOL    HW1 8753   0.180   6.938   2.388
 2618SOL    HW2 8754   0.081   6.861   2.493
 2619SOL     OW 8755   4.488   1.960   2.232
 2619SOL    HW1 8756   4.397   1.919   2.226
 2619SOL    HW2 8757   4.528   1.967   2.141
 2620SOL     OW 8758   1.475   5.381   2.938
 2620SOL    HW1 8759   1.478   5.362   3.037
 2620SOL    HW2 8760   1.436   5.302   2.891
 2621SOL     OW 8761   0.447   5.525   3.379
 2621SOL    HW1 8762   0.455   5.425   3.383
 2621SOL    HW2 8763   0.430   5.560   3.471
 2622SOL     OW 8764   1.870   3.175   5.964
 2622SOL    HW1 8765   1.838   3.269   5.977
 2622SOL    HW2 8766   1.922   3.170   5.878
 2623SOL     OW 8767   3.433   1.102   4.234
 2623SOL    HW1 8768   3.509   1.124   4.295
 2623SOL    HW2 8769   3.364   1.175   4.241
 2624SOL     OW 8770   6.102   3.181   2.814
 2624SOL    HW1 8771   6.111   3.124   2.732
 2624SOL    HW2 8772   6.179   3.163   2.875
 2625SOL     OW 8773   1.834   2.953   5.269
 2625SOL    HW1 8774   1.891   2.882   5.309
 2625SOL    HW2 8775   1.863   3.042   5.304
 2626SOL     OW 8776   1.090   6.543   3.813
 2626SOL    HW1 8777   1.175   6.525   3.863
 2626SOL    HW2 8778   1.087   6.640   3.788
 2627SOL     OW 8779   0.379   1.016   4.638
 2627SOL    HW1 8780   0.396   0.941   4.702
 2627SOL    HW2 8781   0.280   1.023   4.621
 2628SOL     OW 8782   3.572   6.516   6.368
 2628SOL    HW1 8783   3.562   6.418   6.349
 2628SOL    HW2 8784   3.612   6.529   6.459
 2629SOL     OW 8785   3.853   3.959   1.656
 2629SOL    HW1 8786   3.803   4.018   1.720
 2629SOL    HW2 8787   3.903   3.889   1.707
 2630SOL     OW 8788   3.697   1.568   2.469
 2630SOL    HW1 8789   3.644   1.483   2.461
 2630SOL    HW2 8790   3.635   1.646   2.462
 2631SOL     OW 8791   5.040   6.839   4.032
 2631SOL    HW1 8792   5.039   6.833   4.131
 2631SOL    HW2 8793   5.129   6.873   4.001
 2632SOL     OW 8794   3.049   2.523   0.214
 2632SOL    HW1 8795   3.053   2.424   0.204
 2632SOL    HW2 8796   2.971   2.549   0.271
 2633SOL     OW 8797   5.898   2.764   6.816
 2633SOL    HW1 8798   5.928   2.857   6.839
 2633SOL    HW2 8799   5.803   2.766   6.784
 2634SOL     OW 8800   1.995   4.224   2.151
 2634SOL    HW1 8801   2.058   4.170   2.206
 2634SOL    HW2 8802   2.047   4.278   2.085
 2635SOL     OW 8803   5.753   6.462   4.115
 2635SOL    HW1 8804   5.768   6.367   4.141
 2635SOL    HW2 8805   5.659   6.474   4.083
 2636SOL     OW 8806   5.931   0.146   6.440
 2636SOL    HW1 8807   5.892   0.091   6.366
 2636SOL    HW2 8808   5.924   0.096   6.526
 2637SOL     OW 8809   6.058   0.742   3.352
 2637SOL    HW1 8810   5.987   0.813   3.350
 2637SOL    HW2 8811   6.021   0.660   3.396
 2638SOL     OW 8812   5.670   6.677   1.558
 2638SOL    HW1 8813   5.734   6.615   1.513
 2638SOL    HW2 8814   5.636   6.744   1.492
 2639SOL     OW 8815   6.158   6.803   2.225
 2639SOL    HW1 8816   6.108   6.825   2.142
 2639SOL    HW2 8817   6.251   6.839   2.218
 2640SOL     OW 8818   0.168   6.407   4.921
 2640SOL    HW1 8819   0.152   6.310   4.939
 2640SOL    HW2 8820   0.210   6.417   4.830
 2641SOL     OW 8821   5.791   3.533   0.451
 2641SOL    HW1 8822   5.737   3.615   0.435
 2641SOL    HW2 8823   5.775   3.500   0.544
 2642SOL     OW 8824   5.658   0.557   4.370
 2642SOL    HW1 8825   5.756   0.574   4.377
 2642SOL    HW2 8826   5.608   0.642   4.385
 2643SOL     OW 8827   6.506   5.675   2.790
 2643SOL    HW1 8828   6.465   5.685   2.699
 2643SOL    HW2 8829   6.466   5.741   2.853
 2644SOL     OW 8830   1.181   4.673   5.635
 2644SOL    HW1 8831   1.159   4.639   5.543
 2644SOL    HW2 8832   1.227   4.761   5.628
 2645SOL     OW 8833   5.076   6.902   5.549
 2645SOL    HW1 8834   5.137   6.858   5.615
 2645SOL    HW2 8835   5.130   6.948   5.478
 2646SOL     OW 8836   6.080   0.592   6.302
 2646SOL    HW1 8837   6.051   0.546   6.218
 2646SOL    HW2 8838   6.124   0.679   6.280
 2647SOL     OW 8839   4.963   0.709   0.830
 2647SOL    HW1 8840   4.981   0.722   0.733
 2647SOL    HW2 8841   5.043   0.738   0.883
 2648SOL     OW 8842   6.816   6.807   2.816
 2648SOL    HW1 8843   6.771   6.891   2.786
 2648SOL    HW2 8844   6.769   6.772   2.897
 2649SOL     OW 8845   3.662   1.577   5.995
 2649SOL    HW1 8846   3.582   1.523   6.019
 2649SOL    HW2 8847   3.673   1.652   6.061
 2650SOL     OW 8848   0.597   4.907   3.624
 2650SOL    HW1 8849   0.614   4.809   3.639
 2650SOL    HW2 8850   0.507   4.931   3.660
 2651SOL     OW 8851   0.700   1.741   1.128
 2651SOL    HW1 8852   0.672   1.674   1.197
 2651SOL    HW2 8853   0.772   1.701   1.071
 2652SOL     OW 8854   3.383   2.983   3.516
 2652SOL    HW1 8855   3.469   3.033   3.529
 2652SOL    HW2 8856   3.384   2.936   3.428
 2653SOL     OW 8857   5.596   0.025   6.142
 2653SOL    HW1 8858   5.660   6.980   6.113
 2653SOL    HW2 8859   5.528   7.011   6.204
 2654SOL     OW 8860   5.391   3.130   5.948
 2654SOL    HW1 8861   5.476   3.079   5.958
 2654SOL    HW2 8862   5.330   3.110   6.024
 2655SOL     OW 8863   4.526   5.551   4.329
 2655SOL    HW1 8864   4.551   5.455   4.318
 2655SOL    HW2 8865   4.557   5.603   4.250
 2656SOL     OW 8866   5.269   4.890   3.827
 2656SOL    HW1 8867   5.270   4.872   3.926
 2656SOL    HW2 8868   5.182   4.933   3.802
 2657SOL     OW 8869   2.571   4.048   6.343
 2657SOL    HW1 8870   2.532   4.028   6.433
 2657SOL    HW2 8871   2.595   3.963   6.297
 2658SOL     OW 8872   6.278   4.877   6.320
 2658SOL    HW1 8873   6.192   4.833   6.295
 2658SOL    HW2 8874   6.325   4.908   6.238
 2659SOL     OW 8875   6.428   2.736   4.165
 2659SOL    HW1 8876   6.516   2.730   4.117
 2659SOL    HW2 8877   6.442   2.725   4.263
 2660SOL     OW 8878   6.744   2.085   2.239
 2660SOL    HW1 8879   6.769   2.153   2.171
 2660SOL    HW2 8880   6.724   2.130   2.326
 2661SOL     OW 8881   2.839   5.980   0.888
 2661SOL    HW1 8882   2.743   6.005   0.901
 2661SOL    HW2 8883   2.871   5.929   0.968
 2662SOL     OW 8884   4.340   6.775   4.289
 2662SOL    HW1 8885   4.259   6.831   4.308
 2662SOL    HW2 8886   4.344   6.699   4.354
 2663SOL     OW 8887   1.968   4.627   1.220
 2663SOL    HW1 8888   1.942   4.705   1.277
 2663SOL    HW2 8889   1.975   4.545   1.278
 2664SOL     OW 8890   3.289   3.946   3.487
 2664SOL    HW1 8891   3.257   4.004   3.413
 2664SOL    HW2 8892   3.337   3.867   3.449
 2665SOL     OW 8893   3.292   1.291   4.607
 2665SOL    HW1 8894   3.302   1.192   4.596
 2665SOL    HW2 8895   3.282   1.333   4.517
 2666SOL     OW 8896   5.037   4.987   0.874
 2666SOL    HW1 8897   5.027   4.997   0.775
 2666SOL    HW2 8898   5.045   4.890   0.897
 2667SOL     OW 8899   1.479   6.155   5.537
 2667SOL    HW1 8900   1.560   6.185   5.486
 2667SOL    HW2 8901   1.451   6.229   5.599
 2668SOL     OW 8902   6.971   3.477   4.365
 2668SOL    HW1 8903   6.962   3.380   4.388
 2668SOL    HW2 8904   0.038   3.494   4.329
 2669SOL     OW 8905   3.562   4.935   5.174
 2669SOL    HW1 8906   3.482   4.877   5.192
 2669SOL    HW2 8907   3.548   4.985   5.088
 2670SOL     OW 8908   0.051   1.063   6.756
 2670SOL    HW1 8909   0.025   1.094   6.847
 2670SOL    HW2 8910   0.036   1.137   6.690
 2671SOL     OW 8911   2.405   3.735   6.624
 2671SOL    HW1 8912   2.431   3.641   6.606
 2671SOL    HW2 8913   2.336   3.765   6.558
 2672SOL     OW 8914   1.383   5.385   0.027
 2672SOL    HW1 8915   1.371   5.308   0.091
 2672SOL    HW2 8916   1.381   5.351   6.958
 2673SOL     OW 8917   4.777   2.947   3.569
 2673SOL    HW1 8918   4.761   2.873   3.504
 2673SOL    HW2 8919   4.739   2.923   3.658
 2674SOL     OW 8920   1.556   4.583   4.710
 2674SOL    HW1 8921   1.607   4.617   4.631
 2674SOL    HW2 8922   1.580   4.636   4.791
 2675SOL     OW 8923   1.002   4.404   5.838
 2675SOL    HW1 8924   0.982   4.501   5.847
 2675SOL    HW2 8925   0.984   4.358   5.925
 2676SOL     OW 8926   5.089   1.938   2.681
 2676SOL    HW1 8927   5.068   2.028   2.645
 2676SOL    HW2 8928   5.011   1.903   2.732
 2677SOL     OW 8929   2.250   4.986   1.602
 2677SOL    HW1 8930   2.159   4.947   1.583
 2677SOL    HW2 8931   2.312   4.964   1.527
 2678SOL     OW 8932   1.134   4.873   6.974
 2678SOL    HW1 8933   1.192   4.941   6.928
 2678SOL    HW2 8934   1.055   4.918   7.015
 2679SOL     OW 8935   4.096   4.762   0.846
 2679SOL    HW1 8936   4.128   4.847   0.806
 2679SOL    HW2 8937   3.996   4.763   0.851
 2680SOL     OW 8938   2.249   1.695   0.672
 2680SOL    HW1 8939   2.297   1.607   0.676
 2680SOL    HW2 8940   2.159   1.686   0.714
 2681SOL     OW 8941   1.185   3.814   4.086
 2681SOL    HW1 8942   1.279   3.786   4.104
 2681SOL    HW2 8943   1.156   3.881   4.155
 2682SOL     OW 8944   5.508   2.728   2.104
 2682SOL    HW1 8945   5.496   2.643   2.054
 2682SOL    HW2 8946   5.506   2.805   2.040
 2683SOL     OW 8947   0.578   4.943   1.416
 2683SOL    HW1 8948   0.503   4.934   1.481
 2683SOL    HW2 8949   0.607   5.039   1.411
 2684SOL     OW 8950   4.240   6.220   2.194
 2684SOL    HW1 8951   4.184   6.163   2.134
 2684SOL    HW2 8952   4.214   6.316   2.183
 2685SOL     OW 8953   6.261   0.166   3.959
 2685SOL    HW1 8954   6.188   0.098   3.964
 2685SOL    HW2 8955   6.227   0.250   3.918
 2686SOL     OW 8956   1.750   2.507   4.413
 2686SOL    HW1 8957   1.848   2.529   4.417
 2686SOL    HW2 8958   1.736   2.411   4.435
 2687SOL     OW 8959   3.904   4.890   2.511
 2687SOL    HW1 8960   3.822   4.833   2.509
 2687SOL    HW2 8961   3.889   4.972   2.456
 2688SOL     OW 8962   4.282   5.362   5.546
 2688SOL    HW1 8963   4.215   5.432   5.522
 2688SOL    HW2 8964   4.241   5.272   5.537
 2689SOL     OW 8965   1.321   1.675   3.583
 2689SOL    HW1 8966   1.276   1.613   3.648
 2689SOL    HW2 8967   1.325   1.767   3.622
 2690SOL     OW 8968   4.012   3.125   3.754
 2690SOL    HW1 8969   3.956   3.202   3.723
 2690SOL    HW2 8970   4.068   3.091   3.678
 2691SOL     OW 8971   1.720   5.770   1.613
 2691SOL    HW1 8972   1.638   5.815   1.578
 2691SOL    HW2 8973   1.709   5.751   1.711
 2692SOL     OW 8974   6.201   5.050   3.585
 2692SOL    HW1 8975   6.110   5.090   3.603
 2692SOL    HW2 8976   6.261   5.070   3.662
 2693SOL     OW 8977   2.333   4.403   3.131
 2693SOL    HW1 8978   2.306   4.318   3.086
 2693SOL    HW2 8979   2.372   4.465   3.064
 2694SOL     OW 8980   3.126   0.183   2.884
 2694SOL    HW1 8981   3.066   0.239   2.826
 2694SOL    HW2 8982   3.206   0.236   2.911
 2695SOL     OW 8983   5.099   2.196   2.557
 2695SOL    HW1 8984   5.198   2.206   2.564
 2695SOL    HW2 8985   5.068   2.231   2.468
 2696SOL     OW 8986   4.114   3.137   5.626
 2696SOL    HW1 8987   4.161   3.049   5.616
 2696SOL    HW2 8988   4.036   3.140   5.564
 2697SOL     OW 8989   4.250   1.904   3.925
 2697SOL    HW1 8990   4.227   1.980   3.865
 2697SOL    HW2 8991   4.190   1.826   3.905
 2698SOL     OW 8992   0.993   4.691   0.671
 2698SOL    HW1 8993   1.071   4.650   0.719
 2698SOL    HW2 8994   1.021   4.778   0.631
 2699SOL     OW 8995   3.377   5.383   0.630
 2699SOL    HW1 8996   3.418   5.306   0.582
 2699SOL    HW2 8997   3.284   5.359   0.658
 2700SOL     OW 8998   2.078   3.422   2.967
 2700SOL    HW1 8999   2.125   3.335   2.982
 2700SOL    HW2 9000   2.099   3.485   3.041
 2701SOL     OW 9001   3.954   0.606   6.792
 2701SOL    HW1 9002   4.015   0.580   6.867
 2701SOL    HW2 9003   3.870   0.552   6.798
 2702SOL     OW 9004   6.442   1.893   3.413
 2702SOL    HW1 9005   6.374   1.871   3.343
 2702SOL    HW2 9006   6.415   1.977   3.460
 2703SOL     OW 9007   3.027   1.070   3.052
 2703SOL    HW1 9008   2.936   1.105   3.033
 2703SOL    HW2 9009   3.083   1.075   2.969
 2704SOL     OW 9010   2.105   5.628   1.831
 2704SOL    HW1 9011   2.193   5.585   1.808
 2704SOL    HW2 9012   2.097   5.635   1.930
 2705SOL     OW 9013   0.032   4.859   3.821
 2705SOL    HW1 9014   0.006   4.865   3.725
 2705SOL    HW2 9015   0.099   4.786   3.833
 2706SOL     OW 9016   6.703   1.592   1.977
 2706SOL    HW1 9017   6.681   1.679   1.931
 2706SOL    HW2 9018   6.623   1.559   2.025
 2707SOL     OW 9019   2.315   0.676   6.987
 2707SOL    HW1 9020   2.269   0.707   0.045
 2707SOL    HW2 9021   2.334   0.578   6.994
 2708SOL     OW 9022   2.553   2.526   1.960
 2708SOL    HW1 9023   2.593   2.473   2.034
 2708SOL    HW2 9024   2.462   2.557   1.986
 2709SOL     OW 9025   4.822   6.110   1.241
 2709SOL    HW1 9026   4.907   6.090   1.192
 2709SOL    HW2 9027   4.840   6.181   1.309
 2710SOL     OW 9028   6.811   3.481   2.940
 2710SOL    HW1 9029   6.846   3.504   2.849
 2710SOL    HW2 9030   6.870   3.412   2.981
 2711SOL     OW 9031   1.504   6.908   2.535
 2711SOL    HW1 9032   1.469   7.000   2.515
 2711SOL    HW2 9033   1.440   6.840   2.499
 2712SOL     OW 9034   2.979   4.643   0.344
 2712SOL    HW1 9035   2.997   4.653   0.246
 2712SOL    HW2 9036   2.897   4.695   0.368
 2713SOL     OW 9037   2.123   2.598   4.924
 2713SOL    HW1 9038   2.131   2.691   4.959
 2713SOL    HW2 9039   2.187   2.585   4.849
 2714SOL     OW 9040   5.145   1.705   6.615
 2714SOL    HW1 9041   5.126   1.712   6.713
 2714SOL    HW2 9042   5.186   1.790   6.583
 2715SOL     OW 9043   5.828   0.385   0.119
 2715SOL    HW1 9044   5.770   0.422   0.046
 2715SOL    HW2 9045   5.828   0.285   0.114
 2716SOL     OW 9046   6.922   5.628   1.145
 2716SOL    HW1 9047   6.982   5.607   1.222
 2716SOL    HW2 9048   6.977   5.656   1.066
 2717SOL     OW 9049   0.794   5.754   1.978
 2717SOL    HW1 9050   0.855   5.749   1.899
 2717SOL    HW2 9051   0.699   5.739   1.948
 2718SOL     OW 9052   1.910   3.810   4.227
 2718SOL    HW1 9053   1.882   3.830   4.321
 2718SOL    HW2 9054   1.907   3.711   4.211
 2719SOL     OW 9055   4.422   4.830   2.181
 2719SOL    HW1 9056   4.520   4.808   2.176
 2719SOL    HW2 9057   4.407   4.920   2.141
 2720SOL     OW 9058   1.868   5.887   3.201
 2720SOL    HW1 9059   1.823   5.973   3.177
 2720SOL    HW2 9060   1.822   5.812   3.154
 2721SOL     OW 9061   2.600   0.290   4.734
 2721SOL    HW1 9062   2.615   0.353   4.810
 2721SOL    HW2 9063   2.629   0.333   4.649
 2722SOL     OW 9064   0.181   5.713   3.314
 2722SOL    HW1 9065   0.199   5.727   3.412
 2722SOL    HW2 9066   0.268   5.704   3.266
 2723SOL     OW 9067   2.435   0.813   5.662
 2723SOL    HW1 9068   2.456   0.803   5.759
 2723SOL    HW2 9069   2.394   0.903   5.647
 2724SOL     OW 9070   3.202   5.378   6.062
 2724SOL    HW1 9071   3.133   5.314   6.095
 2724SOL    HW2 9072   3.270   5.394   6.134
 2725SOL     OW 9073   5.200   4.583   3.167
 2725SOL    HW1 9074   5.199   4.663   3.108
 2725SOL    HW2 9075   5.148   4.509   3.124
 2726SOL     OW 9076   5.227   4.820   1.957
 2726SOL    HW1 9077   5.234   4.837   1.858
 2726SOL    HW2 9078   5.142   4.771   1.976
 2727SOL     OW 9079   0.693   5.007   3.105
 2727SOL    HW1 9080   0.782   5.044   3.131
 2727SOL    HW2 9081   0.680   5.016   3.006
 2728SOL     OW 9082   2.918   0.168   5.092
 2728SOL    HW1 9083   2.991   0.231   5.121
 2728SOL    HW2 9084   2.853   0.217   5.034
 2729SOL     OW 9085   6.145   5.649   2.653
 2729SOL    HW1 9086   6.177   5.608   2.739
 2729SOL    HW2 9087   6.063   5.601   2.622
 2730SOL     OW 9088   2.301   0.120   0.879
 2730SOL    HW1 9089   2.223   0.114   0.818
 2730SOL    HW2 9090   2.383   0.089   0.832
 2731SOL     OW 9091   2.946   3.688   1.333
 2731SOL    HW1 9092   3.030   3.642   1.304
 2731SOL    HW2 9093   2.897   3.629   1.399
 2732SOL     OW 9094   5.845   2.954   2.489
 2732SOL    HW1 9095   5.811   2.986   2.577
 2732SOL    HW2 9096   5.790   2.876   2.458
 2733SOL     OW 9097   0.936   0.131   5.871
 2733SOL    HW1 9098   0.944   0.226   5.843
 2733SOL    HW2 9099   0.998   0.113   5.948
 2734SOL     OW 9100   1.582   5.953   3.808
 2734SOL    HW1 9101   1.667   5.905   3.787
 2734SOL    HW2 9102   1.600   6.020   3.881
 2735SOL     OW 9103   0.884   4.063   2.905
 2735SOL    HW1 9104   0.873   4.125   2.828
 2735SOL    HW2 9105   0.980   4.060   2.933
 2736SOL     OW 9106   4.879   0.805   5.208
 2736SOL    HW1 9107   4.945   0.880   5.207
 2736SOL    HW2 9108   4.789   0.839   5.182
 2737SOL     OW 9109   3.341   3.543   6.360
 2737SOL    HW1 9110   3.359   3.561   6.263
 2737SOL    HW2 9111   3.353   3.445   6.378
 2738SOL     OW 9112   5.107   5.541   3.726
 2738SOL    HW1 9113   5.178   5.582   3.670
 2738SOL    HW2 9114   5.130   5.553   3.823
 2739SOL     OW 9115   5.768   4.592   0.830
 2739SOL    HW1 9116   5.733   4.506   0.867
 2739SOL    HW2 9117   5.862   4.606   0.861
 2740SOL     OW 9118   6.374   1.988   2.245
 2740SOL    HW1 9119   6.387   1.914   2.178
 2740SOL    HW2 9120   6.302   2.049   2.213
 2741SOL     OW 9121   0.188   1.794   5.897
 2741SOL    HW1 9122   0.223   1.703   5.873
 2741SOL    HW2 9123   0.177   1.848   5.814
 2742SOL     OW 9124   1.143   5.678   6.385
 2742SOL    HW1 9125   1.231   5.651   6.345
 2742SOL    HW2 9126   1.157   5.705   6.480
 2743SOL     OW 9127   5.447   5.747   1.477
 2743SOL    HW1 9128   5.355   5.781   1.457
 2743SOL    HW2 9129   5.498   5.736   1.392
 2744SOL     OW 9130   4.306   2.426   6.637
 2744SOL    HW1 9131   4.277   2.512   6.679
 2744SOL    HW2 9132   4.318   2.439   6.539
 2745SOL     OW 9133   1.787   6.143   0.747
 2745SOL    HW1 9134   1.757   6.088   0.824
 2745SOL    HW2 9135   1.866   6.099   0.704
 2746SOL     OW 9136   1.721   2.651   5.029
 2746SOL    HW1 9137   1.766   2.602   4.955
 2746SOL    HW2 9138   1.771   2.735   5.049
 2747SOL     OW 9139   5.719   5.242   5.323
 2747SOL    HW1 9140   5.686   5.330   5.289
 2747SOL    HW2 9141   5.650   5.172   5.306
 2748SOL     OW 9142   3.773   1.466   3.595
 2748SOL    HW1 9143   3.796   1.500   3.504
 2748SOL    HW2 9144   3.674   1.474   3.609
 2749SOL     OW 9145   5.486   4.285   4.339
 2749SOL    HW1 9146   5.409   4.233   4.301
 2749SOL    HW2 9147   5.457   4.329   4.424
 2750SOL     OW 9148   0.521   5.594   1.634
 2750SOL    HW1 9149   0.526   5.543   1.720
 2750SOL    HW2 9150   0.524   5.692   1.653
 2751SOL     OW 9151   1.944   6.882   0.867
 2751SOL    HW1 9152   1.859   6.936   0.861
 2751SOL    HW2 9153   1.937   6.803   0.806
 2752SOL     OW 9154   4.627   6.307   4.967
 2752SOL    HW1 9155   4.713   6.333   5.010
 2752SOL    HW2 9156   4.552   6.314   5.034
 2753SOL     OW 9157   3.287   5.680   6.306
 2753SOL    HW1 9158   3.290   5.706   6.209
 2753SOL    HW2 9159   3.333   5.592   6.317
 2754SOL     OW 9160   0.478   0.290   4.182
 2754SOL    HW1 9161   0.517   0.382   4.186
 2754SOL    HW2 9162   0.384   0.294   4.147
 2755SOL     OW 9163   2.757   6.280   3.530
 2755SOL    HW1 9164   2.765   6.244   3.622
 2755SOL    HW2 9165   2.837   6.252   3.476
 2756SOL     OW 9166   5.774   4.056   4.523
 2756SOL    HW1 9167   5.689   4.005   4.519
 2756SOL    HW2 9168   5.772   4.129   4.455
 2757SOL     OW 9169   4.048   2.255   6.873
 2757SOL    HW1 9170   3.960   2.210   6.893
 2757SOL    HW2 9171   4.033   2.352   6.857
 2758SOL     OW 9172   5.097   4.970   3.402
 2758SOL    HW1 9173   5.128   4.907   3.331
 2758SOL    HW2 9174   5.153   4.958   3.484
 2759SOL     OW 9175   3.578   4.333   5.909
 2759SOL    HW1 9176   3.677   4.332   5.902
 2759SOL    HW2 9177   3.550   4.351   6.003
 2760SOL     OW 9178   5.926   5.867   3.011
 2760SOL    HW1 9179   6.014   5.906   3.038
 2760SOL    HW2 9180   5.856   5.895   3.077
 2761SOL     OW 9181   1.930   3.740   2.969
 2761SOL    HW1 9182   1.946   3.668   3.037
 2761SOL    HW2 9183   2.010   3.799   2.963
 2762SOL     OW 9184   1.313   1.978   6.833
 2762SOL    HW1 9185   1.263   1.934   6.758
 2762SOL    HW2 9186   1.387   2.033   6.795
 2763SOL     OW 9187   4.934   1.690   6.113
 2763SOL    HW1 9188   4.936   1.776   6.062
 2763SOL    HW2 9189   4.843   1.648   6.104
 2764SOL     OW 9190   0.988   4.514   2.868
 2764SOL    HW1 9191   0.956   4.592   2.922
 2764SOL    HW2 9192   1.055   4.462   2.922
 2765SOL     OW 9193   6.280   6.704   6.852
 2765SOL    HW1 9194   6.264   6.637   6.924
 2765SOL    HW2 9195   6.318   6.788   6.892
 2766SOL     OW 9196   4.401   1.261   7.022
 2766SOL    HW1 9197   4.464   1.322   0.044
 2766SOL    HW2 9198   4.319   1.312   6.996
 2767SOL     OW 9199   5.671   5.814   6.083
 2767SOL    HW1 9200   5.585   5.770   6.055
 2767SOL    HW2 9201   5.746   5.749   6.074
 2768SOL     OW 9202   3.722   0.099   1.071
 2768SOL    HW1 9203   3.696   0.002   1.080
 2768SOL    HW2 9204   3.745   0.118   0.976
 2769SOL     OW 9205   1.868   4.018   5.633
 2769SOL    HW1 9206   1.966   4.036   5.624
 2769SOL    HW2 9207   1.830   3.997   5.543
 2770SOL     OW 9208   3.377   6.717   6.278
 2770SOL    HW1 9209   3.304   6.674   6.225
 2770SOL    HW2 9210   3.453   6.653   6.288
 2771SOL     OW 9211   5.235   7.011   3.987
 2771SOL    HW1 9212   5.191   0.062   4.036
 2771SOL    HW2 9213   5.333   0.004   3.979
 2772SOL     OW 9214   3.666   0.680   2.745
 2772SOL    HW1 9215   3.657   0.581   2.737
 2772SOL    HW2 9216   3.697   0.703   2.837
 2773SOL     OW 9217   0.370   2.748   4.719
 2773SOL    HW1 9218   0.304   2.699   4.776
 2773SOL    HW2 9219   0.339   2.842   4.706
 2774SOL     OW 9220   5.046   2.162   3.341
 2774SOL    HW1 9221   5.119   2.162   3.409
 2774SOL    HW2 9222   5.046   2.249   3.291
 2775SOL     OW 9223   0.187   3.752   4.052
 2775SOL    HW1 9224   0.161   3.659   4.029
 2775SOL    HW2 9225   0.106   3.803   4.081
 2776SOL     OW 9226   4.569   4.559   6.239
 2776SOL    HW1 9227   4.476   4.593   6.255
 2776SOL    HW2 9228   4.615   4.619   6.173
 2777SOL     OW 9229   3.079   2.288   5.929
 2777SOL    HW1 9230   3.156   2.234   5.963
 2777SOL    HW2 9231   3.035   2.239   5.853
 2778SOL     OW 9232   2.551   5.723   6.627
 2778SOL    HW1 9233   2.538   5.816   6.592
 2778SOL    HW2 9234   2.629   5.681   6.581
 2779SOL     OW 9235   5.650   6.333   2.096
 2779SOL    HW1 9236   5.679   6.322   2.001
 2779SOL    HW2 9237   5.573   6.272   2.115
 2780SOL     OW 9238   0.620   1.204   6.186
 2780SOL    HW1 9239   0.634   1.106   6.170
 2780SOL    HW2 9240   0.691   1.238   6.248
 2781SOL     OW 9241   6.569   0.950   2.166
 2781SOL    HW1 9242   6.617   1.004   2.235
 2781SOL    HW2 9243   6.470   0.961   2.177
 2782SOL     OW 9244   4.254   1.028   6.542
 2782SOL    HW1 9245   4.194   1.090   6.593
 2782SOL    HW2 9246   4.199   0.970   6.483
 2783SOL     OW 9247   6.125   3.495   2.152
 2783SOL    HW1 9248   6.156   3.489   2.057
 2783SOL    HW2 9249   6.058   3.423   2.169
 2784SOL     OW 9250   2.038   1.765   1.996
 2784SOL    HW1 9251   1.960   1.821   1.969
 2784SOL    HW2 9252   2.041   1.683   1.940
 2785SOL     OW 9253   4.944   2.925   1.698
 2785SOL    HW1 9254   5.028   2.939   1.750
 2785SOL    HW2 9255   4.873   2.887   1.757
 2786SOL     OW 9256   6.803   5.301   0.627
 2786SOL    HW1 9257   6.858   5.262   0.553
 2786SOL    HW2 9258   6.780   5.230   0.693
 2787SOL     OW 9259   6.252   5.716   5.861
 2787SOL    HW1 9260   6.187   5.791   5.872
 2787SOL    HW2 9261   6.342   5.753   5.836
 2788SOL     OW 9262   3.223   6.502   5.822
 2788SOL    HW1 9263   3.310   6.512   5.772
 2788SOL    HW2 9264   3.210   6.407   5.847
 2789SOL     OW 9265   1.574   2.817   4.019
 2789SOL    HW1 9266   1.666   2.838   4.054
 2789SOL    HW2 9267   1.566   2.719   4.003
 2790SOL     OW 9268   2.348   5.395   0.531
 2790SOL    HW1 9269   2.414   5.436   0.469
 2790SOL    HW2 9270   2.333   5.456   0.609
 2791SOL     OW 9271   6.924   3.536   2.706
 2791SOL    HW1 9272   6.843   3.569   2.658
 2791SOL    HW2 9273   6.980   3.482   2.644
 2792SOL     OW 9274   3.323   0.876   5.153
 2792SOL    HW1 9275   3.401   0.937   5.142
 2792SOL    HW2 9276   3.240   0.930   5.168
 2793SOL     OW 9277   4.122   3.912   1.229
 2793SOL    HW1 9278   4.118   3.896   1.328
 2793SOL    HW2 9279   4.201   3.969   1.207
 2794SOL     OW 9280   0.186   1.491   6.403
 2794SOL    HW1 9281   0.173   1.572   6.461
 2794SOL    HW2 9282   0.117   1.422   6.427
 2795SOL     OW 9283   0.145   4.792   1.072
 2795SOL    HW1 9284   0.164   4.867   1.008
 2795SOL    HW2 9285   0.224   4.779   1.132
 2796SOL     OW 9286   0.620   6.169   5.681
 2796SOL    HW1 9287   0.601   6.184   5.584
 2796SOL    HW2 9288   0.707   6.212   5.705
 2797SOL     OW 9289   5.782   6.614   4.351
 2797SOL    HW1 9290   5.742   6.546   4.413
 2797SOL    HW2 9291   5.805   6.570   4.264
 2798SOL     OW 9292   6.593   6.761   1.788
 2798SOL    HW1 9293   6.580   6.669   1.827
 2798SOL    HW2 9294   6.673   6.804   1.830
 2799SOL     OW 9295   4.192   5.864   4.805
 2799SOL    HW1 9296   4.230   5.787   4.857
 2799SOL    HW2 9297   4.130   5.916   4.864
 2800SOL     OW 9298   6.446   0.698   6.899
 2800SOL    HW1 9299   6.427   0.618   6.842
 2800SOL    HW2 9300   6.361   0.748   6.916
 2801SOL     OW 9301   0.367   5.086   6.104
 2801SOL    HW1 9302   0.296   5.119   6.165
 2801SOL    HW2 9303   0.327   5.031   6.031
 2802SOL     OW 9304   6.384   6.464   5.535
 2802SOL    HW1 9305   6.318   6.527   5.576
 2802SOL    HW2 9306   6.362   6.451   5.439
 2803SOL     OW 9307   3.442   3.082   6.020
 2803SOL    HW1 9308   3.425   2.999   5.967
 2803SOL    HW2 9309   3.520   3.131   5.982
 2804SOL     OW 9310   0.627   2.757   4.080
 2804SOL    HW1 9311   0.706   2.788   4.133
 2804SOL    HW2 9312   0.551   2.737   4.142
 2805SOL     OW 9313   4.718   3.980   1.717
 2805SOL    HW1 9314   4.682   4.023   1.634
 2805SOL    HW2 9315   4.760   3.893   1.693
 2806SOL     OW 9316   1.437   3.917   5.833
 2806SOL    HW1 9317   1.390   3.979   5.770
 2806SOL    HW2 9318   1.514   3.875   5.786
 2807SOL     OW 9319   2.931   0.286   2.712
 2807SOL    HW1 9320   2.865   0.360   2.721
 2807SOL    HW2 9321   2.882   0.199   2.702
 2808SOL     OW 9322   6.130   5.731   0.597
 2808SOL    HW1 9323   6.124   5.632   0.605
 2808SOL    HW2 9324   6.188   5.755   0.519
 2809SOL     OW 9325   6.352   4.922   2.452
 2809SOL    HW1 9326   6.412   4.891   2.526
 2809SOL    HW2 9327   6.362   4.862   2.373
 2810SOL     OW 9328   2.520   5.653   3.687
 2810SOL    HW1 9329   2.541   5.716   3.612
 2810SOL    HW2 9330   2.596   5.588   3.697
 2811SOL     OW 9331   0.419   0.123   2.250
 2811SOL    HW1 9332   0.511   0.116   2.211
 2811SOL    HW2 9333   0.417   0.194   2.320
 2812SOL     OW 9334   0.766   3.409   1.038
 2812SOL    HW1 9335   0.673   3.439   1.021
 2812SOL    HW2 9336   0.806   3.372   0.954
 2813SOL     OW 9337   0.217   1.867   1.003
 2813SOL    HW1 9338   0.136   1.841   1.055
 2813SOL    HW2 9339   0.234   1.965   1.013
 2814SOL     OW 9340   2.433   4.433   6.974
 2814SOL    HW1 9341   2.369   4.451   6.899
 2814SOL    HW2 9342   2.526   4.456   6.945
 2815SOL     OW 9343   0.198   5.845   4.858
 2815SOL    HW1 9344   0.179   5.793   4.941
 2815SOL    HW2 9345   0.113   5.887   4.825
 2816SOL     OW 9346   0.179   6.178   5.542
 2816SOL    HW1 9347   0.221   6.095   5.506
 2816SOL    HW2 9348   0.130   6.225   5.469
 2817SOL     OW 9349   3.947   0.268   1.888
 2817SOL    HW1 9350   3.915   0.343   1.830
 2817SOL    HW2 9351   3.894   0.265   1.972
 2818SOL     OW 9352   1.917   0.490   1.483
 2818SOL    HW1 9353   1.825   0.497   1.522
 2818SOL    HW2 9354   1.946   0.394   1.484
 2819SOL     OW 9355   0.602   6.922   0.579
 2819SOL    HW1 9356   0.607   6.832   0.622
 2819SOL    HW2 9357   0.506   6.947   0.566
 2820SOL     OW 9358   0.742   2.479   2.079
 2820SOL    HW1 9359   0.730   2.516   2.171
 2820SOL    HW2 9360   0.816   2.411   2.080
 2821SOL     OW 9361   3.651   4.272   6.746
 2821SOL    HW1 9362   3.683   4.328   6.670
 2821SOL    HW2 9363   3.727   4.217   6.781
 2822SOL     OW 9364   4.015   2.500   0.532
 2822SOL    HW1 9365   4.011   2.531   0.437
 2822SOL    HW2 9366   4.101   2.529   0.574
 2823SOL     OW 9367   5.187   1.226   0.643
 2823SOL    HW1 9368   5.230   1.147   0.686
 2823SOL    HW2 9369   5.113   1.260   0.701
 2824SOL     OW 9370   1.128   3.438   5.669
 2824SOL    HW1 9371   1.075   3.521   5.655
 2824SOL    HW2 9372   1.196   3.453   5.741
 2825SOL     OW 9373   5.305   1.672   6.139
 2825SOL    HW1 9374   5.269   1.581   6.159
 2825SOL    HW2 9375   5.292   1.692   6.041
 2826SOL     OW 9376   0.807   3.535   5.997
 2826SOL    HW1 9377   0.722   3.515   5.948
 2826SOL    HW2 9378   0.848   3.450   6.029
 2827SOL     OW 9379   0.039   1.225   6.507
 2827SOL    HW1 9380   6.975   1.259   6.476
 2827SOL    HW2 9381   0.074   1.158   6.442
 2828SOL     OW 9382   1.547   3.454   0.955
 2828SOL    HW1 9383   1.627   3.495   0.998
 2828SOL    HW2 9384   1.478   3.435   1.025
 2829SOL     OW 9385   3.636   4.130   3.352
 2829SOL    HW1 9386   3.616   4.081   3.437
 2829SOL    HW2 9387   3.732   4.157   3.350
 2830SOL     OW 9388   3.889   5.676   6.234
 2830SOL    HW1 9389   3.920   5.649   6.142
 2830SOL    HW2 9390   3.968   5.680   6.295
 2831SOL     OW 9391   6.901   2.287   2.144
 2831SOL    HW1 9392   6.875   2.384   2.142
 2831SOL    HW2 9393   6.952   2.265   2.061
 2832SOL     OW 9394   0.912   3.442   1.287
 2832SOL    HW1 9395   0.866   3.434   1.198
 2832SOL    HW2 9396   0.911   3.354   1.333
 2833SOL     OW 9397   2.142   1.433   2.049
 2833SOL    HW1 9398   2.108   1.479   1.967
 2833SOL    HW2 9399   2.104   1.341   2.054
 2834SOL     OW 9400   4.347   6.136   4.935
 2834SOL    HW1 9401   4.379   6.156   4.842
 2834SOL    HW2 9402   4.352   6.037   4.951
 2835SOL     OW 9403   0.858   6.393   0.535
 2835SOL    HW1 9404   0.863   6.481   0.489
 2835SOL    HW2 9405   0.948   6.349   0.532
 2836SOL     OW 9406   3.549   6.714   2.962
 2836SOL    HW1 9407   3.606   6.755   3.034
 2836SOL    HW2 9408   3.457   6.698   2.998
 2837SOL     OW 9409   5.895   3.965   2.431
 2837SOL    HW1 9410   5.984   4.002   2.455
 2837SOL    HW2 9411   5.904   3.901   2.354
 2838SOL     OW 9412   4.992   3.653   6.073
 2838SOL    HW1 9413   4.988   3.560   6.109
 2838SOL    HW2 9414   4.906   3.676   6.028
 2839SOL     OW 9415   6.064   3.589   4.144
 2839SOL    HW1 9416   6.103   3.517   4.202
 2839SOL    HW2 9417   5.977   3.619   4.183
 2840SOL     OW 9418   0.448   6.063   2.445
 2840SOL    HW1 9419   0.356   6.028   2.467
 2840SOL    HW2 9420   0.475   6.131   2.513
 2841SOL     OW 9421   6.063   2.452   1.616
 2841SOL    HW1 9422   6.117   2.373   1.644
 2841SOL    HW2 9423   6.045   2.447   1.517
 2842SOL     OW 9424   1.409   6.319   4.192
 2842SOL    HW1 9425   1.441   6.336   4.285
 2842SOL    HW2 9426   1.469   6.365   4.127
 2843SOL     OW 9427   2.249   2.858   3.179
 2843SOL    HW1 9428   2.254   2.790   3.252
 2843SOL    HW2 9429   2.310   2.832   3.104
 2844SOL     OW 9430   4.749   4.820   0.528
 2844SOL    HW1 9431   4.770   4.842   0.624
 2844SOL    HW2 9432   4.686   4.888   0.491
 2845SOL     OW 9433   4.361   2.458   2.975
 2845SOL    HW1 9434   4.431   2.519   2.939
 2845SOL    HW2 9435   4.352   2.472   3.073
 2846SOL     OW 9436   4.853   0.658   0.091
 2846SOL    HW1 9437   4.900   0.733   0.044
 2846SOL    HW2 9438   4.912   0.621   0.163
 2847SOL     OW 9439   4.704   4.426   2.211
 2847SOL    HW1 9440   4.694   4.405   2.308
 2847SOL    HW2 9441   4.651   4.361   2.157
 2848SOL     OW 9442   0.570   3.188   5.230
 2848SOL    HW1 9443   0.561   3.273   5.179
 2848SOL    HW2 9444   0.663   3.154   5.224
 2849SOL     OW 9445   3.451   0.338   2.590
 2849SOL    HW1 9446   3.493   0.360   2.678
 2849SOL    HW2 9447   3.433   0.240   2.585
 2850SOL     OW 9448   2.419   6.982   2.742
 2850SOL    HW1 9449   2.488   6.969   2.813
 2850SOL    HW2 9450   2.430   6.913   2.671
 2851SOL     OW 9451   4.299   3.227   1.123
 2851SOL    HW1 9452   4.384   3.203   1.169
 2851SOL    HW2 9453   4.297   3.188   1.031
 2852SOL     OW 9454   6.424   4.421   5.937
 2852SOL    HW1 9455   6.393   4.352   5.872
 2852SOL    HW2 9456   6.347   4.452   5.992
 2853SOL     OW 9457   0.086   3.620   0.394
 2853SOL    HW1 9458   0.034   3.705   0.403
 2853SOL    HW2 9459   0.086   3.591   0.298
 2854SOL     OW 9460   2.943   1.347   6.326
 2854SOL    HW1 9461   2.863   1.397   6.357
 2854SOL    HW2 9462   2.951   1.355   6.226
 2855SOL     OW 9463   1.684   1.588   4.423
 2855SOL    HW1 9464   1.630   1.663   4.462
 2855SOL    HW2 9465   1.634   1.547   4.347
 2856SOL     OW 9466   1.467   4.135   2.928
 2856SOL    HW1 9467   1.392   4.114   2.866
 2856SOL    HW2 9468   1.554   4.128   2.880
 2857SOL     OW 9469   0.478   3.065   1.017
 2857SOL    HW1 9470   0.427   3.044   0.933
 2857SOL    HW2 9471   0.413   3.087   1.090
 2858SOL     OW 9472   4.540   5.041   2.512
 2858SOL    HW1 9473   4.545   4.995   2.423
 2858SOL    HW2 9474   4.631   5.072   2.538
 2859SOL     OW 9475   5.148   5.813   1.466
 2859SOL    HW1 9476   5.099   5.786   1.383
 2859SOL    HW2 9477   5.084   5.816   1.543
 2860SOL     OW 9478   1.411   6.180   1.365
 2860SOL    HW1 9479   1.402   6.168   1.266
 2860SOL    HW2 9480   1.428   6.091   1.408
 2861SOL     OW 9481   4.062   4.607   6.439
 2861SOL    HW1 9482   4.107   4.589   6.352
 2861SOL    HW2 9483   4.080   4.531   6.502
 2862SOL     OW 9484   4.554   3.355   1.572
 2862SOL    HW1 9485   4.619   3.293   1.616
 2862SOL    HW2 9486   4.462   3.316   1.579
 2863SOL     OW 9487   6.077   6.968   5.847
 2863SOL    HW1 9488   6.105   7.002   5.936
 2863SOL    HW2 9489   5.994   7.016   5.817
 2864SOL     OW 9490   3.963   3.035   1.521
 2864SOL    HW1 9491   3.977   2.941   1.491
 2864SOL    HW2 9492   4.040   3.091   1.493
 2865SOL     OW 9493   5.060   6.246   4.489
 2865SOL    HW1 9494   5.059   6.345   4.500
 2865SOL    HW2 9495   4.976   6.207   4.526
 2866SOL     OW 9496   5.002   4.162   6.656
 2866SOL    HW1 9497   4.985   4.134   6.562
 2866SOL    HW2 9498   4.915   4.169   6.705
 2867SOL     OW 9499   6.275   6.899   1.792
 2867SOL    HW1 9500   6.281   6.799   1.797
 2867SOL    HW2 9501   6.352   6.939   1.842
 2868SOL     OW 9502   1.726   0.877   6.099
 2868SOL    HW1 9503   1.774   0.965   6.098
 2868SOL    HW2 9504   1.773   0.814   6.037
 2869SOL     OW 9505   5.515   6.099   3.685
 2869SOL    HW1 9506   5.586   6.126   3.620
 2869SOL    HW2 9507   5.441   6.166   3.682
 2870SOL     OW 9508   1.191   1.475   1.325
 2870SOL    HW1 9509   1.271   1.473   1.384
 2870SOL    HW2 9510   1.217   1.442   1.234
 2871SOL     OW 9511   6.545   1.946   1.559
 2871SOL    HW1 9512   6.579   2.024   1.506
 2871SOL    HW2 9513   6.449   1.931   1.537
 2872SOL     OW 9514   2.683   1.536   2.387
 2872SOL    HW1 9515   2.657   1.632   2.381
 2872SOL    HW2 9516   2.716   1.504   2.298
 2873SOL     OW 9517   0.758   6.185   1.298
 2873SOL    HW1 9518   0.662   6.204   1.321
 2873SOL    HW2 9519   0.811   6.269   1.303
 2874SOL     OW 9520   2.638   0.477   2.978
 2874SOL    HW1 9521   2.552   0.522   2.951
 2874SOL    HW2 9522   2.714   0.518   2.928
 2875SOL     OW 9523   2.697   7.017   2.331
 2875SOL    HW1 9524   2.735   0.078   2.299
 2875SOL    HW2 9525   2.620   0.010   2.393
 2876SOL     OW 9526   1.580   6.395   1.886
 2876SOL    HW1 9527   1.581   6.343   1.801
 2876SOL    HW2 9528   1.559   6.334   1.962
 2877SOL     OW 9529   1.659   0.933   5.795
 2877SOL    HW1 9530   1.663   0.835   5.817
 2877SOL    HW2 9531   1.695   0.985   5.872
 2878SOL     OW 9532   3.836   2.900   4.911
 2878SOL    HW1 9533   3.889   2.820   4.883
 2878SOL    HW2 9534   3.764   2.917   4.844
 2879SOL     OW 9535   3.918   4.125   5.713
 2879SOL    HW1 9536   3.855   4.198   5.739
 2879SOL    HW2 9537   4.012   4.154   5.729
 2880SOL     OW 9538   1.126   1.946   4.061
 2880SOL    HW1 9539   1.060   1.933   3.987
 2880SOL    HW2 9540   1.087   2.005   4.131
 2881SOL     OW 9541   3.042   6.033   6.484
 2881SOL    HW1 9542   2.960   5.977   6.469
 2881SOL    HW2 9543   3.016   6.129   6.493
 2882SOL     OW 9544   4.708   6.449   0.168
 2882SOL    HW1 9545   4.717   6.365   0.222
 2882SOL    HW2 9546   4.745   6.526   0.221
 2883SOL     OW 9547   6.108   6.501   3.157
 2883SOL    HW1 9548   6.032   6.524   3.096
 2883SOL    HW2 9549   6.092   6.541   3.247
 2884SOL     OW 9550   6.788   5.562   2.476
 2884SOL    HW1 9551   6.762   5.520   2.563
 2884SOL    HW2 9552   6.827   5.652   2.494
 2885SOL     OW 9553   1.208   3.190   2.728
 2885SOL    HW1 9554   1.201   3.191   2.628
 2885SOL    HW2 9555   1.303   3.207   2.755
 2886SOL     OW 9556   3.036   4.580   6.455
 2886SOL    HW1 9557   3.028   4.522   6.374
 2886SOL    HW2 9558   3.128   4.573   6.493
 2887SOL     OW 9559   0.705   6.691   4.245
 2887SOL    HW1 9560   0.730   6.695   4.342
 2887SOL    HW2 9561   0.615   6.733   4.232
 2888SOL     OW 9562   6.739   6.319   0.324
 2888SOL    HW1 9563   6.652   6.352   0.288
 2888SOL    HW2 9564   6.768   6.238   0.273
 2889SOL     OW 9565   2.998   6.722   3.074
 2889SOL    HW1 9566   2.902   6.751   3.073
 2889SOL    HW2 9567   3.003   6.623   3.067
 2890SOL     OW 9568   1.868   0.050   1.154
 2890SOL    HW1 9569   1.929   0.073   1.078
 2890SOL    HW2 9570   1.871   6.977   1.171
 2891SOL     OW 9571   6.636   3.274   2.753
 2891SOL    HW1 9572   6.649   3.281   2.852
 2891SOL    HW2 9573   6.538   3.279   2.731
 2892SOL     OW 9574   6.138   3.940   0.757
 2892SOL    HW1 9575   6.232   3.974   0.763
 2892SOL    HW2 9576   6.076   4.007   0.796
 2893SOL     OW 9577   0.289   5.562   4.791
 2893SOL    HW1 9578   0.232   5.521   4.719
 2893SOL    HW2 9579   0.260   5.656   4.805
 2894SOL     OW 9580   1.279   5.212   2.071
 2894SOL    HW1 9581   1.234   5.127   2.101
 2894SOL    HW2 9582   1.377   5.197   2.064
 2895SOL     OW 9583   3.700   0.044   6.151
 2895SOL    HW1 9584   3.688   0.067   6.054
 2895SOL    HW2 9585   3.725   6.973   6.159
 2896SOL     OW 9586   5.376   6.447   5.067
 2896SOL    HW1 9587   5.455   6.507   5.081
 2896SOL    HW2 9588   5.381   6.370   5.130
 2897SOL     OW 9589   2.968   4.862   3.241
 2897SOL    HW1 9590   3.052   4.843   3.292
 2897SOL    HW2 9591   2.981   4.839   3.145
 2898SOL     OW 9592   5.752   4.305   2.275
 2898SOL    HW1 9593   5.815   4.254   2.333
 2898SOL    HW2 9594   5.791   4.314   2.183
 2899SOL     OW 9595   6.961   2.669   0.888
 2899SOL    HW1 9596   0.027   2.642   0.920
 2899SOL    HW2 9597   6.918   2.592   0.840
 2900SOL     OW 9598   2.830   3.900   6.877
 2900SOL    HW1 9599   2.780   3.827   6.831
 2900SOL    HW2 9600   2.854   3.970   6.809
 2901SOL     OW 9601   1.633   4.427   3.177
 2901SOL    HW1 9602   1.665   4.333   3.182
 2901SOL    HW2 9603   1.704   4.485   3.137
 2902SOL     OW 9604   0.400   5.788   3.882
 2902SOL    HW1 9605   0.343   5.865   3.911
 2902SOL    HW2 9606   0.372   5.705   3.930
 2903SOL     OW 9607   4.246   6.076   0.755
 2903SOL    HW1 9608   4.324   6.017   0.773
 2903SOL    HW2 9609   4.235   6.088   0.656
 2904SOL     OW 9610   2.722   4.391   5.315
 2904SOL    HW1 9611   2.775   4.454   5.258
 2904SOL    HW2 9612   2.774   4.306   5.327
 2905SOL     OW 9613   1.016   4.271   2.288
 2905SOL    HW1 9614   0.970   4.208   2.226
 2905SOL    HW2 9615   0.986   4.364   2.269
 2906SOL     OW 9616   5.716   5.678   2.871
 2906SOL    HW1 9617   5.654   5.647   2.943
 2906SOL    HW2 9618   5.697   5.774   2.850
 2907SOL     OW 9619   0.837   0.441   3.617
 2907SOL    HW1 9620   0.785   0.504   3.560
 2907SOL    HW2 9621   0.925   0.421   3.574
 2908SOL     OW 9622   4.908   6.908   3.068
 2908SOL    HW1 9623   4.945   6.819   3.041
 2908SOL    HW2 9624   4.936   6.928   3.162
 2909SOL     OW 9625   1.062   5.789   1.985
 2909SOL    HW1 9626   1.118   5.709   1.964
 2909SOL    HW2 9627   1.081   5.861   1.919
 2910SOL     OW 9628   0.086   0.996   3.312
 2910SOL    HW1 9629   0.109   1.065   3.381
 2910SOL    HW2 9630   0.126   0.908   3.339
 2911SOL     OW 9631   6.766   4.268   3.592
 2911SOL    HW1 9632   6.812   4.289   3.505
 2911SOL    HW2 9633   6.813   4.316   3.666
 2912SOL     OW 9634   6.841   6.568   0.402
 2912SOL    HW1 9635   6.793   6.488   0.366
 2912SOL    HW2 9636   6.788   6.650   0.383
 2913SOL     OW 9637   1.947   5.205   1.342
 2913SOL    HW1 9638   1.994   5.243   1.262
 2913SOL    HW2 9639   1.857   5.171   1.314
 2914SOL     OW 9640   5.683   4.996   0.548
 2914SOL    HW1 9641   5.736   4.935   0.490
 2914SOL    HW2 9642   5.745   5.056   0.599
 2915SOL     OW 9643   3.688   1.772   2.824
 2915SOL    HW1 9644   3.658   1.820   2.741
 2915SOL    HW2 9645   3.771   1.815   2.860
 2916SOL     OW 9646   2.317   5.695   0.503
 2916SOL    HW1 9647   2.319   5.634   0.424
 2916SOL    HW2 9648   2.297   5.789   0.473
 2917SOL     OW 9649   2.335   6.882   3.060
 2917SOL    HW1 9650   2.400   6.844   3.125
 2917SOL    HW2 9651   2.342   6.981   3.059
 2918SOL     OW 9652   5.942   4.191   0.894
 2918SOL    HW1 9653   6.014   4.255   0.919
 2918SOL    HW2 9654   5.854   4.239   0.893
 2919SOL     OW 9655   0.717   6.498   4.724
 2919SOL    HW1 9656   0.814   6.478   4.716
 2919SOL    HW2 9657   0.664   6.425   4.680
 2920SOL     OW 9658   1.397   0.509   2.147
 2920SOL    HW1 9659   1.318   0.516   2.209
 2920SOL    HW2 9660   1.367   0.528   2.053
 2921SOL     OW 9661   0.233   0.183   5.868
 2921SOL    HW1 9662   0.169   0.259   5.875
 2921SOL    HW2 9663   0.278   0.169   5.957
 2922SOL     OW 9664   4.604   0.903   3.550
 2922SOL    HW1 9665   4.614   0.990   3.599
 2922SOL    HW2 9666   4.515   0.863   3.571
 2923SOL     OW 9667   6.204   4.628   5.149
 2923SOL    HW1 9668   6.116   4.581   5.144
 2923SOL    HW2 9669   6.264   4.579   5.212
 2924SOL     OW 9670   7.014   2.375   5.185
 2924SOL    HW1 9671   0.015   2.323   5.104
 2924SOL    HW2 9672   6.946   2.445   5.160
 2925SOL     OW 9673   5.664   1.121   5.683
 2925SOL    HW1 9674   5.641   1.187   5.754
 2925SOL    HW2 9675   5.640   1.029   5.714
 2926SOL     OW 9676   0.569   1.522   4.703
 2926SOL    HW1 9677   0.664   1.552   4.701
 2926SOL    HW2 9678   0.560   1.444   4.764
 2927SOL     OW 9679   1.835   2.589   1.555
 2927SOL    HW1 9680   1.850   2.559   1.649
 2927SOL    HW2 9681   1.739   2.615   1.544
 2928SOL     OW 9682   6.343   1.999   0.007
 2928SOL    HW1 9683   6.276   2.027   0.076
 2928SOL    HW2 9684   6.413   2.070   7.023
 2929SOL     OW 9685   2.017   2.293   4.634
 2929SOL    HW1 9686   2.101   2.272   4.684
 2929SOL    HW2 9687   1.940   2.247   4.678
 2930SOL     OW 9688   6.801   5.619   4.808
 2930SOL    HW1 9689   6.832   5.706   4.845
 2930SOL    HW2 9690   6.808   5.621   4.708
 2931SOL     OW 9691   3.964   4.032   6.455
 2931SOL    HW1 9692   4.012   4.016   6.368
 2931SOL    HW2 9693   3.910   3.952   6.479
 2932SOL     OW 9694   6.823   5.624   0.690
 2932SOL    HW1 9695   6.828   5.674   0.603
 2932SOL    HW2 9696   6.820   5.526   0.672
 2933SOL     OW 9697   1.104   6.814   0.863
 2933SOL    HW1 9698   1.107   6.735   0.923
 2933SOL    HW2 9699   1.072   6.786   0.772
 2934SOL     OW 9700   4.161   3.587   0.517
 2934SOL    HW1 9701   4.091   3.578   0.588
 2934SOL    HW2 9702   4.244   3.629   0.557
 2935SOL     OW 9703   0.517   2.597   6.470
 2935SOL    HW1 9704   0.515   2.654   6.388
 2935SOL    HW2 9705   0.500   2.502   6.445
 2936SOL     OW 9706   4.631   0.400   0.563
 2936SOL    HW1 9707   4.628   0.404   0.663
 2936SOL    HW2 9708   4.616   0.492   0.525
 2937SOL     OW 9709   4.069   5.619   1.715
 2937SOL    HW1 9710   4.056   5.531   1.670
 2937SOL    HW2 9711   4.023   5.618   1.804
 2938SOL     OW 9712   6.275   6.251   6.180
 2938SOL    HW1 9713   6.223   6.258   6.095
 2938SOL    HW2 9714   6.215   6.217   6.253
 2939SOL     OW 9715   6.953   5.596   1.558
 2939SOL    HW1 9716   6.925   5.510   1.599
 2939SOL    HW2 9717   7.011   5.578   1.478
 2940SOL     OW 9718   5.627   5.863   4.035
 2940SOL    HW1 9719   5.702   5.805   4.065
 2940SOL    HW2 9720   5.546   5.844   4.090
 2941SOL     OW 9721   1.936   3.178   3.577
 2941SOL    HW1 9722   1.859   3.174   3.514
 2941SOL    HW2 9723   1.985   3.091   3.576
 2942SOL     OW 9724   2.645   1.618   0.041
 2942SOL    HW1 9725   2.579   1.640   0.112
 2942SOL    HW2 9726   2.629   1.676   6.986
 2943SOL     OW 9727   6.132   4.235   3.568
 2943SOL    HW1 9728   6.222   4.275   3.589
 2943SOL    HW2 9729   6.132   4.139   3.594
 2944SOL     OW 9730   2.661   6.217   3.961
 2944SOL    HW1 9731   2.760   6.233   3.963
 2944SOL    HW2 9732   2.643   6.120   3.975
 2945SOL     OW 9733   5.441   4.398   1.473
 2945SOL    HW1 9734   5.372   4.326   1.460
 2945SOL    HW2 9735   5.529   4.357   1.494
 2946SOL     OW 9736   2.943   4.030   6.219
 2946SOL    HW1 9737   2.916   4.048   6.124
 2946SOL    HW2 9738   2.921   3.935   6.241
 2947SOL     OW 9739   6.010   6.212   0.670
 2947SOL    HW1 9740   6.010   6.112   0.672
 2947SOL    HW2 9741   5.942   6.247   0.735
 2948SOL     OW 9742   5.967   4.579   3.056
 2948SOL    HW1 9743   5.981   4.584   3.155
 2948SOL    HW2 9744   6.001   4.492   3.022
 2949SOL     OW 9745   1.133   0.001   1.464
 2949SOL    HW1 9746   1.227   6.994   1.476
 2949SOL    HW2 9747   1.071   6.948   1.458
 2950SOL     OW 9748   4.827   5.028   2.539
 2950SOL    HW1 9749   4.919   5.060   2.561
 2950SOL    HW2 9750   4.824   4.928   2.545
 2951SOL     OW 9751   5.864   0.797   1.262
 2951SOL    HW1 9752   5.797   0.726   1.285
 2951SOL    HW2 9753   5.820   0.886   1.265
 2952SOL     OW 9754   5.783   0.970   4.448
 2952SOL    HW1 9755   5.799   1.042   4.381
 2952SOL    HW2 9756   5.870   0.924   4.469
 2953SOL     OW 9757   0.831   6.047   3.273
 2953SOL    HW1 9758   0.798   6.048   3.179
 2953SOL    HW2 9759   0.892   5.969   3.286
 2954SOL     OW 9760   0.863   4.328   6.294
 2954SOL    HW1 9761   0.801   4.267   6.244
 2954SOL    HW2 9762   0.833   4.334   6.389
 2955SOL     OW 9763   1.289   3.892   6.926
 2955SOL    HW1 9764   1.190   3.900   6.939
 2955SOL    HW2 9765   1.311   3.800   6.896
 2956SOL     OW 9766   6.590   4.581   3.677
 2956SOL    HW1 9767   6.560   4.603   3.584
 2956SOL    HW2 9768   6.682   4.618   3.693
 2957SOL     OW 9769   2.785   4.838   1.628
 2957SOL    HW1 9770   2.796   4.916   1.566
 2957SOL    HW2 9771   2.875   4.802   1.653
 2958SOL     OW 9772   2.148   5.047   3.369
 2958SOL    HW1 9773   2.113   4.957   3.398
 2958SOL    HW2 9774   2.212   5.081   3.438
 2959SOL     OW 9775   6.240   2.478   2.845
 2959SOL    HW1 9776   6.278   2.564   2.811
 2959SOL    HW2 9777   6.286   2.401   2.801
 2960SOL     OW 9778   4.313   0.813   0.382
 2960SOL    HW1 9779   4.241   0.840   0.447
 2960SOL    HW2 9780   4.358   0.730   0.415
 2961SOL     OW 9781   5.467   4.341   2.056
 2961SOL    HW1 9782   5.371   4.367   2.041
 2961SOL    HW2 9783   5.491   4.265   1.997
 2962SOL     OW 9784   6.558   6.525   2.345
 2962SOL    HW1 9785   6.599   6.434   2.352
 2962SOL    HW2 9786   6.562   6.571   2.434
 2963SOL     OW 9787   1.253   1.021   5.616
 2963SOL    HW1 9788   1.335   1.065   5.578
 2963SOL    HW2 9789   1.173   1.078   5.596
 2964SOL     OW 9790   0.683   3.060   6.712
 2964SOL    HW1 9791   0.658   3.107   6.797
 2964SOL    HW2 9792   0.603   3.014   6.675
 2965SOL     OW 9793   0.662   0.787   5.005
 2965SOL    HW1 9794   0.682   0.693   4.976
 2965SOL    HW2 9795   0.584   0.822   4.954
 2966SOL     OW 9796   4.142   5.639   3.536
 2966SOL    HW1 9797   4.202   5.565   3.507
 2966SOL    HW2 9798   4.111   5.691   3.457
 2967SOL     OW 9799   6.636   1.224   5.914
 2967SOL    HW1 9800   6.684   1.174   5.842
 2967SOL    HW2 9801   6.673   1.317   5.921
 2968SOL     OW 9802   1.584   1.966   1.344
 2968SOL    HW1 9803   1.524   2.032   1.299
 2968SOL    HW2 9804   1.615   2.004   1.432
 2969SOL     OW 9805   5.317   4.108   4.567
 2969SOL    HW1 9806   5.401   4.055   4.554
 2969SOL    HW2 9807   5.341   4.201   4.594
 2970SOL     OW 9808   2.159   2.837   5.057
 2970SOL    HW1 9809   2.092   2.904   5.028
 2970SOL    HW2 9810   2.250   2.879   5.059
 2971SOL     OW 9811   5.910   3.883   0.025
 2971SOL    HW1 9812   5.825   3.862   0.072
 2971SOL    HW2 9813   5.982   3.900   0.093
 2972SOL     OW 9814   6.102   5.666   6.195
 2972SOL    HW1 9815   6.187   5.678   6.247
 2972SOL    HW2 9816   6.095   5.572   6.163
 2973SOL     OW 9817   5.253   6.925   2.067
 2973SOL    HW1 9818   5.307   7.007   2.087
 2973SOL    HW2 9819   5.279   6.852   2.130
 2974SOL     OW 9820   5.530   5.014   3.747
 2974SOL    HW1 9821   5.432   4.994   3.747
 2974SOL    HW2 9822   5.576   4.951   3.684
 2975SOL     OW 9823   4.776   4.641   4.301
 2975SOL    HW1 9824   4.726   4.570   4.351
 2975SOL    HW2 9825   4.727   4.727   4.308
 2976SOL     OW 9826   4.835   2.265   2.641
 2976SOL    HW1 9827   4.902   2.191   2.635
 2976SOL    HW2 9828   4.812   2.296   2.549
 2977SOL     OW 9829   0.081   0.097   1.647
 2977SOL    HW1 9830   0.149   0.166   1.673
 2977SOL    HW2 9831   0.053   0.112   1.552
 2978SOL     OW 9832   4.125   4.438   5.925
 2978SOL    HW1 9833   4.123   4.479   5.834
 2978SOL    HW2 9834   4.047   4.377   5.936
 2979SOL     OW 9835   2.712   1.620   4.600
 2979SOL    HW1 9836   2.787   1.579   4.548
 2979SOL    HW2 9837   2.730   1.718   4.614
 2980SOL     OW 9838   4.105   3.929   6.205
 2980SOL    HW1 9839   4.024   3.874   6.183
 2980SOL    HW2 9840   4.183   3.896   6.150
 2981SOL     OW 9841   1.978   1.149   0.924
 2981SOL    HW1 9842   2.059   1.098   0.893
 2981SOL    HW2 9843   1.910   1.085   0.959
 2982SOL     OW 9844   1.578   6.917   2.104
 2982SOL    HW1 9845   1.582   6.886   2.009
 2982SOL    HW2 9846   1.508   6.988   2.113
 2983SOL     OW 9847   6.029   3.202   7.017
 2983SOL    HW1 9848   6.089   3.122   7.020
 2983SOL    HW2 9849   6.083   3.283   6.993
 2984SOL     OW 9850   6.237   5.024   6.948
 2984SOL    HW1 9851   6.161   5.084   6.971
 2984SOL    HW2 9852   6.244   4.951   7.016
 2985SOL     OW 9853   0.360   0.472   5.011
 2985SOL    HW1 9854   0.386   0.376   5.000
 2985SOL    HW2 9855   0.368   0.497   5.107
 2986SOL     OW 9856   3.444   4.044   2.734
 2986SOL    HW1 9857   3.413   4.133   2.701
 2986SOL    HW2 9858   3.524   4.057   2.793
 2987SOL     OW 9859   0.747   2.000   4.355
 2987SOL    HW1 9860   0.714   1.966   4.267
 2987SOL    HW2 9861   0.697   2.084   4.378
 2988SOL     OW 9862   1.119   1.238   0.880
 2988SOL    HW1 9863   1.213   1.215   0.904
 2988SOL    HW2 9864   1.118   1.316   0.819
 2989SOL     OW 9865   5.205   3.231   5.062
 2989SOL    HW1 9866   5.263   3.254   4.984
 2989SOL    HW2 9867   5.145   3.309   5.083
 2990SOL     OW 9868   4.926   1.830   4.770
 2990SOL    HW1 9869   4.927   1.927   4.792
 2990SOL    HW2 9870   4.838   1.805   4.730
 2991SOL     OW 9871   5.727   3.063   0.815
 2991SOL    HW1 9872   5.780   2.984   0.846
 2991SOL    HW2 9873   5.784   3.122   0.759
 2992SOL     OW 9874   0.380   3.687   5.548
 2992SOL    HW1 9875   0.362   3.609   5.488
 2992SOL    HW2 9876   0.404   3.767   5.492
 2993SOL     OW 9877   0.782   4.659   6.634
 2993SOL    HW1 9878   0.789   4.629   6.538
 2993SOL    HW2 9879   0.833   4.745   6.645
 2994SOL     OW 9880   4.753   6.128   0.087
 2994SOL    HW1 9881   4.815   6.205   0.103
 2994SOL    HW2 9882   4.734   6.120   7.014
 2995SOL     OW 9883   4.640   0.141   0.753
 2995SOL    HW1 9884   4.696   0.103   0.678
 2995SOL    HW2 9885   4.661   0.093   0.838
 2996SOL     OW 9886   1.643   1.851   4.497
 2996SOL    HW1 9887   1.738   1.878   4.514
 2996SOL    HW2 9888   1.587   1.878   4.575
 2997SOL     OW 9889   5.086   0.878   3.527
 2997SOL    HW1 9890   5.151   0.948   3.495
 2997SOL    HW2 9891   5.119   0.840   3.614
 2998SOL     OW 9892   2.861   0.936   3.207
 2998SOL    HW1 9893   2.933   0.956   3.141
 2998SOL    HW2 9894   2.900   0.890   3.287
 2999SOL     OW 9895   2.597   4.431   0.557
 2999SOL    HW1 9896   2.529   4.358   0.567
 2999SOL    HW2 9897   2.631   4.432   0.463
 3000SOL     OW 9898   2.845   3.620   5.146
 3000SOL    HW1 9899   2.820   3.707   5.189
 3000SOL    HW2 9900   2.937   3.594   5.175
 3001SOL     OW 9901   6.096   1.750   6.305
 3001SOL    HW1 9902   6.043   1.713   6.380
 3001SOL    HW2 9903   6.147   1.831   6.337
 3002SOL     OW 9904   2.855   1.169   1.447
 3002SOL    HW1 9905   2.949   1.172   1.412
 3002SOL    HW2 9906   2.810   1.085   1.415
 3003SOL     OW 9907   1.092   5.907   0.615
 3003SOL    HW1 9908   1.074   5.855   0.531
 3003SOL    HW2 9909   1.121   5.999   0.591
 3004SOL     OW 9910   2.635   5.092   3.944
 3004SOL    HW1 9911   2.592   5.051   4.024
 3004SOL    HW2 9912   2.725   5.053   3.929
 3005SOL     OW 9913   1.347   2.893   5.874
 3005SOL    HW1 9914   1.444   2.867   5.880
 3005SOL    HW2 9915   1.299   2.827   5.816
 3006SOL     OW 9916   4.909   2.109   5.398
 3006SOL    HW1 9917   4.916   2.010   5.402
 3006SOL    HW2 9918   4.926   2.140   5.305
 3007SOL     OW 9919   5.625   5.507   7.012
 3007SOL    HW1 9920   5.613   5.425   6.957
 3007SOL    HW2 9921   5.711   5.551   6.988
 3008SOL     OW 9922   4.202   2.506   5.862
 3008SOL    HW1 9923   4.169   2.452   5.939
 3008SOL    HW2 9924   4.158   2.474   5.778
 3009SOL     OW 9925   0.402   2.891   3.131
 3009SOL    HW1 9926   0.383   2.836   3.213
 3009SOL    HW2 9927   0.367   2.845   3.050
 3010SOL     OW 9928   4.088   5.622   6.403
 3010SOL    HW1 9929   4.134   5.536   6.378
 3010SOL    HW2 9930   4.086   5.632   6.502
 3011SOL     OW 9931   5.905   0.132   1.254
 3011SOL    HW1 9932   5.996   0.104   1.283
 3011SOL    HW2 9933   5.892   0.111   1.157
 3012SOL     OW 9934   2.680   3.110   6.129
 3012SOL    HW1 9935   2.720   3.195   6.093
 3012SOL    HW2 9936   2.685   3.111   6.228
 3013SOL     OW 9937   0.099   6.273   4.085
 3013SOL    HW1 9938   0.145   6.361   4.072
 3013SOL    HW2 9939   0.015   6.271   4.031
 3014SOL     OW 9940   4.687   1.086   5.577
 3014SOL    HW1 9941   4.671   1.114   5.482
 3014SOL    HW2 9942   4.612   1.118   5.634
 3015SOL     OW 9943   1.593   0.873   0.787
 3015SOL    HW1 9944   1.513   0.828   0.748
 3015SOL    HW2 9945   1.673   0.855   0.729
 3016SOL     OW 9946   2.961   6.528   4.388
 3016SOL    HW1 9947   2.963   6.564   4.481
 3016SOL    HW2 9948   3.049   6.545   4.343
 3017SOL     OW 9949   6.252   5.844   1.934
 3017SOL    HW1 9950   6.281   5.940   1.935
 3017SOL    HW2 9951   6.257   5.808   1.841
 3018SOL     OW 9952   3.220   0.216   0.371
 3018SOL    HW1 9953   3.191   0.174   0.285
 3018SOL    HW2 9954   3.311   0.184   0.394
 3019SOL     OW 9955   1.677   6.735   6.416
 3019SOL    HW1 9956   1.755   6.796   6.407
 3019SOL    HW2 9957   1.595   6.787   6.440
 3020SOL     OW 9958   5.308   3.476   0.165
 3020SOL    HW1 9959   5.314   3.400   0.100
 3020SOL    HW2 9960   5.303   3.439   0.258
 3021SOL     OW 9961   3.505   6.493   5.339
 3021SOL    HW1 9962   3.584   6.484   5.279
 3021SOL    HW2 9963   3.517   6.434   5.419
 3022SOL     OW 9964   3.880   5.820   3.544
 3022SOL    HW1 9965   3.944   5.812   3.468
 3022SOL    HW2 9966   3.786   5.819   3.509
 3023SOL     OW 9967   4.298   6.795   2.899
 3023SOL    HW1 9968   4.198   6.803   2.895
 3023SOL    HW2 9969   4.324   6.699   2.888
 3024SOL     OW 9970   0.308   6.656   6.165
 3024SOL    HW1 9971   0.315   6.564   6.127
 3024SOL    HW2 9972   0.274   6.651   6.259
 3025SOL     OW 9973   4.093   5.932   0.962
 3025SOL    HW1 9974   4.105   5.994   0.885
 3025SOL    HW2 9975   4.183   5.901   0.995
 3026SOL     OW 9976   5.468   1.417   0.325
 3026SOL    HW1 9977   5.526   1.437   0.404
 3026SOL    HW2 9978   5.411   1.496   0.304
 3027SOL     OW 9979   4.957   1.581   1.601
 3027SOL    HW1 9980   4.873   1.527   1.602
 3027SOL    HW2 9981   5.032   1.526   1.565
 3028SOL     OW 9982   2.673   4.490   6.384
 3028SOL    HW1 9983   2.738   4.567   6.386
 3028SOL    HW2 9984   2.687   4.437   6.301
 3029SOL     OW 9985   0.912   2.409   4.434
 3029SOL    HW1 9986   0.965   2.382   4.354
 3029SOL    HW2 9987   0.969   2.463   4.496
 3030SOL     OW 9988   1.499   3.841   1.637
 3030SOL    HW1 9989   1.549   3.919   1.672
 3030SOL    HW2 9990   1.476   3.856   1.541
 3031SOL     OW 9991   1.504   5.733   1.125
 3031SOL    HW1 9992   1.480   5.666   1.194
 3031SOL    HW2 9993   1.534   5.818   1.169
 3032SOL     OW 9994   1.498   0.427   2.841
 3032SOL    HW1 9995   1.518   0.409   2.745
 3032SOL    HW2 9996   1.576   0.400   2.897
 3033SOL     OW 9997   6.428   2.399   4.602
 3033SOL    HW1 9998   6.343   2.377   4.650
 3033SOL    HW2 9999   6.471   2.478   4.645
 3034SOL     OW10000   0.670   5.960   3.829
 3034SOL    HW110001   0.767   5.935   3.836
 3034SOL    HW210002   0.615   5.877   3.825
 3035SOL     OW10003   1.719   2.480   6.203
 3035SOL    HW110004   1.818   2.484   6.194
 3035SOL    HW210005   1.679   2.448   6.117
 3036SOL     OW10006   2.039   2.495   6.487
 3036SOL    HW110007   1.958   2.489   6.546
 3036SOL    HW210008   2.106   2.557   6.529
 3037SOL     OW10009   0.780   5.683   6.144
 3037SOL    HW110010   0.832   5.745   6.085
 3037SOL    HW210011   0.782   5.718   6.238
 3038SOL     OW10012   4.748   5.038   6.209
 3038SOL    HW110013   4.744   5.126   6.257
 3038SOL    HW210014   4.842   5.018   6.183
 3039SOL     OW10015   6.195   3.946   6.642
 3039SOL    HW110016   6.127   3.886   6.683
 3039SOL    HW210017   6.281   3.939   6.692
 3040SOL     OW10018   3.655   4.040   5.670
 3040SOL    HW110019   3.629   4.091   5.589
 3040SOL    HW210020   3.753   4.047   5.684
 3041SOL     OW10021   2.074   4.188   5.039
 3041SOL    HW110022   2.011   4.110   5.038
 3041SOL    HW210023   2.168   4.156   5.030
 3042SOL     OW10024   0.682   5.068   3.386
 3042SOL    HW110025   0.692   5.029   3.294
 3042SOL    HW210026   0.676   4.994   3.453
 3043SOL     OW10027   3.080   4.078   1.039
 3043SOL    HW110028   3.171   4.046   1.064
 3043SOL    HW210029   3.079   4.104   0.943
 3044SOL     OW10030   3.465   3.660   5.058
 3044SOL    HW110031   3.486   3.587   4.994
 3044SOL    HW210032   3.536   3.665   5.128
 3045SOL     OW10033   4.974   1.493   3.025
 3045SOL    HW110034   5.010   1.546   3.102
 3045SOL    HW210035   4.881   1.462   3.046
 3046SOL     OW10036   5.466   5.473   0.632
 3046SOL    HW110037   5.511   5.455   0.720
 3046SOL    HW210038   5.499   5.407   0.564
 3047SOL     OW10039   6.307   0.419   6.898
 3047SOL    HW110040   6.281   0.406   6.802
 3047SOL    HW210041   6.232   0.461   6.947
 3048SOL     OW10042   4.132   3.122   1.302
 3048SOL    HW110043   4.183   3.142   1.218
 3048SOL    HW210044   4.181   3.161   1.380
 3049SOL     OW10045   1.418   0.639   4.293
 3049SOL    HW110046   1.329   0.658   4.250
 3049SOL    HW210047   1.478   0.718   4.283
 3050SOL     OW10048   3.215   2.390   1.090
 3050SOL    HW110049   3.258   2.398   1.000
 3050SOL    HW210050   3.215   2.294   1.118
 3051SOL     OW10051   2.460   6.782   4.867
 3051SOL    HW110052   2.475   6.873   4.827
 3051SOL    HW210053   2.544   6.752   4.912
 3052SOL     OW10054   5.799   6.264   2.613
 3052SOL    HW110055   5.738   6.325   2.664
 3052SOL    HW210056   5.892   6.302   2.614
 3053SOL     OW10057   2.247   4.063   0.441
 3053SOL    HW110058   2.201   4.147   0.469
 3053SOL    HW210059   2.267   4.067   0.343
 3054SOL     OW10060   5.601   1.485   2.864
 3054SOL    HW110061   5.693   1.455   2.890
 3054SOL    HW210062   5.607   1.565   2.805
 3055SOL     OW10063   6.006   6.073   6.648
 3055SOL    HW110064   5.999   6.069   6.747
 3055SOL    HW210065   5.936   6.014   6.607
 3056SOL     OW10066   4.841   1.736   6.492
 3056SOL    HW110067   4.853   1.648   6.538
 3056SOL    HW210068   4.930   1.780   6.479
 3057SOL     OW10069   6.122   5.597   3.520
 3057SOL    HW110070   6.124   5.691   3.554
 3057SOL    HW210071   6.215   5.559   3.520
 3058SOL     OW10072   5.814   4.002   0.356
 3058SOL    HW110073   5.811   4.097   0.386
 3058SOL    HW210074   5.895   3.957   0.393
 3059SOL     OW10075   2.320   2.631   4.740
 3059SOL    HW110076   2.344   2.556   4.679
 3059SOL    HW210077   2.342   2.718   4.696
 3060SOL     OW10078   3.549   4.930   5.485
 3060SOL    HW110079   3.464   4.941   5.537
 3060SOL    HW210080   3.621   4.896   5.546
 3061SOL     OW10081   5.427   4.692   5.740
 3061SOL    HW110082   5.366   4.771   5.739
 3061SOL    HW210083   5.437   4.658   5.646
 3062SOL     OW10084   4.230   4.449   1.424
 3062SOL    HW110085   4.329   4.433   1.431
 3062SOL    HW210086   4.190   4.456   1.515
 3063SOL     OW10087   0.141   4.113   1.440
 3063SOL    HW110088   0.114   4.064   1.524
 3063SOL    HW210089   0.177   4.203   1.465
 3064SOL     OW10090   4.050   2.515   6.845
 3064SOL    HW110091   3.952   2.532   6.839
 3064SOL    HW210092   4.098   2.575   6.780
 3065SOL     OW10093   1.165   0.823   0.327
 3065SOL    HW110094   1.189   0.904   0.380
 3065SOL    HW210095   1.101   0.849   0.254
 3066SOL     OW10096   4.860   5.631   5.473
 3066SOL    HW110097   4.907   5.719   5.476
 3066SOL    HW210098   4.783   5.637   5.410
 3067SOL     OW10099   2.923   2.100   6.856
 3067SOL    HW110100   2.980   2.020   6.873
 3067SOL    HW210101   2.888   2.097   6.762
 3068SOL     OW10102   0.479   1.165   0.961
 3068SOL    HW110103   0.548   1.195   1.027
 3068SOL    HW210104   0.415   1.102   1.005
 3069SOL     OW10105   5.261   0.016   2.707
 3069SOL    HW110106   5.176   0.043   2.662
 3069SOL    HW210107   5.240   7.007   2.799
 3070SOL     OW10108   2.840   1.356   0.800
 3070SOL    HW110109   2.812   1.434   0.856
 3070SOL    HW210110   2.921   1.313   0.841
 3071SOL     OW10111   0.341   3.167   3.602
 3071SOL    HW110112   0.311   3.087   3.654
 3071SOL    HW210113   0.401   3.139   3.528
 3072SOL     OW10114   2.020   6.450   6.631
 3072SOL    HW110115   2.059   6.385   6.566
 3072SOL    HW210116   1.955   6.403   6.691
 3073SOL     OW10117   6.121   4.640   0.868
 3073SOL    HW110118   6.082   4.719   0.915
 3073SOL    HW210119   6.207   4.667   0.824
 3074SOL     OW10120   1.292   3.764   1.098
 3074SOL    HW110121   1.275   3.672   1.135
 3074SOL    HW210122   1.389   3.772   1.073
 3075SOL     OW10123   2.110   5.307   3.767
 3075SOL    HW110124   2.155   5.297   3.856
 3075SOL    HW210125   2.170   5.272   3.696
 3076SOL     OW10126   0.250   1.308   4.777
 3076SOL    HW110127   0.220   1.400   4.803
 3076SOL    HW210128   0.270   1.306   4.679
 3077SOL     OW10129   6.636   3.909   1.276
 3077SOL    HW110130   6.631   4.008   1.285
 3077SOL    HW210131   6.675   3.885   1.187
 3078SOL     OW10132   6.630   2.867   1.795
 3078SOL    HW110133   6.603   2.955   1.757
 3078SOL    HW210134   6.574   2.795   1.754
 3079SOL     OW10135   2.021   2.719   5.293
 3079SOL    HW110136   2.006   2.643   5.355
 3079SOL    HW210137   2.099   2.699   5.234
 3080SOL     OW10138   4.759   4.849   0.847
 3080SOL    HW110139   4.784   4.915   0.919
 3080SOL    HW210140   4.765   4.756   0.884
 3081SOL     OW10141   1.398   4.089   0.704
 3081SOL    HW110142   1.483   4.117   0.749
 3081SOL    HW210143   1.399   3.990   0.691
 3082SOL     OW10144   3.667   5.234   4.454
 3082SOL    HW110145   3.680   5.228   4.355
 3082SOL    HW210146   3.581   5.188   4.478
 3083SOL     OW10147   1.967   5.962   2.883
 3083SOL    HW110148   1.877   5.926   2.908
 3083SOL    HW210149   1.961   6.062   2.873
 3084SOL     OW10150   1.126   3.817   3.336
 3084SOL    HW110151   1.190   3.881   3.380
 3084SOL    HW210152   1.137   3.727   3.377
 3085SOL     OW10153   4.607   5.114   0.656
 3085SOL    HW110154   4.691   5.166   0.669
 3085SOL    HW210155   4.589   5.104   0.558
 3086SOL     OW10156   6.419   1.291   6.646
 3086SOL    HW110157   6.492   1.224   6.656
 3086SOL    HW210158   6.379   1.282   6.554
 3087SOL     OW10159   2.934   6.770   2.002
 3087SOL    HW110160   2.877   6.773   2.084
 3087SOL    HW210161   2.881   6.736   1.924
 3088SOL     OW10162   0.306   2.744   5.516
 3088SOL    HW110163   0.298   2.736   5.615
 3088SOL    HW210164   0.402   2.732   5.490
 3089SOL     OW10165   4.845   0.055   5.064
 3089SOL    HW110166   4.763   0.112   5.062
 3089SOL    HW210167   4.902   0.081   5.142
 3090SOL     OW10168   1.043   1.895   1.436
 3090SOL    HW110169   1.119   1.856   1.486
 3090SOL    HW210170   1.068   1.986   1.402
 3091SOL     OW10171   1.414   1.726   1.017
 3091SOL    HW110172   1.342   1.702   0.952
 3091SOL    HW210173   1.437   1.823   1.007
 3092SOL     OW10174   5.914   6.889   2.387
 3092SOL    HW110175   5.938   6.800   2.424
 3092SOL    HW210176   5.992   6.951   2.393
 3093SOL     OW10177   5.555   5.268   6.039
 3093SOL    HW110178   5.527   5.260   5.944
 3093SOL    HW210179   5.479   5.243   6.099
 3094SOL     OW10180   2.821   0.719   5.850
 3094SOL    HW110181   2.847   0.674   5.765
 3094SOL    HW210182   2.725   0.701   5.870
 3095SOL     OW10183   2.399   2.778   5.287
 3095SOL    HW110184   2.441   2.835   5.217
 3095SOL    HW210185   2.416   2.819   5.377
 3096SOL     OW10186   0.808   3.357   4.973
 3096SOL    HW110187   0.897   3.390   4.942
 3096SOL    HW210188   0.806   3.257   4.968
 3097SOL     OW10189   5.773   2.455   6.625
 3097SOL    HW110190   5.871   2.468   6.640
 3097SOL    HW210191   5.759   2.395   6.546
 3098SOL     OW10192   1.917   1.690   2.288
 3098SOL    HW110193   1.983   1.754   2.248
 3098SOL    HW210194   1.967   1.618   2.336
 3099SOL     OW10195   0.667   6.868   3.946
 3099SOL    HW110196   0.757   6.902   3.920
 3099SOL    HW210197   0.627   6.816   3.870
 3100SOL     OW10198   6.638   6.327   2.867
 3100SOL    HW110199   6.605   6.371   2.783
 3100SOL    HW210200   6.628   6.390   2.944
 3101SOL     OW10201   4.310   6.614   5.974
 3101SOL    HW110202   4.346   6.561   6.050
 3101SOL    HW210203   4.386   6.644   5.916
 3102SOL     OW10204   7.012   5.052   0.486
 3102SOL    HW110205   0.058   5.082   0.421
 3102SOL    HW210206   0.027   5.041   0.577
 3103SOL     OW10207   3.235   0.107   1.285
 3103SOL    HW110208   3.182   0.145   1.361
 3103SOL    HW210209   3.312   0.167   1.265
 3104SOL     OW10210   4.703   0.446   6.230
 3104SOL    HW110211   4.655   0.389   6.164
 3104SOL    HW210212   4.801   0.435   6.219
 3105SOL     OW10213   5.293   3.225   7.023
 3105SOL    HW110214   5.266   3.130   0.015
 3105SOL    HW210215   5.325   3.234   6.929
 3106SOL     OW10216   5.512   1.207   4.974
 3106SOL    HW110217   5.501   1.131   4.910
 3106SOL    HW210218   5.568   1.178   5.052
 3107SOL     OW10219   4.120   1.427   5.205
 3107SOL    HW110220   4.161   1.367   5.136
 3107SOL    HW210221   4.026   1.447   5.179
 3108SOL     OW10222   2.117   4.208   4.476
 3108SOL    HW110223   2.167   4.287   4.512
 3108SOL    HW210224   2.166   4.124   4.498
 3109SOL     OW10225   6.633   6.679   4.045
 3109SOL    HW110226   6.709   6.686   4.110
 3109SOL    HW210227   6.591   6.769   4.033
 3110SOL     OW10228   2.410   4.354   3.730
 3110SOL    HW110229   2.470   4.335   3.653
 3110SOL    HW210230   2.424   4.448   3.761
 3111SOL     OW10231   6.379   4.621   4.761
 3111SOL    HW110232   6.284   4.602   4.783
 3111SOL    HW210233   6.436   4.605   4.841
 3112SOL     OW10234   3.678   2.263   0.032
 3112SOL    HW110235   3.583   2.257   0.064
 3112SOL    HW210236   3.713   2.355   0.049
 3113SOL     OW10237   2.496   5.514   3.198
 3113SOL    HW110238   2.579   5.560   3.231
 3113SOL    HW210239   2.520   5.452   3.123
 3114SOL     OW10240   3.686   1.682   0.330
 3114SOL    HW110241   3.592   1.701   0.304
 3114SOL    HW210242   3.695   1.687   0.430
 3115SOL     OW10243   3.998   4.331   5.323
 3115SOL    HW110244   4.064   4.355   5.252
 3115SOL    HW210245   4.000   4.233   5.339
 3116SOL     OW10246   0.335   2.427   0.772
 3116SOL    HW110247   0.408   2.379   0.723
 3116SOL    HW210248   0.327   2.520   0.737
 3117SOL     OW10249   4.705   1.953   5.595
 3117SOL    HW110250   4.657   1.904   5.523
 3117SOL    HW210251   4.764   2.023   5.555
 3118SOL     OW10252   1.657   0.776   2.732
 3118SOL    HW110253   1.581   0.835   2.705
 3118SOL    HW210254   1.648   0.753   2.829
 3119SOL     OW10255   4.006   3.477   5.937
 3119SOL    HW110256   4.051   3.446   5.853
 3119SOL    HW210257   4.074   3.488   6.009
 3120SOL     OW10258   2.686   0.006   5.328
 3120SOL    HW110259   2.656   6.936   5.328
 3120SOL    HW210260   2.779   0.012   5.291
 3121SOL     OW10261   4.892   1.533   4.585
 3121SOL    HW110262   4.931   1.455   4.633
 3121SOL    HW210263   4.793   1.532   4.595
 3122SOL     OW10264   4.123   4.742   4.410
 3122SOL    HW110265   4.143   4.796   4.328
 3122SOL    HW210266   4.157   4.649   4.398
 3123SOL     OW10267   2.470   1.535   2.773
 3123SOL    HW110268   2.551   1.561   2.825
 3123SOL    HW210269   2.445   1.609   2.710
 3124SOL     OW10270   4.697   6.673   4.406
 3124SOL    HW110271   4.675   6.770   4.413
 3124SOL    HW210272   4.622   6.619   4.444
 3125SOL     OW10273   1.340   2.782   5.426
 3125SOL    HW110274   1.326   2.698   5.373
 3125SOL    HW210275   1.398   2.844   5.374
 3126SOL     OW10276   5.614   5.832   4.398
 3126SOL    HW110277   5.686   5.762   4.406
 3126SOL    HW210278   5.555   5.810   4.320
 3127SOL     OW10279   0.790   2.302   4.646
 3127SOL    HW110280   0.853   2.343   4.580
 3127SOL    HW210281   0.839   2.236   4.703
 3128SOL     OW10282   3.938   0.225   0.425
 3128SOL    HW110283   3.885   0.305   0.455
 3128SOL    HW210284   4.036   0.249   0.424
 3129SOL     OW10285   4.573   3.242   1.229
 3129SOL    HW110286   4.519   3.287   1.300
 3129SOL    HW210287   4.668   3.235   1.258
 3130SOL     OW10288   1.782   4.083   1.084
 3130SOL    HW110289   1.845   4.161   1.090
 3130SOL    HW210290   1.752   4.059   1.176
 3131SOL     OW10291   6.665   4.140   1.709
 3131SOL    HW110292   6.726   4.208   1.669
 3131SOL    HW210293   6.717   4.056   1.728
 3132SOL     OW10294   4.081   3.964   0.117
 3132SOL    HW110295   4.181   3.959   0.129
 3132SOL    HW210296   4.060   4.038   0.054
 3133SOL     OW10297   4.175   0.036   3.329
 3133SOL    HW110298   4.221   7.020   3.250
 3133SOL    HW210299   4.080   0.057   3.304
 3134SOL     OW10300   3.411   5.155   2.392
 3134SOL    HW110301   3.363   5.207   2.321
 3134SOL    HW210302   3.379   5.186   2.482
 3135SOL     OW10303   5.811   6.866   6.035
 3135SOL    HW110304   5.794   6.944   5.975
 3135SOL    HW210305   5.838   6.787   5.979
 3136SOL     OW10306   6.300   1.289   2.897
 3136SOL    HW110307   6.228   1.220   2.901
 3136SOL    HW210308   6.355   1.275   2.815
 3137SOL     OW10309   6.425   6.813   0.146
 3137SOL    HW110310   6.512   6.765   0.134
 3137SOL    HW210311   6.416   6.885   0.076
 3138SOL     OW10312   5.355   5.281   3.945
 3138SOL    HW110313   5.378   5.200   3.999
 3138SOL    HW210314   5.367   5.261   3.848
 3139SOL     OW10315   2.224   5.385   1.058
 3139SOL    HW110316   2.142   5.329   1.050
 3139SOL    HW210317   2.264   5.398   0.967
 3140SOL     OW10318   6.585   6.498   5.703
 3140SOL    HW110319   6.597   6.408   5.744
 3140SOL    HW210320   6.511   6.494   5.636
 3141SOL     OW10321   0.092   2.482   6.731
 3141SOL    HW110322   0.004   2.515   6.765
 3141SOL    HW210323   0.134   2.553   6.674
 3142SOL     OW10324   5.219   0.754   2.040
 3142SOL    HW110325   5.194   0.833   2.097
 3142SOL    HW210326   5.205   0.670   2.092
 3143SOL     OW10327   5.903   1.501   0.299
 3143SOL    HW110328   5.901   1.569   0.373
 3143SOL    HW210329   5.901   1.548   0.211
 3144SOL     OW10330   4.408   3.718   6.537
 3144SOL    HW110331   4.319   3.678   6.556
 3144SOL    HW210332   4.479   3.649   6.548
 3145SOL     OW10333   2.535   6.080   2.107
 3145SOL    HW110334   2.620   6.032   2.085
 3145SOL    HW210335   2.513   6.066   2.204
 3146SOL     OW10336   0.731   1.475   5.510
 3146SOL    HW110337   0.661   1.404   5.515
 3146SOL    HW210338   0.768   1.492   5.601
 3147SOL     OW10339   3.510   4.605   6.057
 3147SOL    HW110340   3.414   4.617   6.031
 3147SOL    HW210341   3.517   4.531   6.124
 3148SOL     OW10342   0.521   6.276   2.632
 3148SOL    HW110343   0.475   6.364   2.623
 3148SOL    HW210344   0.585   6.280   2.709
 3149SOL     OW10345   3.262   1.417   0.698
 3149SOL    HW110346   3.218   1.467   0.772
 3149SOL    HW210347   3.308   1.481   0.637
 3150SOL     OW10348   6.168   6.544   5.319
 3150SOL    HW110349   6.183   6.611   5.246
 3150SOL    HW210350   6.077   6.558   5.359
 3151SOL     OW10351   6.280   1.959   6.334
 3151SOL    HW110352   6.276   1.976   6.235
 3151SOL    HW210353   6.374   1.969   6.366
 3152SOL     OW10354   1.639   4.086   6.669
 3152SOL    HW110355   1.639   3.988   6.652
 3152SOL    HW210356   1.549   4.115   6.702
 3153SOL     OW10357   6.589   5.130   0.465
 3153SOL    HW110358   6.577   5.163   0.559
 3153SOL    HW210359   6.636   5.042   0.467
 3154SOL     OW10360   5.622   1.523   1.668
 3154SOL    HW110361   5.679   1.525   1.586
 3154SOL    HW210362   5.548   1.458   1.655
 3155SOL     OW10363   6.412   4.822   0.140
 3155SOL    HW110364   6.332   4.767   0.114
 3155SOL    HW210365   6.470   4.834   0.060
 3156SOL     OW10366   3.645   4.149   2.115
 3156SOL    HW110367   3.695   4.230   2.083
 3156SOL    HW210368   3.708   4.088   2.163
 3157SOL     OW10369   1.178   1.784   5.401
 3157SOL    HW110370   1.174   1.763   5.303
 3157SOL    HW210371   1.086   1.777   5.440
 3158SOL     OW10372   3.012   2.075   5.467
 3158SOL    HW110373   2.958   2.131   5.404
 3158SOL    HW210374   3.097   2.123   5.488
 3159SOL     OW10375   4.741   6.703   0.410
 3159SOL    HW110376   4.819   6.678   0.467
 3159SOL    HW210377   4.656   6.684   0.458
 3160SOL     OW10378   2.603   0.079   5.872
 3160SOL    HW110379   2.600   0.143   5.949
 3160SOL    HW210380   2.590   0.129   5.786
 3161SOL     OW10381   2.032   2.569   2.712
 3161SOL    HW110382   1.990   2.482   2.736
 3161SOL    HW210383   2.049   2.572   2.614
 3162SOL     OW10384   1.654   5.468   0.445
 3162SOL    HW110385   1.580   5.470   0.512
 3162SOL    HW210386   1.740   5.449   0.491
 3163SOL     OW10387   3.920   3.839   0.282
 3163SOL    HW110388   3.957   3.749   0.304
 3163SOL    HW210389   3.990   3.894   0.236
 3164SOL     OW10390   3.045   5.299   2.972
 3164SOL    HW110391   2.965   5.275   3.026
 3164SOL    HW210392   3.061   5.229   2.903
 3165SOL     OW10393   0.518   5.185   0.318
 3165SOL    HW110394   0.500   5.102   0.265
 3165SOL    HW210395   0.494   5.169   0.414
 3166SOL     OW10396   3.814   1.024   4.872
 3166SOL    HW110397   3.857   1.076   4.946
 3166SOL    HW210398   3.870   0.944   4.850
 3167SOL     OW10399   4.670   3.929   0.336
 3167SOL    HW110400   4.596   3.898   0.396
 3167SOL    HW210401   4.696   4.022   0.360
 3168SOL     OW10402   5.010   2.573   0.411
 3168SOL    HW110403   5.087   2.544   0.467
 3168SOL    HW210404   4.973   2.659   0.448
 3169SOL     OW10405   1.695   4.534   2.462
 3169SOL    HW110406   1.611   4.488   2.490
 3169SOL    HW210407   1.745   4.475   2.397
 3170SOL     OW10408   3.633   5.698   2.965
 3170SOL    HW110409   3.641   5.725   2.869
 3170SOL    HW210410   3.536   5.688   2.988
 3171SOL     OW10411   5.299   2.969   2.522
 3171SOL    HW110412   5.376   2.915   2.558
 3171SOL    HW210413   5.321   3.002   2.430
 3172SOL     OW10414   6.784   4.918   0.398
 3172SOL    HW110415   6.765   4.951   0.306
 3172SOL    HW210416   6.871   4.957   0.430
 3173SOL     OW10417   3.394   1.751   0.028
 3173SOL    HW110418   3.385   1.750   0.127
 3173SOL    HW210419   3.460   1.821   0.001
 3174SOL     OW10420   2.554   3.142   5.666
 3174SOL    HW110421   2.646   3.118   5.635
 3174SOL    HW210422   2.548   3.131   5.765
 3175SOL     OW10423   6.490   1.575   3.707
 3175SOL    HW110424   6.407   1.603   3.755
 3175SOL    HW210425   6.473   1.572   3.609
 3176SOL     OW10426   7.015   4.123   4.620
 3176SOL    HW110427   6.963   4.101   4.703
 3176SOL    HW210428   0.072   4.173   4.645
 3177SOL     OW10429   5.516   4.180   3.206
 3177SOL    HW110430   5.596   4.222   3.249
 3177SOL    HW210431   5.542   4.090   3.170
 3178SOL     OW10432   5.640   1.311   0.117
 3178SOL    HW110433   5.573   1.318   0.191
 3178SOL    HW210434   5.615   1.376   0.044
 3179SOL     OW10435   0.597   2.017   2.236
 3179SOL    HW110436   0.603   2.114   2.258
 3179SOL    HW210437   0.522   1.976   2.288
 3180SOL     OW10438   5.701   6.618   6.254
 3180SOL    HW110439   5.636   6.573   6.192
 3180SOL    HW210440   5.769   6.551   6.285
 3181SOL     OW10441   0.301   1.328   4.495
 3181SOL    HW110442   0.253   1.262   4.437
 3181SOL    HW210443   0.398   1.303   4.499
 3182SOL     OW10444   3.456   0.120   0.790
 3182SOL    HW110445   3.443   0.036   0.843
 3182SOL    HW210446   3.379   0.132   0.727
 3183SOL     OW10447   4.479   4.684   2.531
 3183SOL    HW110448   4.386   4.703   2.500
 3183SOL    HW210449   4.495   4.731   2.618
 3184SOL     OW10450   0.629   2.304   3.468
 3184SOL    HW110451   0.637   2.280   3.565
 3184SOL    HW210452   0.720   2.299   3.425
 3185SOL     OW10453   6.765   6.922   5.485
 3185SOL    HW110454   6.809   6.997   5.533
 3185SOL    HW210455   6.806   6.835   5.514
 3186SOL     OW10456   1.814   0.819   0.605
 3186SOL    HW110457   1.866   0.902   0.589
 3186SOL    HW210458   1.810   0.764   0.522
 3187SOL     OW10459   3.643   5.650   2.687
 3187SOL    HW110460   3.580   5.581   2.725
 3187SOL    HW210461   3.628   5.658   2.588
 3188SOL     OW10462   2.243   4.702   5.028
 3188SOL    HW110463   2.333   4.668   5.003
 3188SOL    HW210464   2.187   4.627   5.063
 3189SOL     OW10465   2.146   1.367   0.312
 3189SOL    HW110466   2.084   1.307   0.362
 3189SOL    HW210467   2.166   1.448   0.368
 3190SOL     OW10468   6.596   5.773   5.405
 3190SOL    HW110469   6.497   5.783   5.395
 3190SOL    HW210470   6.620   5.676   5.402
 3191SOL     OW10471   4.116   5.436   2.091
 3191SOL    HW110472   4.088   5.346   2.123
 3191SOL    HW210473   4.124   5.498   2.169
 3192SOL     OW10474   6.850   2.434   1.737
 3192SOL    HW110475   6.875   2.495   1.812
 3192SOL    HW210476   6.782   2.367   1.769
 3193SOL     OW10477   4.321   1.166   4.784
 3193SOL    HW110478   4.303   1.136   4.878
 3193SOL    HW210479   4.261   1.118   4.721
 3194SOL     OW10480   1.187   1.143   5.359
 3194SOL    HW110481   1.283   1.171   5.360
 3194SOL    HW210482   1.128   1.223   5.350
 3195SOL     OW10483   0.482   1.008   2.005
 3195SOL    HW110484   0.513   0.913   2.002
 3195SOL    HW210485   0.548   1.062   2.057
 3196SOL     OW10486   6.572   0.973   5.526
 3196SOL    HW110487   6.641   1.023   5.474
 3196SOL    HW210488   6.527   0.906   5.467
 3197SOL     OW10489   2.095   6.725   6.148
 3197SOL    HW110490   2.140   6.796   6.203
 3197SOL    HW210491   2.145   6.714   6.062
 3198SOL     OW10492   6.316   2.348   3.859
 3198SOL    HW110493   6.401   2.393   3.834
 3198SOL    HW210494   6.272   2.400   3.933
 3199SOL     OW10495   5.349   5.028   2.731
 3199SOL    HW110496   5.285   5.103   2.746
 3199SOL    HW210497   5.309   4.942   2.765
 3200SOL     OW10498   6.127   3.154   4.252
 3200SOL    HW110499   6.047   3.182   4.199
 3200SOL    HW210500   6.192   3.230   4.257
 3201SOL     OW10501   6.351   4.561   2.977
 3201SOL    HW110502   6.307   4.481   3.019
 3201SOL    HW210503   6.322   4.643   3.025
 3202SOL     OW10504   1.192   5.184   0.663
 3202SOL    HW110505   1.189   5.204   0.761
 3202SOL    HW210506   1.142   5.255   0.613
 3203SOL     OW10507   4.262   6.673   1.411
 3203SOL    HW110508   4.235   6.678   1.507
 3203SOL    HW210509   4.203   6.607   1.363
 3204SOL     OW10510   2.815   1.529   3.547
 3204SOL    HW110511   2.908   1.495   3.558
 3204SOL    HW210512   2.793   1.535   3.449
 3205SOL     OW10513   5.528   3.601   5.857
 3205SOL    HW110514   5.557   3.562   5.770
 3205SOL    HW210515   5.471   3.682   5.840
 3206SOL     OW10516   2.562   2.920   1.333
 3206SOL    HW110517   2.578   2.822   1.320
 3206SOL    HW210518   2.575   2.943   1.430
 3207SOL     OW10519   0.986   0.752   5.671
 3207SOL    HW110520   1.005   0.662   5.633
 3207SOL    HW210521   1.024   0.758   5.763
 3208SOL     OW10522   5.790   5.892   5.375
 3208SOL    HW110523   5.858   5.954   5.336
 3208SOL    HW210524   5.812   5.874   5.471
 3209SOL     OW10525   4.069   5.124   5.303
 3209SOL    HW110526   4.000   5.055   5.282
 3209SOL    HW210527   4.088   5.123   5.401
 3210SOL     OW10528   0.421   4.958   1.628
 3210SOL    HW110529   0.363   5.027   1.585
 3210SOL    HW210530   0.364   4.891   1.675
 3211SOL     OW10531   1.187   4.902   0.878
 3211SOL    HW110532   1.126   4.930   0.803
 3211SOL    HW210533   1.260   4.845   0.841
 3212SOL     OW10534   2.936   0.156   2.297
 3212SOL    HW110535   3.012   0.217   2.320
 3212SOL    HW210536   2.959   0.103   2.216
 3213SOL     OW10537   2.046   0.518   6.381
 3213SOL    HW110538   2.075   0.526   6.286
 3213SOL    HW210539   1.957   0.563   6.392
 3214SOL     OW10540   4.613   6.878   3.619
 3214SOL    HW110541   4.572   6.816   3.552
 3214SOL    HW210542   4.704   6.844   3.645
 3215SOL     OW10543   1.144   3.576   0.241
 3215SOL    HW110544   1.240   3.600   0.249
 3215SOL    HW210545   1.130   3.520   0.159
 3216SOL     OW10546   5.744   5.152   1.416
 3216SOL    HW110547   5.654   5.170   1.377
 3216SOL    HW210548   5.745   5.182   1.511
 3217SOL     OW10549   0.202   5.403   3.183
 3217SOL    HW110550   0.275   5.462   3.216
 3217SOL    HW210551   0.157   5.359   3.261
 3218SOL     OW10552   6.005   2.309   3.499
 3218SOL    HW110553   5.922   2.356   3.469
 3218SOL    HW210554   6.027   2.336   3.593
 3219SOL     OW10555   6.920   0.953   4.896
 3219SOL    HW110556   6.852   0.945   4.824
 3219SOL    HW210557   6.978   1.033   4.880
 3220SOL     OW10558   0.094   6.048   6.237
 3220SOL    HW110559   0.157   6.000   6.176
 3220SOL    HW210560   0.030   6.103   6.182
 3221SOL     OW10561   3.985   0.053   2.548
 3221SOL    HW110562   3.960   0.047   2.644
 3221SOL    HW210563   3.910   0.019   2.491
 3222SOL     OW10564   3.240   1.441   3.457
 3222SOL    HW110565   3.238   1.537   3.484
 3222SOL    HW210566   3.332   1.417   3.426
 3223SOL     OW10567   1.900   6.669   0.681
 3223SOL    HW110568   1.857   6.592   0.730
 3223SOL    HW210569   1.952   6.634   0.603
 3224SOL     OW10570   4.835   2.615   4.869
 3224SOL    HW110571   4.890   2.678   4.923
 3224SOL    HW210572   4.892   2.536   4.842
 3225SOL     OW10573   4.116   1.259   3.883
 3225SOL    HW110574   4.113   1.323   3.807
 3225SOL    HW210575   4.048   1.285   3.951
 3226SOL     OW10576   1.811   6.904   2.237
 3226SOL    HW110577   1.718   6.928   2.209
 3226SOL    HW210578   1.860   6.986   2.266
 3227SOL     OW10579   3.608   2.528   6.404
 3227SOL    HW110580   3.633   2.449   6.461
 3227SOL    HW210581   3.544   2.498   6.333
 3228SOL     OW10582   0.397   4.223   0.857
 3228SOL    HW110583   0.368   4.149   0.796
 3228SOL    HW210584   0.485   4.259   0.826
 3229SOL     OW10585   3.294   0.494   5.611
 3229SOL    HW110586   3.376   0.516   5.664
 3229SOL    HW210587   3.312   0.507   5.513
 3230SOL     OW10588   2.140   5.713   6.192
 3230SOL    HW110589   2.067   5.703   6.259
 3230SOL    HW210590   2.101   5.707   6.100
 3231SOL     OW10591   3.130   1.053   2.762
 3231SOL    HW110592   3.219   1.052   2.716
 3231SOL    HW210593   3.094   1.146   2.764
 3232SOL     OW10594   3.934   5.939   4.079
 3232SOL    HW110595   3.923   5.946   3.980
 3232SOL    HW210596   3.853   5.975   4.124
 3233SOL     OW10597   0.022   2.621   0.467
 3233SOL    HW110598   6.991   2.662   0.539
 3233SOL    HW210599   0.016   2.522   0.472
 3234SOL     OW10600   1.595   2.705   0.192
 3234SOL    HW110601   1.514   2.654   0.163
 3234SOL    HW210602   1.567   2.786   0.245
 3235SOL     OW10603   5.976   5.815   1.777
 3235SOL    HW110604   6.065   5.845   1.812
 3235SOL    HW210605   5.952   5.870   1.697
 3236SOL     OW10606   2.348   3.587   0.332
 3236SOL    HW110607   2.326   3.579   0.429
 3236SOL    HW210608   2.369   3.682   0.311
 3237SOL     OW10609   6.180   1.805   4.210
 3237SOL    HW110610   6.150   1.711   4.194
 3237SOL    HW210611   6.208   1.816   4.306
 3238SOL     OW10612   6.063   5.408   0.356
 3238SOL    HW110613   6.070   5.321   0.307
 3238SOL    HW210614   6.075   5.392   0.454
 3239SOL     OW10615   0.030   0.019   3.581
 3239SOL    HW110616   0.125   7.023   3.557
 3239SOL    HW210617   0.029   0.070   3.667
 3240SOL     OW10618   7.016   0.762   6.381
 3240SOL    HW110619   0.030   0.699   6.448
 3240SOL    HW210620   6.917   0.766   6.393
 3241SOL     OW10621   4.934   2.040   6.983
 3241SOL    HW110622   4.888   1.986   6.912
 3241SOL    HW210623   4.900   2.011   0.048
 3242SOL     OW10624   5.087   3.914   5.631
 3242SOL    HW110625   5.161   3.975   5.656
 3242SOL    HW210626   5.115   3.857   5.554
 3243SOL     OW10627   4.183   5.618   6.669
 3243SOL    HW110628   4.267   5.614   6.615
 3243SOL    HW210629   4.166   5.530   6.713
 3244SOL     OW10630   5.674   6.286   0.268
 3244SOL    HW110631   5.629   6.356   0.213
 3244SOL    HW210632   5.771   6.280   0.243
 3245SOL     OW10633   4.854   2.572   4.288
 3245SOL    HW110634   4.924   2.631   4.250
 3245SOL    HW210635   4.798   2.623   4.353
 3246SOL     OW10636   6.983   0.257   2.461
 3246SOL    HW110637   0.011   0.216   2.536
 3246SOL    HW210638   6.924   0.188   2.421
 3247SOL     OW10639   0.295   4.247   2.657
 3247SOL    HW110640   0.347   4.332   2.668
 3247SOL    HW210641   0.306   4.214   2.563
 3248SOL     OW10642   5.487   2.725   2.877
 3248SOL    HW110643   5.522   2.631   2.878
 3248SOL    HW210644   5.498   2.764   2.786
 3249SOL     OW10645   3.917   3.386   3.703
 3249SOL    HW110646   3.844   3.352   3.762
 3249SOL    HW210647   3.997   3.408   3.759
 3250SOL     OW10648   5.097   6.426   3.699
 3250SOL    HW110649   5.110   6.497   3.768
 3250SOL    HW210650   5.004   6.391   3.704
 3251SOL     OW10651   2.675   0.913   4.702
 3251SOL    HW110652   2.588   0.869   4.681
 3251SOL    HW210653   2.692   0.986   4.636
 3252SOL     OW10654   2.964   1.411   3.332
 3252SOL    HW110655   3.059   1.421   3.362
 3252SOL    HW210656   2.923   1.332   3.377
 3253SOL     OW10657   5.102   3.877   0.986
 3253SOL    HW110658   5.125   3.874   0.889
 3253SOL    HW210659   5.185   3.884   1.041
 3254SOL     OW10660   5.165   0.025   6.520
 3254SOL    HW110661   5.148   6.952   6.509
 3254SOL    HW210662   5.180   0.066   6.430
 3255SOL     OW10663   5.726   6.197   0.537
 3255SOL    HW110664   5.807   6.139   0.526
 3255SOL    HW210665   5.710   6.248   0.453
 3256SOL     OW10666   4.322   2.203   1.178
 3256SOL    HW110667   4.324   2.240   1.271
 3256SOL    HW210668   4.293   2.275   1.114
 3257SOL     OW10669   3.056   2.076   2.055
 3257SOL    HW110670   3.133   2.092   1.994
 3257SOL    HW210671   3.017   2.164   2.083
 3258SOL     OW10672   3.326   5.179   3.677
 3258SOL    HW110673   3.277   5.092   3.682
 3258SOL    HW210674   3.267   5.253   3.709
 3259SOL     OW10675   5.561   4.495   4.071
 3259SOL    HW110676   5.659   4.491   4.049
 3259SOL    HW210677   5.548   4.470   4.167
 3260SOL     OW10678   1.730   3.929   1.977
 3260SOL    HW110679   1.760   3.835   1.962
 3260SOL    HW210680   1.693   3.938   2.069
 3261SOL     OW10681   5.632   0.674   2.549
 3261SOL    HW110682   5.638   0.587   2.499
 3261SOL    HW210683   5.565   0.665   2.622
 3262SOL     OW10684   4.001   1.858   2.290
 3262SOL    HW110685   4.064   1.813   2.227
 3262SOL    HW210686   3.919   1.887   2.240
 3263SOL     OW10687   3.216   1.043   3.456
 3263SOL    HW110688   3.278   0.985   3.404
 3263SOL    HW210689   3.265   1.085   3.532
 3264SOL     OW10690   1.789   4.919   0.613
 3264SOL    HW110691   1.739   4.952   0.533
 3264SOL    HW210692   1.880   4.887   0.584
 3265SOL     OW10693   5.970   6.460   5.760
 3265SOL    HW110694   5.967   6.418   5.850
 3265SOL    HW210695   5.993   6.557   5.768
 3266SOL     OW10696   2.724   4.652   7.016
 3266SOL    HW110697   2.708   4.554   7.009
 3266SOL    HW210698   2.798   4.669   0.056
 3267SOL     OW10699   4.017   0.292   1.518
 3267SOL    HW110700   4.012   0.392   1.513
 3267SOL    HW210701   3.932   0.252   1.484
 3268SOL     OW10702   0.985   4.778   1.663
 3268SOL    HW110703   1.016   4.793   1.569
 3268SOL    HW210704   1.012   4.856   1.720
 3269SOL     OW10705   0.677   5.307   2.540
 3269SOL    HW110706   0.768   5.346   2.532
 3269SOL    HW210707   0.625   5.324   2.456
 3270SOL     OW10708   1.188   3.396   6.225
 3270SOL    HW110709   1.172   3.484   6.179
 3270SOL    HW210710   1.275   3.358   6.195
 3271SOL     OW10711   6.481   3.295   1.829
 3271SOL    HW110712   6.496   3.385   1.870
 3271SOL    HW210713   6.393   3.259   1.859
 3272SOL     OW10714   3.887   5.286   6.890
 3272SOL    HW110715   3.922   5.206   6.940
 3272SOL    HW210716   3.881   5.364   6.952
 3273SOL     OW10717   5.036   4.250   6.187
 3273SOL    HW110718   5.075   4.294   6.268
 3273SOL    HW210719   4.940   4.277   6.177
 3274SOL     OW10720   6.112   0.537   0.028
 3274SOL    HW110721   6.156   0.525   0.117
 3274SOL    HW210722   6.105   0.635   0.007
 3275SOL     OW10723   4.605   0.885   0.614
 3275SOL    HW110724   4.698   0.917   0.634
 3275SOL    HW210725   4.545   0.964   0.603
 3276SOL     OW10726   4.653   6.455   6.913
 3276SOL    HW110727   4.643   6.552   6.892
 3276SOL    HW210728   4.664   6.444   7.012
 3277SOL     OW10729   3.093   1.098   1.304
 3277SOL    HW110730   3.095   1.066   1.209
 3277SOL    HW210731   3.139   1.031   1.363
 3278SOL     OW10732   6.937   0.722   5.969
 3278SOL    HW110733   7.019   0.755   5.921
 3278SOL    HW210734   6.892   0.652   5.913
 3279SOL     OW10735   4.368   6.149   1.164
 3279SOL    HW110736   4.378   6.145   1.263
 3279SOL    HW210737   4.321   6.233   1.138
 3280SOL     OW10738   5.325   4.100   4.218
 3280SOL    HW110739   5.330   4.151   4.132
 3280SOL    HW210740   5.281   4.012   4.201
 3281SOL     OW10741   6.874   4.979   1.495
 3281SOL    HW110742   6.912   4.959   1.585
 3281SOL    HW210743   6.928   4.933   1.424
 3282SOL     OW10744   0.549   3.738   5.034
 3282SOL    HW110745   0.620   3.764   4.969
 3282SOL    HW210746   0.574   3.770   5.125
 3283SOL     OW10747   3.927   1.418   1.242
 3283SOL    HW110748   3.857   1.428   1.171
 3283SOL    HW210749   3.886   1.434   1.332
 3284SOL     OW10750   0.997   5.199   4.687
 3284SOL    HW110751   1.016   5.165   4.595
 3284SOL    HW210752   1.012   5.127   4.754
 3285SOL     OW10753   5.783   1.786   4.782
 3285SOL    HW110754   5.713   1.775   4.711
 3285SOL    HW210755   5.766   1.722   4.857
 3286SOL     OW10756   3.436   2.240   1.768
 3286SOL    HW110757   3.389   2.327   1.757
 3286SOL    HW210758   3.521   2.254   1.819
 3287SOL     OW10759   0.790   0.466   6.899
 3287SOL    HW110760   0.704   0.488   6.853
 3287SOL    HW210761   0.806   0.532   6.973
 3288SOL     OW10762   1.892   6.408   0.798
 3288SOL    HW110763   1.855   6.316   0.783
 3288SOL    HW210764   1.990   6.403   0.813
 3289SOL     OW10765   3.083   1.861   6.869
 3289SOL    HW110766   3.094   1.799   6.791
 3289SOL    HW210767   3.160   1.925   6.871
 3290SOL     OW10768   6.707   5.520   0.413
 3290SOL    HW110769   6.783   5.585   0.409
 3290SOL    HW210770   6.722   5.457   0.489
 3291SOL     OW10771   4.052   0.826   6.438
 3291SOL    HW110772   4.097   0.741   6.467
 3291SOL    HW210773   3.988   0.806   6.364
 3292SOL     OW10774   0.065   1.100   0.768
 3292SOL    HW110775   0.064   1.046   0.683
 3292SOL    HW210776   7.004   1.148   0.778
 3293SOL     OW10777   6.687   4.491   2.426
 3293SOL    HW110778   6.647   4.485   2.517
 3293SOL    HW210779   6.686   4.400   2.383
 3294SOL     OW10780   5.306   2.404   5.904
 3294SOL    HW110781   5.269   2.329   5.849
 3294SOL    HW210782   5.376   2.368   5.966
 3295SOL     OW10783   1.784   3.184   0.364
 3295SOL    HW110784   1.852   3.238   0.414
 3295SOL    HW210785   1.738   3.121   0.427
 3296SOL     OW10786   6.328   0.242   5.305
 3296SOL    HW110787   6.403   0.220   5.243
 3296SOL    HW210788   6.290   0.332   5.283
 3297SOL     OW10789   3.397   1.774   5.088
 3297SOL    HW110790   3.325   1.841   5.110
 3297SOL    HW210791   3.437   1.740   5.172
 3298SOL     OW10792   6.401   3.298   5.245
 3298SOL    HW110793   6.459   3.380   5.244
 3298SOL    HW210794   6.311   3.321   5.208
 3299SOL     OW10795   4.479   5.848   3.256
 3299SOL    HW110796   4.442   5.804   3.338
 3299SOL    HW210797   4.417   5.833   3.179
 3300SOL     OW10798   2.088   0.443   5.464
 3300SOL    HW110799   2.021   0.453   5.390
 3300SOL    HW210800   2.113   0.533   5.498
 3301SOL     OW10801   1.454   3.217   2.840
 3301SOL    HW110802   1.438   3.243   2.935
 3301SOL    HW210803   1.490   3.124   2.836
 3302SOL     OW10804   1.230   4.507   6.512
 3302SOL    HW110805   1.168   4.492   6.589
 3302SOL    HW210806   1.179   4.545   6.435
 3303SOL     OW10807   3.815   3.268   0.477
 3303SOL    HW110808   3.718   3.252   0.497
 3303SOL    HW210809   3.846   3.202   0.409
 3304SOL     OW10810   2.296   4.946   6.170
 3304SOL    HW110811   2.238   4.867   6.155
 3304SOL    HW210812   2.249   5.028   6.137
 3305SOL     OW10813   3.230   0.485   1.503
 3305SOL    HW110814   3.232   0.385   1.507
 3305SOL    HW210815   3.160   0.514   1.437
 3306SOL     OW10816   1.404   5.990   6.154
 3306SOL    HW110817   1.311   5.975   6.189
 3306SOL    HW210818   1.471   5.957   6.221
 3307SOL     OW10819   0.961   0.404   6.167
 3307SOL    HW110820   1.003   0.462   6.238
 3307SOL    HW210821   1.028   0.337   6.136
 3308SOL     OW10822   4.247   4.695   1.060
 3308SOL    HW110823   4.197   4.704   0.974
 3308SOL    HW210824   4.185   4.666   1.132
 3309SOL     OW10825   5.370   4.240   3.971
 3309SOL    HW110826   5.307   4.181   3.918
 3309SOL    HW210827   5.333   4.333   3.973
 3310SOL     OW10828   0.549   4.279   4.963
 3310SOL    HW110829   0.504   4.320   4.885
 3310SOL    HW210830   0.602   4.348   5.012
 3311SOL     OW10831   3.560   3.491   1.026
 3311SOL    HW110832   3.656   3.490   1.052
 3311SOL    HW210833   3.550   3.528   0.934
 3312SOL     OW10834   4.296   2.936   5.849
 3312SOL    HW110835   4.383   2.951   5.896
 3312SOL    HW210836   4.309   2.949   5.751
 3313SOL     OW10837   0.627   0.709   3.248
 3313SOL    HW110838   0.666   0.785   3.198
 3313SOL    HW210839   0.655   0.714   3.344
 3314SOL     OW10840   2.687   0.211   3.053
 3314SOL    HW110841   2.677   0.297   3.004
 3314SOL    HW210842   2.600   0.185   3.094
 3315SOL     OW10843   0.778   4.162   5.238
 3315SOL    HW110844   0.854   4.165   5.303
 3315SOL    HW210845   0.695   4.194   5.282
 3316SOL     OW10846   3.519   0.567   5.977
 3316SOL    HW110847   3.520   0.467   5.975
 3316SOL    HW210848   3.603   0.602   5.936
 3317SOL     OW10849   5.612   1.707   2.656
 3317SOL    HW110850   5.671   1.787   2.669
 3317SOL    HW210851   5.606   1.686   2.559
 3318SOL     OW10852   2.116   1.656   6.669
 3318SOL    HW110853   2.086   1.732   6.727
 3318SOL    HW210854   2.037   1.605   6.637
 3319SOL     OW10855   6.766   0.076   2.844
 3319SOL    HW110856   6.724   0.092   2.933
 3319SOL    HW210857   6.866   0.082   2.853
 3320SOL     OW10858   6.669   0.296   0.011
 3320SOL    HW110859   6.579   0.254   0.000
 3320SOL    HW210860   6.689   0.307   0.108
 3321SOL     OW10861   6.087   1.460   0.954
 3321SOL    HW110862   6.098   1.514   1.038
 3321SOL    HW210863   5.996   1.420   0.951
 3322SOL     OW10864   6.876   3.195   0.841
 3322SOL    HW110865   6.839   3.151   0.922
 3322SOL    HW210866   6.880   3.294   0.855
 3323SOL     OW10867   2.773   1.232   1.104
 3323SOL    HW110868   2.689   1.182   1.082
 3323SOL    HW210869   2.750   1.324   1.136
 3324SOL     OW10870   4.076   5.541   5.442
 3324SOL    HW110871   3.982   5.516   5.421
 3324SOL    HW210872   4.113   5.596   5.367
 3325SOL     OW10873   0.165   3.402   6.188
 3325SOL    HW110874   0.094   3.437   6.127
 3325SOL    HW210875   0.211   3.480   6.233
 3326SOL     OW10876   4.844   1.172   2.362
 3326SOL    HW110877   4.783   1.098   2.334
 3326SOL    HW210878   4.815   1.207   2.452
 3327SOL     OW10879   2.296   5.866   1.850
 3327SOL    HW110880   2.337   5.823   1.930
 3327SOL    HW210881   2.226   5.805   1.811
 3328SOL     OW10882   3.349   1.679   1.299
 3328SOL    HW110883   3.445   1.664   1.276
 3328SOL    HW210884   3.306   1.737   1.230
 3329SOL     OW10885   5.999   0.420   5.418
 3329SOL    HW110886   5.929   0.455   5.356
 3329SOL    HW210887   5.988   0.463   5.507
 3330SOL     OW10888   6.780   3.660   2.051
 3330SOL    HW110889   6.810   3.732   2.113
 3330SOL    HW210890   6.684   3.640   2.067
 3331SOL     OW10891   2.196   2.593   1.141
 3331SOL    HW110892   2.174   2.690   1.135
 3331SOL    HW210893   2.122   2.545   1.188
 3332SOL     OW10894   5.117   5.562   6.796
 3332SOL    HW110895   5.209   5.594   6.773
 3332SOL    HW210896   5.123   5.484   6.858
 3333SOL     OW10897   4.592   5.205   6.631
 3333SOL    HW110898   4.569   5.114   6.597
 3333SOL    HW210899   4.688   5.224   6.612
 3334SOL     OW10900   3.445   3.251   1.130
 3334SOL    HW110901   3.463   3.325   1.065
 3334SOL    HW210902   3.357   3.208   1.108
 3335SOL     OW10903   4.726   5.600   5.229
 3335SOL    HW110904   4.761   5.676   5.174
 3335SOL    HW210905   4.735   5.515   5.177
 3336SOL     OW10906   2.979   5.407   5.678
 3336SOL    HW110907   3.018   5.497   5.699
 3336SOL    HW210908   3.052   5.340   5.668
 3337SOL     OW10909   3.445   2.504   1.466
 3337SOL    HW110910   3.414   2.539   1.555
 3337SOL    HW210911   3.473   2.408   1.476
 3338SOL     OW10912   6.570   3.595   1.172
 3338SOL    HW110913   6.591   3.691   1.188
 3338SOL    HW210914   6.481   3.587   1.127
 3339SOL     OW10915   6.988   6.125   6.840
 3339SOL    HW110916   6.999   6.057   6.913
 3339SOL    HW210917   6.984   6.217   6.880
 3340SOL     OW10918   3.738   6.538   1.988
 3340SOL    HW110919   3.809   6.468   2.003
 3340SOL    HW210920   3.733   6.559   1.890
 3341SOL     OW10921   0.631   0.304   3.344
 3341SOL    HW110922   0.533   0.303   3.363
 3341SOL    HW210923   0.646   0.334   3.250
 3342SOL     OW10924   2.110   0.010   3.363
 3342SOL    HW110925   2.096   7.016   3.460
 3342SOL    HW210926   2.096   6.952   3.310
 3343SOL     OW10927   4.918   3.081   0.374
 3343SOL    HW110928   4.942   3.044   0.284
 3343SOL    HW210929   4.922   3.181   0.371
 3344SOL     OW10930   5.534   4.150   5.053
 3344SOL    HW110931   5.537   4.072   5.115
 3344SOL    HW210932   5.578   4.229   5.097
 3345SOL     OW10933   2.779   3.423   6.139
 3345SOL    HW110934   2.836   3.474   6.203
 3345SOL    HW210935   2.831   3.409   6.054
 3346SOL     OW10936   0.907   1.041   2.403
 3346SOL    HW110937   0.984   0.997   2.449
 3346SOL    HW210938   0.897   1.135   2.435
 3347SOL     OW10939   6.928   4.521   3.159
 3347SOL    HW110940   6.936   4.606   3.213
 3347SOL    HW210941   6.874   4.539   3.077
 3348SOL     OW10942   3.378   3.186   3.870
 3348SOL    HW110943   3.340   3.114   3.812
 3348SOL    HW210944   3.380   3.272   3.819
 3349SOL     OW10945   0.108   4.900   4.318
 3349SOL    HW110946   0.180   4.965   4.294
 3349SOL    HW210947   0.131   4.856   4.405
 3350SOL     OW10948   1.435   1.359   0.004
 3350SOL    HW110949   1.481   1.271   7.016
 3350SOL    HW210950   1.481   1.410   0.077
 3351SOL     OW10951   5.605   0.302   1.520
 3351SOL    HW110952   5.520   0.355   1.510
 3351SOL    HW210953   5.583   0.212   1.557
 3352SOL     OW10954   0.356   3.824   0.108
 3352SOL    HW110955   0.373   3.846   0.012
 3352SOL    HW210956   0.278   3.762   0.115
 3353SOL     OW10957   1.658   6.911   1.629
 3353SOL    HW110958   1.684   6.999   1.587
 3353SOL    HW210959   1.739   6.869   1.669
 3354SOL     OW10960   6.595   2.714   3.621
 3354SOL    HW110961   6.585   2.676   3.713
 3354SOL    HW210962   6.525   2.783   3.606
 3355SOL     OW10963   0.904   1.889   0.292
 3355SOL    HW110964   0.815   1.885   0.336
 3355SOL    HW210965   0.929   1.798   0.259
 3356SOL     OW10966   2.863   3.101   0.339
 3356SOL    HW110967   2.902   3.185   0.377
 3356SOL    HW210968   2.851   3.034   0.412
 3357SOL     OW10969   2.068   4.915   1.281
 3357SOL    HW110970   1.979   4.957   1.300
 3357SOL    HW210971   2.087   4.844   1.349
 3358SOL     OW10972   4.871   6.446   1.864
 3358SOL    HW110973   4.789   6.433   1.919
 3358SOL    HW210974   4.951   6.451   1.923
 3359SOL     OW10975   0.109   0.276   3.349
 3359SOL    HW110976   0.026   0.249   3.397
 3359SOL    HW210977   0.096   0.264   3.250
 3360SOL     OW10978   0.350   1.050   0.553
 3360SOL    HW110979   0.328   1.019   0.646
 3360SOL    HW210980   0.417   1.124   0.557
 3361SOL     OW10981   6.334   5.331   2.993
 3361SOL    HW110982   6.323   5.304   3.089
 3361SOL    HW210983   6.430   5.351   2.975
 3362SOL     OW10984   2.967   1.257   5.030
 3362SOL    HW110985   3.018   1.342   5.032
 3362SOL    HW210986   2.921   1.247   4.942
 3363SOL     OW10987   0.390   0.794   6.472
 3363SOL    HW110988   0.312   0.734   6.452
 3363SOL    HW210989   0.356   0.882   6.505
 3364SOL     OW10990   0.793   5.688   5.665
 3364SOL    HW110991   0.803   5.591   5.688
 3364SOL    HW210992   0.785   5.741   5.749
 3365SOL     OW10993   0.629   2.423   4.239
 3365SOL    HW110994   0.533   2.448   4.244
 3365SOL    HW210995   0.664   2.405   4.331
 3366SOL     OW10996   5.286   1.033   4.499
 3366SOL    HW110997   5.305   1.131   4.501
 3366SOL    HW210998   5.359   0.986   4.448
 3367SOL     OW10999   2.010   2.778   1.646
 3367SOL    HW111000   1.972   2.695   1.607
 3367SOL    HW211001   2.103   2.792   1.612
 3368SOL     OW11002   6.726   5.430   6.337
 3368SOL    HW111003   6.658   5.370   6.379
 3368SOL    HW211004   6.725   5.519   6.383
 3369SOL     OW11005   3.419   1.762   0.299
 3369SOL    HW111006   3.463   1.820   0.368
 3369SOL    HW211007   3.364   1.692   0.345
 3370SOL     OW11008   6.479   6.474   5.248
 3370SOL    HW111009   6.453   6.425   5.165
 3370SOL    HW211010   6.578   6.471   5.259
 3371SOL     OW11011   1.843   4.401   2.289
 3371SOL    HW111012   1.925   4.347   2.267
 3371SOL    HW211013   1.761   4.351   2.260
 3372SOL     OW11014   0.590   1.303   2.261
 3372SOL    HW111015   0.646   1.223   2.240
 3372SOL    HW211016   0.498   1.274   2.289
 3373SOL     OW11017   6.156   1.360   4.506
 3373SOL    HW111018   6.074   1.387   4.556
 3373SOL    HW211019   6.132   1.337   4.412
 3374SOL     OW11020   3.507   6.045   5.312
 3374SOL    HW111021   3.584   6.100   5.279
 3374SOL    HW211022   3.530   6.005   5.401
 3375SOL     OW11023   4.302   4.709   4.819
 3375SOL    HW111024   4.384   4.720   4.764
 3375SOL    HW211025   4.310   4.626   4.874
 3376SOL     OW11026   4.146   3.399   2.965
 3376SOL    HW111027   4.230   3.402   3.019
 3376SOL    HW211028   4.102   3.310   2.976
 3377SOL     OW11029   0.989   6.397   4.769
 3377SOL    HW111030   1.038   6.338   4.706
 3377SOL    HW211031   0.994   6.359   4.862
 3378SOL     OW11032   6.387   0.896   0.544
 3378SOL    HW111033   6.320   0.836   0.588
 3378SOL    HW211034   6.476   0.883   0.587
 3379SOL     OW11035   0.495   3.964   5.767
 3379SOL    HW111036   0.399   3.982   5.788
 3379SOL    HW211037   0.548   4.048   5.779
 3380SOL     OW11038   6.971   5.645   5.777
 3380SOL    HW111039   6.986   5.557   5.730
 3380SOL    HW211040   6.937   5.712   5.711
 3381SOL     OW11041   2.242   2.028   0.198
 3381SOL    HW111042   2.302   1.999   0.272
 3381SOL    HW211043   2.205   2.119   0.220
 3382SOL     OW11044   0.519   1.637   0.262
 3382SOL    HW111045   0.514   1.605   0.167
 3382SOL    HW211046   0.548   1.561   0.321
 3383SOL     OW11047   5.960   5.054   2.394
 3383SOL    HW111048   5.949   4.959   2.423
 3383SOL    HW211049   5.869   5.095   2.381
 3384SOL     OW11050   2.972   3.214   5.202
 3384SOL    HW111051   2.876   3.226   5.227
 3384SOL    HW211052   3.018   3.158   5.272
 3385SOL     OW11053   0.026   4.089   3.695
 3385SOL    HW111054   0.007   4.020   3.625
 3385SOL    HW211055   0.086   4.051   3.765
 3386SOL     OW11056   6.004   3.848   5.529
 3386SOL    HW111057   5.974   3.782   5.460
 3386SOL    HW211058   5.996   3.940   5.491
 3387SOL     OW11059   2.233   1.473   2.991
 3387SOL    HW111060   2.279   1.488   2.904
 3387SOL    HW211061   2.208   1.377   3.000
 3388SOL     OW11062   5.539   3.115   1.430
 3388SOL    HW111063   5.635   3.090   1.422
 3388SOL    HW211064   5.483   3.051   1.376
 3389SOL     OW11065   4.457   4.584   4.347
 3389SOL    HW111066   4.514   4.502   4.346
 3389SOL    HW211067   4.426   4.605   4.255
 3390SOL     OW11068   5.119   3.648   5.756
 3390SOL    HW111069   5.124   3.742   5.789
 3390SOL    HW211070   5.057   3.595   5.814
 3391SOL     OW11071   4.225   1.734   4.674
 3391SOL    HW111072   4.275   1.817   4.698
 3391SOL    HW211073   4.269   1.655   4.716
 3392SOL     OW11074   2.659   0.826   4.252
 3392SOL    HW111075   2.713   0.843   4.170
 3392SOL    HW211076   2.623   0.733   4.249
 3393SOL     OW11077   6.511   6.691   0.413
 3393SOL    HW111078   6.490   6.774   0.360
 3393SOL    HW211079   6.438   6.675   0.479
 3394SOL     OW11080   5.594   3.088   1.056
 3394SOL    HW111081   5.640   3.094   0.968
 3394SOL    HW211082   5.626   3.162   1.116
 3395SOL     OW11083   6.446   3.284   4.161
 3395SOL    HW111084   6.517   3.329   4.106
 3395SOL    HW211085   6.461   3.185   4.161
 3396SOL     OW11086   0.844   3.060   3.592
 3396SOL    HW111087   0.908   3.010   3.651
 3396SOL    HW211088   0.865   3.157   3.595
 3397SOL     OW11089   3.431   1.250   5.329
 3397SOL    HW111090   3.341   1.250   5.371
 3397SOL    HW211091   3.422   1.226   5.232
 3398SOL     OW11092   0.877   0.058   4.416
 3398SOL    HW111093   0.802   0.072   4.351
 3398SOL    HW211094   0.962   0.043   4.366
 3399SOL     OW11095   4.549   4.458   4.039
 3399SOL    HW111096   4.595   4.423   3.957
 3399SOL    HW211097   4.618   4.493   4.103
 3400SOL     OW11098   3.823   1.764   5.821
 3400SOL    HW111099   3.820   1.797   5.726
 3400SOL    HW211100   3.863   1.672   5.823
 3401SOL     OW11101   6.908   4.052   0.526
 3401SOL    HW111102   6.896   3.987   0.450
 3401SOL    HW211103   6.933   4.002   0.609
 3402SOL     OW11104   5.187   5.777   1.049
 3402SOL    HW111105   5.219   5.755   0.956
 3402SOL    HW211106   5.248   5.733   1.115
 3403SOL     OW11107   3.889   0.689   5.309
 3403SOL    HW111108   3.843   0.669   5.222
 3403SOL    HW211109   3.820   0.716   5.377
 3404SOL     OW11110   4.152   1.647   0.774
 3404SOL    HW111111   4.217   1.648   0.850
 3404SOL    HW211112   4.187   1.591   0.700
 3405SOL     OW11113   6.365   3.282   4.884
 3405SOL    HW111114   6.310   3.200   4.872
 3405SOL    HW211115   6.462   3.259   4.877
 3406SOL     OW11116   1.889   3.981   1.722
 3406SOL    HW111117   1.821   3.991   1.795
 3406SOL    HW211118   1.908   3.884   1.706
 3407SOL     OW11119   1.604   5.147   1.242
 3407SOL    HW111120   1.543   5.068   1.227
 3407SOL    HW211121   1.629   5.150   1.339
 3408SOL     OW11122   4.645   4.389   4.322
 3408SOL    HW111123   4.664   4.381   4.420
 3408SOL    HW211124   4.684   4.311   4.274
 3409SOL     OW11125   4.061   6.882   5.585
 3409SOL    HW111126   3.976   6.854   5.540
 3409SOL    HW211127   4.115   6.801   5.606
 3410SOL     OW11128   5.824   6.280   6.836
 3410SOL    HW111129   5.912   6.327   6.832
 3410SOL    HW211130   5.773   6.295   6.751
 3411SOL     OW11131   6.271   2.999   2.254
 3411SOL    HW111132   6.339   2.952   2.309
 3411SOL    HW211133   6.291   3.097   2.252
 3412SOL     OW11134   4.183   3.008   7.014
 3412SOL    HW111135   4.102   3.051   6.972
 3412SOL    HW211136   4.225   3.073   0.052
 3413SOL     OW11137   4.226   1.410   2.710
 3413SOL    HW111138   4.220   1.425   2.611
 3413SOL    HW211139   4.151   1.458   2.755
 3414SOL     OW11140   3.126   1.339   5.305
 3414SOL    HW111141   3.139   1.413   5.239
 3414SOL    HW211142   3.081   1.262   5.260
 3415SOL     OW11143   1.211   3.840   4.669
 3415SOL    HW111144   1.126   3.876   4.632
 3415SOL    HW211145   1.276   3.915   4.682
 3416SOL     OW11146   6.769   4.715   6.250
 3416SOL    HW111147   6.786   4.622   6.218
 3416SOL    HW211148   6.813   4.729   6.339
 3417SOL     OW11149   6.019   5.881   2.759
 3417SOL    HW111150   6.054   5.794   2.723
 3417SOL    HW211151   5.978   5.866   2.849
 3418SOL     OW11152   4.558   0.980   4.189
 3418SOL    HW111153   4.582   1.032   4.107
 3418SOL    HW211154   4.640   0.932   4.222
 3419SOL     OW11155   3.618   5.578   6.103
 3419SOL    HW111156   3.689   5.550   6.168
 3419SOL    HW211157   3.616   5.514   6.027
 3420SOL     OW11158   4.886   2.226   3.848
 3420SOL    HW111159   4.920   2.140   3.885
 3420SOL    HW211160   4.834   2.274   3.919
 3421SOL     OW11161   6.366   0.781   5.429
 3421SOL    HW111162   6.312   0.865   5.438
 3421SOL    HW211163   6.346   0.738   5.341
 3422SOL     OW11164   3.325   6.855   1.235
 3422SOL    HW111165   3.268   6.778   1.205
 3422SOL    HW211166   3.267   6.923   1.279
 3423SOL     OW11167   1.996   0.543   0.759
 3423SOL    HW111168   2.067   0.474   0.746
 3423SOL    HW211169   1.972   0.584   0.671
 3424SOL     OW11170   3.753   0.595   2.050
 3424SOL    HW111171   3.791   0.638   1.968
 3424SOL    HW211172   3.738   0.497   2.031
 3425SOL     OW11173   5.052   4.373   2.453
 3425SOL    HW111174   4.955   4.385   2.477
 3425SOL    HW211175   5.086   4.289   2.497
 3426SOL     OW11176   3.525   3.287   0.424
 3426SOL    HW111177   3.428   3.310   0.421
 3426SOL    HW211178   3.537   3.191   0.397
 3427SOL     OW11179   6.412   6.271   6.872
 3427SOL    HW111180   6.342   6.240   6.936
 3427SOL    HW211181   6.373   6.277   6.780
 3428SOL     OW11182   4.034   4.705   1.787
 3428SOL    HW111183   4.117   4.690   1.841
 3428SOL    HW211184   3.994   4.794   1.811
 3429SOL     OW11185   0.804   1.670   6.955
 3429SOL    HW111186   0.706   1.656   6.965
 3429SOL    HW211187   0.854   1.600   7.007
 3430SOL     OW11188   1.010   6.789   6.212
 3430SOL    HW111189   0.934   6.854   6.220
 3430SOL    HW211190   0.997   6.732   6.131
 3431SOL     OW11191   2.680   6.607   0.697
 3431SOL    HW111192   2.676   6.512   0.663
 3431SOL    HW211193   2.639   6.668   0.629
 3432SOL     OW11194   2.822   2.473   5.309
 3432SOL    HW111195   2.780   2.466   5.218
 3432SOL    HW211196   2.750   2.481   5.378
 3433SOL     OW11197   2.265   0.455   6.564
 3433SOL    HW111198   2.201   0.471   6.489
 3433SOL    HW211199   2.275   0.538   6.618
 3434SOL     OW11200   3.490   2.664   0.782
 3434SOL    HW111201   3.415   2.728   0.768
 3434SOL    HW211202   3.475   2.581   0.728
 3435SOL     OW11203   0.180   1.808   1.843
 3435SOL    HW111204   0.213   1.880   1.904
 3435SOL    HW211205   0.256   1.749   1.816
 3436SOL     OW11206   4.311   6.993   5.275
 3436SOL    HW111207   4.348   0.060   5.285
 3436SOL    HW211208   4.211   6.997   5.278
 3437SOL     OW11209   4.772   1.167   6.328
 3437SOL    HW111210   4.712   1.247   6.330
 3437SOL    HW211211   4.724   1.087   6.363
 3438SOL     OW11212   1.668   2.755   6.227
 3438SOL    HW111213   1.570   2.762   6.246
 3438SOL    HW211214   1.693   2.659   6.214
 3439SOL     OW11215   2.739   0.419   5.044
 3439SOL    HW111216   2.829   0.449   5.011
 3439SOL    HW211217   2.699   0.490   5.101
 3440SOL     OW11218   5.226   3.259   1.345
 3440SOL    HW111219   5.236   3.267   1.444
 3440SOL    HW211220   5.216   3.350   1.305
 3441SOL     OW11221   4.996   0.432   3.339
 3441SOL    HW111222   5.027   0.527   3.327
 3441SOL    HW211223   4.898   0.427   3.317
 3442SOL     OW11224   2.535   4.756   3.189
 3442SOL    HW111225   2.599   4.771   3.264
 3442SOL    HW211226   2.584   4.757   3.102
 3443SOL     OW11227   5.299   0.934   2.678
 3443SOL    HW111228   5.243   1.012   2.653
 3443SOL    HW211229   5.249   0.849   2.659
 3444SOL     OW11230   5.014   5.188   6.525
 3444SOL    HW111231   5.018   5.119   6.453
 3444SOL    HW211232   5.102   5.191   6.573
 3445SOL     OW11233   6.353   4.329   4.083
 3445SOL    HW111234   6.393   4.378   4.006
 3445SOL    HW211235   6.273   4.279   4.054
 3446SOL     OW11236   5.813   0.928   3.119
 3446SOL    HW111237   5.851   0.966   3.034
 3446SOL    HW211238   5.714   0.942   3.121
 3447SOL     OW11239   4.940   4.901   0.030
 3447SOL    HW111240   4.994   4.913   0.113
 3447SOL    HW211241   4.969   4.819   7.007
 3448SOL     OW11242   3.592   6.886   1.162
 3448SOL    HW111243   3.502   6.856   1.196
 3448SOL    HW211244   3.652   6.806   1.154
 3449SOL     OW11245   5.569   6.468   3.059
 3449SOL    HW111246   5.490   6.407   3.054
 3449SOL    HW211247   5.567   6.518   3.146
 3450SOL     OW11248   0.785   3.021   0.468
 3450SOL    HW111249   0.737   2.951   0.521
 3450SOL    HW211250   0.840   3.078   0.529
 3451SOL     OW11251   0.422   5.503   2.819
 3451SOL    HW111252   0.359   5.578   2.837
 3451SOL    HW211253   0.509   5.540   2.785
 3452SOL     OW11254   5.994   1.364   0.066
 3452SOL    HW111255   6.090   1.389   0.054
 3452SOL    HW211256   5.968   1.376   0.161
 3453SOL     OW11257   6.125   6.161   5.620
 3453SOL    HW111258   6.058   6.170   5.693
 3453SOL    HW211259   6.195   6.231   5.630
 3454SOL     OW11260   2.151   0.827   6.158
 3454SOL    HW111261   2.217   0.792   6.224
 3454SOL    HW211262   2.079   0.759   6.144
 3455SOL     OW11263   1.279   2.886   4.313
 3455SOL    HW111264   1.361   2.917   4.361
 3455SOL    HW211265   1.292   2.898   4.214
 3456SOL     OW11266   5.633   6.194   2.420
 3456SOL    HW111267   5.689   6.204   2.503
 3456SOL    HW211268   5.637   6.278   2.367
 3457SOL     OW11269   2.352   4.953   4.246
 3457SOL    HW111270   2.449   4.930   4.234
 3457SOL    HW211271   2.296   4.884   4.200
 3458SOL     OW11272   5.576   6.650   6.856
 3458SOL    HW111273   5.542   6.561   6.827
 3458SOL    HW211274   5.562   6.717   6.783
 3459SOL     OW11275   0.474   4.144   2.970
 3459SOL    HW111276   0.511   4.127   2.879
 3459SOL    HW211277   0.437   4.059   3.007
 3460SOL     OW11278   3.262   3.026   0.544
 3460SOL    HW111279   3.297   3.060   0.631
 3460SOL    HW211280   3.334   2.975   0.497
 3461SOL     OW11281   4.529   5.394   3.994
 3461SOL    HW111282   4.489   5.458   3.928
 3461SOL    HW211283   4.611   5.434   4.034
 3462SOL     OW11284   6.087   3.804   1.571
 3462SOL    HW111285   6.021   3.805   1.495
 3462SOL    HW211286   6.175   3.771   1.537
 3463SOL     OW11287   0.629   3.353   2.716
 3463SOL    HW111288   0.698   3.389   2.780
 3463SOL    HW211289   0.589   3.270   2.754
 3464SOL     OW11290   5.690   2.269   6.991
 3464SOL    HW111291   5.782   2.230   6.995
 3464SOL    HW211292   5.694   2.368   7.006
 3465SOL     OW11293   1.097   2.870   1.940
 3465SOL    HW111294   1.155   2.864   1.859
 3465SOL    HW211295   1.017   2.926   1.921
 3466SOL     OW11296   5.233   4.916   5.684
 3466SOL    HW111297   5.306   4.978   5.657
 3466SOL    HW211298   5.150   4.938   5.633
 3467SOL     OW11299   2.439   1.466   1.046
 3467SOL    HW111300   2.476   1.554   1.076
 3467SOL    HW211301   2.505   1.420   0.987
 3468SOL     OW11302   5.915   1.793   2.979
 3468SOL    HW111303   5.962   1.875   3.011
 3468SOL    HW211304   5.843   1.818   2.915
 3469SOL     OW11305   5.211   1.389   5.947
 3469SOL    HW111306   5.171   1.422   6.032
 3469SOL    HW211307   5.301   1.431   5.934
 3470SOL     OW11308   0.260   2.944   1.970
 3470SOL    HW111309   0.313   2.939   2.054
 3470SOL    HW211310   0.166   2.914   1.988
 3471SOL     OW11311   4.637   4.327   3.815
 3471SOL    HW111312   4.578   4.379   3.754
 3471SOL    HW211313   4.682   4.253   3.764
 3472SOL     OW11314   3.747   1.018   1.247
 3472SOL    HW111315   3.711   1.001   1.339
 3472SOL    HW211316   3.822   1.083   1.253
 3473SOL     OW11317   5.930   3.329   3.346
 3473SOL    HW111318   5.969   3.273   3.420
 3473SOL    HW211319   5.996   3.336   3.272
 3474SOL     OW11320   0.757   3.961   3.944
 3474SOL    HW111321   0.820   3.890   3.977
 3474SOL    HW211322   0.683   3.917   3.893
 3475SOL     OW11323   0.824   4.260   4.856
 3475SOL    HW111324   0.873   4.231   4.938
 3475SOL    HW211325   0.749   4.320   4.881
 3476SOL     OW11326   1.818   2.065   2.817
 3476SOL    HW111327   1.767   2.052   2.902
 3476SOL    HW211328   1.796   1.991   2.753
 3477SOL     OW11329   0.862   4.372   0.666
 3477SOL    HW111330   0.827   4.384   0.573
 3477SOL    HW211331   0.938   4.307   0.666
 3478SOL     OW11332   2.826   6.346   6.739
 3478SOL    HW111333   2.815   6.415   6.667
 3478SOL    HW211334   2.738   6.330   6.784
 3479SOL     OW11335   0.767   0.890   3.089
 3479SOL    HW111336   0.777   0.989   3.101
 3479SOL    HW211337   0.858   0.848   3.082
 3480SOL     OW11338   0.920   6.251   5.632
 3480SOL    HW111339   0.935   6.262   5.534
 3480SOL    HW211340   0.966   6.167   5.663
 3481SOL     OW11341   5.136   0.230   0.261
 3481SOL    HW111342   5.072   0.244   0.337
 3481SOL    HW211343   5.200   0.156   0.284
 3482SOL     OW11344   5.844   1.364   2.419
 3482SOL    HW111345   5.766   1.419   2.391
 3482SOL    HW211346   5.884   1.320   2.339
 3483SOL     OW11347   5.736   1.964   2.816
 3483SOL    HW111348   5.696   1.983   2.726
 3483SOL    HW211349   5.667   1.978   2.887
 3484SOL     OW11350   1.129   2.989   6.739
 3484SOL    HW111351   1.035   2.999   6.772
 3484SOL    HW211352   1.166   2.901   6.771
 3485SOL     OW11353   1.248   2.099   4.397
 3485SOL    HW111354   1.320   2.157   4.434
 3485SOL    HW211355   1.289   2.032   4.334
 3486SOL     OW11356   1.869   0.229   3.920
 3486SOL    HW111357   1.936   0.188   3.858
 3486SOL    HW211358   1.912   0.247   4.008
 3487SOL     OW11359   6.519   2.423   6.988
 3487SOL    HW111360   6.598   2.410   0.023
 3487SOL    HW211361   6.451   2.481   0.009
 3488SOL     OW11362   5.573   0.914   4.842
 3488SOL    HW111363   5.637   0.872   4.906
 3488SOL    HW211364   5.591   0.881   4.749
 3489SOL     OW11365   3.823   0.059   1.768
 3489SOL    HW111366   3.773   0.092   1.688
 3489SOL    HW211367   3.875   0.135   1.808
 3490SOL     OW11368   3.302   4.700   1.422
 3490SOL    HW111369   3.320   4.670   1.516
 3490SOL    HW211370   3.314   4.622   1.360
 3491SOL     OW11371   4.072   3.226   6.187
 3491SOL    HW111372   3.980   3.189   6.205
 3491SOL    HW211373   4.091   3.222   6.089
 3492SOL     OW11374   5.712   4.519   0.575
 3492SOL    HW111375   5.658   4.596   0.542
 3492SOL    HW211376   5.731   4.531   0.673
 3493SOL     OW11377   5.908   3.857   4.123
 3493SOL    HW111378   5.975   3.832   4.053
 3493SOL    HW211379   5.939   3.938   4.172
 3494SOL     OW11380   2.430   0.862   2.049
 3494SOL    HW111381   2.404   0.958   2.040
 3494SOL    HW211382   2.487   0.835   1.972
 3495SOL     OW11383   0.518   3.974   2.400
 3495SOL    HW111384   0.437   4.031   2.387
 3495SOL    HW211385   0.493   3.878   2.392
 3496SOL     OW11386   5.913   5.589   1.187
 3496SOL    HW111387   5.912   5.518   1.258
 3496SOL    HW211388   5.970   5.558   1.111
 3497SOL     OW11389   2.716   1.557   4.238
 3497SOL    HW111390   2.656   1.544   4.159
 3497SOL    HW211391   2.735   1.468   4.280
 3498SOL     OW11392   2.975   1.218   2.446
 3498SOL    HW111393   2.948   1.232   2.351
 3498SOL    HW211394   2.961   1.303   2.497
 3499SOL     OW11395   6.692   4.949   4.082
 3499SOL    HW111396   6.735   4.884   4.020
 3499SOL    HW211397   6.731   4.939   4.173
 3500SOL     OW11398   1.895   2.586   3.008
 3500SOL    HW111399   1.911   2.581   2.909
 3500SOL    HW211400   1.805   2.547   3.029
 3501SOL     OW11401   3.618   7.005   6.423
 3501SOL    HW111402   3.538   6.950   6.447
 3501SOL    HW211403   3.593   0.043   6.350
 3502SOL     OW11404   6.915   2.867   1.718
 3502SOL    HW111405   6.942   2.952   1.671
 3502SOL    HW211406   6.817   2.869   1.735
 3503SOL     OW11407   6.995   6.393   5.668
 3503SOL    HW111408   6.928   6.361   5.602
 3503SOL    HW211409   0.054   6.419   5.620
 3504SOL     OW11410   1.820   0.623   1.861
 3504SOL    HW111411   1.780   0.535   1.836
 3504SOL    HW211412   1.759   0.671   1.925
 3505SOL     OW11413   5.341   4.992   5.116
 3505SOL    HW111414   5.312   4.912   5.063
 3505SOL    HW211415   5.261   5.042   5.148
 3506SOL     OW11416   5.542   4.698   4.946
 3506SOL    HW111417   5.551   4.625   4.878
 3506SOL    HW211418   5.455   4.747   4.931
 3507SOL     OW11419   2.862   0.266   0.732
 3507SOL    HW111420   2.812   0.240   0.815
 3507SOL    HW211421   2.851   0.364   0.717
 3508SOL     OW11422   2.462   1.856   6.513
 3508SOL    HW111423   2.525   1.895   6.446
 3508SOL    HW211424   2.425   1.928   6.571
 3509SOL     OW11425   5.630   0.037   6.588
 3509SOL    HW111426   5.718   0.024   6.634
 3509SOL    HW211427   5.617   0.134   6.569
 3510SOL     OW11428   1.330   0.309   1.732
 3510SOL    HW111429   1.254   0.283   1.791
 3510SOL    HW211430   1.306   0.291   1.637
 3511SOL     OW11431   1.951   4.246   1.657
 3511SOL    HW111432   1.945   4.149   1.633
 3511SOL    HW211433   1.970   4.256   1.754
 3512SOL     OW11434   0.389   4.408   1.102
 3512SOL    HW111435   0.389   4.319   1.056
 3512SOL    HW211436   0.455   4.469   1.059
 3513SOL     OW11437   5.952   2.138   0.760
 3513SOL    HW111438   5.899   2.054   0.771
 3513SOL    HW211439   6.035   2.119   0.707
 3514SOL     OW11440   6.629   1.068   1.436
 3514SOL    HW111441   6.668   1.158   1.451
 3514SOL    HW211442   6.667   1.004   1.503
 3515SOL     OW11443   5.435   6.191   3.059
 3515SOL    HW111444   5.404   6.215   3.151
 3515SOL    HW211445   5.486   6.104   3.064
 3516SOL     OW11446   4.503   6.157   0.895
 3516SOL    HW111447   4.419   6.148   0.949
 3516SOL    HW211448   4.531   6.253   0.893
 3517SOL     OW11449   0.154   1.542   0.805
 3517SOL    HW111450   0.240   1.592   0.806
 3517SOL    HW211451   0.136   1.505   0.896
 3518SOL     OW11452   5.048   2.819   4.940
 3518SOL    HW111453   5.043   2.849   5.035
 3518SOL    HW211454   5.092   2.890   4.885
 3519SOL     OW11455   1.752   0.584   5.631
 3519SOL    HW111456   1.749   0.538   5.720
 3519SOL    HW211457   1.847   0.594   5.601
 3520SOL     OW11458   3.694   6.364   0.513
 3520SOL    HW111459   3.781   6.332   0.474
 3520SOL    HW211460   3.687   6.463   0.504
 3521SOL     OW11461   4.479   2.440   0.349
 3521SOL    HW111462   4.508   2.519   0.404
 3521SOL    HW211463   4.380   2.431   0.353
 3522SOL     OW11464   6.816   5.906   6.527
 3522SOL    HW111465   6.916   5.912   6.529
 3522SOL    HW211466   6.779   5.949   6.609
 3523SOL     OW11467   1.649   4.245   5.080
 3523SOL    HW111468   1.748   4.245   5.091
 3523SOL    HW211469   1.617   4.339   5.066
 3524SOL     OW11470   5.003   2.097   1.829
 3524SOL    HW111471   5.027   2.166   1.898
 3524SOL    HW211472   5.010   2.006   1.868
 3525SOL     OW11473   6.554   3.565   4.127
 3525SOL    HW111474   6.617   3.561   4.204
 3525SOL    HW211475   6.606   3.563   4.041
 3526SOL     OW11476   2.167   6.900   3.933
 3526SOL    HW111477   2.177   6.957   4.014
 3526SOL    HW211478   2.255   6.891   3.887
 3527SOL     OW11479   5.605   3.639   6.408
 3527SOL    HW111480   5.519   3.599   6.441
 3527SOL    HW211481   5.624   3.607   6.316
 3528SOL     OW11482   2.235   6.711   5.381
 3528SOL    HW111483   2.259   6.723   5.285
 3528SOL    HW211484   2.137   6.729   5.394
 3529SOL     OW11485   3.917   6.553   0.911
 3529SOL    HW111486   3.858   6.601   0.846
 3529SOL    HW211487   3.921   6.456   0.887
 3530SOL     OW11488   6.667   5.592   1.216
 3530SOL    HW111489   6.760   5.605   1.183
 3530SOL    HW211490   6.665   5.598   1.316
 3531SOL     OW11491   5.413   2.243   0.615
 3531SOL    HW111492   5.494   2.295   0.590
 3531SOL    HW211493   5.381   2.191   0.535
 3532SOL     OW11494   2.796   0.515   1.566
 3532SOL    HW111495   2.796   0.416   1.553
 3532SOL    HW211496   2.814   0.536   1.663
 3533SOL     OW11497   0.040   1.072   2.320
 3533SOL    HW111498   6.993   1.116   2.373
 3533SOL    HW211499   0.026   0.973   2.319
 3534SOL     OW11500   0.521   2.202   0.642
 3534SOL    HW111501   0.527   2.102   0.646
 3534SOL    HW211502   0.528   2.232   0.547
 3535SOL     OW11503   1.712   5.297   6.221
 3535SOL    HW111504   1.767   5.220   6.191
 3535SOL    HW211505   1.759   5.346   6.293
 3536SOL     OW11506   3.462   1.833   2.986
 3536SOL    HW111507   3.418   1.814   2.898
 3536SOL    HW211508   3.558   1.805   2.983
 3537SOL     OW11509   2.256   5.421   2.629
 3537SOL    HW111510   2.225   5.510   2.595
 3537SOL    HW211511   2.209   5.399   2.714
 3538SOL     OW11512   2.676   6.210   5.333
 3538SOL    HW111513   2.579   6.185   5.336
 3538SOL    HW211514   2.697   6.249   5.243
 3539SOL     OW11515   3.874   3.632   5.124
 3539SOL    HW111516   3.874   3.532   5.119
 3539SOL    HW211517   3.823   3.669   5.047
 3540SOL     OW11518   1.883   2.710   4.632
 3540SOL    HW111519   1.889   2.797   4.681
 3540SOL    HW211520   1.855   2.638   4.696
 3541SOL     OW11521   2.604   2.595   6.006
 3541SOL    HW111522   2.702   2.613   5.993
 3541SOL    HW211523   2.557   2.679   6.032
 3542SOL     OW11524   1.302   5.523   3.372
 3542SOL    HW111525   1.300   5.449   3.440
 3542SOL    HW211526   1.370   5.502   3.302
 3543SOL     OW11527   0.230   2.608   4.913
 3543SOL    HW111528   0.310   2.647   4.959
 3543SOL    HW211529   0.180   2.550   4.978
 3544SOL     OW11530   1.256   3.901   6.036
 3544SOL    HW111531   1.336   3.880   5.979
 3544SOL    HW211532   1.261   3.848   6.121
 3545SOL     OW11533   3.893   5.961   6.596
 3545SOL    HW111534   3.834   5.914   6.529
 3545SOL    HW211535   3.912   5.899   6.672
 3546SOL     OW11536   1.144   4.857   3.791
 3546SOL    HW111537   1.184   4.767   3.774
 3546SOL    HW211538   1.059   4.846   3.843
 3547SOL     OW11539   5.416   4.376   3.672
 3547SOL    HW111540   5.496   4.435   3.657
 3547SOL    HW211541   5.340   4.432   3.706
 3548SOL     OW11542   5.845   1.484   6.223
 3548SOL    HW111543   5.922   1.536   6.257
 3548SOL    HW211544   5.862   1.456   6.128
 3549SOL     OW11545   6.522   4.557   4.988
 3549SOL    HW111546   6.551   4.592   5.077
 3549SOL    HW211547   6.603   4.527   4.937
 3550SOL     OW11548   5.376   2.033   2.599
 3550SOL    HW111549   5.364   2.078   2.688
 3550SOL    HW211550   5.337   1.941   2.602
 3551SOL     OW11551   4.090   6.455   2.461
 3551SOL    HW111552   4.101   6.473   2.363
 3551SOL    HW211553   3.995   6.428   2.479
 3552SOL     OW11554   4.828   6.089   1.948
 3552SOL    HW111555   4.911   6.136   1.980
 3552SOL    HW211556   4.825   5.997   1.987
 3553SOL     OW11557   5.712   3.311   1.215
 3553SOL    HW111558   5.674   3.381   1.154
 3553SOL    HW211559   5.673   3.322   1.306
 3554SOL     OW11560   3.896   2.627   1.034
 3554SOL    HW111561   3.927   2.564   1.104
 3554SOL    HW211562   3.798   2.614   1.018
 3555SOL     OW11563   1.063   3.213   3.155
 3555SOL    HW111564   0.969   3.208   3.187
 3555SOL    HW211565   1.091   3.309   3.147
 3556SOL     OW11566   3.973   0.796   4.735
 3556SOL    HW111567   4.023   0.730   4.790
 3556SOL    HW211568   3.953   0.757   4.645
 3557SOL     OW11569   0.369   0.294   3.421
 3557SOL    HW111570   0.275   0.301   3.387
 3557SOL    HW211571   0.394   0.378   3.467
 3558SOL     OW11572   0.790   5.743   0.912
 3558SOL    HW111573   0.850   5.703   0.981
 3558SOL    HW211574   0.837   5.744   0.824
 3559SOL     OW11575   0.523   6.880   5.038
 3559SOL    HW111576   0.524   6.809   5.108
 3559SOL    HW211577   0.569   6.962   5.074
 3560SOL     OW11578   1.099   5.327   0.891
 3560SOL    HW111579   1.015   5.274   0.907
 3560SOL    HW211580   1.143   5.346   0.979
 3561SOL     OW11581   3.870   4.926   5.230
 3561SOL    HW111582   3.899   4.927   5.135
 3561SOL    HW211583   3.770   4.918   5.235
 3562SOL     OW11584   5.237   0.676   4.255
 3562SOL    HW111585   5.322   0.722   4.230
 3562SOL    HW211586   5.214   0.696   4.350
 3563SOL     OW11587   5.289   0.199   1.649
 3563SOL    HW111588   5.308   0.293   1.620
 3563SOL    HW211589   5.214   0.161   1.594
 3564SOL     OW11590   1.458   4.925   4.485
 3564SOL    HW111591   1.417   4.965   4.403
 3564SOL    HW211592   1.526   4.989   4.523
 3565SOL     OW11593   4.110   6.621   4.475
 3565SOL    HW111594   4.109   6.534   4.427
 3565SOL    HW211595   4.139   6.607   4.570
 3566SOL     OW11596   6.482   3.600   6.592
 3566SOL    HW111597   6.476   3.668   6.519
 3566SOL    HW211598   6.551   3.628   6.659
 3567SOL     OW11599   0.927   2.504   0.068
 3567SOL    HW111600   1.009   2.449   0.084
 3567SOL    HW211601   0.891   2.483   7.002
 3568SOL     OW11602   4.948   5.185   3.412
 3568SOL    HW111603   4.966   5.224   3.502
 3568SOL    HW211604   4.987   5.093   3.406
 3569SOL     OW11605   2.864   2.683   5.888
 3569SOL    HW111606   2.906   2.769   5.916
 3569SOL    HW211607   2.779   2.702   5.838
 3570SOL     OW11608   5.327   0.505   4.612
 3570SOL    HW111609   5.270   0.450   4.551
 3570SOL    HW211610   5.288   0.502   4.705
 3571SOL     OW11611   2.182   0.723   5.104
 3571SOL    HW111612   2.153   0.777   5.183
 3571SOL    HW211613   2.188   0.781   5.024
 3572SOL     OW11614   5.470   3.801   2.720
 3572SOL    HW111615   5.496   3.704   2.711
 3572SOL    HW211616   5.547   3.859   2.692
 3573SOL     OW11617   6.449   4.136   2.333
 3573SOL    HW111618   6.381   4.196   2.290
 3573SOL    HW211619   6.436   4.043   2.301
 3574SOL     OW11620   1.373   3.821   0.208
 3574SOL    HW111621   1.338   3.851   0.119
 3574SOL    HW211622   1.410   3.729   0.200
 3575SOL     OW11623   5.091   5.731   2.056
 3575SOL    HW111624   5.104   5.795   1.980
 3575SOL    HW211625   5.134   5.643   2.033
 3576SOL     OW11626   0.249   2.122   0.184
 3576SOL    HW111627   0.290   2.077   0.263
 3576SOL    HW211628   0.252   2.221   0.197
 3577SOL     OW11629   2.548   2.853   6.148
 3577SOL    HW111630   2.459   2.891   6.125
 3577SOL    HW211631   2.620   2.916   6.119
 3578SOL     OW11632   4.522   2.580   1.296
 3578SOL    HW111633   4.520   2.675   1.265
 3578SOL    HW211634   4.429   2.546   1.308
 3579SOL     OW11635   6.802   2.683   3.088
 3579SOL    HW111636   6.731   2.675   3.157
 3579SOL    HW211637   6.760   2.705   3.000
 3580SOL     OW11638   6.499   3.589   0.824
 3580SOL    HW111639   6.533   3.496   0.841
 3580SOL    HW211640   6.560   3.635   0.759
 3581SOL     OW11641   0.483   6.559   2.728
 3581SOL    HW111642   0.485   6.603   2.818
 3581SOL    HW211643   0.574   6.561   2.687
 3582SOL     OW11644   2.462   4.786   5.826
 3582SOL    HW111645   2.475   4.747   5.917
 3582SOL    HW211646   2.380   4.843   5.827
 3583SOL     OW11647   1.187   4.368   0.355
 3583SOL    HW111648   1.275   4.355   0.310
 3583SOL    HW211649   1.163   4.284   0.404
 3584SOL     OW11650   5.504   4.629   5.478
 3584SOL    HW111651   5.504   4.598   5.383
 3584SOL    HW211652   5.557   4.714   5.486
 3585SOL     OW11653   3.369   1.723   4.655
 3585SOL    HW111654   3.422   1.638   4.659
 3585SOL    HW211655   3.430   1.801   4.669
 3586SOL     OW11656   0.035   2.792   4.831
 3586SOL    HW111657   0.096   2.713   4.836
 3586SOL    HW211658   0.001   2.813   4.922
 3587SOL     OW11659   2.987   5.339   6.518
 3587SOL    HW111660   2.924   5.349   6.441
 3587SOL    HW211661   3.035   5.425   6.533
 3588SOL     OW11662   6.795   3.837   4.339
 3588SOL    HW111663   6.836   3.840   4.430
 3588SOL    HW211664   6.866   3.855   4.270
 3589SOL     OW11665   5.759   6.450   6.620
 3589SOL    HW111666   5.813   6.523   6.661
 3589SOL    HW211667   5.765   6.455   6.520
 3590SOL     OW11668   0.262   3.757   0.681
 3590SOL    HW111669   0.305   3.707   0.606
 3590SOL    HW211670   0.303   3.728   0.768
 3591SOL     OW11671   5.394   2.978   0.932
 3591SOL    HW111672   5.458   3.033   0.985
 3591SOL    HW211673   5.307   3.026   0.923
 3592SOL     OW11674   0.346   0.190   2.579
 3592SOL    HW111675   0.353   0.210   2.676
 3592SOL    HW211676   0.358   0.092   2.563
 3593SOL     OW11677   0.647   4.789   6.034
 3593SOL    HW111678   0.664   4.791   5.935
 3593SOL    HW211679   0.726   4.826   6.082
 3594SOL     OW11680   4.909   0.222   4.399
 3594SOL    HW111681   4.865   0.134   4.379
 3594SOL    HW211682   4.853   0.272   4.465
 3595SOL     OW11683   6.130   6.066   0.288
 3595SOL    HW111684   6.209   6.042   0.344
 3595SOL    HW211685   6.096   5.984   0.241
 3596SOL     OW11686   4.357   2.310   3.508
 3596SOL    HW111687   4.363   2.339   3.603
 3596SOL    HW211688   4.400   2.378   3.449
 3597SOL     OW11689   1.957   2.672   5.831
 3597SOL    HW111690   1.968   2.734   5.909
 3597SOL    HW211691   1.914   2.587   5.861
 3598SOL     OW11692   1.974   6.342   5.458
 3598SOL    HW111693   1.975   6.408   5.533
 3598SOL    HW211694   2.042   6.369   5.390
 3599SOL     OW11695   4.938   1.923   6.710
 3599SOL    HW111696   4.865   1.862   6.679
 3599SOL    HW211697   4.966   1.982   6.634
 3600SOL     OW11698   1.478   3.440   1.911
 3600SOL    HW111699   1.427   3.516   1.952
 3600SOL    HW211700   1.574   3.444   1.940
 3601SOL     OW11701   5.369   2.031   5.817
 3601SOL    HW111702   5.455   2.079   5.836
 3601SOL    HW211703   5.303   2.053   5.889
 3602SOL     OW11704   1.995   3.021   0.279
 3602SOL    HW111705   1.920   3.077   0.244
 3602SOL    HW211706   2.020   2.952   0.211
 3603SOL     OW11707   3.364   0.790   5.885
 3603SOL    HW111708   3.411   0.706   5.910
 3603SOL    HW211709   3.265   0.777   5.896
 3604SOL     OW11710   6.200   1.038   3.728
 3604SOL    HW111711   6.252   1.122   3.712
 3604SOL    HW211712   6.235   0.965   3.669
 3605SOL     OW11713   0.922   5.329   3.918
 3605SOL    HW111714   0.927   5.381   4.003
 3605SOL    HW211715   0.835   5.281   3.913
 3606SOL     OW11716   1.533   6.719   2.258
 3606SOL    HW111717   1.455   6.737   2.318
 3606SOL    HW211718   1.541   6.791   2.190
 3607SOL     OW11719   5.247   2.603   2.723
 3607SOL    HW111720   5.174   2.535   2.716
 3607SOL    HW211721   5.210   2.688   2.760
 3608SOL     OW11722   5.006   1.482   3.998
 3608SOL    HW111723   5.074   1.410   3.985
 3608SOL    HW211724   5.012   1.517   4.091
 3609SOL     OW11725   2.085   6.692   4.616
 3609SOL    HW111726   2.087   6.724   4.522
 3609SOL    HW211727   1.997   6.648   4.634
 3610SOL     OW11728   1.750   0.326   5.403
 3610SOL    HW111729   1.767   0.423   5.387
 3610SOL    HW211730   1.797   0.271   5.333
 3611SOL     OW11731   4.366   4.660   4.021
 3611SOL    HW111732   4.398   4.565   4.015
 3611SOL    HW211733   4.333   4.690   3.932
 3612SOL     OW11734   6.817   1.342   6.672
 3612SOL    HW111735   6.749   1.391   6.726
 3612SOL    HW211736   6.908   1.353   6.713
 3613SOL     OW11737   3.995   5.183   2.159
 3613SOL    HW111738   3.943   5.206   2.077
 3613SOL    HW211739   4.034   5.091   2.149
 3614SOL     OW11740   2.982   3.306   6.688
 3614SOL    HW111741   2.919   3.381   6.708
 3614SOL    HW211742   3.076   3.338   6.697
 3615SOL     OW11743   5.971   2.913   5.936
 3615SOL    HW111744   5.902   2.874   5.997
 3615SOL    HW211745   5.934   2.920   5.844
 3616SOL     OW11746   1.701   1.316   6.658
 3616SOL    HW111747   1.647   1.278   6.583
 3616SOL    HW211748   1.793   1.338   6.625
 3617SOL     OW11749   4.686   0.237   5.893
 3617SOL    HW111750   4.627   0.276   5.823
 3617SOL    HW211751   4.781   0.261   5.873
 3618SOL     OW11752   2.327   3.422   5.315
 3618SOL    HW111753   2.390   3.350   5.344
 3618SOL    HW211754   2.335   3.500   5.378
 3619SOL     OW11755   5.525   2.990   0.620
 3619SOL    HW111756   5.581   3.023   0.696
 3619SOL    HW211757   5.430   2.982   0.650
 3620SOL     OW11758   6.335   5.808   4.749
 3620SOL    HW111759   6.364   5.746   4.676
 3620SOL    HW211760   6.236   5.800   4.763
 3621SOL     OW11761   3.221   3.295   4.085
 3621SOL    HW111762   3.267   3.274   4.172
 3621SOL    HW211763   3.273   3.255   4.010
 3622SOL     OW11764   0.916   0.598   1.160
 3622SOL    HW111765   0.864   0.558   1.235
 3622SOL    HW211766   0.855   0.619   1.083
 3623SOL     OW11767   0.463   6.026   5.024
 3623SOL    HW111768   0.489   5.938   4.985
 3623SOL    HW211769   0.397   6.012   5.097
 3624SOL     OW11770   1.501   6.880   1.848
 3624SOL    HW111771   1.455   6.792   1.851
 3624SOL    HW211772   1.549   6.890   1.761
 3625SOL     OW11773   0.291   3.269   6.932
 3625SOL    HW111774   0.213   3.295   6.876
 3625SOL    HW211775   0.341   3.351   6.960
 3626SOL     OW11776   0.348   3.757   4.612
 3626SOL    HW111777   0.343   3.670   4.660
 3626SOL    HW211778   0.437   3.801   4.630
 3627SOL     OW11779   5.274   3.276   1.613
 3627SOL    HW111780   5.332   3.197   1.633
 3627SOL    HW211781   5.208   3.288   1.687
 3628SOL     OW11782   1.623   1.373   2.221
 3628SOL    HW111783   1.691   1.400   2.289
 3628SOL    HW211784   1.669   1.349   2.136
 3629SOL     OW11785   1.176   0.687   4.171
 3629SOL    HW111786   1.225   0.703   4.086
 3629SOL    HW211787   1.078   0.677   4.152
 3630SOL     OW11788   6.621   2.788   3.245
 3630SOL    HW111789   6.551   2.850   3.209
 3630SOL    HW211790   6.582   2.731   3.317
 3631SOL     OW11791   1.969   6.724   3.905
 3631SOL    HW111792   1.991   6.652   3.840
 3631SOL    HW211793   2.040   6.794   3.904
 3632SOL     OW11794   4.610   4.035   1.135
 3632SOL    HW111795   4.622   3.966   1.206
 3632SOL    HW211796   4.514   4.062   1.131
 3633SOL     OW11797   3.553   2.475   5.495
 3633SOL    HW111798   3.632   2.533   5.473
 3633SOL    HW211799   3.473   2.533   5.512
 3634SOL     OW11800   2.058   6.343   6.090
 3634SOL    HW111801   2.133   6.394   6.047
 3634SOL    HW211802   1.988   6.408   6.120
 3635SOL     OW11803   2.370   1.465   1.345
 3635SOL    HW111804   2.340   1.401   1.417
 3635SOL    HW211805   2.366   1.419   1.256
 3636SOL     OW11806   0.109   5.535   0.748
 3636SOL    HW111807   0.044   5.481   0.802
 3636SOL    HW211808   0.104   5.631   0.777
 3637SOL     OW11809   1.016   2.360   0.322
 3637SOL    HW111810   1.064   2.441   0.355
 3637SOL    HW211811   1.065   2.321   0.244
 3638SOL     OW11812   6.841   3.805   2.761
 3638SOL    HW111813   6.907   3.732   2.745
 3638SOL    HW211814   6.821   3.811   2.859
 3639SOL     OW11815   3.548   4.484   5.481
 3639SOL    HW111816   3.550   4.385   5.477
 3639SOL    HW211817   3.476   4.519   5.421
 3640SOL     OW11818   5.723   2.448   0.469
 3640SOL    HW111819   5.627   2.463   0.446
 3640SOL    HW211820   5.729   2.403   0.559
 3641SOL     OW11821   5.142   4.532   1.120
 3641SOL    HW111822   5.228   4.537   1.170
 3641SOL    HW211823   5.078   4.472   1.169
 3642SOL     OW11824   5.337   2.043   6.402
 3642SOL    HW111825   5.307   2.056   6.497
 3642SOL    HW211826   5.354   2.132   6.360
 3643SOL     OW11827   4.188   6.831   6.078
 3643SOL    HW111828   4.250   6.757   6.052
 3643SOL    HW211829   4.187   6.899   6.005
 3644SOL     OW11830   3.600   1.315   1.482
 3644SOL    HW111831   3.525   1.299   1.418
 3644SOL    HW211832   3.562   1.326   1.574
 3645SOL     OW11833   1.419   3.730   3.808
 3645SOL    HW111834   1.512   3.750   3.837
 3645SOL    HW211835   1.362   3.811   3.822
 3646SOL     OW11836   2.261   4.949   4.954
 3646SOL    HW111837   2.235   4.855   4.977
 3646SOL    HW211838   2.263   5.004   5.037
 3647SOL     OW11839   2.855   0.147   6.800
 3647SOL    HW111840   2.833   0.198   6.883
 3647SOL    HW211841   2.896   0.209   6.733
 3648SOL     OW11842   5.309   5.879   3.154
 3648SOL    HW111843   5.273   5.972   3.140
 3648SOL    HW211844   5.302   5.828   3.068
 3649SOL     OW11845   5.654   4.159   0.002
 3649SOL    HW111846   5.617   4.139   6.937
 3649SOL    HW211847   5.682   4.074   0.046
 3650SOL     OW11848   5.423   4.286   0.971
 3650SOL    HW111849   5.356   4.267   0.900
 3650SOL    HW211850   5.422   4.383   0.994
 3651SOL     OW11851   2.093   1.436   5.936
 3651SOL    HW111852   2.075   1.385   5.852
 3651SOL    HW211853   2.052   1.527   5.929
 3652SOL     OW11854   5.894   0.819   2.457
 3652SOL    HW111855   5.834   0.750   2.496
 3652SOL    HW211856   5.863   0.910   2.483
 3653SOL     OW11857   1.023   0.961   2.658
 3653SOL    HW111858   0.944   0.899   2.662
 3653SOL    HW211859   1.092   0.932   2.725
 3654SOL     OW11860   4.843   5.951   0.571
 3654SOL    HW111861   4.897   6.034   0.564
 3654SOL    HW211862   4.747   5.974   0.590
 3655SOL     OW11863   2.967   1.272   4.116
 3655SOL    HW111864   2.901   1.268   4.041
 3655SOL    HW211865   2.918   1.271   4.203
 3656SOL     OW11866   0.530   5.462   1.378
 3656SOL    HW111867   0.442   5.430   1.345
 3656SOL    HW211868   0.521   5.498   1.470
 3657SOL     OW11869   4.517   5.907   5.452
 3657SOL    HW111870   4.476   5.998   5.442
 3657SOL    HW211871   4.604   5.915   5.500
 3658SOL     OW11872   1.206   5.093   6.285
 3658SOL    HW111873   1.190   4.996   6.270
 3658SOL    HW211874   1.235   5.136   6.199
 3659SOL     OW11875   0.399   1.252   6.429
 3659SOL    HW111876   0.461   1.231   6.354
 3659SOL    HW211877   0.358   1.342   6.415
 3660SOL     OW11878   5.901   6.402   5.519
 3660SOL    HW111879   5.802   6.395   5.529
 3660SOL    HW211880   5.942   6.418   5.609
 3661SOL     OW11881   0.103   0.726   4.440
 3661SOL    HW111882   0.121   0.683   4.352
 3661SOL    HW211883   0.030   0.793   4.431
 3662SOL     OW11884   4.015   1.137   5.701
 3662SOL    HW111885   4.082   1.139   5.776
 3662SOL    HW211886   4.001   1.043   5.671
 3663SOL     OW11887   2.381   2.366   6.576
 3663SOL    HW111888   2.307   2.413   6.624
 3663SOL    HW211889   2.418   2.293   6.634
 3664SOL     OW11890   4.573   1.751   2.438
 3664SOL    HW111891   4.560   1.849   2.453
 3664SOL    HW211892   4.505   1.719   2.372
 3665SOL     OW11893   0.552   6.173   5.391
 3665SOL    HW111894   0.648   6.149   5.378
 3665SOL    HW211895   0.515   6.212   5.306
 3666SOL     OW11896   1.288   2.395   3.505
 3666SOL    HW111897   1.246   2.472   3.555
 3666SOL    HW211898   1.309   2.423   3.412
 3667SOL     OW11899   1.229   1.610   3.116
 3667SOL    HW111900   1.324   1.584   3.099
 3667SOL    HW211901   1.169   1.562   3.051
 3668SOL     OW11902   1.192   0.172   1.918
 3668SOL    HW111903   1.146   0.110   1.854
 3668SOL    HW211904   1.125   0.237   1.955
 3669SOL     OW11905   5.985   1.834   4.466
 3669SOL    HW111906   5.977   1.916   4.409
 3669SOL    HW211907   5.978   1.860   4.562
 3670SOL     OW11908   3.352   4.954   1.319
 3670SOL    HW111909   3.320   5.009   1.396
 3670SOL    HW211910   3.340   4.857   1.340
 3671SOL     OW11911   6.441   1.207   3.310
 3671SOL    HW111912   6.433   1.124   3.366
 3671SOL    HW211913   6.352   1.230   3.271
 3672SOL     OW11914   6.049   1.429   2.567
 3672SOL    HW111915   5.990   1.397   2.493
 3672SOL    HW211916   6.108   1.354   2.597
 3673SOL     OW11917   4.565   5.899   0.350
 3673SOL    HW111918   4.570   5.967   0.276
 3673SOL    HW211919   4.573   5.944   0.438
 3674SOL     OW11920   1.210   6.218   5.854
 3674SOL    HW111921   1.139   6.253   5.914
 3674SOL    HW211922   1.178   6.134   5.809
 3675SOL     OW11923   0.379   2.271   3.683
 3675SOL    HW111924   0.359   2.180   3.646
 3675SOL    HW211925   0.477   2.281   3.695
 3676SOL     OW11926   4.889   3.149   2.891
 3676SOL    HW111927   4.887   3.232   2.946
 3676SOL    HW211928   4.930   3.168   2.802
 3677SOL     OW11929   2.118   1.164   4.795
 3677SOL    HW111930   2.113   1.077   4.747
 3677SOL    HW211931   2.210   1.177   4.831
 3678SOL     OW11932   1.420   0.690   3.918
 3678SOL    HW111933   1.403   0.711   3.822
 3678SOL    HW211934   1.509   0.644   3.927
 3679SOL     OW11935   6.223   0.457   2.911
 3679SOL    HW111936   6.204   0.531   2.974
 3679SOL    HW211937   6.316   0.466   2.876
 3680SOL     OW11938   4.671   1.932   3.268
 3680SOL    HW111939   4.715   1.984   3.342
 3680SOL    HW211940   4.633   1.996   3.201
 3681SOL     OW11941   1.016   0.511   5.512
 3681SOL    HW111942   0.923   0.482   5.490
 3681SOL    HW211943   1.080   0.468   5.449
 3682SOL     OW11944   5.663   2.362   1.308
 3682SOL    HW111945   5.638   2.459   1.304
 3682SOL    HW211946   5.661   2.332   1.404
 3683SOL     OW11947   0.299   0.936   4.217
 3683SOL    HW111948   0.201   0.920   4.204
 3683SOL    HW211949   0.349   0.850   4.204
 3684SOL     OW11950   1.847   6.913   6.196
 3684SOL    HW111951   1.876   6.914   6.291
 3684SOL    HW211952   1.923   6.887   6.137
 3685SOL     OW11953   2.682   5.839   5.459
 3685SOL    HW111954   2.598   5.879   5.422
 3685SOL    HW211955   2.760   5.874   5.408
 3686SOL     OW11956   6.940   3.794   3.631
 3686SOL    HW111957   0.004   3.756   3.658
 3686SOL    HW211958   6.951   3.844   3.545
 3687SOL     OW11959   5.113   6.691   3.121
 3687SOL    HW111960   5.037   6.625   3.122
 3687SOL    HW211961   5.142   6.708   3.215
 3688SOL     OW11962   6.019   3.643   0.139
 3688SOL    HW111963   5.941   3.643   0.077
 3688SOL    HW211964   6.019   3.557   0.191
 3689SOL     OW11965   2.093   1.517   5.497
 3689SOL    HW111966   2.091   1.434   5.552
 3689SOL    HW211967   2.184   1.559   5.503
 3690SOL     OW11968   5.235   5.359   0.454
 3690SOL    HW111969   5.183   5.444   0.452
 3690SOL    HW211970   5.280   5.349   0.543
 3691SOL     OW11971   2.479   2.080   6.104
 3691SOL    HW111972   2.490   2.172   6.141
 3691SOL    HW211973   2.526   2.074   6.016
 3692SOL     OW11974   6.690   4.093   6.296
 3692SOL    HW111975   6.784   4.070   6.269
 3692SOL    HW211976   6.666   4.041   6.379
 3693SOL     OW11977   0.893   1.820   2.782
 3693SOL    HW111978   0.848   1.906   2.807
 3693SOL    HW211979   0.959   1.837   2.709
 3694SOL     OW11980   0.890   0.521   1.785
 3694SOL    HW111981   0.869   0.593   1.718
 3694SOL    HW211982   0.971   0.471   1.755
 3695SOL     OW11983   6.715   2.341   2.366
 3695SOL    HW111984   6.735   2.360   2.462
 3695SOL    HW211985   6.763   2.406   2.308
 3696SOL     OW11986   5.094   1.183   5.080
 3696SOL    HW111987   5.077   1.165   5.177
 3696SOL    HW211988   5.159   1.116   5.044
 3697SOL     OW11989   6.332   5.717   3.309
 3697SOL    HW111990   6.269   5.650   3.348
 3697SOL    HW211991   6.401   5.742   3.377
 3698SOL     OW11992   1.983   0.769   3.653
 3698SOL    HW111993   2.078   0.738   3.664
 3698SOL    HW211994   1.933   0.755   3.738
 3699SOL     OW11995   2.351   2.081   3.930
 3699SOL    HW111996   2.348   2.099   3.832
 3699SOL    HW211997   2.301   1.997   3.950
 3700SOL     OW11998   1.694   5.145   5.395
 3700SOL    HW111999   1.603   5.118   5.365
 3700SOL    HW212000   1.736   5.205   5.326
 3701SOL     OW12001   0.757   6.147   1.875
 3701SOL    HW112002   0.735   6.238   1.909
 3701SOL    HW212003   0.723   6.137   1.781
 3702SOL     OW12004   6.132   6.611   4.033
 3702SOL    HW112005   6.133   6.532   4.095
 3702SOL    HW212006   6.038   6.626   4.000
 3703SOL     OW12007   1.160   1.140   6.450
 3703SOL    HW112008   1.209   1.227   6.450
 3703SOL    HW212009   1.191   1.085   6.372
 3704SOL     OW12010   5.448   2.902   1.271
 3704SOL    HW112011   5.523   2.839   1.294
 3704SOL    HW212012   5.465   2.940   1.180
 3705SOL     OW12013   4.968   4.742   3.605
 3705SOL    HW112014   5.000   4.836   3.599
 3705SOL    HW212015   5.020   4.685   3.541
 3706SOL     OW12016   0.526   3.885   0.308
 3706SOL    HW112017   0.467   3.868   0.229
 3706SOL    HW212018   0.477   3.939   0.376
 3707SOL     OW12019   3.414   4.944   3.893
 3707SOL    HW112020   3.501   4.915   3.932
 3707SOL    HW212021   3.339   4.905   3.947
 3708SOL     OW12022   4.375   6.225   1.419
 3708SOL    HW112023   4.425   6.217   1.505
 3708SOL    HW212024   4.277   6.230   1.438
 3709SOL     OW12025   1.383   0.325   1.182
 3709SOL    HW112026   1.318   0.328   1.105
 3709SOL    HW212027   1.433   0.239   1.180
 3710SOL     OW12028   0.681   4.802   5.337
 3710SOL    HW112029   0.593   4.773   5.374
 3710SOL    HW212030   0.755   4.751   5.382
 3711SOL     OW12031   1.786   6.252   4.929
 3711SOL    HW112032   1.742   6.223   5.014
 3711SOL    HW212033   1.850   6.180   4.899
 3712SOL     OW12034   2.228   5.701   6.855
 3712SOL    HW112035   2.294   5.626   6.862
 3712SOL    HW212036   2.250   5.771   6.923
 3713SOL     OW12037   0.057   6.884   4.843
 3713SOL    HW112038   0.118   6.946   4.796
 3713SOL    HW212039   7.019   6.841   4.778
 3714SOL     OW12040   0.822   4.694   6.374
 3714SOL    HW112041   0.902   4.636   6.356
 3714SOL    HW212042   0.790   4.734   6.288
 3715SOL     OW12043   0.507   5.938   3.458
 3715SOL    HW112044   0.546   5.848   3.478
 3715SOL    HW212045   0.466   5.976   3.541
 3716SOL     OW12046   6.260   5.565   4.230
 3716SOL    HW112047   6.269   5.659   4.263
 3716SOL    HW212048   6.223   5.507   4.303
 3717SOL     OW12049   4.722   1.297   0.455
 3717SOL    HW112050   4.764   1.385   0.478
 3717SOL    HW212051   4.782   1.248   0.392
 3718SOL     OW12052   0.629   0.168   6.896
 3718SOL    HW112053   0.636   0.139   6.992
 3718SOL    HW212054   0.585   0.257   6.891
 3719SOL     OW12055   4.328   3.356   6.224
 3719SOL    HW112056   4.246   3.306   6.198
 3719SOL    HW212057   4.316   3.397   6.314
 3720SOL     OW12058   5.664   3.534   1.063
 3720SOL    HW112059   5.758   3.562   1.045
 3720SOL    HW212060   5.615   3.526   0.976
 3721SOL     OW12061   6.039   5.652   6.629
 3721SOL    HW112062   6.087   5.721   6.575
 3721SOL    HW212063   6.077   5.649   6.721
 3722SOL     OW12064   4.351   6.918   1.347
 3722SOL    HW112065   4.291   6.849   1.386
 3722SOL    HW212066   4.384   6.887   1.258
 3723SOL     OW12067   4.338   5.216   0.196
 3723SOL    HW112068   4.375   5.261   0.278
 3723SOL    HW212069   4.413   5.197   0.132
 3724SOL     OW12070   1.941   5.471   5.213
 3724SOL    HW112071   1.886   5.395   5.177
 3724SOL    HW212072   1.961   5.535   5.139
 3725SOL     OW12073   0.214   5.803   6.941
 3725SOL    HW112074   0.164   5.745   6.877
 3725SOL    HW212075   0.225   5.756   0.003
 3726SOL     OW12076   5.580   4.861   4.671
 3726SOL    HW112077   5.527   4.876   4.754
 3726SOL    HW212078   5.552   4.928   4.601
 3727SOL     OW12079   6.925   3.605   4.613
 3727SOL    HW112080   6.916   3.704   4.610
 3727SOL    HW212081   6.947   3.570   4.522
 3728SOL     OW12082   2.885   3.090   6.939
 3728SOL    HW112083   2.906   3.038   7.022
 3728SOL    HW212084   2.809   3.153   6.958
 3729SOL     OW12085   0.606   0.328   4.795
 3729SOL    HW112086   0.654   0.257   4.742
 3729SOL    HW212087   0.542   0.376   4.735
 3730SOL     OW12088   4.688   6.562   5.819
 3730SOL    HW112089   4.639   6.643   5.851
 3730SOL    HW212090   4.626   6.503   5.768
 3731SOL     OW12091   0.788   1.240   6.961
 3731SOL    HW112092   0.729   1.205   0.008
 3731SOL    HW212093   0.861   1.174   6.942
 3732SOL     OW12094   1.454   2.034   0.964
 3732SOL    HW112095   1.422   2.081   0.881
 3732SOL    HW212096   1.399   2.064   1.042
 3733SOL     OW12097   1.906   2.912   3.366
 3733SOL    HW112098   1.809   2.930   3.351
 3733SOL    HW212099   1.951   2.901   3.277
 3734SOL     OW12100   4.383   0.536   1.031
 3734SOL    HW112101   4.406   0.550   0.935
 3734SOL    HW212102   4.300   0.481   1.038
 3735SOL     OW12103   4.432   6.968   2.232
 3735SOL    HW112104   4.496   6.920   2.173
 3735SOL    HW212105   4.458   6.953   2.328
 3736SOL     OW12106   6.722   0.438   0.669
 3736SOL    HW112107   6.664   0.494   0.728
 3736SOL    HW212108   6.774   0.497   0.608
 3737SOL     OW12109   5.833   2.810   3.676
 3737SOL    HW112110   5.757   2.853   3.725
 3737SOL    HW212111   5.897   2.880   3.646
 3738SOL     OW12112   6.620   5.742   0.975
 3738SOL    HW112113   6.601   5.688   1.058
 3738SOL    HW212114   6.623   5.839   0.999
 3739SOL     OW12115   3.008   4.757   1.751
 3739SOL    HW112116   3.103   4.789   1.743
 3739SOL    HW212117   3.007   4.666   1.792
 3740SOL     OW12118   5.907   6.070   6.972
 3740SOL    HW112119   5.877   6.151   6.921
 3740SOL    HW212120   5.830   6.007   6.983
 3741SOL     OW12121   5.042   2.699   0.171
 3741SOL    HW112122   4.968   2.669   0.111
 3741SOL    HW212123   5.031   2.655   0.261
 3742SOL     OW12124   4.995   5.520   0.030
 3742SOL    HW112125   5.015   5.599   6.998
 3742SOL    HW212126   4.994   5.548   0.126
 3743SOL     OW12127   4.584   4.500   1.524
 3743SOL    HW112128   4.611   4.465   1.614
 3743SOL    HW212129   4.580   4.424   1.459
 3744SOL     OW12130   1.080   6.312   1.864
 3744SOL    HW112131   1.062   6.410   1.872
 3744SOL    HW212132   1.039   6.264   1.941
 3745SOL     OW12133   4.956   3.632   2.383
 3745SOL    HW112134   4.887   3.699   2.356
 3745SOL    HW212135   4.920   3.540   2.368
 3746SOL     OW12136   6.770   0.470   3.693
 3746SOL    HW112137   6.676   0.502   3.691
 3746SOL    HW212138   6.832   0.547   3.707
 3747SOL     OW12139   4.541   6.754   5.929
 3747SOL    HW112140   4.529   6.851   5.910
 3747SOL    HW212141   4.534   6.738   6.028
 3748SOL     OW12142   5.990   1.121   2.278
 3748SOL    HW112143   5.982   1.138   2.180
 3748SOL    HW212144   5.909   1.072   2.309
 3749SOL     OW12145   1.251   5.600   2.641
 3749SOL    HW112146   1.210   5.687   2.614
 3749SOL    HW212147   1.223   5.578   2.734
 3750SOL     OW12148   5.501   4.731   0.764
 3750SOL    HW112149   5.588   4.685   0.777
 3750SOL    HW212150   5.490   4.755   0.668
 3751SOL     OW12151   1.201   3.085   0.758
 3751SOL    HW112152   1.262   3.162   0.776
 3751SOL    HW212153   1.244   3.023   0.692
 3752SOL     OW12154   0.466   0.363   0.122
 3752SOL    HW112155   0.478   0.411   0.036
 3752SOL    HW212156   0.528   0.284   0.125
 3753SOL     OW12157   0.464   6.318   5.161
 3753SOL    HW112158   0.393   6.277   5.103
 3753SOL    HW212159   0.421   6.374   5.232
 3754SOL     OW12160   5.480   6.425   1.473
 3754SOL    HW112161   5.451   6.353   1.411
 3754SOL    HW212162   5.541   6.387   1.543
 3755SOL     OW12163   5.777   5.597   4.378
 3755SOL    HW112164   5.812   5.647   4.298
 3755SOL    HW212165   5.698   5.543   4.351
 3756SOL     OW12166   2.286   0.433   6.200
 3756SOL    HW112167   2.263   0.465   6.108
 3756SOL    HW212168   2.328   0.508   6.252
 3757SOL     OW12169   3.762   5.699   5.695
 3757SOL    HW112170   3.750   5.742   5.606
 3757SOL    HW212171   3.835   5.631   5.690
 3758SOL     OW12172   1.958   1.586   4.430
 3758SOL    HW112173   1.861   1.606   4.419
 3758SOL    HW212174   1.989   1.619   4.519
 3759SOL     OW12175   4.389   5.311   5.318
 3759SOL    HW112176   4.339   5.335   5.402
 3759SOL    HW212177   4.387   5.389   5.255
 3760SOL     OW12178   1.174   3.490   3.182
 3760SOL    HW112179   1.158   3.532   3.271
 3760SOL    HW212180   1.268   3.508   3.153
 3761SOL     OW12181   0.687   0.085   4.999
 3761SOL    HW112182   0.770   0.132   4.970
 3761SOL    HW212183   0.607   0.139   4.973
 3762SOL     OW12184   0.619   4.258   6.748
 3762SOL    HW112185   0.603   4.165   6.715
 3762SOL    HW212186   0.541   4.289   6.802
 3763SOL     OW12187   6.890   4.700   6.537
 3763SOL    HW112188   6.809   4.647   6.560
 3763SOL    HW212189   6.878   4.794   6.571
 3764SOL     OW12190   2.034   0.930   4.695
 3764SOL    HW112191   2.039   0.833   4.672
 3764SOL    HW212192   1.942   0.952   4.728
 3765SOL     OW12193   4.587   0.974   2.997
 3765SOL    HW112194   4.621   1.062   2.963
 3765SOL    HW212195   4.488   0.968   2.980
 3766SOL     OW12196   0.954   0.747   3.702
 3766SOL    HW112197   0.869   0.730   3.651
 3766SOL    HW212198   0.971   0.670   3.764
 3767SOL     OW12199   2.081   4.284   0.503
 3767SOL    HW112200   2.095   4.331   0.590
 3767SOL    HW212201   1.984   4.258   0.495
 3768SOL     OW12202   3.748   6.476   6.118
 3768SOL    HW112203   3.817   6.474   6.190
 3768SOL    HW212204   3.658   6.492   6.159
 3769SOL     OW12205   5.415   5.848   5.645
 3769SOL    HW112206   5.514   5.839   5.646
 3769SOL    HW212207   5.372   5.765   5.680
 3770SOL     OW12208   2.418   1.086   6.617
 3770SOL    HW112209   2.503   1.090   6.564
 3770SOL    HW212210   2.419   1.156   6.688
 3771SOL     OW12211   5.546   2.094   0.816
 3771SOL    HW112212   5.479   2.021   0.833
 3771SOL    HW212213   5.513   2.153   0.742
 3772SOL     OW12214   6.461   1.362   0.678
 3772SOL    HW112215   6.362   1.364   0.686
 3772SOL    HW212216   6.487   1.309   0.597
 3773SOL     OW12217   5.616   3.332   5.917
 3773SOL    HW112218   5.538   3.354   5.975
 3773SOL    HW212219   5.625   3.403   5.846
 3774SOL     OW12220   1.245   6.954   6.943
 3774SOL    HW112221   1.148   6.973   6.956
 3774SOL    HW212222   1.295   0.015   6.933
 3775SOL     OW12223   5.486   3.747   2.379
 3775SOL    HW112224   5.393   3.763   2.346
 3775SOL    HW212225   5.532   3.681   2.319
 3776SOL     OW12226   2.624   1.163   2.066
 3776SOL    HW112227   2.671   1.226   2.128
 3776SOL    HW212228   2.528   1.155   2.093
 3777SOL     OW12229   2.631   4.824   4.669
 3777SOL    HW112230   2.705   4.825   4.737
 3777SOL    HW212231   2.590   4.915   4.663
 3778SOL     OW12232   2.128   5.870   3.152
 3778SOL    HW112233   2.034   5.853   3.183
 3778SOL    HW212234   2.126   5.912   3.061
 3779SOL     OW12235   2.600   5.146   6.831
 3779SOL    HW112236   2.694   5.178   6.843
 3779SOL    HW212237   2.583   5.070   6.894
 3780SOL     OW12238   3.489   4.974   4.691
 3780SOL    HW112239   3.543   5.043   4.739
 3780SOL    HW212240   3.416   4.940   4.752
 3781SOL     OW12241   1.724   6.043   4.180
 3781SOL    HW112242   1.745   6.073   4.273
 3781SOL    HW212243   1.806   6.001   4.139
 3782SOL     OW12244   2.728   2.430   4.212
 3782SOL    HW112245   2.789   2.398   4.140
 3782SOL    HW212246   2.636   2.443   4.174
 3783SOL     OW12247   6.784   6.797   4.872
 3783SOL    HW112248   6.867   6.806   4.928
 3783SOL    HW212249   6.744   6.707   4.887
 3784SOL     OW12250   5.221   1.579   3.494
 3784SOL    HW112251   5.244   1.486   3.522
 3784SOL    HW212252   5.164   1.622   3.563
 3785SOL     OW12253   2.294   1.736   0.411
 3785SOL    HW112254   2.308   1.696   0.501
 3785SOL    HW212255   2.199   1.765   0.401
 3786SOL     OW12256   2.957   5.167   3.706
 3786SOL    HW112257   2.993   5.260   3.696
 3786SOL    HW212258   3.027   5.101   3.678
 3787SOL     OW12259   5.427   6.830   3.447
 3787SOL    HW112260   5.385   6.913   3.410
 3787SOL    HW212261   5.421   6.831   3.547
 3788SOL     OW12262   6.423   3.413   3.569
 3788SOL    HW112263   6.335   3.457   3.583
 3788SOL    HW212264   6.479   3.469   3.508
 3789SOL     OW12265   1.812   4.350   4.188
 3789SOL    HW112266   1.752   4.412   4.237
 3789SOL    HW212267   1.783   4.255   4.204
 3790SOL     OW12268   2.173   3.612   4.874
 3790SOL    HW112269   2.136   3.548   4.806
 3790SOL    HW212270   2.186   3.702   4.832
 3791SOL     OW12271   5.499   6.780   0.930
 3791SOL    HW112272   5.478   6.807   1.024
 3791SOL    HW212273   5.485   6.681   0.920
 3792SOL     OW12274   6.933   0.186   4.938
 3792SOL    HW112275   6.998   0.235   4.879
 3792SOL    HW212276   6.882   0.120   4.883
 3793SOL     OW12277   2.271   1.074   2.783
 3793SOL    HW112278   2.287   1.168   2.754
 3793SOL    HW212279   2.336   1.013   2.736
 3794SOL     OW12280   3.728   5.367   1.743
 3794SOL    HW112281   3.670   5.443   1.713
 3794SOL    HW212282   3.678   5.281   1.732
 3795SOL     OW12283   4.215   6.732   6.355
 3795SOL    HW112284   4.141   6.778   6.402
 3795SOL    HW212285   4.212   6.755   6.257
 3796SOL     OW12286   1.772   1.759   1.304
 3796SOL    HW112287   1.722   1.844   1.320
 3796SOL    HW212288   1.822   1.765   1.217
 3797SOL     OW12289   6.620   5.449   2.282
 3797SOL    HW112290   6.594   5.368   2.335
 3797SOL    HW212291   6.682   5.506   2.336
 3798SOL     OW12292   2.494   4.918   2.882
 3798SOL    HW112293   2.471   4.948   2.789
 3798SOL    HW212294   2.548   4.834   2.877
 3799SOL     OW12295   1.114   2.365   4.267
 3799SOL    HW112296   1.149   2.276   4.295
 3799SOL    HW212297   1.125   2.376   4.168
 3800SOL     OW12298   5.043   2.379   4.991
 3800SOL    HW112299   5.097   2.450   5.037
 3800SOL    HW212300   5.000   2.418   4.909
 3801SOL     OW12301   6.335   5.680   5.540
 3801SOL    HW112302   6.286   5.594   5.555
 3801SOL    HW212303   6.277   5.757   5.566
 3802SOL     OW12304   1.185   2.049   4.925
 3802SOL    HW112305   1.102   2.092   4.960
 3802SOL    HW212306   1.169   2.016   4.832
 3803SOL     OW12307   4.004   0.815   2.153
 3803SOL    HW112308   3.974   0.776   2.066
 3803SOL    HW212309   3.935   0.879   2.187
 3804SOL     OW12310   4.281   2.060   4.669
 3804SOL    HW112311   4.273   2.109   4.582
 3804SOL    HW212312   4.377   2.047   4.691
 3805SOL     OW12313   3.278   4.075   1.719
 3805SOL    HW112314   3.342   4.053   1.793
 3805SOL    HW212315   3.188   4.037   1.741
 3806SOL     OW12316   2.851   2.635   0.015
 3806SOL    HW112317   2.774   2.575   0.036
 3806SOL    HW212318   2.924   2.621   0.082
 3807SOL     OW12319   1.793   1.497   4.661
 3807SOL    HW112320   1.747   1.517   4.575
 3807SOL    HW212321   1.891   1.481   4.644
 3808SOL     OW12322   3.245   0.561   2.161
 3808SOL    HW112323   3.278   0.552   2.255
 3808SOL    HW212324   3.208   0.473   2.131
 3809SOL     OW12325   5.773   1.731   0.118
 3809SOL    HW112326   5.848   1.796   0.107
 3809SOL    HW212327   5.718   1.730   0.035
 3810SOL     OW12328   4.268   3.095   5.363
 3810SOL    HW112329   4.194   3.031   5.346
 3810SOL    HW212330   4.256   3.176   5.305
 3811SOL     OW12331   0.683   4.361   3.912
 3811SOL    HW112332   0.767   4.320   3.878
 3811SOL    HW212333   0.604   4.315   3.871
 3812SOL     OW12334   5.927   1.586   5.732
 3812SOL    HW112335   6.001   1.546   5.677
 3812SOL    HW212336   5.839   1.568   5.688
 3813SOL     OW12337   4.190   4.501   0.718
 3813SOL    HW112338   4.212   4.467   0.810
 3813SOL    HW212339   4.190   4.601   0.719
 3814SOL     OW12340   7.020   6.036   1.171
 3814SOL    HW112341   0.071   6.080   1.123
 3814SOL    HW212342   0.023   6.015   1.265
 3815SOL     OW12343   4.852   2.241   0.747
 3815SOL    HW112344   4.839   2.255   0.845
 3815SOL    HW212345   4.826   2.323   0.697
 3816SOL     OW12346   0.019   6.097   1.845
 3816SOL    HW112347   0.022   6.177   1.785
 3816SOL    HW212348   0.030   6.014   1.791
 3817SOL     OW12349   4.824   2.987   4.262
 3817SOL    HW112350   4.788   2.910   4.208
 3817SOL    HW212351   4.919   3.003   4.237
 3818SOL     OW12352   4.322   6.415   1.699
 3818SOL    HW112353   4.404   6.471   1.710
 3818SOL    HW212354   4.348   6.319   1.691
 3819SOL     OW12355   5.410   5.462   0.134
 3819SOL    HW112356   5.369   5.551   0.151
 3819SOL    HW212357   5.500   5.474   0.091
 3820SOL     OW12358   6.328   5.993   3.779
 3820SOL    HW112359   6.361   6.079   3.819
 3820SOL    HW212360   6.391   5.919   3.802
 3821SOL     OW12361   1.731   3.334   1.949
 3821SOL    HW112362   1.700   3.240   1.933
 3821SOL    HW212363   1.821   3.347   1.908
 3822SOL     OW12364   1.494   5.543   2.091
 3822SOL    HW112365   1.536   5.588   2.169
 3822SOL    HW212366   1.403   5.510   2.117
 3823SOL     OW12367   4.067   2.203   4.973
 3823SOL    HW112368   3.987   2.200   5.032
 3823SOL    HW212369   4.113   2.291   4.984
 3824SOL     OW12370   6.243   1.855   5.883
 3824SOL    HW112371   6.336   1.820   5.870
 3824SOL    HW212372   6.188   1.834   5.802
 3825SOL     OW12373   6.776   7.021   6.871
 3825SOL    HW112374   6.863   7.002   6.827
 3825SOL    HW212375   6.710   6.949   6.846
 3826SOL     OW12376   0.334   3.578   0.494
 3826SOL    HW112377   0.234   3.583   0.485
 3826SOL    HW212378   0.374   3.553   0.406
 3827SOL     OW12379   4.099   4.180   1.035
 3827SOL    HW112380   4.019   4.217   0.987
 3827SOL    HW212381   4.162   4.254   1.056
 3828SOL     OW12382   4.380   2.229   0.623
 3828SOL    HW112383   4.313   2.193   0.687
 3828SOL    HW212384   4.460   2.170   0.621
 3829SOL     OW12385   2.451   5.043   3.738
 3829SOL    HW112386   2.507   5.019   3.659
 3829SOL    HW212387   2.510   5.054   3.818
 3830SOL     OW12388   1.466   0.263   5.407
 3830SOL    HW112389   1.461   0.194   5.334
 3830SOL    HW212390   1.557   0.305   5.408
 3831SOL     OW12391   4.165   1.744   2.106
 3831SOL    HW112392   4.127   1.653   2.087
 3831SOL    HW212393   4.221   1.774   2.029
 3832SOL     OW12394   6.308   1.008   1.621
 3832SOL    HW112395   6.378   1.004   1.693
 3832SOL    HW212396   6.342   0.961   1.539
 3833SOL     OW12397   0.485   4.972   0.133
 3833SOL    HW112398   0.561   4.913   0.103
 3833SOL    HW212399   0.442   5.014   0.053
 3834SOL     OW12400   2.970   2.274   0.218
 3834SOL    HW112401   2.945   2.178   0.215
 3834SOL    HW212402   2.900   2.325   0.269
 3835SOL     OW12403   3.861   5.363   5.295
 3835SOL    HW112404   3.901   5.288   5.244
 3835SOL    HW212405   3.766   5.343   5.316
 3836SOL     OW12406   1.843   3.685   5.997
 3836SOL    HW112407   1.818   3.588   5.994
 3836SOL    HW212408   1.828   3.721   6.089
 3837SOL     OW12409   4.579   3.293   0.395
 3837SOL    HW112410   4.481   3.307   0.384
 3837SOL    HW212411   4.615   3.356   0.464
 3838SOL     OW12412   5.244   3.119   4.383
 3838SOL    HW112413   5.218   3.213   4.407
 3838SOL    HW212414   5.314   3.087   4.447
 3839SOL     OW12415   5.304   0.293   5.292
 3839SOL    HW112416   5.402   0.284   5.275
 3839SOL    HW212417   5.284   0.269   5.387
 3840SOL     OW12418   1.436   1.207   5.025
 3840SOL    HW112419   1.420   1.173   4.932
 3840SOL    HW212420   1.475   1.299   5.021
 3841SOL     OW12421   0.657   4.030   5.037
 3841SOL    HW112422   0.693   4.107   5.090
 3841SOL    HW212423   0.614   4.064   4.953
 3842SOL     OW12424   0.670   5.496   6.993
 3842SOL    HW112425   0.767   5.500   6.966
 3842SOL    HW212426   0.613   5.495   6.912
 3843SOL     OW12427   0.155   3.234   0.622
 3843SOL    HW112428   0.119   3.237   0.715
 3843SOL    HW212429   0.160   3.139   0.591
 3844SOL     OW12430   1.216   5.538   5.530
 3844SOL    HW112431   1.310   5.563   5.552
 3844SOL    HW212432   1.173   5.496   5.610
 3845SOL     OW12433   3.506   2.880   2.685
 3845SOL    HW112434   3.420   2.911   2.726
 3845SOL    HW212435   3.581   2.891   2.751
 3846SOL     OW12436   6.841   4.706   3.641
 3846SOL    HW112437   6.825   4.776   3.571
 3846SOL    HW212438   6.908   4.640   3.608
 3847SOL     OW12439   6.640   1.121   6.677
 3847SOL    HW112440   6.721   1.176   6.657
 3847SOL    HW212441   6.661   1.056   6.750
 3848SOL     OW12442   2.171   5.038   2.190
 3848SOL    HW112443   2.105   4.974   2.228
 3848SOL    HW212444   2.205   5.097   2.263
 3849SOL     OW12445   0.939   1.679   5.933
 3849SOL    HW112446   1.034   1.650   5.918
 3849SOL    HW212447   0.928   1.774   5.904
 3850SOL     OW12448   3.274   3.757   1.583
 3850SOL    HW112449   3.307   3.815   1.657
 3850SOL    HW212450   3.320   3.668   1.587
 3851SOL     OW12451   2.233   4.198   2.959
 3851SOL    HW112452   2.217   4.132   3.033
 3851SOL    HW212453   2.166   4.181   2.886
 3852SOL     OW12454   4.474   1.114   5.185
 3852SOL    HW112455   4.447   1.040   5.246
 3852SOL    HW212456   4.574   1.115   5.175
 3853SOL     OW12457   0.524   3.097   2.743
 3853SOL    HW112458   0.538   3.029   2.815
 3853SOL    HW212459   0.490   3.052   2.660
 3854SOL     OW12460   1.128   3.569   3.448
 3854SOL    HW112461   1.147   3.476   3.479
 3854SOL    HW212462   1.047   3.604   3.495
 3855SOL     OW12463   5.819   5.254   6.009
 3855SOL    HW112464   5.850   5.159   6.014
 3855SOL    HW212465   5.721   5.258   6.027
 3856SOL     OW12466   0.025   0.501   6.105
 3856SOL    HW112467   0.118   0.531   6.128
 3856SOL    HW212468   6.997   0.580   6.073
 3857SOL     OW12469   1.106   6.794   4.976
 3857SOL    HW112470   1.020   6.843   4.990
 3857SOL    HW212471   1.151   6.827   4.893
 3858SOL     OW12472   1.018   6.005   6.228
 3858SOL    HW112473   1.099   5.998   6.285
 3858SOL    HW212474   0.956   6.073   6.266
 3859SOL     OW12475   6.938   2.734   3.652
 3859SOL    HW112476   6.887   2.648   3.660
 3859SOL    HW212477   6.895   2.791   3.582
 3860SOL     OW12478   2.009   5.856   5.231
 3860SOL    HW112479   1.929   5.824   5.180
 3860SOL    HW212480   2.054   5.778   5.274
 3861SOL     OW12481   5.522   4.744   1.631
 3861SOL    HW112482   5.501   4.771   1.537
 3861SOL    HW212483   5.601   4.683   1.631
 3862SOL     OW12484   0.334   0.022   6.293
 3862SOL    HW112485   0.406   6.982   6.268
 3862SOL    HW212486   0.313   0.012   6.390
 3863SOL     OW12487   3.143   3.751   0.896
 3863SOL    HW112488   3.162   3.818   0.824
 3863SOL    HW212489   3.218   3.750   0.961
 3864SOL     OW12490   3.827   2.092   6.912
 3864SOL    HW112491   3.786   2.170   6.959
 3864SOL    HW212492   3.893   2.047   6.972
 3865SOL     OW12493   3.818   0.123   2.179
 3865SOL    HW112494   3.781   0.041   2.222
 3865SOL    HW212495   3.798   0.203   2.236
 3866SOL     OW12496   3.999   6.948   1.200
 3866SOL    HW112497   4.088   6.976   1.163
 3866SOL    HW212498   4.009   6.860   1.247
 3867SOL     OW12499   2.162   3.556   3.173
 3867SOL    HW112500   2.256   3.590   3.172
 3867SOL    HW212501   2.105   3.616   3.228
 3868SOL     OW12502   2.491   6.457   1.661
 3868SOL    HW112503   2.487   6.485   1.757
 3868SOL    HW212504   2.479   6.538   1.603
 3869SOL     OW12505   0.203   2.419   3.337
 3869SOL    HW112506   0.267   2.456   3.404
 3869SOL    HW212507   0.225   2.323   3.319
 3870SOL     OW12508   2.933   4.948   6.990
 3870SOL    HW112509   3.003   4.998   6.939
 3870SOL    HW212510   2.977   4.890   0.034
 3871SOL     OW12511   3.420   0.059   2.599
 3871SOL    HW112512   3.413   7.002   2.656
 3871SOL    HW212513   3.375   0.042   2.511
 3872SOL     OW12514   4.123   3.390   0.794
 3872SOL    HW112515   4.135   3.431   0.885
 3872SOL    HW212516   4.213   3.377   0.752
 3873SOL     OW12517   5.603   5.504   1.403
 3873SOL    HW112518   5.506   5.506   1.427
 3873SOL    HW212519   5.654   5.566   1.463
 3874SOL     OW12520   3.921   6.549   0.098
 3874SOL    HW112521   4.003   6.500   0.068
 3874SOL    HW212522   3.841   6.513   0.051
 3875SOL     OW12523   1.418   4.366   1.308
 3875SOL    HW112524   1.357   4.287   1.305
 3875SOL    HW212525   1.475   4.361   1.390
 3876SOL     OW12526   6.098   5.065   5.004
 3876SOL    HW112527   6.023   5.064   5.071
 3876SOL    HW212528   6.087   4.988   4.941
 3877SOL     OW12529   6.364   1.280   2.474
 3877SOL    HW112530   6.388   1.286   2.377
 3877SOL    HW212531   6.285   1.220   2.485
 3878SOL     OW12532   3.950   6.911   6.179
 3878SOL    HW112533   4.044   6.900   6.146
 3878SOL    HW212534   3.932   6.845   6.252
 3879SOL     OW12535   4.143   5.124   1.875
 3879SOL    HW112536   4.047   5.150   1.869
 3879SOL    HW212537   4.195   5.170   1.803
 3880SOL     OW12538   5.743   3.351   2.727
 3880SOL    HW112539   5.811   3.326   2.658
 3880SOL    HW212540   5.789   3.376   2.811
 3881SOL     OW12541   0.685   4.679   0.716
 3881SOL    HW112542   0.628   4.599   0.696
 3881SOL    HW212543   0.781   4.653   0.716
 3882SOL     OW12544   6.427   1.316   5.608
 3882SOL    HW112545   6.525   1.300   5.624
 3882SOL    HW212546   6.374   1.259   5.670
 3883SOL     OW12547   4.190   1.158   3.642
 3883SOL    HW112548   4.147   1.173   3.731
 3883SOL    HW212549   4.252   1.234   3.623
 3884SOL     OW12550   1.526   5.992   4.916
 3884SOL    HW112551   1.574   6.057   4.975
 3884SOL    HW212552   1.558   5.899   4.935
 3885SOL     OW12553   6.902   1.446   3.631
 3885SOL    HW112554   6.928   1.516   3.698
 3885SOL    HW212555   6.943   1.469   3.542
 3886SOL     OW12556   6.768   0.293   5.124
 3886SOL    HW112557   6.817   0.363   5.176
 3886SOL    HW212558   6.827   0.257   5.052
 3887SOL     OW12559   3.992   2.023   5.348
 3887SOL    HW112560   3.913   2.043   5.406
 3887SOL    HW212561   4.004   1.924   5.340
 3888SOL     OW12562   6.236   1.740   0.842
 3888SOL    HW112563   6.171   1.776   0.908
 3888SOL    HW212564   6.311   1.695   0.891
 3889SOL     OW12565   0.882   5.734   6.393
 3889SOL    HW112566   0.857   5.828   6.419
 3889SOL    HW212567   0.975   5.734   6.356
 3890SOL     OW12568   5.559   4.925   2.605
 3890SOL    HW112569   5.479   4.963   2.650
 3890SOL    HW212570   5.553   4.825   2.604
 3891SOL     OW12571   5.394   5.303   4.667
 3891SOL    HW112572   5.341   5.240   4.724
 3891SOL    HW212573   5.334   5.374   4.630
 3892SOL     OW12574   5.862   6.983   2.716
 3892SOL    HW112575   5.772   0.000   2.720
 3892SOL    HW212576   5.916   7.011   2.795
 3893SOL     OW12577   3.260   5.389   4.684
 3893SOL    HW112578   3.315   5.321   4.732
 3893SOL    HW212579   3.168   5.353   4.670
 3894SOL     OW12580   4.316   3.336   0.400
 3894SOL    HW112581   4.228   3.302   0.367
 3894SOL    HW212582   4.310   3.355   0.498
 3895SOL     OW12583   2.291   1.340   6.145
 3895SOL    HW112584   2.275   1.241   6.153
 3895SOL    HW212585   2.225   1.379   6.081
 3896SOL     OW12586   6.995   2.834   5.115
 3896SOL    HW112587   0.002   2.786   5.196
 3896SOL    HW212588   6.931   2.906   5.141
 3897SOL     OW12589   3.656   0.338   2.004
 3897SOL    HW112590   3.559   0.355   1.989
 3897SOL    HW212591   3.667   0.272   2.079
 3898SOL     OW12592   4.118   3.361   4.048
 3898SOL    HW112593   4.138   3.391   4.141
 3898SOL    HW212594   4.098   3.263   4.048
 3899SOL     OW12595   4.476   1.866   5.720
 3899SOL    HW112596   4.502   1.833   5.811
 3899SOL    HW212597   4.524   1.952   5.701
 3900SOL     OW12598   5.898   2.707   3.269
 3900SOL    HW112599   5.932   2.698   3.363
 3900SOL    HW212600   5.798   2.708   3.270
 3901SOL     OW12601   1.194   6.773   5.254
 3901SOL    HW112602   1.152   6.778   5.163
 3901SOL    HW212603   1.158   6.847   5.311
 3902SOL     OW12604   4.786   5.089   1.727
 3902SOL    HW112605   4.782   5.056   1.633
 3902SOL    HW212606   4.877   5.127   1.744
 3903SOL     OW12607   4.590   2.547   6.532
 3903SOL    HW112608   4.529   2.479   6.573
 3903SOL    HW212609   4.681   2.539   6.574
 3904SOL     OW12610   0.869   6.018   0.746
 3904SOL    HW112611   0.803   6.012   0.671
 3904SOL    HW212612   0.956   5.977   0.718
 3905SOL     OW12613   0.011   0.894   5.386
 3905SOL    HW112614   0.086   0.957   5.405
 3905SOL    HW212615   0.044   0.821   5.325
 3906SOL     OW12616   1.987   5.005   3.995
 3906SOL    HW112617   2.046   4.928   3.971
 3906SOL    HW212618   1.940   5.038   3.913
 3907SOL     OW12619   6.620   1.321   4.095
 3907SOL    HW112620   6.559   1.384   4.143
 3907SOL    HW212621   6.656   1.366   4.013
 3908SOL     OW12622   1.515   0.558   4.827
 3908SOL    HW112623   1.583   0.492   4.857
 3908SOL    HW212624   1.444   0.567   4.898
 3909SOL     OW12625   5.616   2.964   5.997
 3909SOL    HW112626   5.668   3.002   5.921
 3909SOL    HW212627   5.676   2.952   6.076
 3910SOL     OW12628   3.620   2.468   0.454
 3910SOL    HW112629   3.531   2.457   0.499
 3910SOL    HW212630   3.683   2.400   0.490
 3911SOL     OW12631   6.407   0.906   1.402
 3911SOL    HW112632   6.501   0.938   1.391
 3911SOL    HW212633   6.356   0.923   1.317
 3912SOL     OW12634   4.246   2.065   6.917
 3912SOL    HW112635   4.171   2.131   6.926
 3912SOL    HW212636   4.291   2.077   6.829
 3913SOL     OW12637   4.660   5.448   0.669
 3913SOL    HW112638   4.663   5.548   0.661
 3913SOL    HW212639   4.737   5.409   0.618
 3914SOL     OW12640   5.783   1.039   0.652
 3914SOL    HW112641   5.778   0.994   0.563
 3914SOL    HW212642   5.726   1.122   0.650
 3915SOL     OW12643   4.539   5.137   0.010
 3915SOL    HW112644   4.553   5.055   6.979
 3915SOL    HW212645   4.588   5.214   6.995
 3916SOL     OW12646   1.668   0.628   2.093
 3916SOL    HW112647   1.707   0.583   2.174
 3916SOL    HW212648   1.569   0.615   2.093
 3917SOL     OW12649   2.982   5.035   0.753
 3917SOL    HW112650   2.949   4.948   0.789
 3917SOL    HW212651   2.942   5.110   0.806
 3918SOL     OW12652   5.494   0.691   0.618
 3918SOL    HW112653   5.404   0.655   0.591
 3918SOL    HW212654   5.485   0.742   0.703
 3919SOL     OW12655   4.029   6.919   1.679
 3919SOL    HW112656   3.964   6.972   1.734
 3919SOL    HW212657   4.110   6.974   1.661
 3920SOL     OW12658   3.229   0.981   6.046
 3920SOL    HW112659   3.299   0.943   5.985
 3920SOL    HW212660   3.171   1.044   5.995
 3921SOL     OW12661   0.906   2.768   6.565
 3921SOL    HW112662   0.901   2.867   6.550
 3921SOL    HW212663   0.894   2.721   6.478
 3922SOL     OW12664   4.860   4.818   2.867
 3922SOL    HW112665   4.905   4.751   2.808
 3922SOL    HW212666   4.770   4.840   2.829
 3923SOL     OW12667   5.452   0.796   1.267
 3923SOL    HW112668   5.405   0.858   1.204
 3923SOL    HW212669   5.388   0.762   1.335
 3924SOL     OW12670   6.360   4.438   4.332
 3924SOL    HW112671   6.398   4.527   4.308
 3924SOL    HW212672   6.352   4.381   4.249
 3925SOL     OW12673   4.577   3.760   0.973
 3925SOL    HW112674   4.666   3.739   0.931
 3925SOL    HW212675   4.588   3.834   1.039
 3926SOL     OW12676   0.105   0.148   5.576
 3926SOL    HW112677   0.006   0.164   5.571
 3926SOL    HW212678   0.139   0.182   5.664
 3927SOL     OW12679   6.147   2.963   5.055
 3927SOL    HW112680   6.119   2.937   5.147
 3927SOL    HW212681   6.243   2.992   5.056
 3928SOL     OW12682   1.940   6.209   2.791
 3928SOL    HW112683   2.010   6.210   2.719
 3928SOL    HW212684   1.927   6.301   2.827
 3929SOL     OW12685   0.412   2.024   5.476
 3929SOL    HW112686   0.475   1.958   5.435
 3929SOL    HW212687   0.377   2.086   5.406
 3930SOL     OW12688   1.000   4.116   3.904
 3930SOL    HW112689   0.910   4.083   3.876
 3930SOL    HW212690   0.989   4.200   3.957
 3931SOL     OW12691   1.469   2.642   1.252
 3931SOL    HW112692   1.512   2.553   1.235
 3931SOL    HW212693   1.465   2.659   1.351
 3932SOL     OW12694   1.675   5.674   4.272
 3932SOL    HW112695   1.751   5.612   4.251
 3932SOL    HW212696   1.618   5.686   4.192
 3933SOL     OW12697   2.086   4.837   0.572
 3933SOL    HW112698   2.130   4.897   0.505
 3933SOL    HW212699   2.145   4.826   0.652
 3934SOL     OW12700   0.443   1.281   1.326
 3934SOL    HW112701   0.449   1.198   1.271
 3934SOL    HW212702   0.485   1.266   1.416
 3935SOL     OW12703   6.022   3.489   6.717
 3935SOL    HW112704   6.011   3.587   6.735
 3935SOL    HW212705   5.934   3.443   6.730
 3936SOL     OW12706   0.610   5.233   5.388
 3936SOL    HW112707   0.524   5.275   5.417
 3936SOL    HW212708   0.594   5.181   5.304
 3937SOL     OW12709   0.116   0.456   2.009
 3937SOL    HW112710   0.089   0.367   1.971
 3937SOL    HW212711   0.096   0.458   2.106
 3938SOL     OW12712   0.485   4.440   2.978
 3938SOL    HW112713   0.465   4.467   2.884
 3938SOL    HW212714   0.474   4.341   2.988
 3939SOL     OW12715   1.156   0.875   2.453
 3939SOL    HW112716   1.110   0.908   2.537
 3939SOL    HW212717   1.204   0.952   2.410
 3940SOL     OW12718   3.036   5.464   1.414
 3940SOL    HW112719   2.968   5.536   1.401
 3940SOL    HW212720   3.126   5.504   1.428
 3941SOL     OW12721   5.745   6.954   3.623
 3941SOL    HW112722   5.837   6.978   3.590
 3941SOL    HW212723   5.680   7.024   3.594
 3942SOL     OW12724   7.014   5.863   5.932
 3942SOL    HW112725   6.999   5.770   5.898
 3942SOL    HW212726   7.001   5.863   6.032
 3943SOL     OW12727   1.273   2.836   0.088
 3943SOL    HW112728   1.298   2.742   0.111
 3943SOL    HW212729   1.258   2.844   7.015
 3944SOL     OW12730   6.046   1.924   6.829
 3944SOL    HW112731   6.098   1.940   6.745
 3944SOL    HW212732   6.106   1.884   6.898
 3945SOL     OW12733   6.540   0.752   3.618
 3945SOL    HW112734   6.458   0.795   3.580
 3945SOL    HW212735   6.621   0.787   3.570
 3946SOL     OW12736   1.327   2.876   0.582
 3946SOL    HW112737   1.342   2.780   0.606
 3946SOL    HW212738   1.231   2.888   0.554
 3947SOL     OW12739   5.776   4.880   1.397
 3947SOL    HW112740   5.819   4.852   1.482
 3947SOL    HW212741   5.766   4.980   1.396
 3948SOL     OW12742   1.402   2.782   6.155
 3948SOL    HW112743   1.335   2.726   6.205
 3948SOL    HW212744   1.354   2.846   6.096
 3949SOL     OW12745   6.025   6.397   2.614
 3949SOL    HW112746   6.025   6.478   2.671
 3949SOL    HW212747   6.110   6.393   2.560
 3950SOL     OW12748   2.929   4.605   1.353
 3950SOL    HW112749   2.997   4.589   1.281
 3950SOL    HW212750   2.866   4.528   1.357
 3951SOL     OW12751   0.722   2.645   5.593
 3951SOL    HW112752   0.709   2.582   5.670
 3951SOL    HW212753   0.818   2.674   5.591
 3952SOL     OW12754   6.489   3.794   5.323
 3952SOL    HW112755   6.453   3.885   5.302
 3952SOL    HW212756   6.585   3.801   5.347
 3953SOL     OW12757   3.567   4.080   6.421
 3953SOL    HW112758   3.567   4.036   6.331
 3953SOL    HW212759   3.618   4.165   6.416
 3954SOL     OW12760   0.799   3.034   5.249
 3954SOL    HW112761   0.823   3.050   5.153
 3954SOL    HW212762   0.796   2.935   5.266
 3955SOL     OW12763   5.729   5.061   6.735
 3955SOL    HW112764   5.669   5.116   6.793
 3955SOL    HW212765   5.736   4.969   6.773
 3956SOL     OW12766   1.001   2.711   5.550
 3956SOL    HW112767   0.999   2.620   5.592
 3956SOL    HW212768   1.070   2.766   5.597
 3957SOL     OW12769   1.425   0.444   3.108
 3957SOL    HW112770   1.445   0.434   3.010
 3957SOL    HW212771   1.490   0.508   3.149
 3958SOL     OW12772   5.319   6.583   4.825
 3958SOL    HW112773   5.340   6.518   4.898
 3958SOL    HW212774   5.352   6.674   4.851
 3959SOL     OW12775   2.721   4.879   0.646
 3959SOL    HW112776   2.776   4.803   0.614
 3959SOL    HW212777   2.745   4.962   0.595
 3960SOL     OW12778   4.152   3.133   0.321
 3960SOL    HW112779   4.057   3.114   0.297
 3960SOL    HW212780   4.190   3.055   0.371
 3961SOL     OW12781   4.939   0.734   1.506
 3961SOL    HW112782   4.840   0.722   1.513
 3961SOL    HW212783   4.961   0.830   1.492
 3962SOL     OW12784   0.306   0.374   6.306
 3962SOL    HW112785   0.302   0.274   6.302
 3962SOL    HW212786   0.376   0.407   6.243
 3963SOL     OW12787   4.828   5.550   3.131
 3963SOL    HW112788   4.868   5.540   3.222
 3963SOL    HW212789   4.853   5.639   3.093
 3964SOL     OW12790   5.501   6.114   4.802
 3964SOL    HW112791   5.532   6.201   4.764
 3964SOL    HW212792   5.578   6.051   4.809
 3965SOL     OW12793   3.635   3.520   0.342
 3965SOL    HW112794   3.607   3.426   0.364
 3965SOL    HW212795   3.597   3.582   0.410
 3966SOL     OW12796   5.894   3.929   5.158
 3966SOL    HW112797   5.872   4.001   5.093
 3966SOL    HW212798   5.893   3.840   5.111
 3967SOL     OW12799   0.521   5.768   6.130
 3967SOL    HW112800   0.473   5.721   6.055
 3967SOL    HW212801   0.619   5.772   6.109
 3968SOL     OW12802   6.154   0.713   1.969
 3968SOL    HW112803   6.137   0.767   2.052
 3968SOL    HW212804   6.114   0.621   1.981
 3969SOL     OW12805   0.866   5.003   2.412
 3969SOL    HW112806   0.927   4.927   2.394
 3969SOL    HW212807   0.778   4.969   2.446
 3970SOL     OW12808   5.493   4.397   2.774
 3970SOL    HW112809   5.490   4.318   2.713
 3970SOL    HW212810   5.503   4.366   2.869
 3971SOL     OW12811   1.259   6.134   3.003
 3971SOL    HW112812   1.222   6.042   3.009
 3971SOL    HW212813   1.359   6.130   3.000
 3972SOL     OW12814   1.504   6.830   0.084
 3972SOL    HW112815   1.550   6.748   0.049
 3972SOL    HW212816   1.477   6.888   0.007
 3973SOL     OW12817   3.052   3.637   4.100
 3973SOL    HW112818   3.075   3.726   4.062
 3973SOL    HW212819   3.133   3.578   4.100
 3974SOL     OW12820   5.931   1.679   6.833
 3974SOL    HW112821   5.983   1.764   6.844
 3974SOL    HW212822   5.833   1.698   6.838
 3975SOL     OW12823   0.211   1.202   5.424
 3975SOL    HW112824   0.211   1.200   5.324
 3975SOL    HW212825   0.245   1.116   5.460
 3976SOL     OW12826   1.084   3.389   0.463
 3976SOL    HW112827   1.071   3.400   0.365
 3976SOL    HW212828   1.005   3.344   0.503
 3977SOL     OW12829   3.829   6.066   6.087
 3977SOL    HW112830   3.928   6.059   6.103
 3977SOL    HW212831   3.792   5.975   6.067
 3978SOL     OW12832   5.814   3.364   6.168
 3978SOL    HW112833   5.860   3.329   6.250
 3978SOL    HW212834   5.846   3.315   6.088
 3979SOL     OW12835   0.621   6.871   2.444
 3979SOL    HW112836   0.678   6.928   2.385
 3979SOL    HW212837   0.549   6.828   2.390
 3980SOL     OW12838   5.187   3.411   4.462
 3980SOL    HW112839   5.141   3.498   4.444
 3980SOL    HW212840   5.147   3.369   4.544
 3981SOL     OW12841   6.738   1.710   0.193
 3981SOL    HW112842   6.653   1.715   0.140
 3981SOL    HW212843   6.816   1.727   0.132
 3982SOL     OW12844   2.205   1.830   3.880
 3982SOL    HW112845   2.276   1.836   3.810
 3982SOL    HW212846   2.132   1.896   3.858
 3983SOL     OW12847   3.351   6.182   4.144
 3983SOL    HW112848   3.416   6.257   4.156
 3983SOL    HW212849   3.260   6.212   4.172
 3984SOL     OW12850   2.148   6.909   1.415
 3984SOL    HW112851   2.100   6.837   1.466
 3984SOL    HW212852   2.119   6.907   1.319
 3985SOL     OW12853   2.278   2.778   1.580
 3985SOL    HW112854   2.345   2.851   1.594
 3985SOL    HW212855   2.289   2.739   1.489
 3986SOL     OW12856   0.751   2.237   1.648
 3986SOL    HW112857   0.737   2.152   1.698
 3986SOL    HW212858   0.670   2.296   1.660
 3987SOL     OW12859   3.064   4.816   6.663
 3987SOL    HW112860   3.049   4.731   6.613
 3987SOL    HW212861   3.151   4.812   6.712
 3988SOL     OW12862   4.244   2.873   0.718
 3988SOL    HW112863   4.273   2.865   0.622
 3988SOL    HW212864   4.144   2.871   0.723
 3989SOL     OW12865   4.819   6.836   6.560
 3989SOL    HW112866   4.816   6.853   6.658
 3989SOL    HW212867   4.913   6.816   6.532
 3990SOL     OW12868   0.804   3.237   3.227
 3990SOL    HW112869   0.776   3.328   3.257
 3990SOL    HW212870   0.723   3.179   3.218
 3991SOL     OW12871   0.325   2.431   4.285
 3991SOL    HW112872   0.306   2.461   4.191
 3991SOL    HW212873   0.290   2.338   4.298
 3992SOL     OW12874   4.268   3.446   6.475
 3992SOL    HW112875   4.318   3.446   6.561
 3992SOL    HW212876   4.176   3.484   6.489
 3993SOL     OW12877   2.608   2.404   2.900
 3993SOL    HW112878   2.677   2.345   2.857
 3993SOL    HW212879   2.533   2.420   2.836
 3994SOL     OW12880   2.194   3.135   3.747
 3994SOL    HW112881   2.196   3.064   3.676
 3994SOL    HW212882   2.191   3.225   3.705
 3995SOL     OW12883   2.111   3.730   2.596
 3995SOL    HW112884   2.110   3.638   2.636
 3995SOL    HW212885   2.188   3.739   2.534
 3996SOL     OW12886   6.700   1.076   2.893
 3996SOL    HW112887   6.795   1.105   2.884
 3996SOL    HW212888   6.679   1.062   2.990
 3997SOL     OW12889   5.752   4.164   2.701
 3997SOL    HW112890   5.824   4.215   2.654
 3997SOL    HW212891   5.732   4.080   2.651
 3998SOL     OW12892   6.491   2.001   2.749
 3998SOL    HW112893   6.566   1.936   2.765
 3998SOL    HW212894   6.422   1.958   2.691
 3999SOL     OW12895   5.545   2.851   2.581
 3999SOL    HW112896   5.606   2.923   2.612
 3999SOL    HW212897   5.567   2.827   2.486
 4000SOL     OW12898   2.034   5.829   2.334
 4000SOL    HW112899   2.095   5.907   2.349
 4000SOL    HW212900   2.083   5.759   2.281
 4001SOL     OW12901   2.597   4.009   5.360
 4001SOL    HW112902   2.558   3.955   5.435
 4001SOL    HW212903   2.526   4.025   5.291
 4002SOL     OW12904   3.433   3.322   4.395
 4002SOL    HW112905   3.408   3.239   4.345
 4002SOL    HW212906   3.356   3.385   4.396
 4003SOL     OW12907   2.330   0.959   5.405
 4003SOL    HW112908   2.259   0.916   5.350
 4003SOL    HW212909   2.297   1.044   5.444
 4004SOL     OW12910   0.901   4.022   3.331
 4004SOL    HW112911   0.989   3.976   3.344
 4004SOL    HW212912   0.916   4.111   3.288
 4005SOL     OW12913   4.354   3.671   1.586
 4005SOL    HW112914   4.298   3.638   1.510
 4005SOL    HW212915   4.450   3.652   1.569
 4006SOL     OW12916   4.938   5.474   3.360
 4006SOL    HW112917   4.997   5.395   3.379
 4006SOL    HW212918   4.895   5.505   3.445
 4007SOL     OW12919   0.420   1.654   3.095
 4007SOL    HW112920   0.476   1.593   3.040
 4007SOL    HW212921   0.385   1.604   3.175
 4008SOL     OW12922   2.680   6.979   0.329
 4008SOL    HW112923   2.780   6.976   0.334
 4008SOL    HW212924   2.649   6.935   0.246
 4009SOL     OW12925   4.430   1.934   0.890
 4009SOL    HW112926   4.341   1.979   0.894
 4009SOL    HW212927   4.423   1.843   0.932
 4010SOL     OW12928   2.634   4.608   1.449
 4010SOL    HW112929   2.706   4.554   1.493
 4010SOL    HW212930   2.675   4.676   1.389
 4011SOL     OW12931   6.296   6.047   0.497
 4011SOL    HW112932   6.238   6.080   0.571
 4011SOL    HW212933   6.386   6.023   0.533
 4012SOL     OW12934   4.036   6.410   1.884
 4012SOL    HW112935   3.979   6.399   1.802
 4012SOL    HW212936   4.129   6.379   1.865
 4013SOL     OW12937   1.520   0.942   1.466
 4013SOL    HW112938   1.521   1.040   1.448
 4013SOL    HW212939   1.432   0.903   1.440
 4014SOL     OW12940   2.343   5.615   3.894
 4014SOL    HW112941   2.416   5.601   3.827
 4014SOL    HW212942   2.272   5.545   3.881
 4015SOL     OW12943   4.440   5.145   6.187
 4015SOL    HW112944   4.463   5.201   6.267
 4015SOL    HW212945   4.520   5.138   6.128
 4016SOL     OW12946   3.770   5.810   5.992
 4016SOL    HW112947   3.762   5.753   6.073
 4016SOL    HW212948   3.749   5.756   5.910
 4017SOL     OW12949   0.369   5.390   5.433
 4017SOL    HW112950   0.321   5.417   5.350
 4017SOL    HW212951   0.350   5.456   5.506
 4018SOL     OW12952   3.807   6.142   2.269
 4018SOL    HW112953   3.857   6.057   2.249
 4018SOL    HW212954   3.848   6.187   2.348
 4019SOL     OW12955   5.182   3.407   3.067
 4019SOL    HW112956   5.086   3.435   3.077
 4019SOL    HW212957   5.219   3.383   3.157
 4020SOL     OW12958   6.769   4.701   4.376
 4020SOL    HW112959   6.761   4.701   4.476
 4020SOL    HW212960   6.761   4.607   4.342
 4021SOL     OW12961   3.397   3.609   6.078
 4021SOL    HW112962   3.307   3.598   6.037
 4021SOL    HW212963   3.466   3.566   6.020
 4022SOL     OW12964   3.367   6.900   0.642
 4022SOL    HW112965   3.440   6.860   0.587
 4022SOL    HW212966   3.389   6.891   0.739
 4023SOL     OW12967   0.275   2.108   5.898
 4023SOL    HW112968   0.246   2.174   5.829
 4023SOL    HW212969   0.356   2.058   5.865
 4024SOL     OW12970   1.182   5.128   3.700
 4024SOL    HW112971   1.087   5.160   3.696
 4024SOL    HW212972   1.184   5.030   3.718
 4025SOL     OW12973   1.210   6.172   4.090
 4025SOL    HW112974   1.125   6.180   4.142
 4025SOL    HW212975   1.275   6.240   4.123
 4026SOL     OW12976   6.599   6.175   4.196
 4026SOL    HW112977   6.624   6.199   4.289
 4026SOL    HW212978   6.671   6.204   4.133
 4027SOL     OW12979   2.573   2.662   6.665
 4027SOL    HW112980   2.622   2.588   6.712
 4027SOL    HW212981   2.610   2.673   6.573
 4028SOL     OW12982   4.698   1.673   3.413
 4028SOL    HW112983   4.677   1.729   3.333
 4028SOL    HW212984   4.638   1.700   3.489
 4029SOL     OW12985   2.902   4.078   6.676
 4029SOL    HW112986   2.985   4.040   6.635
 4029SOL    HW212987   2.870   4.154   6.620
 4030SOL     OW12988   6.951   1.147   1.960
 4030SOL    HW112989   6.929   1.050   1.973
 4030SOL    HW212990   0.024   1.161   1.969
 4031SOL     OW12991   5.784   0.204   2.006
 4031SOL    HW112992   5.781   0.275   2.076
 4031SOL    HW212993   5.708   0.218   1.942
 4032SOL     OW12994   6.499   6.442   1.380
 4032SOL    HW112995   6.449   6.519   1.419
 4032SOL    HW212996   6.554   6.473   1.303
 4033SOL     OW12997   3.063   2.170   2.812
 4033SOL    HW112998   3.137   2.202   2.872
 4033SOL    HW212999   2.996   2.120   2.866
 4034SOL     OW13000   6.578   2.903   5.133
 4034SOL    HW113001   6.502   2.957   5.167
 4034SOL    HW213002   6.661   2.926   5.185
 4035SOL     OW13003   6.750   2.499   1.254
 4035SOL    HW113004   6.793   2.415   1.220
 4035SOL    HW213005   6.791   2.524   1.341
 4036SOL     OW13006   3.673   4.919   2.872
 4036SOL    HW113007   3.671   4.997   2.809
 4036SOL    HW213008   3.729   4.846   2.832
 4037SOL     OW13009   3.098   0.567   5.915
 4037SOL    HW113010   3.150   0.499   5.968
 4037SOL    HW213011   3.001   0.558   5.937
 4038SOL     OW13012   4.275   3.218   6.762
 4038SOL    HW113013   4.295   3.239   6.858
 4038SOL    HW213014   4.299   3.123   6.743
 4039SOL     OW13015   5.276   5.722   1.718
 4039SOL    HW113016   5.356   5.663   1.728
 4039SOL    HW213017   5.196   5.666   1.698
 4040SOL     OW13018   3.091   5.183   5.230
 4040SOL    HW113019   3.152   5.156   5.305
 4040SOL    HW213020   3.144   5.233   5.161
 4041SOL     OW13021   2.118   6.279   1.319
 4041SOL    HW113022   2.163   6.349   1.373
 4041SOL    HW213023   2.171   6.194   1.324
 4042SOL     OW13024   6.143   6.598   2.773
 4042SOL    HW113025   6.168   6.679   2.721
 4042SOL    HW213026   6.208   6.585   2.849
 4043SOL     OW13027   6.108   2.374   6.881
 4043SOL    HW113028   6.071   2.283   6.900
 4043SOL    HW213029   6.106   2.429   6.965
 4044SOL     OW13030   4.592   4.801   2.768
 4044SOL    HW113031   4.557   4.895   2.762
 4044SOL    HW213032   4.582   4.768   2.861
 4045SOL     OW13033   4.759   6.629   6.371
 4045SOL    HW113034   4.738   6.709   6.428
 4045SOL    HW213035   4.841   6.583   6.407
 4046SOL     OW13036   0.739   1.166   3.118
 4046SOL    HW113037   0.660   1.134   3.170
 4046SOL    HW213038   0.769   1.254   3.154
 4047SOL     OW13039   1.626   3.038   0.066
 4047SOL    HW113040   1.671   3.095   7.023
 4047SOL    HW213041   1.627   2.943   0.034
 4048SOL     OW13042   5.122   1.427   2.002
 4048SOL    HW113043   5.070   1.512   2.015
 4048SOL    HW213044   5.074   1.367   1.939
 4049SOL     OW13045   4.166   5.889   6.787
 4049SOL    HW113046   4.199   5.875   6.880
 4049SOL    HW213047   4.175   5.804   6.735
 4050SOL     OW13048   0.918   5.540   2.136
 4050SOL    HW113049   0.972   5.579   2.210
 4050SOL    HW213050   0.866   5.612   2.091
 4051SOL     OW13051   5.109   1.474   6.176
 4051SOL    HW113052   5.082   1.445   6.268
 4051SOL    HW213053   5.079   1.567   6.160
 4052SOL     OW13054   6.260   2.211   3.213
 4052SOL    HW113055   6.278   2.200   3.116
 4052SOL    HW213056   6.293   2.131   3.263
 4053SOL     OW13057   1.219   6.201   4.870
 4053SOL    HW113058   1.155   6.124   4.865
 4053SOL    HW213059   1.294   6.186   4.806
 4054SOL     OW13060   4.909   4.427   1.283
 4054SOL    HW113061   4.854   4.447   1.202
 4054SOL    HW213062   4.967   4.347   1.265
 4055SOL     OW13063   1.345   3.983   1.877
 4055SOL    HW113064   1.431   3.976   1.927
 4055SOL    HW213065   1.279   3.917   1.912
 4056SOL     OW13066   5.301   3.546   1.172
 4056SOL    HW113067   5.323   3.586   1.261
 4056SOL    HW213068   5.349   3.597   1.100
 4057SOL     OW13069   6.370   3.141   6.826
 4057SOL    HW113070   6.407   3.185   6.744
 4057SOL    HW213071   6.312   3.207   6.875
 4058SOL     OW13072   2.799   6.360   5.118
 4058SOL    HW113073   2.845   6.444   5.149
 4058SOL    HW213074   2.841   6.328   5.033
 4059SOL     OW13075   0.260   2.969   3.763
 4059SOL    HW113076   0.244   2.924   3.851
 4059SOL    HW213077   0.239   2.906   3.688
 4060SOL     OW13078   6.030   5.784   5.085
 4060SOL    HW113079   6.009   5.687   5.070
 4060SOL    HW213080   6.009   5.835   5.001
 4061SOL     OW13081   2.405   4.677   1.924
 4061SOL    HW113082   2.341   4.712   1.992
 4061SOL    HW213083   2.455   4.753   1.883
 4062SOL     OW13084   3.193   0.892   1.541
 4062SOL    HW113085   3.104   0.913   1.582
 4062SOL    HW213086   3.182   0.824   1.469
 4063SOL     OW13087   5.834   6.829   0.966
 4063SOL    HW113088   5.932   6.835   0.985
 4063SOL    HW213089   5.811   6.735   0.939
 4064SOL     OW13090   2.567   1.794   4.950
 4064SOL    HW113091   2.609   1.706   4.928
 4064SOL    HW213092   2.472   1.794   4.919
 4065SOL     OW13093   0.767   0.123   0.663
 4065SOL    HW113094   0.725   0.188   0.727
 4065SOL    HW213095   0.697   0.064   0.625
 4066SOL     OW13096   6.432   4.087   2.960
 4066SOL    HW113097   6.463   3.993   2.972
 4066SOL    HW213098   6.504   4.140   2.916
 4067SOL     OW13099   5.974   4.317   3.360
 4067SOL    HW113100   5.977   4.416   3.347
 4067SOL    HW213101   6.030   4.292   3.439
 4068SOL     OW13102   2.181   2.750   4.337
 4068SOL    HW113103   2.114   2.801   4.283
 4068SOL    HW213104   2.136   2.677   4.387
 4069SOL     OW13105   3.170   5.938   6.904
 4069SOL    HW113106   3.103   5.947   6.977
 4069SOL    HW213107   3.163   5.847   6.863
 4070SOL     OW13108   1.060   3.087   2.934
 4070SOL    HW113109   1.074   3.137   3.019
 4070SOL    HW213110   1.128   3.116   2.867
 4071SOL     OW13111   1.677   0.336   4.904
 4071SOL    HW113112   1.774   0.340   4.883
 4071SOL    HW213113   1.635   0.260   4.855
 4072SOL     OW13114   1.315   4.821   4.800
 4072SOL    HW113115   1.328   4.758   4.723
 4072SOL    HW213116   1.403   4.859   4.827
 4073SOL     OW13117   2.631   5.624   6.173
 4073SOL    HW113118   2.585   5.692   6.116
 4073SOL    HW213119   2.574   5.542   6.180
 4074SOL     OW13120   0.959   4.694   1.369
 4074SOL    HW113121   0.881   4.643   1.405
 4074SOL    HW213122   1.022   4.632   1.324
 4075SOL     OW13123   5.149   1.559   1.007
 4075SOL    HW113124   5.077   1.557   0.939
 4075SOL    HW213125   5.125   1.498   1.083
 4076SOL     OW13126   3.563   3.516   5.549
 4076SOL    HW113127   3.568   3.611   5.578
 4076SOL    HW213128   3.528   3.460   5.624
 4077SOL     OW13129   4.686   0.905   1.474
 4077SOL    HW113130   4.659   0.814   1.442
 4077SOL    HW213131   4.643   0.923   1.563
 4078SOL     OW13132   2.594   5.435   2.329
 4078SOL    HW113133   2.527   5.461   2.260
 4078SOL    HW213134   2.670   5.386   2.285
 4079SOL     OW13135   1.901   1.638   3.822
 4079SOL    HW113136   1.937   1.728   3.846
 4079SOL    HW213137   1.957   1.567   3.865
 4080SOL     OW13138   4.986   2.138   5.145
 4080SOL    HW113139   4.974   2.056   5.089
 4080SOL    HW213140   5.003   2.216   5.085
 4081SOL     OW13141   1.824   2.832   4.170
 4081SOL    HW113142   1.808   2.855   4.266
 4081SOL    HW213143   1.864   2.911   4.123
 4082SOL     OW13144   1.286   3.447   0.638
 4082SOL    HW113145   1.213   3.441   0.570
 4082SOL    HW213146   1.299   3.358   0.682
 4083SOL     OW13147   6.002   3.022   3.637
 4083SOL    HW113148   6.067   3.037   3.711
 4083SOL    HW213149   6.040   3.059   3.552
 4084SOL     OW13150   5.826   1.755   4.074
 4084SOL    HW113151   5.802   1.755   4.171
 4084SOL    HW213152   5.755   1.706   4.022
 4085SOL     OW13153   4.029   5.885   0.658
 4085SOL    HW113154   3.991   5.795   0.676
 4085SOL    HW213155   3.963   5.955   0.684
 4086SOL     OW13156   2.276   6.104   1.458
 4086SOL    HW113157   2.294   6.150   1.545
 4086SOL    HW213158   2.241   6.011   1.476
 4087SOL     OW13159   2.685   2.351   3.264
 4087SOL    HW113160   2.595   2.309   3.274
 4087SOL    HW213161   2.688   2.403   3.179
 4088SOL     OW13162   6.667   1.579   0.670
 4088SOL    HW113163   6.662   1.660   0.729
 4088SOL    HW213164   6.593   1.516   0.695
 4089SOL     OW13165   6.656   6.210   3.248
 4089SOL    HW113166   6.754   6.196   3.233
 4089SOL    HW213167   6.623   6.146   3.318
 4090SOL     OW13168   2.843   4.023   5.652
 4090SOL    HW113169   2.924   3.985   5.696
 4090SOL    HW213170   2.763   3.967   5.673
 4091SOL     OW13171   6.201   6.637   0.204
 4091SOL    HW113172   6.141   6.656   0.282
 4091SOL    HW213173   6.261   6.715   0.188
 4092SOL     OW13174   6.813   2.982   5.260
 4092SOL    HW113175   6.781   2.942   5.346
 4092SOL    HW213176   6.789   3.079   5.258
 4093SOL     OW13177   4.497   0.103   3.611
 4093SOL    HW113178   4.548   0.017   3.623
 4093SOL    HW213179   4.508   0.159   3.693
 4094SOL     OW13180   2.528   5.354   4.996
 4094SOL    HW113181   2.475   5.316   5.072
 4094SOL    HW213182   2.597   5.417   5.031
 4095SOL     OW13183   1.022   4.104   6.492
 4095SOL    HW113184   0.973   4.185   6.523
 4095SOL    HW213185   1.116   4.106   6.527
 4096SOL     OW13186   4.186   5.432   1.218
 4096SOL    HW113187   4.088   5.447   1.231
 4096SOL    HW213188   4.212   5.343   1.254
 4097SOL     OW13189   3.848   3.777   6.172
 4097SOL    HW113190   3.787   3.705   6.204
 4097SOL    HW213191   3.847   3.781   6.073
 4098SOL     OW13192   0.043   2.965   2.374
 4098SOL    HW113193   7.019   3.035   2.323
 4098SOL    HW213194   0.130   3.002   2.406
 4099SOL     OW13195   2.957   4.912   1.115
 4099SOL    HW113196   2.914   4.870   1.195
 4099SOL    HW213197   2.911   4.880   1.032
 4100SOL     OW13198   5.611   6.120   4.470
 4100SOL    HW113199   5.651   6.028   4.470
 4100SOL    HW213200   5.517   6.116   4.503
 4101SOL     OW13201   5.809   0.546   6.885
 4101SOL    HW113202   5.908   0.549   6.895
 4101SOL    HW213203   5.772   0.639   6.890
 4102SOL     OW13204   6.961   0.733   1.716
 4102SOL    HW113205   6.940   0.680   1.798
 4102SOL    HW213206   0.032   0.723   1.693
 4103SOL     OW13207   0.597   0.430   1.771
 4103SOL    HW113208   0.531   0.412   1.845
 4103SOL    HW213209   0.659   0.503   1.799
 4104SOL     OW13210   1.486   4.447   2.620
 4104SOL    HW113211   1.514   4.358   2.585
 4104SOL    HW213212   1.452   4.437   2.714
 4105SOL     OW13213   4.182   5.146   1.049
 4105SOL    HW113214   4.168   5.063   1.102
 4105SOL    HW213215   4.112   5.213   1.073
 4106SOL     OW13216   0.370   2.989   5.129
 4106SOL    HW113217   0.405   2.906   5.086
 4106SOL    HW213218   0.446   3.040   5.169
 4107SOL     OW13219   1.096   6.245   0.845
 4107SOL    HW113220   1.020   6.184   0.825
 4107SOL    HW213221   1.177   6.214   0.795
 4108SOL     OW13222   0.331   4.621   5.966
 4108SOL    HW113223   0.264   4.682   6.009
 4108SOL    HW213224   0.402   4.597   6.033
 4109SOL     OW13225   4.717   6.286   4.694
 4109SOL    HW113226   4.690   6.305   4.788
 4109SOL    HW213227   4.763   6.366   4.655
 4110SOL     OW13228   4.446   3.460   6.688
 4110SOL    HW113229   4.515   3.427   6.623
 4110SOL    HW213230   4.421   3.385   6.750
 4111SOL     OW13231   3.578   2.979   0.065
 4111SOL    HW113232   3.511   2.925   0.013
 4111SOL    HW213233   3.662   2.986   0.012
 4112SOL     OW13234   5.190   1.737   5.889
 4112SOL    HW113235   5.263   1.735   5.820
 4112SOL    HW213236   5.105   1.703   5.849
 4113SOL     OW13237   3.990   5.971   4.940
 4113SOL    HW113238   4.010   6.064   4.971
 4113SOL    HW213239   3.961   5.915   5.018
 4114SOL     OW13240   3.918   2.137   3.640
 4114SOL    HW113241   3.960   2.162   3.552
 4114SOL    HW213242   3.911   2.037   3.645
 4115SOL     OW13243   4.808   5.840   2.056
 4115SOL    HW113244   4.740   5.820   2.127
 4115SOL    HW213245   4.900   5.823   2.092
 4116SOL     OW13246   4.316   2.476   1.764
 4116SOL    HW113247   4.259   2.395   1.747
 4116SOL    HW213248   4.366   2.464   1.850
 4117SOL     OW13249   0.361   4.817   1.912
 4117SOL    HW113250   0.270   4.781   1.935
 4117SOL    HW213251   0.422   4.742   1.888
 4118SOL     OW13252   1.686   6.060   0.236
 4118SOL    HW113253   1.649   6.138   0.186
 4118SOL    HW213254   1.651   6.062   0.330
 4119SOL     OW13255   4.134   1.560   3.328
 4119SOL    HW113256   4.144   1.605   3.417
 4119SOL    HW213257   4.196   1.602   3.262
 4120SOL     OW13258   4.795   6.709   0.974
 4120SOL    HW113259   4.780   6.764   1.056
 4120SOL    HW213260   4.866   6.640   0.993
 4121SOL     OW13261   6.058   1.227   4.822
 4121SOL    HW113262   6.145   1.184   4.800
 4121SOL    HW213263   6.023   1.189   4.907
 4122SOL     OW13264   1.066   6.546   5.552
 4122SOL    HW113265   1.051   6.614   5.480
 4122SOL    HW213266   1.057   6.454   5.514
 4123SOL     OW13267   4.796   4.573   5.464
 4123SOL    HW113268   4.830   4.531   5.379
 4123SOL    HW213269   4.873   4.587   5.527
 4124SOL     OW13270   6.143   5.892   5.548
 4124SOL    HW113271   6.147   5.981   5.592
 4124SOL    HW213272   6.101   5.901   5.458
 4125SOL     OW13273   4.625   0.682   1.835
 4125SOL    HW113274   4.708   0.735   1.817
 4125SOL    HW213275   4.621   0.603   1.774
 4126SOL     OW13276   1.114   4.521   4.226
 4126SOL    HW113277   1.112   4.608   4.275
 4126SOL    HW213278   1.182   4.525   4.152
 4127SOL     OW13279   5.093   4.276   4.344
 4127SOL    HW113280   5.155   4.251   4.269
 4127SOL    HW213281   5.107   4.214   4.421
 4128SOL     OW13282   1.917   3.547   2.419
 4128SOL    HW113283   1.939   3.593   2.505
 4128SOL    HW213284   1.980   3.470   2.405
 4129SOL     OW13285   5.662   1.501   6.462
 4129SOL    HW113286   5.711   1.462   6.384
 4129SOL    HW213287   5.628   1.592   6.437
 4130SOL     OW13288   6.726   3.975   5.927
 4130SOL    HW113289   6.733   3.951   6.024
 4130SOL    HW213290   6.816   3.963   5.884
 4131SOL     OW13291   0.931   5.891   3.842
 4131SOL    HW113292   0.935   5.791   3.848
 4131SOL    HW213293   0.973   5.921   3.757
 4132SOL     OW13294   5.587   4.207   3.839
 4132SOL    HW113295   5.517   4.211   3.910
 4132SOL    HW213296   5.553   4.249   3.755
 4133SOL     OW13297   2.978   6.473   1.614
 4133SOL    HW113298   3.066   6.451   1.571
 4133SOL    HW213299   2.953   6.401   1.678
 4134SOL     OW13300   1.593   2.566   0.625
 4134SOL    HW113301   1.668   2.506   0.651
 4134SOL    HW213302   1.629   2.647   0.579
 4135SOL     OW13303   2.167   0.725   2.485
 4135SOL    HW113304   2.204   0.803   2.435
 4135SOL    HW213305   2.223   0.709   2.567
 4136SOL     OW13306   0.420   2.000   3.994
 4136SOL    HW113307   0.374   1.944   3.925
 4136SOL    HW213308   0.455   2.084   3.952
 4137SOL     OW13309   2.379   3.703   1.221
 4137SOL    HW113310   2.359   3.770   1.150
 4137SOL    HW213311   2.452   3.642   1.190
 4138SOL     OW13312   3.897   5.364   3.777
 4138SOL    HW113313   3.905   5.391   3.873
 4138SOL    HW213314   3.854   5.438   3.726
 4139SOL     OW13315   2.259   1.893   6.065
 4139SOL    HW113316   2.332   1.951   6.100
 4139SOL    HW213317   2.274   1.799   6.096
 4140SOL     OW13318   3.628   0.324   5.189
 4140SOL    HW113319   3.556   0.274   5.237
 4140SOL    HW213320   3.704   0.341   5.252
 4141SOL     OW13321   4.943   5.499   0.974
 4141SOL    HW113322   4.861   5.545   1.007
 4141SOL    HW213323   4.964   5.531   0.881
 4142SOL     OW13324   6.415   5.777   0.776
 4142SOL    HW113325   6.492   5.756   0.835
 4142SOL    HW213326   6.341   5.818   0.829
 4143SOL     OW13327   6.831   3.729   0.839
 4143SOL    HW113328   6.788   3.716   0.749
 4143SOL    HW213329   6.779   3.796   0.892
 4144SOL     OW13330   5.927   2.378   0.965
 4144SOL    HW113331   5.920   2.286   0.927
 4144SOL    HW213332   5.839   2.405   1.002
 4145SOL     OW13333   0.000   5.907   1.661
 4145SOL    HW113334   6.943   5.916   1.605
 4145SOL    HW213335   0.064   5.844   1.618
 4146SOL     OW13336   5.969   0.450   5.047
 4146SOL    HW113337   5.906   0.396   5.102
 4146SOL    HW213338   5.922   0.484   4.965
 4147SOL     OW13339   3.603   1.782   5.315
 4147SOL    HW113340   3.665   1.736   5.252
 4147SOL    HW213341   3.534   1.718   5.347
 4148SOL     OW13342   0.703   0.288   3.834
 4148SOL    HW113343   0.739   0.358   3.773
 4148SOL    HW213344   0.747   0.200   3.814
 4149SOL     OW13345   0.686   3.787   0.481
 4149SOL    HW113346   0.779   3.765   0.451
 4149SOL    HW213347   0.641   3.843   0.412
 4150SOL     OW13348   5.832   0.796   5.899
 4150SOL    HW113349   5.862   0.889   5.921
 4150SOL    HW213350   5.822   0.744   5.984
 4151SOL     OW13351   5.079   6.374   6.688
 4151SOL    HW113352   5.002   6.356   6.748
 4151SOL    HW213353   5.115   6.288   6.653
 4152SOL     OW13354   2.940   5.291   1.585
 4152SOL    HW113355   2.973   5.360   1.519
 4152SOL    HW213356   3.006   5.283   1.660
 4153SOL     OW13357   5.164   5.444   6.193
 4153SOL    HW113358   5.176   5.345   6.200
 4153SOL    HW213359   5.107   5.466   6.114
 4154SOL     OW13360   6.740   3.932   5.398
 4154SOL    HW113361   6.759   3.959   5.493
 4154SOL    HW213362   6.709   4.012   5.347
 4155SOL     OW13363   0.094   3.273   3.661
 4155SOL    HW113364   0.041   3.234   3.586
 4155SOL    HW213365   0.183   3.227   3.666
 4156SOL     OW13366   5.623   6.870   5.051
 4156SOL    HW113367   5.568   6.889   4.969
 4156SOL    HW213368   5.610   6.945   5.117
 4157SOL     OW13369   3.759   0.113   3.641
 4157SOL    HW113370   3.729   0.208   3.640
 4157SOL    HW213371   3.686   0.054   3.606
 4158SOL     OW13372   1.209   5.295   4.021
 4158SOL    HW113373   1.113   5.296   3.992
 4158SOL    HW213374   1.216   5.336   4.112
 4159SOL     OW13375   1.677   3.232   4.015
 4159SOL    HW113376   1.672   3.332   4.017
 4159SOL    HW213377   1.585   3.194   4.019
 4160SOL     OW13378   6.361   0.403   0.675
 4160SOL    HW113379   6.431   0.333   0.663
 4160SOL    HW213380   6.377   0.478   0.611
 4161SOL     OW13381   1.824   6.512   6.447
 4161SOL    HW113382   1.910   6.540   6.489
 4161SOL    HW213383   1.763   6.591   6.439
 4162SOL     OW13384   6.460   0.123   4.818
 4162SOL    HW113385   6.433   0.078   4.903
 4162SOL    HW213386   6.438   0.220   4.822
 4163SOL     OW13387   5.965   1.626   3.481
 4163SOL    HW113388   5.880   1.638   3.430
 4163SOL    HW213389   5.978   1.702   3.545
 4164SOL     OW13390   1.703   0.092   6.580
 4164SOL    HW113391   1.664   0.066   6.669
 4164SOL    HW213392   1.629   0.110   6.515
 4165SOL     OW13393   4.721   7.020   0.968
 4165SOL    HW113394   4.815   7.012   0.934
 4165SOL    HW213395   4.686   6.930   0.993
 4166SOL     OW13396   5.268   2.345   1.002
 4166SOL    HW113397   5.220   2.430   0.981
 4166SOL    HW213398   5.246   2.276   0.933
 4167SOL     OW13399   2.791   3.166   1.097
 4167SOL    HW113400   2.859   3.096   1.077
 4167SOL    HW213401   2.699   3.126   1.094
 4168SOL     OW13402   0.168   5.126   0.991
 4168SOL    HW113403   0.112   5.204   1.020
 4168SOL    HW213404   0.217   5.089   1.070
 4169SOL     OW13405   5.327   3.841   4.462
 4169SOL    HW113406   5.253   3.777   4.439
 4169SOL    HW213407   5.288   3.930   4.484
 4170SOL     OW13408   3.639   2.961   4.740
 4170SOL    HW113409   3.616   3.039   4.682
 4170SOL    HW213410   3.555   2.920   4.775
 4171SOL     OW13411   5.383   4.595   1.264
 4171SOL    HW113412   5.422   4.522   1.320
 4171SOL    HW213413   5.396   4.683   1.309
 4172SOL     OW13414   6.895   2.279   6.422
 4172SOL    HW113415   6.993   2.297   6.431
 4172SOL    HW213416   6.866   2.294   6.328
 4173SOL     OW13417   5.715   3.358   5.207
 4173SOL    HW113418   5.707   3.445   5.255
 4173SOL    HW213419   5.645   3.353   5.136
 4174SOL     OW13420   5.180   0.724   3.780
 4174SOL    HW113421   5.239   0.644   3.787
 4174SOL    HW213422   5.236   0.807   3.780
 4175SOL     OW13423   3.029   6.674   4.646
 4175SOL    HW113424   3.045   6.602   4.713
 4175SOL    HW213425   3.035   6.763   4.690
 4176SOL     OW13426   3.567   0.221   2.247
 4176SOL    HW113427   3.625   0.252   2.323
 4176SOL    HW213428   3.472   0.219   2.276
 4177SOL     OW13429   0.543   5.055   5.135
 4177SOL    HW113430   0.505   5.052   5.043
 4177SOL    HW213431   0.539   4.963   5.176
 4178SOL     OW13432   3.950   1.125   5.089
 4178SOL    HW113433   3.882   1.182   5.136
 4178SOL    HW213434   3.988   1.059   5.153
 4179SOL     OW13435   5.517   3.539   4.031
 4179SOL    HW113436   5.457   3.542   4.111
 4179SOL    HW213437   5.505   3.623   3.977
 4180SOL     OW13438   5.530   4.613   2.021
 4180SOL    HW113439   5.507   4.522   2.056
 4180SOL    HW213440   5.465   4.639   1.949
 4181SOL     OW13441   1.770   1.772   6.103
 4181SOL    HW113442   1.857   1.726   6.088
 4181SOL    HW213443   1.782   1.848   6.167
 4182SOL     OW13444   0.041   0.616   2.801
 4182SOL    HW113445   0.040   0.526   2.846
 4182SOL    HW213446   7.006   0.679   2.851
 4183SOL     OW13447   2.935   1.272   1.882
 4183SOL    HW113448   3.011   1.330   1.854
 4183SOL    HW213449   2.853   1.295   1.829
 4184SOL     OW13450   4.023   4.611   1.304
 4184SOL    HW113451   4.117   4.586   1.325
 4184SOL    HW213452   3.961   4.543   1.343
 4185SOL     OW13453   0.855   5.588   3.384
 4185SOL    HW113454   0.802   5.567   3.302
 4185SOL    HW213455   0.865   5.505   3.439
 4186SOL     OW13456   2.205   4.339   0.120
 4186SOL    HW113457   2.267   4.409   0.085
 4186SOL    HW213458   2.256   4.276   0.179
 4187SOL     OW13459   3.829   3.401   5.600
 4187SOL    HW113460   3.759   3.472   5.590
 4187SOL    HW213461   3.827   3.364   5.693
 4188SOL     OW13462   4.540   0.615   4.306
 4188SOL    HW113463   4.618   0.677   4.300
 4188SOL    HW213464   4.455   0.667   4.296
 4189SOL     OW13465   3.050   1.913   4.395
 4189SOL    HW113466   3.033   2.010   4.377
 4189SOL    HW213467   2.992   1.858   4.335
 4190SOL     OW13468   2.743   0.165   6.183
 4190SOL    HW113469   2.665   0.170   6.245
 4190SOL    HW213470   2.818   0.220   6.220
 4191SOL     OW13471   5.360   3.367   2.869
 4191SOL    HW113472   5.291   3.391   2.937
 4191SOL    HW213473   5.417   3.292   2.904
 4192SOL     OW13474   6.696   2.001   3.277
 4192SOL    HW113475   6.621   1.935   3.286
 4192SOL    HW213476   6.719   2.013   3.181
 4193SOL     OW13477   2.329   6.221   1.713
 4193SOL    HW113478   2.291   6.222   1.805
 4193SOL    HW213479   2.357   6.314   1.688
 4194SOL     OW13480   6.771   2.001   4.698
 4194SOL    HW113481   6.778   2.060   4.779
 4194SOL    HW213482   6.695   1.937   4.710
 4195SOL     OW13483   4.034   0.653   0.980
 4195SOL    HW113484   4.084   0.590   1.039
 4195SOL    HW213485   3.945   0.675   1.021
 4196SOL     OW13486   5.681   2.846   4.104
 4196SOL    HW113487   5.755   2.779   4.093
 4196SOL    HW213488   5.608   2.806   4.160
 4197SOL     OW13489   5.257   4.555   3.862
 4197SOL    HW113490   5.292   4.634   3.913
 4197SOL    HW213491   5.159   4.545   3.878
 4198SOL     OW13492   6.431   3.845   6.760
 4198SOL    HW113493   6.414   3.865   6.857
 4198SOL    HW213494   6.496   3.769   6.753
 4199SOL     OW13495   2.809   3.027   5.595
 4199SOL    HW113496   2.793   2.977   5.510
 4199SOL    HW213497   2.906   3.025   5.617
 4200SOL     OW13498   2.766   6.590   6.312
 4200SOL    HW113499   2.738   6.556   6.223
 4200SOL    HW213500   2.717   6.674   6.333
 4201SOL     OW13501   6.384   6.560   3.274
 4201SOL    HW113502   6.307   6.619   3.299
 4201SOL    HW213503   6.436   6.537   3.356
 4202SOL     OW13504   5.101   4.444   5.948
 4202SOL    HW113505   5.078   4.401   5.861
 4202SOL    HW213506   5.076   4.383   6.024
 4203SOL     OW13507   4.344   6.089   3.206
 4203SOL    HW113508   4.410   6.014   3.197
 4203SOL    HW213509   4.254   6.058   3.176
 4204SOL     OW13510   3.274   2.918   2.127
 4204SOL    HW113511   3.366   2.881   2.135
 4204SOL    HW213512   3.246   2.957   2.215
 4205SOL     OW13513   3.649   4.876   3.996
 4205SOL    HW113514   3.729   4.871   3.937
 4205SOL    HW213515   3.676   4.864   4.091
 4206SOL     OW13516   4.950   0.890   6.259
 4206SOL    HW113517   4.862   0.893   6.210
 4206SOL    HW213518   4.982   0.796   6.264
 4207SOL     OW13519   1.874   1.189   1.787
 4207SOL    HW113520   1.972   1.211   1.786
 4207SOL    HW213521   1.840   1.187   1.693
 4208SOL     OW13522   1.381   2.259   1.137
 4208SOL    HW113523   1.290   2.300   1.134
 4208SOL    HW213524   1.424   2.267   1.047
 4209SOL     OW13525   1.737   0.939   5.256
 4209SOL    HW113526   1.758   0.878   5.333
 4209SOL    HW213527   1.759   1.033   5.281
 4210SOL     OW13528   3.553   3.430   1.699
 4210SOL    HW113529   3.566   3.332   1.715
 4210SOL    HW213530   3.459   3.455   1.719
 4211SOL     OW13531   4.716   5.101   5.020
 4211SOL    HW113532   4.774   5.019   5.013
 4211SOL    HW213533   4.634   5.079   5.072
 4212SOL     OW13534   6.973   1.472   2.431
 4212SOL    HW113535   6.944   1.395   2.488
 4212SOL    HW213536   6.897   1.500   2.372
 4213SOL     OW13537   2.415   0.862   2.643
 4213SOL    HW113538   2.361   0.789   2.685
 4213SOL    HW213539   2.460   0.827   2.561
 4214SOL     OW13540   0.293   3.788   6.364
 4214SOL    HW113541   0.357   3.859   6.393
 4214SOL    HW213542   0.226   3.773   6.436
 4215SOL     OW13543   0.474   6.033   4.260
 4215SOL    HW113544   0.552   6.001   4.205
 4215SOL    HW213545   0.406   5.960   4.267
 4216SOL     OW13546   1.552   2.183   4.205
 4216SOL    HW113547   1.532   2.280   4.189
 4216SOL    HW213548   1.512   2.129   4.131
 4217SOL     OW13549   0.060   6.807   2.769
 4217SOL    HW113550   0.095   6.730   2.716
 4217SOL    HW213551   6.988   6.792   2.789
 4218SOL     OW13552   4.973   7.020   2.145
 4218SOL    HW113553   5.001   6.927   2.171
 4218SOL    HW213554   4.957   7.023   2.046
 4219SOL     OW13555   3.109   4.750   5.548
 4219SOL    HW113556   3.200   4.730   5.510
 4219SOL    HW213557   3.041   4.696   5.499
 4220SOL     OW13558   6.640   3.512   3.147
 4220SOL    HW113559   6.705   3.517   3.071
 4220SOL    HW213560   6.556   3.560   3.122
 4221SOL     OW13561   5.378   5.951   6.656
 4221SOL    HW113562   5.294   6.004   6.671
 4221SOL    HW213563   5.394   5.941   6.558
 4222SOL     OW13564   6.133   1.494   1.998
 4222SOL    HW113565   6.185   1.416   2.033
 4222SOL    HW213566   6.039   1.490   2.032
 4223SOL     OW13567   3.456   3.382   2.959
 4223SOL    HW113568   3.443   3.291   2.919
 4223SOL    HW213569   3.425   3.381   3.055
 4224SOL     OW13570   4.887   3.226   4.411
 4224SOL    HW113571   4.910   3.168   4.489
 4224SOL    HW213572   4.818   3.180   4.355
 4225SOL     OW13573   5.302   0.885   4.892
 4225SOL    HW113574   5.292   0.889   4.991
 4225SOL    HW213575   5.398   0.895   4.868
 4226SOL     OW13576   1.714   1.386   3.796
 4226SOL    HW113577   1.779   1.355   3.865
 4226SOL    HW213578   1.720   1.486   3.787
 4227SOL     OW13579   3.930   4.648   6.690
 4227SOL    HW113580   3.990   4.711   6.738
 4227SOL    HW213581   3.962   4.636   6.596
 4228SOL     OW13582   5.879   6.506   3.856
 4228SOL    HW113583   5.813   6.501   3.931
 4228SOL    HW213584   5.936   6.424   3.856
 4229SOL     OW13585   3.812   4.614   5.966
 4229SOL    HW113586   3.835   4.567   6.052
 4229SOL    HW213587   3.713   4.606   5.949
 4230SOL     OW13588   2.579   0.202   5.147
 4230SOL    HW113589   2.619   0.134   5.209
 4230SOL    HW213590   2.651   0.257   5.105
 4231SOL     OW13591   4.847   6.328   5.141
 4231SOL    HW113592   4.827   6.293   5.233
 4231SOL    HW213593   4.942   6.360   5.137
 4232SOL     OW13594   1.307   5.669   1.843
 4232SOL    HW113595   1.291   5.579   1.883
 4232SOL    HW213596   1.253   5.679   1.760
 4233SOL     OW13597   6.624   0.919   6.873
 4233SOL    HW113598   6.697   0.880   6.817
 4233SOL    HW213599   6.551   0.851   6.885
 4234SOL     OW13600   2.134   5.118   6.019
 4234SOL    HW113601   2.055   5.127   6.080
 4234SOL    HW213602   2.119   5.174   5.938
 4235SOL     OW13603   6.316   4.494   5.612
 4235SOL    HW113604   6.326   4.409   5.664
 4235SOL    HW213605   6.404   4.542   5.610
 4236SOL     OW13606   0.275   2.497   4.003
 4236SOL    HW113607   0.330   2.525   3.924
 4236SOL    HW213608   0.184   2.537   3.996
 4237SOL     OW13609   6.039   4.021   4.503
 4237SOL    HW113610   5.943   4.013   4.529
 4237SOL    HW213611   6.046   4.053   4.408
 4238SOL     OW13612   4.306   4.935   3.545
 4238SOL    HW113613   4.247   4.990   3.604
 4238SOL    HW213614   4.323   4.984   3.459
 4239SOL     OW13615   4.497   0.051   4.593
 4239SOL    HW113616   4.477   0.146   4.565
 4239SOL    HW213617   4.587   0.047   4.634
 4240SOL     OW13618   2.877   5.610   6.876
 4240SOL    HW113619   2.910   5.544   6.944
 4240SOL    HW213620   2.826   5.561   6.805
 4241SOL     OW13621   5.149   0.165   1.404
 4241SOL    HW113622   5.203   0.169   1.320
 4241SOL    HW213623   5.129   0.258   1.435
 4242SOL     OW13624   2.202   6.430   2.844
 4242SOL    HW113625   2.243   6.516   2.814
 4242SOL    HW213626   2.267   6.381   2.902
 4243SOL     OW13627   0.469   3.695   2.415
 4243SOL    HW113628   0.478   3.642   2.331
 4243SOL    HW213629   0.536   3.662   2.482
 4244SOL     OW13630   5.150   6.368   0.867
 4244SOL    HW113631   5.211   6.337   0.795
 4244SOL    HW213632   5.189   6.347   0.956
 4245SOL     OW13633   6.350   3.164   0.150
 4245SOL    HW113634   6.334   3.231   0.223
 4245SOL    HW213635   6.262   3.128   0.118
 4246SOL     OW13636   5.300   2.759   3.258
 4246SOL    HW113637   5.329   2.667   3.286
 4246SOL    HW213638   5.269   2.810   3.337
 4247SOL     OW13639   2.293   5.347   4.858
 4247SOL    HW113640   2.225   5.332   4.931
 4247SOL    HW213641   2.384   5.355   4.899
 4248SOL     OW13642   1.600   0.708   3.001
 4248SOL    HW113643   1.609   0.764   3.083
 4248SOL    HW213644   1.605   0.611   3.026
 4249SOL     OW13645   0.023   1.747   4.314
 4249SOL    HW113646   0.083   1.820   4.280
 4249SOL    HW213647   6.999   1.780   4.394
 4250SOL     OW13648   0.626   5.633   4.090
 4250SOL    HW113649   0.683   5.572   4.145
 4250SOL    HW213650   0.619   5.597   3.997
 4251SOL     OW13651   5.626   2.956   6.920
 4251SOL    HW113652   5.688   2.935   6.996
 4251SOL    HW213653   5.594   2.871   6.879
 4252SOL     OW13654   5.952   6.209   5.317
 4252SOL    HW113655   5.860   6.236   5.290
 4252SOL    HW213656   5.976   6.251   5.404
 4253SOL     OW13657   3.575   5.923   2.296
 4253SOL    HW113658   3.518   5.865   2.237
 4253SOL    HW213659   3.620   5.992   2.240
 4254SOL     OW13660   2.037   3.450   0.318
 4254SOL    HW113661   2.010   3.451   0.414
 4254SOL    HW213662   2.131   3.485   0.310
 4255SOL     OW13663   0.888   4.528   3.333
 4255SOL    HW113664   0.915   4.527   3.429
 4255SOL    HW213665   0.798   4.569   3.323
 4256SOL     OW13666   0.389   4.557   1.751
 4256SOL    HW113667   0.462   4.497   1.785
 4256SOL    HW213668   0.301   4.525   1.784
 4257SOL     OW13669   6.137   1.866   5.191
 4257SOL    HW113670   6.079   1.945   5.173
 4257SOL    HW213671   6.173   1.829   5.105
 4258SOL     OW13672   3.110   5.626   0.755
 4258SOL    HW113673   3.115   5.531   0.726
 4258SOL    HW213674   3.196   5.672   0.732
 4259SOL     OW13675   1.664   6.829   1.125
 4259SOL    HW113676   1.620   6.746   1.091
 4259SOL    HW213677   1.763   6.816   1.128
 4260SOL     OW13678   4.598   6.928   4.389
 4260SOL    HW113679   4.558   6.981   4.463
 4260SOL    HW213680   4.638   6.990   4.321
 4261SOL     OW13681   2.359   0.125   4.823
 4261SOL    HW113682   2.280   0.062   4.824
 4261SOL    HW213683   2.405   0.118   4.734
 4262SOL     OW13684   1.172   4.817   6.294
 4262SOL    HW113685   1.157   4.813   6.195
 4262SOL    HW213686   1.129   4.738   6.337
 4263SOL     OW13687   2.844   2.134   3.219
 4263SOL    HW113688   2.800   2.065   3.276
 4263SOL    HW213689   2.801   2.223   3.234
 4264SOL     OW13690   5.295   1.314   4.503
 4264SOL    HW113691   5.390   1.327   4.475
 4264SOL    HW213692   5.267   1.390   4.562
 4265SOL     OW13693   2.945   0.076   1.180
 4265SOL    HW113694   3.040   0.087   1.208
 4265SOL    HW213695   2.933   7.014   1.132
 4266SOL     OW13696   1.216   6.728   0.435
 4266SOL    HW113697   1.268   6.785   0.499
 4266SOL    HW213698   1.172   6.786   0.367
 4267SOL     OW13699   2.234   4.052   3.719
 4267SOL    HW113700   2.306   4.106   3.675
 4267SOL    HW213701   2.169   4.114   3.763
 4268SOL     OW13702   0.970   4.833   6.732
 4268SOL    HW113703   1.010   4.918   6.699
 4268SOL    HW213704   0.986   4.825   6.830
 4269SOL     OW13705   3.291   1.872   4.320
 4269SOL    HW113706   3.327   1.965   4.307
 4269SOL    HW213707   3.199   1.877   4.360
 4270SOL     OW13708   3.475   3.062   1.354
 4270SOL    HW113709   3.484   2.995   1.281
 4270SOL    HW213710   3.456   3.152   1.315
 4271SOL     OW13711   6.319   0.460   0.958
 4271SOL    HW113712   6.220   0.464   0.967
 4271SOL    HW213713   6.343   0.453   0.861
 4272SOL     OW13714   0.005   3.022   5.541
 4272SOL    HW113715   0.033   3.093   5.605
 4272SOL    HW213716   0.071   3.017   5.466
 4273SOL     OW13717   4.384   6.287   4.671
 4273SOL    HW113718   4.381   6.309   4.574
 4273SOL    HW213719   4.479   6.294   4.704
 4274SOL     OW13720   6.677   6.469   1.840
 4274SOL    HW113721   6.666   6.422   1.928
 4274SOL    HW213722   6.658   6.405   1.766
 4275SOL     OW13723   0.853   2.497   3.753
 4275SOL    HW113724   0.881   2.400   3.753
 4275SOL    HW213725   0.802   2.517   3.836
 4276SOL     OW13726   2.848   5.319   4.158
 4276SOL    HW113727   2.868   5.391   4.223
 4276SOL    HW213728   2.765   5.341   4.107
 4277SOL     OW13729   6.519   5.172   3.965
 4277SOL    HW113730   6.587   5.099   3.965
 4277SOL    HW213731   6.546   5.243   4.030
 4278SOL     OW13732   0.068   6.397   2.863
 4278SOL    HW113733   0.072   6.427   2.767
 4278SOL    HW213734   7.010   6.344   2.877
 4279SOL     OW13735   1.353   1.601   2.499
 4279SOL    HW113736   1.283   1.660   2.539
 4279SOL    HW213737   1.392   1.646   2.418
 4280SOL     OW13738   6.515   6.740   6.484
 4280SOL    HW113739   6.562   6.692   6.410
 4280SOL    HW213740   6.495   6.834   6.455
 4281SOL     OW13741   4.389   5.564   3.850
 4281SOL    HW113742   4.296   5.542   3.877
 4281SOL    HW213743   4.400   5.664   3.849
 4282SOL     OW13744   2.848   4.160   1.223
 4282SOL    HW113745   2.838   4.072   1.271
 4282SOL    HW213746   2.939   4.164   1.181
 4283SOL     OW13747   5.033   0.689   3.280
 4283SOL    HW113748   5.054   0.740   3.363
 4283SOL    HW213749   5.008   0.754   3.207
 4284SOL     OW13750   4.580   5.360   0.390
 4284SOL    HW113751   4.606   5.392   0.481
 4284SOL    HW213752   4.620   5.419   0.321
 4285SOL     OW13753   3.284   0.379   6.152
 4285SOL    HW113754   3.317   0.314   6.221
 4285SOL    HW213755   3.361   0.408   6.095
 4286SOL     OW13756   6.601   1.328   0.049
 4286SOL    HW113757   6.589   1.360   6.980
 4286SOL    HW213758   6.569   1.399   0.113
 4287SOL     OW13759   4.263   0.830   0.129
 4287SOL    HW113760   4.327   0.904   0.109
 4287SOL    HW213761   4.269   0.806   0.226
 4288SOL     OW13762   6.254   6.139   1.617
 4288SOL    HW113763   6.169   6.096   1.646
 4288SOL    HW213764   6.332   6.089   1.655
 4289SOL     OW13765   0.532   2.713   5.344
 4289SOL    HW113766   0.628   2.731   5.365
 4289SOL    HW213767   0.512   2.617   5.363
 4290SOL     OW13768   0.319   0.528   2.815
 4290SOL    HW113769   0.393   0.589   2.844
 4290SOL    HW213770   0.231   0.570   2.835
 4291SOL     OW13771   4.878   3.053   5.526
 4291SOL    HW113772   4.794   3.075   5.575
 4291SOL    HW213773   4.883   2.954   5.510
 4292SOL     OW13774   5.021   1.899   0.413
 4292SOL    HW113775   5.071   1.983   0.393
 4292SOL    HW213776   4.980   1.905   0.504
 4293SOL     OW13777   5.186   3.861   6.915
 4293SOL    HW113778   5.205   3.863   6.817
 4293SOL    HW213779   5.258   3.911   6.964
 4294SOL     OW13780   3.187   2.197   6.245
 4294SOL    HW113781   3.265   2.168   6.190
 4294SOL    HW213782   3.163   2.291   6.223
 4295SOL     OW13783   4.648   6.472   2.013
 4295SOL    HW113784   4.590   6.514   1.943
 4295SOL    HW213785   4.606   6.484   2.103
 4296SOL     OW13786   2.986   6.479   1.015
 4296SOL    HW113787   3.022   6.458   0.925
 4296SOL    HW213788   2.911   6.545   1.007
 4297SOL     OW13789   6.390   5.326   0.954
 4297SOL    HW113790   6.389   5.302   1.051
 4297SOL    HW213791   6.472   5.380   0.934
 4298SOL     OW13792   3.340   6.140   1.305
 4298SOL    HW113793   3.253   6.144   1.256
 4298SOL    HW213794   3.409   6.099   1.245
 4299SOL     OW13795   0.412   2.647   0.118
 4299SOL    HW113796   0.405   2.731   0.171
 4299SOL    HW213797   0.424   2.669   0.021
 4300SOL     OW13798   3.484   0.575   0.988
 4300SOL    HW113799   3.414   0.556   0.918
 4300SOL    HW213800   3.557   0.508   0.981
 4301SOL     OW13801   3.162   6.112   1.852
 4301SOL    HW113802   3.234   6.178   1.873
 4301SOL    HW213803   3.107   6.096   1.934
 4302SOL     OW13804   1.293   6.674   6.542
 4302SOL    HW113805   1.231   6.734   6.492
 4302SOL    HW213806   1.347   6.621   6.477
 4303SOL     OW13807   6.634   4.558   4.054
 4303SOL    HW113808   6.612   4.589   4.146
 4303SOL    HW213809   6.679   4.631   4.004
 4304SOL     OW13810   3.319   3.493   1.420
 4304SOL    HW113811   3.400   3.465   1.369
 4304SOL    HW213812   3.247   3.522   1.356
 4305SOL     OW13813   6.878   0.213   5.780
 4305SOL    HW113814   6.932   0.223   5.864
 4305SOL    HW213815   6.803   0.279   5.780
 4306SOL     OW13816   4.906   3.884   4.484
 4306SOL    HW113817   4.924   3.804   4.540
 4306SOL    HW213818   4.935   3.966   4.533
 4307SOL     OW13819   6.552   2.932   5.429
 4307SOL    HW113820   6.524   2.905   5.521
 4307SOL    HW213821   6.473   2.966   5.379
 4308SOL     OW13822   5.613   5.138   1.710
 4308SOL    HW113823   5.665   5.096   1.784
 4308SOL    HW213824   5.616   5.238   1.720
 4309SOL     OW13825   0.775   3.336   0.122
 4309SOL    HW113826   0.854   3.380   0.164
 4309SOL    HW213827   0.756   3.250   0.169
 4310SOL     OW13828   0.364   1.882   2.331
 4310SOL    HW113829   0.326   1.960   2.379
 4310SOL    HW213830   0.291   1.827   2.291
 4311SOL     OW13831   0.654   6.330   2.038
 4311SOL    HW113832   0.684   6.396   2.107
 4311SOL    HW213833   0.605   6.255   2.083
 4312SOL     OW13834   0.853   4.887   2.134
 4312SOL    HW113835   0.793   4.967   2.132
 4312SOL    HW213836   0.801   4.806   2.162
 4313SOL     OW13837   5.640   1.538   0.550
 4313SOL    HW113838   5.718   1.488   0.587
 4313SOL    HW213839   5.669   1.596   0.475
 4314SOL     OW13840   6.423   2.888   5.647
 4314SOL    HW113841   6.335   2.849   5.673
 4314SOL    HW213842   6.467   2.927   5.728
 4315SOL     OW13843   2.345   1.415   3.748
 4315SOL    HW113844   2.408   1.348   3.709
 4315SOL    HW213845   2.298   1.464   3.674
 4316SOL     OW13846   5.260   0.644   2.292
 4316SOL    HW113847   5.334   0.707   2.270
 4316SOL    HW213848   5.296   0.567   2.345
 4317SOL     OW13849   4.405   0.678   5.624
 4317SOL    HW113850   4.483   0.739   5.643
 4317SOL    HW213851   4.323   0.715   5.667
 4318SOL     OW13852   0.596   0.854   3.723
 4318SOL    HW113853   0.634   0.935   3.768
 4318SOL    HW213854   0.553   0.795   3.790
 4319SOL     OW13855   1.239   2.806   1.716
 4319SOL    HW113856   1.331   2.769   1.723
 4319SOL    HW213857   1.172   2.732   1.727
 4320SOL     OW13858   3.462   6.046   0.798
 4320SOL    HW113859   3.462   5.967   0.738
 4320SOL    HW213860   3.410   6.120   0.756
 4321SOL     OW13861   6.857   5.826   2.575
 4321SOL    HW113862   6.797   5.892   2.620
 4321SOL    HW213863   6.923   5.789   2.640
 4322SOL     OW13864   0.638   2.197   5.347
 4322SOL    HW113865   0.679   2.288   5.344
 4322SOL    HW213866   0.602   2.179   5.439
 4323SOL     OW13867   4.165   5.639   0.042
 4323SOL    HW113868   4.127   5.693   0.117
 4323SOL    HW213869   4.240   5.690   7.024
 4324SOL     OW13870   0.092   3.808   5.510
 4324SOL    HW113871   0.030   3.747   5.462
 4324SOL    HW213872   0.156   3.754   5.565
 4325SOL     OW13873   3.104   0.659   3.318
 4325SOL    HW113874   3.021   0.628   3.272
 4325SOL    HW213875   3.180   0.659   3.253
 4326SOL     OW13876   5.458   2.468   2.629
 4326SOL    HW113877   5.401   2.549   2.647
 4326SOL    HW213878   5.413   2.412   2.560
 4327SOL     OW13879   3.331   5.172   3.997
 4327SOL    HW113880   3.389   5.252   3.987
 4327SOL    HW213881   3.359   5.101   3.933
 4328SOL     OW13882   6.190   5.429   5.532
 4328SOL    HW113883   6.114   5.396   5.477
 4328SOL    HW213884   6.232   5.353   5.580
 4329SOL     OW13885   5.665   3.103   5.536
 4329SOL    HW113886   5.589   3.160   5.566
 4329SOL    HW213887   5.635   3.046   5.458
 4330SOL     OW13888   2.342   5.939   5.225
 4330SOL    HW113889   2.312   5.974   5.313
 4330SOL    HW213890   2.309   5.845   5.213
 4331SOL     OW13891   6.541   0.675   1.498
 4331SOL    HW113892   6.570   0.656   1.404
 4331SOL    HW213893   6.445   0.700   1.498
 4332SOL     OW13894   6.402   3.605   3.081
 4332SOL    HW113895   6.372   3.532   3.020
 4332SOL    HW213896   6.323   3.646   3.126
 4333SOL     OW13897   4.300   2.037   4.977
 4333SOL    HW113898   4.202   2.049   4.993
 4333SOL    HW213899   4.315   1.979   4.898
 4334SOL     OW13900   1.185   2.590   2.899
 4334SOL    HW113901   1.166   2.675   2.850
 4334SOL    HW213902   1.101   2.557   2.941
 4335SOL     OW13903   3.329   2.894   0.931
 4335SOL    HW113904   3.362   2.986   0.908
 4335SOL    HW213905   3.354   2.872   1.025
 4336SOL     OW13906   1.831   5.692   6.336
 4336SOL    HW113907   1.809   5.676   6.239
 4336SOL    HW213908   1.855   5.788   6.349
 4337SOL     OW13909   1.109   5.863   2.244
 4337SOL    HW113910   1.077   5.835   2.154
 4337SOL    HW213911   1.208   5.849   2.251
 4338SOL     OW13912   6.193   0.485   5.220
 4338SOL    HW113913   6.146   0.475   5.133
 4338SOL    HW213914   6.133   0.456   5.294
 4339SOL     OW13915   3.993   2.724   6.514
 4339SOL    HW113916   4.008   2.822   6.528
 4339SOL    HW213917   3.908   2.710   6.463
 4340SOL     OW13918   6.401   4.023   0.813
 4340SOL    HW113919   6.479   3.978   0.857
 4340SOL    HW213920   6.393   3.991   0.719
 4341SOL     OW13921   1.137   5.792   1.666
 4341SOL    HW113922   1.176   5.831   1.583
 4341SOL    HW213923   1.113   5.866   1.730
 4342SOL     OW13924   5.229   3.906   2.559
 4342SOL    HW113925   5.231   3.858   2.471
 4342SOL    HW213926   5.290   3.859   2.624
 4343SOL     OW13927   4.476   0.515   5.203
 4343SOL    HW113928   4.462   0.489   5.299
 4343SOL    HW213929   4.562   0.564   5.194
 4344SOL     OW13930   0.503   3.099   4.129
 4344SOL    HW113931   0.481   3.194   4.154
 4344SOL    HW213932   0.581   3.099   4.067
 4345SOL     OW13933   2.922   3.396   2.567
 4345SOL    HW113934   2.845   3.438   2.518
 4345SOL    HW213935   3.008   3.423   2.523
 4346SOL     OW13936   2.343   2.819   2.823
 4346SOL    HW113937   2.337   2.730   2.869
 4346SOL    HW213938   2.432   2.828   2.779
 4347SOL     OW13939   5.883   5.399   1.392
 4347SOL    HW113940   5.786   5.422   1.392
 4347SOL    HW213941   5.896   5.309   1.433
 4348SOL     OW13942   6.774   5.986   3.745
 4348SOL    HW113943   6.848   6.052   3.730
 4348SOL    HW213944   6.727   6.007   3.831
 4349SOL     OW13945   0.402   4.049   3.681
 4349SOL    HW113946   0.350   3.971   3.716
 4349SOL    HW213947   0.384   4.059   3.583
 4350SOL     OW13948   5.599   1.495   4.741
 4350SOL    HW113949   5.614   1.570   4.675
 4350SOL    HW213950   5.511   1.509   4.787
 4351SOL     OW13951   1.145   6.601   1.335
 4351SOL    HW113952   1.094   6.687   1.333
 4351SOL    HW213953   1.175   6.582   1.428
 4352SOL     OW13954   4.769   4.241   1.111
 4352SOL    HW113955   4.836   4.199   1.051
 4352SOL    HW213956   4.696   4.176   1.132
 4353SOL     OW13957   3.200   3.474   6.778
 4353SOL    HW113958   3.271   3.518   6.723
 4353SOL    HW213959   3.227   3.473   6.874
 4354SOL     OW13960   6.805   0.274   3.890
 4354SOL    HW113961   6.779   0.350   3.830
 4354SOL    HW213962   6.740   0.267   3.965
 4355SOL     OW13963   1.294   0.394   3.995
 4355SOL    HW113964   1.340   0.369   4.080
 4355SOL    HW213965   1.308   0.492   3.977
 4356SOL     OW13966   4.902   2.659   5.820
 4356SOL    HW113967   4.829   2.713   5.862
 4356SOL    HW213968   4.960   2.719   5.764
 4357SOL     OW13969   6.248   1.260   2.080
 4357SOL    HW113970   6.237   1.241   1.982
 4357SOL    HW213971   6.342   1.239   2.107
 4358SOL     OW13972   0.766   1.051   0.180
 4358SOL    HW113973   0.716   1.136   0.195
 4358SOL    HW213974   0.714   0.974   0.216
 4359SOL     OW13975   2.599   0.597   0.005
 4359SOL    HW113976   2.522   0.617   0.066
 4359SOL    HW213977   2.660   0.676   0.001
 4360SOL     OW13978   1.307   2.611   3.267
 4360SOL    HW113979   1.313   2.708   3.290
 4360SOL    HW213980   1.216   2.591   3.231
 4361SOL     OW13981   1.046   2.173   1.324
 4361SOL    HW113982   1.070   2.243   1.256
 4361SOL    HW213983   0.961   2.128   1.297
 4362SOL     OW13984   0.711   6.465   4.094
 4362SOL    HW113985   0.783   6.399   4.116
 4362SOL    HW213986   0.711   6.538   4.162
 4363SOL     OW13987   4.321   0.989   2.959
 4363SOL    HW113988   4.269   1.072   2.939
 4363SOL    HW213989   4.299   0.918   2.892
 4364SOL     OW13990   2.953   3.718   2.584
 4364SOL    HW113991   2.934   3.685   2.492
 4364SOL    HW213992   2.976   3.815   2.581
 4365SOL     OW13993   3.076   2.216   1.716
 4365SOL    HW113994   3.116   2.300   1.680
 4365SOL    HW213995   3.054   2.228   1.813
 4366SOL     OW13996   5.037   5.707   5.135
 4366SOL    HW113997   5.010   5.708   5.039
 4366SOL    HW213998   5.092   5.788   5.156
 4367SOL     OW13999   3.148   5.352   3.767
 4367SOL    HW114000   3.173   5.440   3.726
 4367SOL    HW214001   3.136   5.363   3.865
 4368SOL     OW14002   5.195   5.807   2.689
 4368SOL    HW114003   5.231   5.869   2.620
 4368SOL    HW214004   5.209   5.712   2.660
 4369SOL     OW14005   5.192   5.260   2.777
 4369SOL    HW114006   5.140   5.284   2.695
 4369SOL    HW214007   5.129   5.227   2.847
 4370SOL     OW14008   3.596   4.507   1.480
 4370SOL    HW114009   3.685   4.548   1.499
 4370SOL    HW214010   3.524   4.561   1.524
 4371SOL     OW14011   2.232   0.895   1.765
 4371SOL    HW114012   2.278   0.967   1.714
 4371SOL    HW214013   2.178   0.839   1.702
 4372SOL     OW14014   1.782   2.224   4.739
 4372SOL    HW114015   1.731   2.188   4.661
 4372SOL    HW214016   1.748   2.183   4.823
 4373SOL     OW14017   4.593   1.186   6.082
 4373SOL    HW114018   4.519   1.166   6.145
 4373SOL    HW214019   4.650   1.104   6.070
 4374SOL     OW14020   2.588   2.072   1.547
 4374SOL    HW114021   2.679   2.104   1.576
 4374SOL    HW214022   2.533   2.051   1.627
 4375SOL     OW14023   3.449   0.295   3.313
 4375SOL    HW114024   3.415   0.348   3.235
 4375SOL    HW214025   3.492   0.212   3.280
 4376SOL     OW14026   6.411   6.132   1.235
 4376SOL    HW114027   6.369   6.175   1.155
 4376SOL    HW214028   6.407   6.196   1.313
 4377SOL     OW14029   5.662   6.466   0.046
 4377SOL    HW114030   5.754   6.459   0.083
 4377SOL    HW214031   5.658   6.543   7.007
 4378SOL     OW14032   1.757   5.868   2.274
 4378SOL    HW114033   1.740   5.912   2.186
 4378SOL    HW214034   1.856   5.857   2.287
 4379SOL     OW14035   1.316   0.539   1.889
 4379SOL    HW114036   1.303   0.457   1.834
 4379SOL    HW214037   1.305   0.620   1.832
 4380SOL     OW14038   2.053   6.078   5.518
 4380SOL    HW114039   2.065   5.995   5.462
 4380SOL    HW214040   2.032   6.155   5.459
 4381SOL     OW14041   4.104   6.099   4.271
 4381SOL    HW114042   4.087   6.083   4.368
 4381SOL    HW214043   4.040   6.046   4.216
 4382SOL     OW14044   5.024   4.109   4.602
 4382SOL    HW114045   4.973   4.158   4.673
 4382SOL    HW214046   5.121   4.107   4.627
 4383SOL     OW14047   1.533   1.996   6.054
 4383SOL    HW114048   1.499   2.050   5.977
 4383SOL    HW214049   1.628   1.969   6.037
 4384SOL     OW14050   3.737   6.608   1.139
 4384SOL    HW114051   3.790   6.642   1.061
 4384SOL    HW214052   3.787   6.626   1.223
 4385SOL     OW14053   0.275   1.934   3.757
 4385SOL    HW114054   0.178   1.957   3.745
 4385SOL    HW214055   0.325   1.958   3.674
 4386SOL     OW14056   0.623   4.010   6.615
 4386SOL    HW114057   0.696   4.029   6.549
 4386SOL    HW214058   0.657   3.948   6.685
 4387SOL     OW14059   6.500   3.083   1.355
 4387SOL    HW114060   6.555   3.162   1.328
 4387SOL    HW214061   6.454   3.045   1.275
 4388SOL     OW14062   3.787   0.300   6.198
 4388SOL    HW114063   3.726   0.361   6.247
 4388SOL    HW214064   3.745   0.210   6.189
 4389SOL     OW14065   5.795   3.020   1.554
 4389SOL    HW114066   5.716   2.967   1.521
 4389SOL    HW214067   5.857   2.960   1.604
 4390SOL     OW14068   4.845   2.192   1.615
 4390SOL    HW114069   4.886   2.149   1.695
 4390SOL    HW214070   4.916   2.240   1.563
 4391SOL     OW14071   0.958   5.836   6.989
 4391SOL    HW114072   0.943   5.928   7.023
 4391SOL    HW214073   1.057   5.818   6.983
 4392SOL     OW14074   4.945   3.003   4.607
 4392SOL    HW114075   4.884   2.935   4.566
 4392SOL    HW214076   4.913   3.024   4.700
 4393SOL     OW14077   5.264   0.141   3.215
 4393SOL    HW114078   5.237   0.237   3.206
 4393SOL    HW214079   5.251   0.112   3.310
 4394SOL     OW14080   6.119   6.287   2.868
 4394SOL    HW114081   6.148   6.359   2.805
 4394SOL    HW214082   6.121   6.199   2.822
 4395SOL     OW14083   4.361   1.617   2.275
 4395SOL    HW114084   4.400   1.532   2.241
 4395SOL    HW214085   4.295   1.653   2.210
 4396SOL     OW14086   1.347   1.443   4.490
 4396SOL    HW114087   1.381   1.517   4.431
 4396SOL    HW214088   1.406   1.435   4.571
 4397SOL     OW14089   0.186   1.571   4.548
 4397SOL    HW114090   0.210   1.479   4.516
 4397SOL    HW214091   0.100   1.599   4.505
 4398SOL     OW14092   0.818   3.705   4.452
 4398SOL    HW114093   0.722   3.717   4.473
 4398SOL    HW214094   0.866   3.792   4.462
 4399SOL     OW14095   2.450   0.502   0.437
 4399SOL    HW114096   2.501   0.570   0.384
 4399SOL    HW214097   2.507   0.421   0.451
 4400SOL     OW14098   2.426   6.634   4.253
 4400SOL    HW114099   2.445   6.723   4.212
 4400SOL    HW214100   2.471   6.562   4.201
 4401SOL     OW14101   5.344   6.000   4.970
 4401SOL    HW114102   5.297   5.926   4.921
 4401SOL    HW214103   5.400   6.052   4.906
 4402SOL     OW14104   0.952   5.802   2.824
 4402SOL    HW114105   0.878   5.849   2.873
 4402SOL    HW214106   0.953   5.706   2.851
 4403SOL     OW14107   6.716   0.160   3.341
 4403SOL    HW114108   6.768   0.075   3.341
 4403SOL    HW214109   6.773   0.234   3.376
 4404SOL     OW14110   1.337   4.348   3.778
 4404SOL    HW114111   1.331   4.320   3.874
 4404SOL    HW214112   1.266   4.301   3.725
 4405SOL     OW14113   3.221   4.572   6.010
 4405SOL    HW114114   3.178   4.484   6.033
 4405SOL    HW214115   3.178   4.645   6.063
 4406SOL     OW14116   5.122   4.821   1.667
 4406SOL    HW114117   5.160   4.731   1.644
 4406SOL    HW214118   5.031   4.830   1.626
 4407SOL     OW14119   6.869   6.121   0.532
 4407SOL    HW114120   6.835   6.100   0.441
 4407SOL    HW214121   6.922   6.206   0.529
 4408SOL     OW14122   4.398   0.268   0.531
 4408SOL    HW114123   4.492   0.303   0.532
 4408SOL    HW214124   4.384   0.212   0.450
 4409SOL     OW14125   4.339   1.827   1.898
 4409SOL    HW114126   4.278   1.799   1.824
 4409SOL    HW214127   4.434   1.821   1.867
 4410SOL     OW14128   2.489   4.712   0.409
 4410SOL    HW114129   2.442   4.673   0.487
 4410SOL    HW214130   2.450   4.677   0.324
 4411SOL     OW14131   3.682   3.480   2.826
 4411SOL    HW114132   3.605   3.440   2.876
 4411SOL    HW214133   3.747   3.519   2.891
 4412SOL     OW14134   3.844   1.346   5.687
 4412SOL    HW114135   3.881   1.256   5.708
 4412SOL    HW214136   3.796   1.343   5.599
 4413SOL     OW14137   3.806   5.706   3.867
 4413SOL    HW114138   3.812   5.638   3.939
 4413SOL    HW214139   3.899   5.735   3.841
 4414SOL     OW14140   4.254   4.757   2.382
 4414SOL    HW114141   4.306   4.795   2.305
 4414SOL    HW214142   4.185   4.693   2.348
 4415SOL     OW14143   5.608   3.928   5.948
 4415SOL    HW114144   5.677   3.891   6.010
 4415SOL    HW214145   5.653   3.959   5.864
 4416SOL     OW14146   2.988   1.467   4.551
 4416SOL    HW114147   3.029   1.430   4.634
 4416SOL    HW214148   3.009   1.564   4.543
 4417SOL     OW14149   0.071   4.826   1.911
 4417SOL    HW114150   0.002   4.864   1.974
 4417SOL    HW214151   0.056   4.863   1.819
 4418SOL     OW14152   4.361   6.425   3.901
 4418SOL    HW114153   4.284   6.470   3.856
 4418SOL    HW214154   4.326   6.354   3.963
 4419SOL     OW14155   6.087   5.416   0.644
 4419SOL    HW114156   6.159   5.449   0.705
 4419SOL    HW214157   5.998   5.427   0.688
 4420SOL     OW14158   4.517   0.924   0.925
 4420SOL    HW114159   4.546   0.875   0.843
 4420SOL    HW214160   4.482   0.858   0.992
 4421SOL     OW14161   2.222   1.520   2.530
 4421SOL    HW114162   2.168   1.491   2.451
 4421SOL    HW214163   2.317   1.490   2.519
 4422SOL     OW14164   3.276   3.448   5.826
 4422SOL    HW114165   3.218   3.498   5.761
 4422SOL    HW214166   3.218   3.404   5.894
 4423SOL     OW14167   1.211   1.740   6.214
 4423SOL    HW114168   1.307   1.752   6.240
 4423SOL    HW214169   1.204   1.738   6.115
 4424SOL     OW14170   5.361   6.234   3.318
 4424SOL    HW114171   5.302   6.303   3.360
 4424SOL    HW214172   5.425   6.199   3.386
 4425SOL     OW14173   3.629   5.318   5.648
 4425SOL    HW114174   3.581   5.405   5.659
 4425SOL    HW214175   3.600   5.274   5.563
 4426SOL     OW14176   6.955   1.219   5.245
 4426SOL    HW114177   0.016   1.202   5.196
 4426SOL    HW214178   6.879   1.182   5.191
 4427SOL     OW14179   0.381   0.646   3.286
 4427SOL    HW114180   0.329   0.651   3.201
 4427SOL    HW214181   0.476   0.621   3.266
 4428SOL     OW14182   2.778   4.718   4.228
 4428SOL    HW114183   2.868   4.760   4.230
 4428SOL    HW214184   2.767   4.659   4.308
 4429SOL     OW14185   3.156   6.824   3.263
 4429SOL    HW114186   3.082   6.780   3.212
 4429SOL    HW214187   3.143   6.923   3.261
 4430SOL     OW14188   4.233   2.279   2.803
 4430SOL    HW114189   4.272   2.352   2.859
 4430SOL    HW214190   4.305   2.240   2.745
 4431SOL     OW14191   3.180   1.865   3.223
 4431SOL    HW114192   3.248   1.796   3.196
 4431SOL    HW214193   3.114   1.878   3.149
 4432SOL     OW14194   3.539   2.935   3.054
 4432SOL    HW114195   3.631   2.907   3.027
 4432SOL    HW214196   3.477   2.927   2.975
 4433SOL     OW14197   5.891   0.029   3.015
 4433SOL    HW114198   5.850   6.963   3.022
 4433SOL    HW214199   5.991   0.022   3.012
 4434SOL     OW14200   5.212   1.726   4.062
 4434SOL    HW114201   5.274   1.762   3.992
 4434SOL    HW214202   5.187   1.800   4.125
 4435SOL     OW14203   3.681   3.098   1.534
 4435SOL    HW114204   3.637   3.081   1.445
 4435SOL    HW214205   3.777   3.072   1.529
 4436SOL     OW14206   3.200   2.249   0.462
 4436SOL    HW114207   3.204   2.195   0.378
 4436SOL    HW214208   3.106   2.277   0.479
 4437SOL     OW14209   4.117   0.544   4.456
 4437SOL    HW114210   4.153   0.520   4.366
 4437SOL    HW214211   4.135   0.641   4.475
 4438SOL     OW14212   4.315   2.079   0.227
 4438SOL    HW114213   4.278   2.147   0.290
 4438SOL    HW214214   4.342   2.123   0.142
 4439SOL     OW14215   0.641   5.204   1.404
 4439SOL    HW114216   0.735   5.209   1.371
 4439SOL    HW214217   0.599   5.295   1.397
 4440SOL     OW14218   2.293   5.544   0.270
 4440SOL    HW114219   2.295   5.452   0.232
 4440SOL    HW214220   2.215   5.594   0.232
 4441SOL     OW14221   6.448   2.571   2.327
 4441SOL    HW114222   6.480   2.523   2.245
 4441SOL    HW214223   6.364   2.529   2.359
 4442SOL     OW14224   3.835   6.078   3.399
 4442SOL    HW114225   3.905   6.134   3.356
 4442SOL    HW214226   3.878   6.015   3.465
 4443SOL     OW14227   2.223   2.099   6.551
 4443SOL    HW114228   2.302   2.160   6.562
 4443SOL    HW214229   2.157   2.141   6.489
 4444SOL     OW14230   4.864   6.371   0.741
 4444SOL    HW114231   4.959   6.372   0.771
 4444SOL    HW214232   4.804   6.388   0.820
 4445SOL     OW14233   1.342   0.740   6.657
 4445SOL    HW114234   1.378   0.727   6.564
 4445SOL    HW214235   1.251   0.780   6.652
 4446SOL     OW14236   5.581   0.645   1.660
 4446SOL    HW114237   5.676   0.663   1.685
 4446SOL    HW214238   5.541   0.580   1.725
 4447SOL     OW14239   5.437   3.257   5.565
 4447SOL    HW114240   5.412   3.208   5.481
 4447SOL    HW214241   5.356   3.267   5.623
 4448SOL     OW14242   2.821   3.734   0.490
 4448SOL    HW114243   2.907   3.724   0.439
 4448SOL    HW214244   2.842   3.765   0.583
 4449SOL     OW14245   3.020   0.579   5.674
 4449SOL    HW114246   3.060   0.579   5.766
 4449SOL    HW214247   3.083   0.534   5.611
 4450SOL     OW14248   3.014   3.226   2.752
 4450SOL    HW114249   2.964   3.295   2.700
 4450SOL    HW214250   3.108   3.258   2.767
 4451SOL     OW14251   6.263   4.347   2.237
 4451SOL    HW114252   6.252   4.433   2.288
 4451SOL    HW214253   6.182   4.290   2.251
 4452SOL     OW14254   5.905   6.936   5.328
 4452SOL    HW114255   5.864   6.847   5.348
 4452SOL    HW214256   5.998   6.923   5.293
 4453SOL     OW14257   6.249   2.910   1.747
 4453SOL    HW114258   6.314   2.911   1.670
 4453SOL    HW214259   6.224   2.816   1.769
 4454SOL     OW14260   5.507   2.583   1.204
 4454SOL    HW114261   5.473   2.609   1.114
 4454SOL    HW214262   5.430   2.557   1.263
 4455SOL     OW14263   3.297   6.356   1.882
 4455SOL    HW114264   3.383   6.349   1.831
 4455SOL    HW214265   3.280   6.452   1.905
 4456SOL     OW14266   2.260   5.260   2.007
 4456SOL    HW114267   2.210   5.183   2.046
 4456SOL    HW214268   2.237   5.269   1.910
 4457SOL     OW14269   4.497   2.205   6.468
 4457SOL    HW114270   4.500   2.173   6.562
 4457SOL    HW214271   4.428   2.276   6.459
 4458SOL     OW14272   2.469   3.276   6.396
 4458SOL    HW114273   2.551   3.221   6.381
 4458SOL    HW214274   2.492   3.354   6.455
 4459SOL     OW14275   5.069   0.169   4.165
 4459SOL    HW114276   5.016   0.193   4.246
 4459SOL    HW214277   5.007   0.156   4.087
 4460SOL     OW14278   2.310   3.164   6.772
 4460SOL    HW114279   2.339   3.244   6.824
 4460SOL    HW214280   2.261   3.101   6.831
 4461SOL     OW14281   0.991   6.667   2.453
 4461SOL    HW114282   1.054   6.642   2.527
 4461SOL    HW214283   0.900   6.683   2.491
 4462SOL     OW14284   6.012   4.844   1.005
 4462SOL    HW114285   5.978   4.852   1.098
 4462SOL    HW214286   6.021   4.935   0.965
 4463SOL     OW14287   1.897   2.732   6.540
 4463SOL    HW114288   1.940   2.759   6.454
 4463SOL    HW214289   1.811   2.782   6.551
 4464SOL     OW14290   6.044   4.855   6.608
 4464SOL    HW114291   6.046   4.822   6.513
 4464SOL    HW214292   6.034   4.955   6.608
 4465SOL     OW14293   2.049   6.633   2.333
 4465SOL    HW114294   2.070   6.675   2.421
 4465SOL    HW214295   1.966   6.578   2.341
 4466SOL     OW14296   0.941   1.309   2.463
 4466SOL    HW114297   0.857   1.328   2.513
 4466SOL    HW214298   1.011   1.375   2.490
 4467SOL     OW14299   1.537   6.772   3.372
 4467SOL    HW114300   1.592   6.692   3.346
 4467SOL    HW214301   1.510   6.765   3.467
 4468SOL     OW14302   1.086   2.117   6.962
 4468SOL    HW114303   1.172   2.075   6.932
 4468SOL    HW214304   1.015   2.048   6.967
 4469SOL     OW14305   3.382   0.396   1.865
 4469SOL    HW114306   3.354   0.382   1.770
 4469SOL    HW214307   3.414   0.490   1.877
 4470SOL     OW14308   5.205   3.917   1.766
 4470SOL    HW114309   5.162   3.982   1.828
 4470SOL    HW214310   5.295   3.951   1.738
 4471SOL     OW14311   0.599   2.974   0.684
 4471SOL    HW114312   0.521   3.002   0.740
 4471SOL    HW214313   0.590   2.878   0.660
 4472SOL     OW14314   1.855   3.991   2.394
 4472SOL    HW114315   1.880   4.076   2.348
 4472SOL    HW214316   1.893   3.989   2.486
 4473SOL     OW14317   0.161   0.605   4.874
 4473SOL    HW114318   0.075   0.601   4.925
 4473SOL    HW214319   0.236   0.575   4.932
 4474SOL     OW14320   3.324   0.098   2.314
 4474SOL    HW114321   3.285   0.006   2.313
 4474SOL    HW214322   3.271   0.158   2.254
 4475SOL     OW14323   1.152   3.858   1.446
 4475SOL    HW114324   1.216   3.841   1.371
 4475SOL    HW214325   1.076   3.793   1.439
 4476SOL     OW14326   5.318   6.328   2.825
 4476SOL    HW114327   5.295   6.424   2.837
 4476SOL    HW214328   5.371   6.296   2.904
 4477SOL     OW14329   2.144   0.341   6.783
 4477SOL    HW114330   2.186   0.380   6.701
 4477SOL    HW214331   2.201   0.363   6.862
 4478SOL     OW14332   2.445   6.492   2.265
 4478SOL    HW114333   2.506   6.430   2.215
 4478SOL    HW214334   2.438   6.464   2.360
 4479SOL     OW14335   1.115   0.491   6.380
 4479SOL    HW114336   1.188   0.429   6.406
 4479SOL    HW214337   1.052   0.503   6.457
 4480SOL     OW14338   1.613   3.720   4.390
 4480SOL    HW114339   1.587   3.707   4.486
 4480SOL    HW214340   1.701   3.677   4.373
 4481SOL     OW14341   1.604   6.302   4.407
 4481SOL    HW114342   1.687   6.247   4.409
 4481SOL    HW214343   1.627   6.399   4.399
 4482SOL     OW14344   0.930   4.154   4.365
 4482SOL    HW114345   0.852   4.143   4.304
 4482SOL    HW214346   0.907   4.219   4.437
 4483SOL     OW14347   6.812   3.109   1.409
 4483SOL    HW114348   6.782   3.027   1.360
 4483SOL    HW214349   6.746   3.131   1.481
 4484SOL     OW14350   4.059   2.886   5.350
 4484SOL    HW114351   3.978   2.923   5.304
 4484SOL    HW214352   4.044   2.789   5.371
 4485SOL     OW14353   4.959   2.437   6.363
 4485SOL    HW114354   5.016   2.357   6.343
 4485SOL    HW214355   4.875   2.433   6.310
 4486SOL     OW14356   0.002   4.101   5.135
 4486SOL    HW114357   0.052   4.046   5.068
 4486SOL    HW214358   0.032   4.196   5.130
 4487SOL     OW14359   2.660   3.852   6.627
 4487SOL    HW114360   2.572   3.810   6.651
 4487SOL    HW214361   2.660   3.947   6.658
 4488SOL     OW14362   5.839   2.500   5.703
 4488SOL    HW114363   5.822   2.405   5.674
 4488SOL    HW214364   5.935   2.509   5.732
 4489SOL     OW14365   5.470   5.793   4.716
 4489SOL    HW114366   5.375   5.824   4.714
 4489SOL    HW214367   5.515   5.819   4.631
 4490SOL     OW14368   6.101   1.339   1.277
 4490SOL    HW114369   6.066   1.362   1.368
 4490SOL    HW214370   6.190   1.294   1.286
 4491SOL     OW14371   1.321   3.667   2.454
 4491SOL    HW114372   1.313   3.642   2.551
 4491SOL    HW214373   1.380   3.747   2.445
 4492SOL     OW14374   5.343   2.384   0.088
 4492SOL    HW114375   5.390   2.295   0.085
 4492SOL    HW214376   5.250   2.373   0.053
 4493SOL     OW14377   4.360   5.263   4.775
 4493SOL    HW114378   4.315   5.180   4.810
 4493SOL    HW214379   4.394   5.246   4.683
 4494SOL     OW14380   0.044   3.191   5.956
 4494SOL    HW114381   0.107   3.140   6.014
 4494SOL    HW214382   7.000   3.235   6.013
 4495SOL     OW14383   5.406   6.815   2.644
 4495SOL    HW114384   5.365   6.906   2.655
 4495SOL    HW214385   5.491   6.810   2.696
 4496SOL     OW14386   5.149   4.950   6.727
 4496SOL    HW114387   5.061   4.981   6.690
 4496SOL    HW214388   5.165   4.855   6.701
 4497SOL     OW14389   5.130   6.073   6.617
 4497SOL    HW114390   5.125   6.001   6.547
 4497SOL    HW214391   5.051   6.066   6.678
 4498SOL     OW14392   6.945   4.078   6.805
 4498SOL    HW114393   6.965   4.173   6.782
 4498SOL    HW214394   7.022   4.040   6.857
 4499SOL     OW14395   6.590   2.783   4.390
 4499SOL    HW114396   6.602   2.752   4.484
 4499SOL    HW214397   6.675   2.825   4.358
 4500SOL     OW14398   3.223   4.069   4.032
 4500SOL    HW114399   3.257   3.976   4.019
 4500SOL    HW214400   3.251   4.126   3.955
 4501SOL     OW14401   1.302   3.766   5.403
 4501SOL    HW114402   1.213   3.721   5.411
 4501SOL    HW214403   1.368   3.717   5.460
 4502SOL     OW14404   1.993   2.481   6.194
 4502SOL    HW114405   2.072   2.503   6.137
 4502SOL    HW214406   2.021   2.476   6.290
 4503SOL     OW14407   2.522   1.250   3.637
 4503SOL    HW114408   2.494   1.258   3.542
 4503SOL    HW214409   2.622   1.257   3.643
 4504SOL     OW14410   6.397   2.502   5.854
 4504SOL    HW114411   6.317   2.501   5.794
 4504SOL    HW214412   6.369   2.483   5.948
 4505SOL     OW14413   0.563   6.315   4.559
 4505SOL    HW114414   0.502   6.363   4.497
 4505SOL    HW214415   0.578   6.221   4.526
 4506SOL     OW14416   3.641   1.337   4.918
 4506SOL    HW114417   3.582   1.354   4.997
 4506SOL    HW214418   3.734   1.367   4.938
 4507SOL     OW14419   5.007   5.120   1.412
 4507SOL    HW114420   4.963   5.209   1.396
 4507SOL    HW214421   5.070   5.100   1.338
 4508SOL     OW14422   1.474   4.090   0.071
 4508SOL    HW114423   1.539   4.031   0.022
 4508SOL    HW214424   1.400   4.034   0.109
 4509SOL     OW14425   4.061   1.843   4.392
 4509SOL    HW114426   4.116   1.781   4.449
 4509SOL    HW214427   3.967   1.844   4.426
 4510SOL     OW14428   5.711   0.741   5.024
 4510SOL    HW114429   5.727   0.785   5.112
 4510SOL    HW214430   5.663   0.655   5.037
 4511SOL     OW14431   0.374   3.484   0.238
 4511SOL    HW114432   0.286   3.442   0.214
 4511SOL    HW214433   0.423   3.506   0.154
 4512SOL     OW14434   2.746   6.932   6.768
 4512SOL    HW114435   2.775   0.003   6.768
 4512SOL    HW214436   2.652   6.926   6.733
 4513SOL     OW14437   4.552   6.455   1.403
 4513SOL    HW114438   4.620   6.381   1.405
 4513SOL    HW214439   4.460   6.416   1.409
 4514SOL     OW14440   4.098   1.325   4.838
 4514SOL    HW114441   4.043   1.253   4.881
 4514SOL    HW214442   4.176   1.283   4.791
 4515SOL     OW14443   6.652   4.560   6.646
 4515SOL    HW114444   6.581   4.593   6.584
 4515SOL    HW214445   6.609   4.525   6.730
 4516SOL     OW14446   0.999   0.897   5.402
 4516SOL    HW114447   1.032   0.810   5.439
 4516SOL    HW214448   1.074   0.964   5.404
 4517SOL     OW14449   3.166   7.004   6.653
 4517SOL    HW114450   3.174   6.921   6.598
 4517SOL    HW214451   3.072   0.013   6.648
 4518SOL     OW14452   0.912   2.116   3.891
 4518SOL    HW114453   0.948   2.107   3.798
 4518SOL    HW214454   0.988   2.135   3.954
 4519SOL     OW14455   0.399   2.002   3.529
 4519SOL    HW114456   0.334   1.935   3.494
 4519SOL    HW214457   0.490   1.960   3.537
 4520SOL     OW14458   6.001   4.854   2.601
 4520SOL    HW114459   6.043   4.868   2.691
 4520SOL    HW214460   5.972   4.758   2.592
 4521SOL     OW14461   4.825   2.184   6.054
 4521SOL    HW114462   4.906   2.188   6.113
 4521SOL    HW214463   4.792   2.090   6.048
 4522SOL     OW14464   5.433   6.610   3.875
 4522SOL    HW114465   5.455   6.518   3.905
 4522SOL    HW214466   5.509   6.648   3.822
 4523SOL     OW14467   3.049   4.694   0.083
 4523SOL    HW114468   3.130   4.751   0.071
 4523SOL    HW214469   3.046   4.625   0.011
 4524SOL     OW14470   5.296   1.542   5.655
 4524SOL    HW114471   5.333   1.615   5.597
 4524SOL    HW214472   5.354   1.530   5.735
 4525SOL     OW14473   6.557   1.930   3.991
 4525SOL    HW114474   6.581   1.834   3.981
 4525SOL    HW214475   6.549   1.953   4.088
 4526SOL     OW14476   5.358   6.938   1.166
 4526SOL    HW114477   5.458   6.946   1.172
 4526SOL    HW214478   5.327   6.980   1.080
 4527SOL     OW14479   4.310   0.461   3.309
 4527SOL    HW114480   4.377   0.531   3.334
 4527SOL    HW214481   4.337   0.373   3.350
 4528SOL     OW14482   4.810   6.751   6.979
 4528SOL    HW114483   4.715   6.766   6.952
 4528SOL    HW214484   4.869   6.815   6.929
 4529SOL     OW14485   3.065   1.304   3.592
 4529SOL    HW114486   3.058   1.211   3.554
 4529SOL    HW214487   3.135   1.355   3.543
 4530SOL     OW14488   0.374   3.262   5.697
 4530SOL    HW114489   0.393   3.245   5.600
 4530SOL    HW214490   0.275   3.265   5.712
 4531SOL     OW14491   1.435   3.571   2.704
 4531SOL    HW114492   1.486   3.654   2.680
 4531SOL    HW214493   1.484   3.491   2.670
 4532SOL     OW14494   6.647   0.898   1.088
 4532SOL    HW114495   6.670   0.939   1.176
 4532SOL    HW214496   6.672   0.961   1.014
 4533SOL     OW14497   1.385   0.157   3.840
 4533SOL    HW114498   1.379   0.255   3.860
 4533SOL    HW214499   1.407   0.144   3.744
 4534SOL     OW14500   6.313   3.790   4.919
 4534SOL    HW114501   6.374   3.781   4.840
 4534SOL    HW214502   6.291   3.699   4.954
 4535SOL     OW14503   4.549   2.580   2.190
 4535SOL    HW114504   4.643   2.613   2.182
 4535SOL    HW214505   4.486   2.657   2.189
 4536SOL     OW14506   4.528   0.943   4.651
 4536SOL    HW114507   4.492   0.985   4.568
 4536SOL    HW214508   4.605   0.883   4.627
 4537SOL     OW14509   3.723   3.280   6.702
 4537SOL    HW114510   3.718   3.288   6.802
 4537SOL    HW214511   3.769   3.194   6.678
 4538SOL     OW14512   3.441   1.896   3.718
 4538SOL    HW114513   3.531   1.860   3.740
 4538SOL    HW214514   3.392   1.919   3.802
 4539SOL     OW14515   2.884   2.246   3.671
 4539SOL    HW114516   2.876   2.149   3.647
 4539SOL    HW214517   2.977   2.265   3.701
 4540SOL     OW14518   3.325   3.821   4.001
 4540SOL    HW114519   3.320   3.825   3.901
 4540SOL    HW214520   3.322   3.725   4.031
 4541SOL     OW14521   5.207   0.631   0.139
 4541SOL    HW114522   5.281   0.693   0.164
 4541SOL    HW214523   5.155   0.669   0.063
 4542SOL     OW14524   6.013   5.991   1.560
 4542SOL    HW114525   5.927   6.037   1.537
 4542SOL    HW214526   6.026   5.912   1.501
 4543SOL     OW14527   4.758   1.967   0.286
 4543SOL    HW114528   4.841   1.950   0.339
 4543SOL    HW214529   4.707   2.042   0.327
 4544SOL     OW14530   2.511   6.043   0.138
 4544SOL    HW114531   2.604   6.055   0.104
 4544SOL    HW214532   2.452   6.112   0.096
 4545SOL     OW14533   4.098   2.265   5.389
 4545SOL    HW114534   4.004   2.300   5.395
 4545SOL    HW214535   4.096   2.165   5.385
 4546SOL     OW14536   0.698   0.101   6.001
 4546SOL    HW114537   0.783   0.105   5.949
 4546SOL    HW214538   0.631   0.045   5.951
 4547SOL     OW14539   5.384   2.710   1.685
 4547SOL    HW114540   5.463   2.671   1.732
 4547SOL    HW214541   5.304   2.651   1.700
 4548SOL     OW14542   0.577   4.927   4.444
 4548SOL    HW114543   0.637   4.922   4.365
 4548SOL    HW214544   0.575   5.021   4.479
 4549SOL     OW14545   6.893   3.422   3.768
 4549SOL    HW114546   6.871   3.495   3.703
 4549SOL    HW214547   6.979   3.379   3.742
 4550SOL     OW14548   0.717   6.534   3.828
 4550SOL    HW114549   0.662   6.515   3.909
 4550SOL    HW214550   0.814   6.530   3.853
 4551SOL     OW14551   0.452   2.458   5.402
 4551SOL    HW114552   0.488   2.389   5.466
 4551SOL    HW214553   0.437   2.417   5.313
 4552SOL     OW14554   0.604   3.130   5.689
 4552SOL    HW114555   0.515   3.177   5.698
 4552SOL    HW214556   0.663   3.156   5.765
 4553SOL     OW14557   4.263   4.655   7.017
 4553SOL    HW114558   4.299   4.690   6.931
 4553SOL    HW214559   4.339   4.640   0.055
 4554SOL     OW14560   3.757   0.613   2.327
 4554SOL    HW114561   3.835   0.550   2.334
 4554SOL    HW214562   3.741   0.635   2.230
 4555SOL     OW14563   4.408   2.177   6.724
 4555SOL    HW114564   4.344   2.252   6.704
 4555SOL    HW214565   4.487   2.213   6.773
 4556SOL     OW14566   3.883   0.984   3.516
 4556SOL    HW114567   3.959   0.934   3.475
 4556SOL    HW214568   3.800   0.930   3.509
 4557SOL     OW14569   4.926   0.266   4.758
 4557SOL    HW114570   5.019   0.283   4.727
 4557SOL    HW214571   4.910   0.313   4.845
 4558SOL     OW14572   6.211   3.772   6.248
 4558SOL    HW114573   6.170   3.846   6.303
 4558SOL    HW214574   6.156   3.757   6.166
 4559SOL     OW14575   1.547   6.498   1.067
 4559SOL    HW114576   1.639   6.516   1.100
 4559SOL    HW214577   1.551   6.438   0.987
 4560SOL     OW14578   4.931   3.729   3.175
 4560SOL    HW114579   5.023   3.715   3.138
 4560SOL    HW214580   4.907   3.652   3.234
 4561SOL     OW14581   2.839   1.347   0.315
 4561SOL    HW114582   2.907   1.388   0.254
 4561SOL    HW214583   2.871   1.355   0.410
 4562SOL     OW14584   3.010   5.685   5.653
 4562SOL    HW114585   2.942   5.654   5.719
 4562SOL    HW214586   3.018   5.785   5.658
 4563SOL     OW14587   5.867   2.697   0.407
 4563SOL    HW114588   5.790   2.756   0.429
 4563SOL    HW214589   5.839   2.601   0.415
 4564SOL     OW14590   0.647   5.475   0.441
 4564SOL    HW114591   0.730   5.435   0.479
 4564SOL    HW214592   0.666   5.570   0.414
 4565SOL     OW14593   0.427   1.708   5.531
 4565SOL    HW114594   0.441   1.749   5.440
 4565SOL    HW214595   0.383   1.619   5.520
 4566SOL     OW14596   6.924   0.349   6.878
 4566SOL    HW114597   6.836   0.333   6.923
 4566SOL    HW214598   6.917   0.325   6.781
 4567SOL     OW14599   0.380   0.281   1.023
 4567SOL    HW114600   0.460   0.262   0.967
 4567SOL    HW214601   0.299   0.241   0.981
 4568SOL     OW14602   2.333   4.551   5.422
 4568SOL    HW114603   2.393   4.479   5.458
 4568SOL    HW214604   2.295   4.521   5.334
 4569SOL     OW14605   1.133   2.335   3.982
 4569SOL    HW114606   1.071   2.344   3.904
 4569SOL    HW214607   1.227   2.335   3.950
 4570SOL     OW14608   6.994   5.879   3.366
 4570SOL    HW114609   0.042   5.818   3.334
 4570SOL    HW214610   0.009   5.957   3.414
 4571SOL     OW14611   2.906   3.660   4.764
 4571SOL    HW114612   2.854   3.722   4.823
 4571SOL    HW214613   2.968   3.605   4.820
 4572SOL     OW14614   0.188   6.472   0.613
 4572SOL    HW114615   0.257   6.405   0.584
 4572SOL    HW214616   0.233   6.551   0.655
 4573SOL     OW14617   5.427   5.965   1.204
 4573SOL    HW114618   5.362   6.004   1.269
 4573SOL    HW214619   5.389   5.968   1.112
 4574SOL     OW14620   6.977   4.904   1.237
 4574SOL    HW114621   6.943   4.987   1.193
 4574SOL    HW214622   0.007   4.852   1.172
 4575SOL     OW14623   6.624   2.318   0.639
 4575SOL    HW114624   6.612   2.242   0.702
 4575SOL    HW214625   6.540   2.332   0.586
 4576SOL     OW14626   2.863   5.925   6.803
 4576SOL    HW114627   2.955   5.900   6.773
 4576SOL    HW214628   2.821   5.847   6.849
 4577SOL     OW14629   0.942   3.614   3.014
 4577SOL    HW114630   0.922   3.702   3.056
 4577SOL    HW214631   1.026   3.576   3.054
 4578SOL     OW14632   0.680   3.504   3.289
 4578SOL    HW114633   0.621   3.527   3.366
 4578SOL    HW214634   0.659   3.563   3.211
 4579SOL     OW14635   4.817   1.524   2.757
 4579SOL    HW114636   4.874   1.480   2.827
 4579SOL    HW214637   4.750   1.583   2.802
 4580SOL     OW14638   6.100   5.046   0.433
 4580SOL    HW114639   6.142   5.074   0.346
 4580SOL    HW214640   6.032   4.975   0.416
 4581SOL     OW14641   3.239   4.915   3.315
 4581SOL    HW114642   3.330   4.892   3.348
 4581SOL    HW214643   3.240   4.920   3.215
 4582SOL     OW14644   5.922   0.005   3.995
 4582SOL    HW114645   5.859   0.006   3.918
 4582SOL    HW214646   5.934   0.098   4.031
 4583SOL     OW14647   2.913   1.960   5.134
 4583SOL    HW114648   2.878   2.026   5.201
 4583SOL    HW214649   2.950   2.010   5.055
 4584SOL     OW14650   0.172   5.903   5.721
 4584SOL    HW114651   0.095   5.890   5.782
 4584SOL    HW214652   0.235   5.971   5.759
 4585SOL     OW14653   3.097   6.501   2.710
 4585SOL    HW114654   3.060   6.514   2.618
 4585SOL    HW214655   3.177   6.561   2.721
 4586SOL     OW14656   3.433   4.758   0.914
 4586SOL    HW114657   3.504   4.690   0.933
 4586SOL    HW214658   3.470   4.850   0.928
 4587SOL     OW14659   4.148   3.640   1.946
 4587SOL    HW114660   4.113   3.611   2.035
 4587SOL    HW214661   4.212   3.571   1.911
 4588SOL     OW14662   3.698   3.978   5.028
 4588SOL    HW114663   3.686   3.884   5.060
 4588SOL    HW214664   3.638   4.038   5.080
 4589SOL     OW14665   6.064   2.233   2.402
 4589SOL    HW114666   6.058   2.139   2.435
 4589SOL    HW214667   5.973   2.266   2.377
 4590SOL     OW14668   4.514   6.036   2.923
 4590SOL    HW114669   4.427   6.007   2.883
 4590SOL    HW214670   4.589   6.008   2.862
 4591SOL     OW14671   6.517   5.842   5.702
 4591SOL    HW114672   6.491   5.779   5.628
 4591SOL    HW214673   6.540   5.931   5.663
 4592SOL     OW14674   4.308   3.096   0.890
 4592SOL    HW114675   4.281   3.018   0.834
 4592SOL    HW214676   4.301   3.180   0.836
 4593SOL     OW14677   4.302   5.692   3.058
 4593SOL    HW114678   4.214   5.691   3.012
 4593SOL    HW214679   4.312   5.609   3.114
 4594SOL     OW14680   3.570   2.071   2.344
 4594SOL    HW114681   3.515   2.064   2.261
 4594SOL    HW214682   3.558   2.163   2.383
 4595SOL     OW14683   3.471   2.808   6.905
 4595SOL    HW114684   3.493   2.726   6.852
 4595SOL    HW214685   3.376   2.834   6.887
 4596SOL     OW14686   6.193   6.301   2.127
 4596SOL    HW114687   6.191   6.242   2.207
 4596SOL    HW214688   6.195   6.397   2.156
 4597SOL     OW14689   5.290   5.554   6.413
 4597SOL    HW114690   5.347   5.473   6.399
 4597SOL    HW214691   5.219   5.557   6.343
 4598SOL     OW14692   1.433   4.785   6.392
 4598SOL    HW114693   1.450   4.707   6.333
 4598SOL    HW214694   1.343   4.824   6.371
 4599SOL     OW14695   1.449   3.932   1.269
 4599SOL    HW114696   1.424   3.955   1.175
 4599SOL    HW214697   1.467   3.834   1.276
 4600SOL     OW14698   2.459   5.371   6.229
 4600SOL    HW114699   2.462   5.278   6.193
 4600SOL    HW214700   2.363   5.399   6.242
 4601SOL     OW14701   1.628   0.752   5.468
 4601SOL    HW114702   1.546   0.799   5.501
 4601SOL    HW214703   1.686   0.729   5.546
 4602SOL     OW14704   1.277   6.590   1.082
 4602SOL    HW114705   1.223   6.592   1.167
 4602SOL    HW214706   1.374   6.585   1.105
 4603SOL     OW14707   3.575   6.462   1.470
 4603SOL    HW114708   3.604   6.402   1.396
 4603SOL    HW214709   3.510   6.529   1.435
 4604SOL     OW14710   4.283   0.422   1.385
 4604SOL    HW114711   4.247   0.329   1.384
 4604SOL    HW214712   4.375   0.421   1.425
 4605SOL     OW14713   4.986   0.812   4.092
 4605SOL    HW114714   5.062   0.758   4.129
 4605SOL    HW214715   4.948   0.765   4.012
 4606SOL     OW14716   0.289   6.716   3.676
 4606SOL    HW114717   0.314   6.619   3.666
 4606SOL    HW214718   0.293   6.760   3.586
 4607SOL     OW14719   2.769   2.505   1.233
 4607SOL    HW114720   2.779   2.599   1.267
 4607SOL    HW214721   2.768   2.442   1.311
 4608SOL     OW14722   1.549   4.843   5.161
 4608SOL    HW114723   1.590   4.921   5.113
 4608SOL    HW214724   1.588   4.836   5.252
 4609SOL     OW14725   4.259   5.788   6.046
 4609SOL    HW114726   4.240   5.782   5.948
 4609SOL    HW214727   4.260   5.696   6.086
 4610SOL     OW14728   6.905   2.436   0.734
 4610SOL    HW114729   6.819   2.451   0.684
 4610SOL    HW214730   6.917   2.338   0.751
 4611SOL     OW14731   6.208   4.079   0.051
 4611SOL    HW114732   6.179   4.011   0.119
 4611SOL    HW214733   6.130   4.104   7.019
 4612SOL     OW14734   1.595   6.097   6.753
 4612SOL    HW114735   1.642   6.079   6.666
 4612SOL    HW214736   1.661   6.098   6.827
 4613SOL     OW14737   2.239   5.582   3.031
 4613SOL    HW114738   2.233   5.641   2.950
 4613SOL    HW214739   2.327   5.598   3.076
 4614SOL     OW14740   1.628   5.205   6.545
 4614SOL    HW114741   1.528   5.196   6.545
 4614SOL    HW214742   1.668   5.134   6.487
 4615SOL     OW14743   1.641   1.501   0.928
 4615SOL    HW114744   1.617   1.556   0.848
 4615SOL    HW214745   1.595   1.412   0.924
 4616SOL     OW14746   6.592   0.713   6.564
 4616SOL    HW114747   6.505   0.665   6.553
 4616SOL    HW214748   6.631   0.689   6.653
 4617SOL     OW14749   0.923   2.649   2.512
 4617SOL    HW114750   0.846   2.595   2.476
 4617SOL    HW214751   1.002   2.636   2.453
 4618SOL     OW14752   1.432   1.916   5.353
 4618SOL    HW114753   1.342   1.880   5.377
 4618SOL    HW214754   1.461   1.982   5.422
 4619SOL     OW14755   4.142   0.284   3.568
 4619SOL    HW114756   4.187   0.288   3.657
 4619SOL    HW214757   4.210   0.297   3.496
 4620SOL     OW14758   3.873   4.305   0.116
 4620SOL    HW114759   3.916   4.394   0.133
 4620SOL    HW214760   3.942   4.233   0.121
 4621SOL     OW14761   6.463   1.772   5.032
 4621SOL    HW114762   6.536   1.830   5.069
 4621SOL    HW214763   6.465   1.683   5.078
 4622SOL     OW14764   1.389   2.699   0.951
 4622SOL    HW114765   1.392   2.688   1.050
 4622SOL    HW214766   1.427   2.618   0.907
 4623SOL     OW14767   7.013   5.343   1.052
 4623SOL    HW114768   7.004   5.438   1.083
 4623SOL    HW214769   6.922   5.303   1.043
 4624SOL     OW14770   4.623   0.669   3.830
 4624SOL    HW114771   4.723   0.664   3.830
 4624SOL    HW214772   4.591   0.690   3.737
 4625SOL     OW14773   1.497   4.460   6.808
 4625SOL    HW114774   1.518   4.420   6.718
 4625SOL    HW214775   1.541   4.549   6.816
 4626SOL     OW14776   6.383   4.412   1.567
 4626SOL    HW114777   6.410   4.322   1.533
 4626SOL    HW214778   6.453   4.447   1.628
 4627SOL     OW14779   4.009   5.904   5.782
 4627SOL    HW114780   3.948   5.926   5.706
 4627SOL    HW214781   3.955   5.886   5.864
 4628SOL     OW14782   6.375   4.725   2.262
 4628SOL    HW114783   6.293   4.748   2.210
 4628SOL    HW214784   6.353   4.654   2.329
 4629SOL     OW14785   2.143   4.727   6.045
 4629SOL    HW114786   2.060   4.780   6.059
 4629SOL    HW214787   2.126   4.654   5.979
 4630SOL     OW14788   2.601   5.969   4.074
 4630SOL    HW114789   2.503   5.965   4.054
 4630SOL    HW214790   2.615   5.975   4.173
 4631SOL     OW14791   2.455   6.639   3.491
 4631SOL    HW114792   2.483   6.640   3.395
 4631SOL    HW214793   2.522   6.589   3.545
 4632SOL     OW14794   4.278   5.262   3.878
 4632SOL    HW114795   4.371   5.276   3.911
 4632SOL    HW214796   4.229   5.349   3.879
 4633SOL     OW14797   6.855   2.108   5.052
 4633SOL    HW114798   6.949   2.076   5.063
 4633SOL    HW214799   6.850   2.173   4.977
 4634SOL     OW14800   2.720   4.392   0.316
 4634SOL    HW114801   2.654   4.320   0.337
 4634SOL    HW214802   2.767   4.369   0.230
 4635SOL     OW14803   5.836   3.600   2.441
 4635SOL    HW114804   5.826   3.675   2.506
 4635SOL    HW214805   5.819   3.633   2.349
 4636SOL     OW14806   2.770   5.470   6.670
 4636SOL    HW114807   2.709   5.498   6.596
 4636SOL    HW214808   2.820   5.388   6.643
 4637SOL     OW14809   1.205   0.623   0.086
 4637SOL    HW114810   1.262   0.620   0.004
 4637SOL    HW214811   1.133   0.554   0.078
 4638SOL     OW14812   3.834   2.913   6.121
 4638SOL    HW114813   3.816   2.842   6.188
 4638SOL    HW214814   3.815   2.879   6.029
 4639SOL     OW14815   1.291   4.057   5.646
 4639SOL    HW114816   1.193   4.038   5.639
 4639SOL    HW214817   1.332   4.050   5.555
 4640SOL     OW14818   5.001   4.635   4.129
 4640SOL    HW114819   4.975   4.602   4.038
 4640SOL    HW214820   4.921   4.637   4.188
 4641SOL     OW14821   2.626   4.941   4.164
 4641SOL    HW114822   2.655   4.855   4.204
 4641SOL    HW214823   2.685   5.015   4.197
 4642SOL     OW14824   6.426   5.419   5.136
 4642SOL    HW114825   6.478   5.333   5.142
 4642SOL    HW214826   6.456   5.470   5.055
 4643SOL     OW14827   4.739   2.490   0.608
 4643SOL    HW114828   4.729   2.551   0.530
 4643SOL    HW214829   4.650   2.477   0.651
 4644SOL     OW14830   1.207   5.300   4.825
 4644SOL    HW114831   1.186   5.356   4.906
 4644SOL    HW214832   1.123   5.273   4.780
 4645SOL     OW14833   2.069   6.205   4.540
 4645SOL    HW114834   2.167   6.192   4.534
 4645SOL    HW214835   2.043   6.288   4.490
 4646SOL     OW14836   2.727   0.307   2.369
 4646SOL    HW114837   2.811   0.253   2.360
 4646SOL    HW214838   2.740   0.375   2.442
 4647SOL     OW14839   0.916   6.640   3.317
 4647SOL    HW114840   0.992   6.702   3.298
 4647SOL    HW214841   0.842   6.690   3.361
 4648SOL     OW14842   3.242   6.634   1.865
 4648SOL    HW114843   3.240   6.697   1.943
 4648SOL    HW214844   3.230   6.685   1.780
 4649SOL     OW14845   4.899   1.054   5.906
 4649SOL    HW114846   4.955   0.974   5.930
 4649SOL    HW214847   4.905   1.122   5.979
 4650SOL     OW14848   3.651   6.077   2.975
 4650SOL    HW114849   3.632   6.077   3.073
 4650SOL    HW214850   3.567   6.058   2.925
 4651SOL     OW14851   0.550   2.433   1.713
 4651SOL    HW114852   0.476   2.412   1.777
 4651SOL    HW214853   0.516   2.425   1.619
 4652SOL     OW14854   0.813   0.109   3.505
 4652SOL    HW114855   0.807   0.048   3.426
 4652SOL    HW214856   0.751   0.186   3.492
 4653SOL     OW14857   6.800   6.073   0.171
 4653SOL    HW114858   6.879   6.024   0.135
 4653SOL    HW214859   6.733   6.087   0.098
 4654SOL     OW14860   0.889   0.018   0.185
 4654SOL    HW114861   0.813   7.001   0.234
 4654SOL    HW214862   0.866   0.113   0.164
 4655SOL     OW14863   0.647   5.010   2.841
 4655SOL    HW114864   0.726   5.057   2.801
 4655SOL    HW214865   0.605   4.951   2.772
 4656SOL     OW14866   1.075   6.879   3.301
 4656SOL    HW114867   1.092   6.956   3.363
 4656SOL    HW214868   1.023   6.912   3.222
 4657SOL     OW14869   4.998   0.098   1.863
 4657SOL    HW114870   5.055   0.140   1.933
 4657SOL    HW214871   5.045   0.017   1.826
 4658SOL     OW14872   4.031   6.839   2.825
 4658SOL    HW114873   4.081   6.823   2.740
 4658SOL    HW214874   3.962   6.910   2.811
 4659SOL     OW14875   1.772   2.913   5.020
 4659SOL    HW114876   1.673   2.906   5.013
 4659SOL    HW214877   1.798   2.922   5.117
 4660SOL     OW14878   1.391   1.863   4.951
 4660SOL    HW114879   1.395   1.812   5.037
 4660SOL    HW214880   1.329   1.940   4.961
 4661SOL     OW14881   3.549   3.655   4.706
 4661SOL    HW114882   3.452   3.631   4.702
 4661SOL    HW214883   3.561   3.747   4.670
 4662SOL     OW14884   4.868   0.564   5.359
 4662SOL    HW114885   4.928   0.493   5.321
 4662SOL    HW214886   4.887   0.651   5.315
 4663SOL     OW14887   0.036   1.905   2.320
 4663SOL    HW114888   0.016   2.000   2.344
 4663SOL    HW214889   6.995   1.873   2.253
 4664SOL     OW14890   2.193   2.498   6.714
 4664SOL    HW114891   2.125   2.498   6.788
 4664SOL    HW214892   2.249   2.581   6.721
 4665SOL     OW14893   4.469   0.121   6.829
 4665SOL    HW114894   4.483   0.217   6.807
 4665SOL    HW214895   4.541   0.090   6.891
 4666SOL     OW14896   2.463   1.574   0.268
 4666SOL    HW114897   2.476   1.481   0.302
 4666SOL    HW214898   2.401   1.623   0.329
 4667SOL     OW14899   6.722   4.918   6.077
 4667SOL    HW114900   6.735   4.855   6.154
 4667SOL    HW214901   6.808   4.927   6.027
 4668SOL     OW14902   0.012   1.861   4.751
 4668SOL    HW114903   7.000   1.812   4.829
 4668SOL    HW214904   6.964   1.882   4.686
 4669SOL     OW14905   2.231   5.933   0.408
 4669SOL    HW114906   2.188   5.907   0.321
 4669SOL    HW214907   2.160   5.946   0.477
 4670SOL     OW14908   3.226   1.036   4.760
 4670SOL    HW114909   3.266   1.090   4.834
 4670SOL    HW214910   3.129   1.058   4.752
 4671SOL     OW14911   5.968   3.007   1.855
 4671SOL    HW114912   6.040   3.006   1.785
 4671SOL    HW214913   5.953   3.101   1.886
 4672SOL     OW14914   2.594   4.088   6.008
 4672SOL    HW114915   2.596   3.998   6.051
 4672SOL    HW214916   2.502   4.127   6.016
 4673SOL     OW14917   3.461   6.896   1.549
 4673SOL    HW114918   3.462   6.933   1.457
 4673SOL    HW214919   3.546   6.846   1.567
 4674SOL     OW14920   5.251   6.120   5.449
 4674SOL    HW114921   5.332   6.061   5.438
 4674SOL    HW214922   5.207   6.100   5.536
 4675SOL     OW14923   1.579   3.754   1.046
 4675SOL    HW114924   1.626   3.675   1.086
 4675SOL    HW214925   1.636   3.794   0.975
 4676SOL     OW14926   1.033   5.912   3.591
 4676SOL    HW114927   1.082   5.854   3.527
 4676SOL    HW214928   1.041   6.008   3.563
 4677SOL     OW14929   1.799   1.705   1.019
 4677SOL    HW114930   1.741   1.626   1.001
 4677SOL    HW214931   1.759   1.786   0.975
 4678SOL     OW14932   1.962   4.007   2.645
 4678SOL    HW114933   1.996   4.075   2.710
 4678SOL    HW214934   2.019   3.925   2.650
 4679SOL     OW14935   5.228   6.321   1.816
 4679SOL    HW114936   5.231   6.421   1.813
 4679SOL    HW214937   5.174   6.292   1.896
 4680SOL     OW14938   3.830   0.797   1.114
 4680SOL    HW114939   3.784   0.854   1.183
 4680SOL    HW214940   3.901   0.851   1.069
 4681SOL     OW14941   4.798   4.461   6.874
 4681SOL    HW114942   4.743   4.528   6.823
 4681SOL    HW214943   4.873   4.429   6.817
 4682SOL     OW14944   5.000   3.592   6.525
 4682SOL    HW114945   5.046   3.504   6.519
 4682SOL    HW214946   4.917   3.591   6.468
 4683SOL     OW14947   5.807   4.643   2.806
 4683SOL    HW114948   5.847   4.633   2.898
 4683SOL    HW214949   5.876   4.619   2.738
 4684SOL     OW14950   4.232   6.166   6.763
 4684SOL    HW114951   4.206   6.071   6.779
 4684SOL    HW214952   4.150   6.220   6.741
 4685SOL     OW14953   1.928   3.905   6.409
 4685SOL    HW114954   1.856   3.848   6.369
 4685SOL    HW214955   1.951   3.979   6.346
 4686SOL     OW14956   3.677   6.048   0.462
 4686SOL    HW114957   3.614   6.088   0.529
 4686SOL    HW214958   3.765   6.095   0.467
 4687SOL     OW14959   3.804   1.601   3.347
 4687SOL    HW114960   3.840   1.543   3.274
 4687SOL    HW214961   3.795   1.695   3.314
 4688SOL     OW14962   5.720   2.747   5.629
 4688SOL    HW114963   5.627   2.743   5.592
 4688SOL    HW214964   5.760   2.655   5.631
 4689SOL     OW14965   5.604   6.887   1.402
 4689SOL    HW114966   5.609   6.918   1.307
 4689SOL    HW214967   5.572   6.962   1.460
 4690SOL     OW14968   1.870   1.009   1.344
 4690SOL    HW114969   1.831   0.928   1.300
 4690SOL    HW214970   1.953   1.037   1.294
 4691SOL     OW14971   4.670   4.101   0.741
 4691SOL    HW114972   4.687   4.172   0.809
 4691SOL    HW214973   4.624   4.141   0.662
 4692SOL     OW14974   6.390   4.318   2.566
 4692SOL    HW114975   6.435   4.404   2.544
 4692SOL    HW214976   6.422   4.247   2.503
 4693SOL     OW14977   1.651   1.272   4.187
 4693SOL    HW114978   1.718   1.286   4.260
 4693SOL    HW214979   1.624   1.361   4.149
 4694SOL     OW14980   1.874   1.914   0.505
 4694SOL    HW114981   1.881   1.848   0.430
 4694SOL    HW214982   1.963   1.956   0.521
 4695SOL     OW14983   1.514   5.454   0.680
 4695SOL    HW114984   1.552   5.457   0.772
 4695SOL    HW214985   1.437   5.518   0.673
 4696SOL     OW14986   0.592   5.259   5.816
 4696SOL    HW114987   0.595   5.212   5.904
 4696SOL    HW214988   0.510   5.316   5.812
 4697SOL     OW14989   1.222   3.534   2.214
 4697SOL    HW114990   1.266   3.589   2.286
 4697SOL    HW214991   1.123   3.547   2.218
 4698SOL     OW14992   4.411   0.258   3.123
 4698SOL    HW114993   4.402   0.242   3.222
 4698SOL    HW214994   4.454   0.178   3.081
 4699SOL     OW14995   0.335   0.190   1.989
 4699SOL    HW114996   0.245   0.204   2.028
 4699SOL    HW214997   0.398   0.160   2.061
 4700SOL     OW14998   6.663   2.107   2.557
 4700SOL    HW114999   6.674   2.010   2.534
 4700SOL    HW215000   6.569   2.124   2.588
 4701SOL     OW15001   3.285   1.958   2.387
 4701SOL    HW115002   3.213   1.901   2.426
 4701SOL    HW215003   3.273   1.966   2.289
 4702SOL     OW15004   4.652   4.786   0.081
 4702SOL    HW115005   4.640   4.716   0.011
 4702SOL    HW215006   4.732   4.841   0.060
 4703SOL     OW15007   1.233   5.570   2.302
 4703SOL    HW115008   1.204   5.542   2.210
 4703SOL    HW215009   1.247   5.669   2.303
 4704SOL     OW15010   0.218   6.592   5.767
 4704SOL    HW115011   0.275   6.553   5.840
 4704SOL    HW215012   0.268   6.589   5.680
 4705SOL     OW15013   3.122   2.730   0.870
 4705SOL    HW115014   3.183   2.787   0.925
 4705SOL    HW215015   3.081   2.659   0.927
 4706SOL     OW15016   1.228   0.010   1.188
 4706SOL    HW115017   1.169   0.018   1.269
 4706SOL    HW215018   1.321   7.014   1.218
 4707SOL     OW15019   1.451   6.425   1.434
 4707SOL    HW115020   1.508   6.465   1.362
 4707SOL    HW215021   1.435   6.328   1.415
 4708SOL     OW15022   1.475   1.922   4.712
 4708SOL    HW115023   1.387   1.944   4.670
 4708SOL    HW215024   1.461   1.894   4.807
 4709SOL     OW15025   4.713   5.124   4.698
 4709SOL    HW115026   4.773   5.183   4.643
 4709SOL    HW215027   4.727   5.143   4.795
 4710SOL     OW15028   6.158   6.886   3.995
 4710SOL    HW115029   6.159   6.786   4.004
 4710SOL    HW215030   6.063   6.919   4.001
 4711SOL     OW15031   6.414   2.927   3.540
 4711SOL    HW115032   6.338   2.886   3.490
 4711SOL    HW215033   6.447   3.008   3.491
 4712SOL     OW15034   4.773   4.307   6.186
 4712SOL    HW115035   4.720   4.266   6.112
 4712SOL    HW215036   4.730   4.393   6.214
 4713SOL     OW15037   5.196   5.413   0.987
 4713SOL    HW115038   5.265   5.419   1.060
 4713SOL    HW215039   5.115   5.464   1.015
 4714SOL     OW15040   6.776   1.872   6.732
 4714SOL    HW115041   6.753   1.967   6.754
 4714SOL    HW215042   6.706   1.835   6.671
 4715SOL     OW15043   6.292   1.894   1.511
 4715SOL    HW115044   6.258   1.835   1.437
 4715SOL    HW215045   6.244   1.873   1.595
 4716SOL     OW15046   4.566   5.479   5.448
 4716SOL    HW115047   4.625   5.516   5.376
 4716SOL    HW215048   4.530   5.391   5.418
 4717SOL     OW15049   2.059   5.832   5.937
 4717SOL    HW115050   2.110   5.790   5.862
 4717SOL    HW215051   2.116   5.903   5.979
 4718SOL     OW15052   5.122   2.799   1.099
 4718SOL    HW115053   5.157   2.735   1.030
 4718SOL    HW215054   5.177   2.792   1.182
 4719SOL     OW15055   5.782   3.529   3.430
 4719SOL    HW115056   5.685   3.510   3.411
 4719SOL    HW215057   5.838   3.458   3.388
 4720SOL     OW15058   3.343   4.749   6.670
 4720SOL    HW115059   3.402   4.829   6.672
 4720SOL    HW215060   3.358   4.694   6.752
 4721SOL     OW15061   6.209   3.103   1.416
 4721SOL    HW115062   6.284   3.166   1.438
 4721SOL    HW215063   6.230   3.056   1.331
 4722SOL     OW15064   0.906   5.009   0.337
 4722SOL    HW115065   0.809   5.032   0.336
 4722SOL    HW215066   0.919   4.916   0.304
 4723SOL     OW15067   3.343   4.200   5.268
 4723SOL    HW115068   3.326   4.105   5.240
 4723SOL    HW215069   3.258   4.240   5.302
 4724SOL     OW15070   6.885   6.486   4.147
 4724SOL    HW115071   6.932   6.502   4.060
 4724SOL    HW215072   6.860   6.574   4.188
 4725SOL     OW15073   5.900   4.888   0.367
 4725SOL    HW115074   5.866   4.851   0.280
 4725SOL    HW215075   5.907   4.815   0.434
 4726SOL     OW15076   1.755   2.802   5.710
 4726SOL    HW115077   1.790   2.891   5.681
 4726SOL    HW215078   1.829   2.750   5.754
 4727SOL     OW15079   0.777   5.716   0.119
 4727SOL    HW115080   0.830   5.767   0.051
 4727SOL    HW215081   0.734   5.637   0.075
 4728SOL     OW15082   6.368   1.641   2.877
 4728SOL    HW115083   6.390   1.578   2.952
 4728SOL    HW215084   6.350   1.588   2.794
 4729SOL     OW15085   4.729   0.106   6.924
 4729SOL    HW115086   4.751   0.202   6.941
 4729SOL    HW215087   4.813   0.052   6.924
 4730SOL     OW15088   3.788   6.727   4.979
 4730SOL    HW115089   3.806   6.682   4.891
 4730SOL    HW215090   3.849   6.805   4.990
 4731SOL     OW15091   3.012   0.577   0.985
 4731SOL    HW115092   2.990   0.589   0.888
 4731SOL    HW215093   3.020   0.479   1.005
 4732SOL     OW15094   1.063   3.403   5.162
 4732SOL    HW115095   1.107   3.359   5.241
 4732SOL    HW215096   0.991   3.464   5.194
 4733SOL     OW15097   1.813   4.563   3.001
 4733SOL    HW115098   1.813   4.526   2.908
 4733SOL    HW215099   1.908   4.575   3.032
 4734SOL     OW15100   5.095   3.340   6.553
 4734SOL    HW115101   5.041   3.308   6.631
 4734SOL    HW215102   5.187   3.364   6.583
 4735SOL     OW15103   6.988   6.113   3.622
 4735SOL    HW115104   6.952   6.206   3.617
 4735SOL    HW215105   0.061   6.114   3.606
 4736SOL     OW15106   6.037   2.290   4.016
 4736SOL    HW115107   6.073   2.200   4.043
 4736SOL    HW215108   5.954   2.309   4.067
 4737SOL     OW15109   2.270   4.209   0.857
 4737SOL    HW115110   2.342   4.207   0.788
 4737SOL    HW215111   2.202   4.139   0.836
 4738SOL     OW15112   3.439   6.771   3.660
 4738SOL    HW115113   3.362   6.740   3.604
 4738SOL    HW215114   3.406   6.792   3.752
 4739SOL     OW15115   6.302   2.452   4.364
 4739SOL    HW115116   6.220   2.494   4.402
 4739SOL    HW215117   6.367   2.434   4.438
 4740SOL     OW15118   0.539   0.797   1.013
 4740SOL    HW115119   0.611   0.812   1.080
 4740SOL    HW215120   0.469   0.868   1.021
 4741SOL     OW15121   4.426   4.661   1.284
 4741SOL    HW115122   4.448   4.630   1.192
 4741SOL    HW215123   4.501   4.639   1.346
 4742SOL     OW15124   2.589   5.257   1.415
 4742SOL    HW115125   2.511   5.320   1.416
 4742SOL    HW215126   2.577   5.188   1.486
 4743SOL     OW15127   2.468   1.205   5.951
 4743SOL    HW115128   2.406   1.276   5.983
 4743SOL    HW215129   2.551   1.247   5.914
 4744SOL     OW15130   2.311   2.479   5.326
 4744SOL    HW115131   2.360   2.562   5.298
 4744SOL    HW215132   2.280   2.430   5.245
 4745SOL     OW15133   3.047   5.096   6.183
 4745SOL    HW115134   3.012   5.031   6.115
 4745SOL    HW215135   3.092   5.046   6.257
 4746SOL     OW15136   5.671   5.685   0.739
 4746SOL    HW115137   5.615   5.657   0.661
 4746SOL    HW215138   5.629   5.764   0.783
 4747SOL     OW15139   0.252   2.964   6.731
 4747SOL    HW115140   0.310   3.044   6.742
 4747SOL    HW215141   0.169   2.990   6.682
 4748SOL     OW15142   0.949   0.280   1.941
 4748SOL    HW115143   0.917   0.210   1.877
 4748SOL    HW215144   0.900   0.365   1.925
 4749SOL     OW15145   2.850   6.675   6.709
 4749SOL    HW115146   2.810   6.767   6.716
 4749SOL    HW215147   2.786   6.615   6.661
 4750SOL     OW15148   6.701   1.846   4.265
 4750SOL    HW115149   6.783   1.900   4.251
 4750SOL    HW215150   6.626   1.905   4.297
 4751SOL     OW15151   2.198   3.571   6.994
 4751SOL    HW115152   2.261   3.629   6.942
 4751SOL    HW215153   2.239   3.481   7.007
 4752SOL     OW15154   2.595   6.115   0.826
 4752SOL    HW115155   2.579   6.210   0.801
 4752SOL    HW215156   2.617   6.062   0.744
 4753SOL     OW15157   5.720   0.157   4.697
 4753SOL    HW115158   5.787   0.141   4.769
 4753SOL    HW215159   5.754   0.121   4.611
 4754SOL     OW15160   6.100   0.980   6.161
 4754SOL    HW115161   6.177   1.034   6.127
 4754SOL    HW215162   6.037   0.961   6.086
 4755SOL     OW15163   2.522   0.526   6.338
 4755SOL    HW115164   2.531   0.492   6.245
 4755SOL    HW215165   2.608   0.510   6.387
 4756SOL     OW15166   5.787   2.436   2.049
 4756SOL    HW115167   5.690   2.462   2.050
 4756SOL    HW215168   5.797   2.347   2.004
 4757SOL     OW15169   2.204   2.309   2.120
 4757SOL    HW115170   2.151   2.276   2.043
 4757SOL    HW215171   2.226   2.406   2.107
 4758SOL     OW15172   3.960   6.197   5.119
 4758SOL    HW115173   3.942   6.295   5.110
 4758SOL    HW215174   4.056   6.183   5.143
 4759SOL     OW15175   5.035   5.420   4.972
 4759SOL    HW115176   5.064   5.445   5.065
 4759SOL    HW215177   4.967   5.347   4.978
 4760SOL     OW15178   2.491   1.686   1.225
 4760SOL    HW115179   2.442   1.623   1.285
 4760SOL    HW215180   2.557   1.739   1.279
 4761SOL     OW15181   6.542   0.272   6.229
 4761SOL    HW115182   6.606   0.328   6.281
 4761SOL    HW215183   6.586   0.239   6.146
 4762SOL     OW15184   1.999   4.563   2.575
 4762SOL    HW115185   2.063   4.515   2.634
 4762SOL    HW215186   2.035   4.566   2.482
 4763SOL     OW15187   6.143   5.924   3.154
 4763SOL    HW115188   6.204   5.968   3.219
 4763SOL    HW215189   6.196   5.863   3.094
 4764SOL     OW15190   4.613   4.022   5.316
 4764SOL    HW115191   4.616   4.008   5.415
 4764SOL    HW215192   4.652   3.942   5.270
 4765SOL     OW15193   4.508   6.586   4.838
 4765SOL    HW115194   4.583   6.525   4.867
 4765SOL    HW215195   4.495   6.658   4.906
 4766SOL     OW15196   3.338   0.621   3.456
 4766SOL    HW115197   3.240   0.624   3.434
 4766SOL    HW215198   3.349   0.597   3.552
 4767SOL     OW15199   4.198   6.412   1.062
 4767SOL    HW115200   4.166   6.506   1.052
 4767SOL    HW215201   4.210   6.371   0.971
 4768SOL     OW15202   5.375   1.946   4.823
 4768SOL    HW115203   5.357   1.949   4.921
 4768SOL    HW215204   5.471   1.970   4.806
 4769SOL     OW15205   3.947   5.294   1.401
 4769SOL    HW115206   4.003   5.213   1.415
 4769SOL    HW215207   3.935   5.309   1.303
 4770SOL     OW15208   1.947   7.014   3.022
 4770SOL    HW115209   2.026   0.051   3.031
 4770SOL    HW215210   1.867   0.033   3.062
 4771SOL     OW15211   3.470   4.850   5.866
 4771SOL    HW115212   3.512   4.766   5.833
 4771SOL    HW215213   3.535   4.900   5.923
 4772SOL     OW15214   2.759   6.661   1.010
 4772SOL    HW115215   2.731   6.567   0.991
 4772SOL    HW215216   2.679   6.721   1.008
 4773SOL     OW15217   0.276   5.633   4.304
 4773SOL    HW115218   0.240   5.726   4.293
 4773SOL    HW215219   0.328   5.608   4.222
 4774SOL     OW15220   0.745   3.031   2.470
 4774SOL    HW115221   0.812   3.031   2.396
 4774SOL    HW215222   0.692   3.116   2.466
 4775SOL     OW15223   5.886   0.544   3.046
 4775SOL    HW115224   5.840   0.555   2.958
 4775SOL    HW215225   5.970   0.599   3.048
 4776SOL     OW15226   2.588   6.578   2.929
 4776SOL    HW115227   2.687   6.575   2.916
 4776SOL    HW215228   2.547   6.645   2.867
 4777SOL     OW15229   2.344   4.377   1.311
 4777SOL    HW115230   2.284   4.450   1.278
 4777SOL    HW215231   2.435   4.387   1.270
 4778SOL     OW15232   5.530   2.493   1.973
 4778SOL    HW115233   5.458   2.426   1.957
 4778SOL    HW215234   5.576   2.515   1.887
 4779SOL     OW15235   6.462   0.296   2.657
 4779SOL    HW115236   6.531   0.235   2.618
 4779SOL    HW215237   6.379   0.292   2.600
 4780SOL     OW15238   0.479   0.484   6.127
 4780SOL    HW115239   0.465   0.495   6.028
 4780SOL    HW215240   0.530   0.562   6.162
 4781SOL     OW15241   2.649   5.842   1.474
 4781SOL    HW115242   2.699   5.911   1.525
 4781SOL    HW215243   2.613   5.883   1.390
 4782SOL     OW15244   4.545   6.734   6.965
 4782SOL    HW115245   4.465   6.679   6.940
 4782SOL    HW215246   4.522   6.795   0.015
 4783SOL     OW15247   4.400   4.560   0.503
 4783SOL    HW115248   4.481   4.564   0.444
 4783SOL    HW215249   4.393   4.469   0.545
 4784SOL     OW15250   6.049   5.376   6.145
 4784SOL    HW115251   5.973   5.385   6.080
 4784SOL    HW215252   6.065   5.280   6.166
 4785SOL     OW15253   6.573   6.307   1.027
 4785SOL    HW115254   6.589   6.394   1.075
 4785SOL    HW215255   6.658   6.275   0.986
 4786SOL     OW15256   1.644   2.236   2.404
 4786SOL    HW115257   1.717   2.169   2.415
 4786SOL    HW215258   1.581   2.231   2.481
 4787SOL     OW15259   3.648   2.136   3.679
 4787SOL    HW115260   3.612   2.143   3.772
 4787SOL    HW215261   3.747   2.138   3.680
 4788SOL     OW15262   1.414   5.480   5.839
 4788SOL    HW115263   1.315   5.465   5.830
 4788SOL    HW215264   1.443   5.551   5.775
 4789SOL     OW15265   5.097   0.742   6.946
 4789SOL    HW115266   5.181   0.739   6.891
 4789SOL    HW215267   5.022   0.778   6.891
 4790SOL     OW15268   5.743   3.267   6.945
 4790SOL    HW115269   5.838   3.237   6.930
 4790SOL    HW215270   5.707   3.306   6.861
 4791SOL     OW15271   5.830   1.468   1.832
 4791SOL    HW115272   5.746   1.479   1.779
 4791SOL    HW215273   5.881   1.389   1.797
 4792SOL     OW15274   2.045   2.525   2.442
 4792SOL    HW115275   2.099   2.441   2.441
 4792SOL    HW215276   1.953   2.505   2.407
 4793SOL     OW15277   1.332   1.342   5.845
 4793SOL    HW115278   1.366   1.377   5.932
 4793SOL    HW215279   1.390   1.267   5.814
 4794SOL     OW15280   3.668   0.407   2.752
 4794SOL    HW115281   3.656   0.365   2.842
 4794SOL    HW215282   3.766   0.409   2.730
 4795SOL     OW15283   6.666   2.712   4.045
 4795SOL    HW115284   6.727   2.774   3.996
 4795SOL    HW215285   6.716   2.630   4.072
 4796SOL     OW15286   5.313   2.051   0.073
 4796SOL    HW115287   5.282   2.110   7.023
 4796SOL    HW215288   5.244   1.981   0.092
 4797SOL     OW15289   1.776   6.192   5.354
 4797SOL    HW115290   1.858   6.249   5.367
 4797SOL    HW215291   1.792   6.101   5.393
 4798SOL     OW15292   0.543   4.133   5.395
 4798SOL    HW115293   0.473   4.149   5.326
 4798SOL    HW215294   0.550   4.035   5.413
 4799SOL     OW15295   5.100   1.402   5.500
 4799SOL    HW115296   5.073   1.322   5.553
 4799SOL    HW215297   5.145   1.468   5.560
 4800SOL     OW15298   3.522   3.356   5.759
 4800SOL    HW115299   3.612   3.363   5.801
 4800SOL    HW215300   3.455   3.405   5.814
 4801SOL     OW15301   2.586   2.169   0.352
 4801SOL    HW115302   2.578   2.268   0.360
 4801SOL    HW215303   2.568   2.142   0.257
 4802SOL     OW15304   1.005   6.230   2.141
 4802SOL    HW115305   0.983   6.282   2.223
 4802SOL    HW215306   0.935   6.159   2.127
 4803SOL     OW15307   1.101   6.495   0.760
 4803SOL    HW115308   1.179   6.519   0.817
 4803SOL    HW215309   1.088   6.396   0.762
 4804SOL     OW15310   4.214   5.158   6.430
 4804SOL    HW115311   4.185   5.193   6.519
 4804SOL    HW215312   4.204   5.059   6.428
 4805SOL     OW15313   6.720   6.944   0.492
 4805SOL    HW115314   6.626   6.940   0.527
 4805SOL    HW215315   6.730   6.882   0.415
 4806SOL     OW15316   6.692   3.660   3.906
 4806SOL    HW115317   6.751   3.738   3.928
 4806SOL    HW215318   6.685   3.652   3.807
 4807SOL     OW15319   1.281   5.602   0.993
 4807SOL    HW115320   1.305   5.511   1.028
 4807SOL    HW215321   1.365   5.657   0.984
 4808SOL     OW15322   5.813   3.741   0.734
 4808SOL    HW115323   5.905   3.705   0.719
 4808SOL    HW215324   5.748   3.664   0.742
 4809SOL     OW15325   3.609   4.450   0.072
 4809SOL    HW115326   3.582   4.502   7.016
 4809SOL    HW215327   3.678   4.382   0.047
 4810SOL     OW15328   1.460   4.914   1.218
 4810SOL    HW115329   1.541   4.864   1.186
 4810SOL    HW215330   1.419   4.866   1.296
 4811SOL     OW15331   2.507   4.865   2.290
 4811SOL    HW115332   2.449   4.874   2.210
 4811SOL    HW215333   2.501   4.949   2.345
 4812SOL     OW15334   6.695   5.008   5.400
 4812SOL    HW115335   6.653   4.960   5.323
 4812SOL    HW215336   6.734   4.942   5.464
 4813SOL     OW15337   4.639   0.998   2.330
 4813SOL    HW115338   4.640   0.938   2.409
 4813SOL    HW215339   4.562   0.973   2.271
 4814SOL     OW15340   5.915   4.977   0.089
 4814SOL    HW115341   5.828   5.021   0.111
 4814SOL    HW215342   5.990   5.037   0.115
 4815SOL     OW15343   5.101   5.324   2.535
 4815SOL    HW115344   5.016   5.356   2.493
 4815SOL    HW215345   5.166   5.301   2.463
 4816SOL     OW15346   5.656   5.416   3.584
 4816SOL    HW115347   5.664   5.388   3.488
 4816SOL    HW215348   5.561   5.411   3.613
 4817SOL     OW15349   0.641   2.122   6.424
 4817SOL    HW115350   0.578   2.048   6.447
 4817SOL    HW215351   0.710   2.131   6.496
 4818SOL     OW15352   0.901   0.300   4.084
 4818SOL    HW115353   0.808   0.263   4.076
 4818SOL    HW215354   0.958   0.264   4.011
 4819SOL     OW15355   1.563   2.960   0.318
 4819SOL    HW115356   1.476   3.008   0.329
 4819SOL    HW215357   1.612   2.998   0.239
 4820SOL     OW15358   6.793   2.925   2.057
 4820SOL    HW115359   6.722   2.904   1.990
 4820SOL    HW215360   6.762   2.998   2.117
 4821SOL     OW15361   0.823   6.027   2.093
 4821SOL    HW115362   0.772   6.052   2.011
 4821SOL    HW215363   0.869   5.939   2.079
 4822SOL     OW15364   1.537   4.056   4.123
 4822SOL    HW115365   1.524   4.009   4.036
 4822SOL    HW215366   1.551   3.988   4.196
 4823SOL     OW15367   1.223   1.803   2.627
 4823SOL    HW115368   1.245   1.792   2.724
 4823SOL    HW215369   1.300   1.844   2.579
 4824SOL     OW15370   4.994   1.857   5.398
 4824SOL    HW115371   4.922   1.833   5.332
 4824SOL    HW215372   5.075   1.801   5.379
 4825SOL     OW15373   0.987   1.266   4.333
 4825SOL    HW115374   0.962   1.284   4.428
 4825SOL    HW215375   0.923   1.313   4.272
 4826SOL     OW15376   5.022   0.419   0.812
 4826SOL    HW115377   4.993   0.515   0.820
 4826SOL    HW215378   4.969   0.363   0.876
 4827SOL     OW15379   6.482   1.528   0.211
 4827SOL    HW115380   6.520   1.611   0.169
 4827SOL    HW215381   6.434   1.552   0.295
 4828SOL     OW15382   4.336   0.079   1.893
 4828SOL    HW115383   4.435   0.079   1.881
 4828SOL    HW215384   4.292   0.095   1.804
 4829SOL     OW15385   3.910   6.709   6.394
 4829SOL    HW115386   3.935   6.624   6.348
 4829SOL    HW215387   3.906   6.693   6.493
 4830SOL     OW15388   3.768   5.559   3.631
 4830SOL    HW115389   3.821   5.615   3.567
 4830SOL    HW215390   3.738   5.616   3.707
 4831SOL     OW15391   2.971   5.637   5.984
 4831SOL    HW115392   2.949   5.592   6.071
 4831SOL    HW215393   3.068   5.624   5.963
 4832SOL     OW15394   3.608   3.493   4.255
 4832SOL    HW115395   3.563   3.419   4.305
 4832SOL    HW215396   3.549   3.574   4.255
 4833SOL     OW15397   5.542   2.009   3.632
 4833SOL    HW115398   5.530   1.998   3.533
 4833SOL    HW215399   5.624   2.064   3.649
 4834SOL     OW15400   2.501   5.607   2.837
 4834SOL    HW115401   2.507   5.527   2.897
 4834SOL    HW215402   2.502   5.578   2.742
 4835SOL     OW15403   6.292   3.931   5.937
 4835SOL    HW115404   6.363   3.863   5.917
 4835SOL    HW215405   6.218   3.887   5.988
 4836SOL     OW15406   4.591   1.384   5.464
 4836SOL    HW115407   4.658   1.349   5.529
 4836SOL    HW215408   4.558   1.473   5.495
 4837SOL     OW15409   6.720   3.083   3.540
 4837SOL    HW115410   6.680   2.992   3.529
 4837SOL    HW215411   6.675   3.131   3.615
 4838SOL     OW15412   1.287   5.208   6.054
 4838SOL    HW115413   1.377   5.168   6.073
 4838SOL    HW215414   1.278   5.225   5.956
 4839SOL     OW15415   1.572   2.822   6.940
 4839SOL    HW115416   1.497   2.847   7.002
 4839SOL    HW215417   1.558   2.865   6.851
 4840SOL     OW15418   5.320   3.991   5.402
 4840SOL    HW115419   5.398   4.009   5.343
 4840SOL    HW215420   5.260   3.923   5.360
 4841SOL     OW15421   3.189   5.294   3.345
 4841SOL    HW115422   3.280   5.264   3.371
 4841SOL    HW215423   3.132   5.215   3.323
 4842SOL     OW15424   2.295   5.187   3.581
 4842SOL    HW115425   2.359   5.244   3.529
 4842SOL    HW215426   2.346   5.130   3.645
 4843SOL     OW15427   0.025   2.860   2.098
 4843SOL    HW115428   6.956   2.891   2.085
 4843SOL    HW215429   0.049   2.862   2.195
 4844SOL     OW15430   1.097   4.496   5.453
 4844SOL    HW115431   1.009   4.487   5.499
 4844SOL    HW215432   1.132   4.405   5.431
 4845SOL     OW15433   4.512   4.597   5.217
 4845SOL    HW115434   4.578   4.537   5.263
 4845SOL    HW215435   4.470   4.548   5.141
 4846SOL     OW15436   0.659   2.280   3.711
 4846SOL    HW115437   0.694   2.368   3.744
 4846SOL    HW215438   0.666   2.213   3.785
 4847SOL     OW15439   2.763   7.014   5.601
 4847SOL    HW115440   2.756   6.932   5.657
 4847SOL    HW215441   2.715   7.000   5.514
 4848SOL     OW15442   1.975   1.108   3.988
 4848SOL    HW115443   1.997   1.081   3.894
 4848SOL    HW215444   2.047   1.077   4.049
 4849SOL     OW15445   1.628   0.245   0.528
 4849SOL    HW115446   1.617   0.307   0.606
 4849SOL    HW215447   1.622   0.297   0.443
 4850SOL     OW15448   4.630   0.471   1.162
 4850SOL    HW115449   4.541   0.463   1.117
 4850SOL    HW215450   4.692   0.522   1.103
 4851SOL     OW15451   3.839   5.670   0.351
 4851SOL    HW115452   3.838   5.584   0.403
 4851SOL    HW215453   3.801   5.655   0.260
 4852SOL     OW15454   3.617   5.911   5.070
 4852SOL    HW115455   3.573   5.913   5.160
 4852SOL    HW215456   3.653   6.002   5.049
 4853SOL     OW15457   3.399   0.622   2.788
 4853SOL    HW115458   3.324   0.684   2.764
 4853SOL    HW215459   3.484   0.674   2.797
 4854SOL     OW15460   5.364   6.525   2.014
 4854SOL    HW115461   5.459   6.543   1.990
 4854SOL    HW215462   5.360   6.461   2.091
 4855SOL     OW15463   0.114   3.872   4.836
 4855SOL    HW115464   0.173   3.817   4.777
 4855SOL    HW215465   0.123   3.841   4.931
 4856SOL     OW15466   0.224   3.274   2.843
 4856SOL    HW115467   0.232   3.366   2.803
 4856SOL    HW215468   0.285   3.267   2.922
 4857SOL     OW15469   3.295   2.151   4.258
 4857SOL    HW115470   3.333   2.193   4.340
 4857SOL    HW215471   3.196   2.161   4.257
 4858SOL     OW15472   0.534   0.142   5.326
 4858SOL    HW115473   0.556   0.045   5.335
 4858SOL    HW215474   0.436   0.154   5.318
 4859SOL     OW15475   0.932   5.255   2.322
 4859SOL    HW115476   0.856   5.294   2.269
 4859SOL    HW215477   0.919   5.156   2.330
 4860SOL     OW15478   4.356   5.484   0.339
 4860SOL    HW115479   4.367   5.582   0.357
 4860SOL    HW215480   4.433   5.434   0.378
 4861SOL     OW15481   6.480   4.917   5.575
 4861SOL    HW115482   6.540   4.899   5.653
 4861SOL    HW215483   6.533   4.957   5.500
 4862SOL     OW15484   2.574   4.702   5.053
 4862SOL    HW115485   2.673   4.702   5.042
 4862SOL    HW215486   2.543   4.793   5.080
 4863SOL     OW15487   4.967   3.217   2.603
 4863SOL    HW115488   5.065   3.222   2.585
 4863SOL    HW215489   4.922   3.300   2.571
 4864SOL     OW15490   3.469   1.611   2.164
 4864SOL    HW115491   3.392   1.659   2.122
 4864SOL    HW215492   3.471   1.631   2.262
 4865SOL     OW15493   3.208   5.270   5.803
 4865SOL    HW115494   3.224   5.171   5.804
 4865SOL    HW215495   3.215   5.306   5.897
 4866SOL     OW15496   6.434   4.946   1.926
 4866SOL    HW115497   6.367   4.876   1.951
 4866SOL    HW215498   6.388   5.035   1.924
 4867SOL     OW15499   5.078   5.184   3.172
 4867SOL    HW115500   5.027   5.129   3.238
 4867SOL    HW215501   5.048   5.160   3.079
 4868SOL     OW15502   0.586   5.749   1.309
 4868SOL    HW115503   0.546   5.735   1.218
 4868SOL    HW215504   0.605   5.660   1.351
 4869SOL     OW15505   0.215   1.812   0.092
 4869SOL    HW115506   0.287   1.868   0.132
 4869SOL    HW215507   0.138   1.805   0.155
 4870SOL     OW15508   4.046   6.103   2.044
 4870SOL    HW115509   4.016   6.023   2.095
 4870SOL    HW215510   4.091   6.075   1.960
 4871SOL     OW15511   1.420   1.744   3.285
 4871SOL    HW115512   1.330   1.712   3.254
 4871SOL    HW215513   1.444   1.695   3.369
 4872SOL     OW15514   0.734   0.192   2.776
 4872SOL    HW115515   0.678   0.257   2.828
 4872SOL    HW215516   0.830   0.217   2.784
 4873SOL     OW15517   0.399   5.377   4.966
 4873SOL    HW115518   0.362   5.435   4.894
 4873SOL    HW215519   0.369   5.283   4.951
 4874SOL     OW15520   4.908   3.587   2.849
 4874SOL    HW115521   4.982   3.581   2.782
 4874SOL    HW215522   4.879   3.683   2.857
 4875SOL     OW15523   5.819   1.255   1.201
 4875SOL    HW115524   5.794   1.162   1.229
 4875SOL    HW215525   5.918   1.267   1.209
 4876SOL     OW15526   5.802   0.655   6.151
 4876SOL    HW115527   5.838   0.690   6.238
 4876SOL    HW215528   5.702   0.650   6.157
 4877SOL     OW15529   6.325   2.187   0.841
 4877SOL    HW115530   6.349   2.283   0.834
 4877SOL    HW215531   6.396   2.131   0.798
 4878SOL     OW15532   0.409   1.350   2.030
 4878SOL    HW115533   0.426   1.299   2.114
 4878SOL    HW215534   0.429   1.447   2.046
 4879SOL     OW15535   4.446   4.591   3.279
 4879SOL    HW115536   4.409   4.605   3.187
 4879SOL    HW215537   4.507   4.512   3.279
 4880SOL     OW15538   5.759   0.859   0.047
 4880SOL    HW115539   5.777   0.807   0.131
 4880SOL    HW215540   5.800   0.950   0.055
 4881SOL     OW15541   2.804   6.199   6.303
 4881SOL    HW115542   2.855   6.223   6.221
 4881SOL    HW215543   2.861   6.216   6.384
 4882SOL     OW15544   6.215   1.573   5.297
 4882SOL    HW115545   6.168   1.651   5.256
 4882SOL    HW215546   6.151   1.498   5.311
 4883SOL     OW15547   6.060   4.195   2.292
 4883SOL    HW115548   6.103   4.105   2.297
 4883SOL    HW215549   6.004   4.201   2.209
 4884SOL     OW15550   4.138   6.595   1.645
 4884SOL    HW115551   4.197   6.515   1.658
 4884SOL    HW215552   4.153   6.660   1.719
 4885SOL     OW15553   2.131   6.587   1.100
 4885SOL    HW115554   2.179   6.559   1.018
 4885SOL    HW215555   2.137   6.514   1.169
 4886SOL     OW15556   6.426   6.940   6.871
 4886SOL    HW115557   6.483   6.911   6.794
 4886SOL    HW215558   6.452   0.007   6.899
 4887SOL     OW15559   6.668   2.246   3.651
 4887SOL    HW115560   6.720   2.178   3.599
 4887SOL    HW215561   6.645   2.209   3.741
 4888SOL     OW15562   1.766   6.153   3.100
 4888SOL    HW115563   1.831   6.203   3.041
 4888SOL    HW215564   1.762   6.197   3.189
 4889SOL     OW15565   1.296   2.022   0.193
 4889SOL    HW115566   1.377   2.077   0.175
 4889SOL    HW215567   1.249   2.058   0.274
 4890SOL     OW15568   0.553   1.314   4.039
 4890SOL    HW115569   0.581   1.409   4.051
 4890SOL    HW215570   0.536   1.295   3.942
 4891SOL     OW15571   1.052   4.959   0.593
 4891SOL    HW115572   1.113   5.034   0.617
 4891SOL    HW215573   0.957   4.990   0.596
 4892SOL     OW15574   1.354   5.944   1.852
 4892SOL    HW115575   1.401   5.964   1.766
 4892SOL    HW215576   1.349   5.845   1.866
 4893SOL     OW15577   6.553   4.332   6.262
 4893SOL    HW115578   6.612   4.251   6.257
 4893SOL    HW215579   6.542   4.359   6.357
 4894SOL     OW15580   1.623   0.317   3.337
 4894SOL    HW115581   1.553   0.386   3.320
 4894SOL    HW215582   1.581   0.237   3.381
 4895SOL     OW15583   0.974   3.660   0.761
 4895SOL    HW115584   1.018   3.695   0.678
 4895SOL    HW215585   1.006   3.714   0.839
 4896SOL     OW15586   3.528   5.136   4.228
 4896SOL    HW115587   3.524   5.050   4.278
 4896SOL    HW215588   3.439   5.156   4.188
 4897SOL     OW15589   3.508   5.608   6.933
 4897SOL    HW115590   3.586   5.565   6.889
 4897SOL    HW215591   3.466   5.674   6.870
 4898SOL     OW15592   5.882   2.522   5.393
 4898SOL    HW115593   5.950   2.449   5.391
 4898SOL    HW215594   5.859   2.545   5.487
 4899SOL     OW15595   6.270   4.817   3.112
 4899SOL    HW115596   6.261   4.915   3.134
 4899SOL    HW215597   6.256   4.763   3.195
 4900SOL     OW15598   0.396   6.718   5.568
 4900SOL    HW115599   0.447   6.726   5.654
 4900SOL    HW215600   0.316   6.777   5.571
 4901SOL     OW15601   1.361   0.367   4.259
 4901SOL    HW115602   1.445   0.322   4.288
 4901SOL    HW215603   1.364   0.463   4.287
 4902SOL     OW15604   2.072   4.513   1.630
 4902SOL    HW115605   2.107   4.557   1.713
 4902SOL    HW215606   2.046   4.419   1.650
 4903SOL     OW15607   3.906   6.712   6.657
 4903SOL    HW115608   3.986   6.657   6.683
 4903SOL    HW215609   3.898   6.790   6.719
 4904SOL     OW15610   1.625   5.665   4.675
 4904SOL    HW115611   1.547   5.602   4.672
 4904SOL    HW215612   1.655   5.677   4.769
 4905SOL     OW15613   4.832   2.673   2.350
 4905SOL    HW115614   4.922   2.708   2.378
 4905SOL    HW215615   4.812   2.703   2.257
 4906SOL     OW15616   4.590   6.981   0.454
 4906SOL    HW115617   4.535   6.976   0.537
 4906SOL    HW215618   4.687   6.974   0.478
 4907SOL     OW15619   4.155   6.773   3.859
 4907SOL    HW115620   4.131   6.694   3.915
 4907SOL    HW215621   4.253   6.774   3.841
 4908SOL     OW15622   3.693   5.624   6.747
 4908SOL    HW115623   3.767   5.672   6.795
 4908SOL    HW215624   3.665   5.677   6.667
 4909SOL     OW15625   6.175   6.682   5.073
 4909SOL    HW115626   6.237   6.729   5.010
 4909SOL    HW215627   6.085   6.726   5.069
 4910SOL     OW15628   5.253   0.734   5.367
 4910SOL    HW115629   5.324   0.748   5.435
 4910SOL    HW215630   5.168   0.706   5.412
 4911SOL     OW15631   0.070   2.215   6.143
 4911SOL    HW115632   0.105   2.254   6.228
 4911SOL    HW215633   0.064   2.287   6.074
 4912SOL     OW15634   3.914   1.716   2.533
 4912SOL    HW115635   3.944   1.771   2.456
 4912SOL    HW215636   3.849   1.647   2.502
 4913SOL     OW15637   3.491   4.065   3.619
 4913SOL    HW115638   3.417   4.019   3.568
 4913SOL    HW215639   3.452   4.111   3.699
 4914SOL     OW15640   2.937   0.498   4.099
 4914SOL    HW115641   2.921   0.596   4.092
 4914SOL    HW215642   2.927   0.469   4.194
 4915SOL     OW15643   4.464   6.408   4.413
 4915SOL    HW115644   4.462   6.485   4.477
 4915SOL    HW215645   4.457   6.442   4.320
 4916SOL     OW15646   3.000   2.007   3.023
 4916SOL    HW115647   2.945   2.049   3.095
 4916SOL    HW215648   3.088   2.054   3.018
 4917SOL     OW15649   1.733   3.982   0.653
 4917SOL    HW115650   1.793   3.946   0.724
 4917SOL    HW215651   1.706   3.908   0.591
 4918SOL     OW15652   2.713   0.525   2.517
 4918SOL    HW115653   2.637   0.588   2.503
 4918SOL    HW215654   2.752   0.539   2.607
 4919SOL     OW15655   1.667   1.852   2.741
 4919SOL    HW115656   1.636   1.865   2.835
 4919SOL    HW215657   1.617   1.776   2.700
 4920SOL     OW15658   4.604   0.667   0.220
 4920SOL    HW115659   4.691   0.669   0.171
 4920SOL    HW215660   4.529   0.660   0.155
 4921SOL     OW15661   2.427   3.968   1.673
 4921SOL    HW115662   2.363   4.005   1.740
 4921SOL    HW215663   2.380   3.900   1.617
 4922SOL     OW15664   1.741   3.229   5.469
 4922SOL    HW115665   1.802   3.169   5.520
 4922SOL    HW215666   1.787   3.316   5.451
 4923SOL     OW15667   5.235   0.288   2.269
 4923SOL    HW115668   5.232   0.192   2.297
 4923SOL    HW215669   5.330   0.318   2.263
 4924SOL     OW15670   1.452   3.761   4.162
 4924SOL    HW115671   1.509   3.770   4.080
 4924SOL    HW215672   1.511   3.750   4.242
 4925SOL     OW15673   4.650   6.476   1.141
 4925SOL    HW115674   4.616   6.557   1.188
 4925SOL    HW215675   4.730   6.440   1.188
 4926SOL     OW15676   5.627   2.574   1.738
 4926SOL    HW115677   5.702   2.638   1.754
 4926SOL    HW215678   5.663   2.487   1.705
 4927SOL     OW15679   3.699   3.100   2.494
 4927SOL    HW115680   3.796   3.083   2.480
 4927SOL    HW215681   3.649   3.080   2.409
 4928SOL     OW15682   0.675   6.948   6.514
 4928SOL    HW115683   0.637   0.007   6.552
 4928SOL    HW215684   0.641   6.870   6.566
 4929SOL     OW15685   1.255   4.181   5.089
 4929SOL    HW115686   1.162   4.145   5.082
 4929SOL    HW215687   1.278   4.230   5.004
 4930SOL     OW15688   1.164   1.908   0.630
 4930SOL    HW115689   1.097   1.834   0.633
 4930SOL    HW215690   1.140   1.971   0.556
 4931SOL     OW15691   0.861   0.249   6.772
 4931SOL    HW115692   0.846   0.341   6.808
 4931SOL    HW215693   0.775   0.197   6.774
 4932SOL     OW15694   2.784   2.876   1.648
 4932SOL    HW115695   2.874   2.834   1.656
 4932SOL    HW215696   2.719   2.810   1.610
 4933SOL     OW15697   2.502   1.253   4.393
 4933SOL    HW115698   2.523   1.198   4.313
 4933SOL    HW215699   2.452   1.335   4.366
 4934SOL     OW15700   0.581   5.165   4.161
 4934SOL    HW115701   0.657   5.115   4.203
 4934SOL    HW215702   0.564   5.129   4.069
 4935SOL     OW15703   2.207   0.946   6.821
 4935SOL    HW115704   2.283   0.998   6.860
 4935SOL    HW215705   2.241   0.859   6.786
 4936SOL     OW15706   2.877   5.689   1.388
 4936SOL    HW115707   2.965   5.726   1.417
 4936SOL    HW215708   2.803   5.742   1.430
 4937SOL     OW15709   0.650   3.946   6.019
 4937SOL    HW115710   0.740   3.905   6.009
 4937SOL    HW215711   0.587   3.906   5.951
 4938SOL     OW15712   3.283   4.272   1.256
 4938SOL    HW115713   3.298   4.197   1.321
 4938SOL    HW215714   3.188   4.271   1.225
 4939SOL     OW15715   1.838   1.789   1.573
 4939SOL    HW115716   1.843   1.788   1.473
 4939SOL    HW215717   1.767   1.725   1.603
 4940SOL     OW15718   6.816   2.736   4.759
 4940SOL    HW115719   6.810   2.643   4.723
 4940SOL    HW215720   6.912   2.762   4.769
 4941SOL     OW15721   3.995   2.581   5.404
 4941SOL    HW115722   4.043   2.538   5.480
 4941SOL    HW215723   4.056   2.590   5.326
 4942SOL     OW15724   5.595   3.265   3.733
 4942SOL    HW115725   5.683   3.250   3.778
 4942SOL    HW215726   5.524   3.280   3.802
 4943SOL     OW15727   5.694   3.444   6.711
 4943SOL    HW115728   5.678   3.540   6.733
 4943SOL    HW215729   5.667   3.426   6.616
 4944SOL     OW15730   1.428   4.743   0.800
 4944SOL    HW115731   1.456   4.821   0.743
 4944SOL    HW215732   1.509   4.701   0.840
 4945SOL     OW15733   2.096   1.282   5.317
 4945SOL    HW115734   2.077   1.254   5.223
 4945SOL    HW215735   2.097   1.381   5.323
 4946SOL     OW15736   1.229   4.423   6.918
 4946SOL    HW115737   1.215   4.495   6.986
 4946SOL    HW215738   1.304   4.449   6.857
 4947SOL     OW15739   2.438   0.629   2.169
 4947SOL    HW115740   2.420   0.714   2.120
 4947SOL    HW215741   2.355   0.575   2.174
 4948SOL     OW15742   2.073   2.130   1.944
 4948SOL    HW115743   1.979   2.107   1.919
 4948SOL    HW215744   2.136   2.094   1.875
 4949SOL     OW15745   6.560   3.620   6.014
 4949SOL    HW115746   6.491   3.548   6.020
 4949SOL    HW215747   6.532   3.688   5.947
 4950SOL     OW15748   2.513   4.364   5.495
 4950SOL    HW115749   2.585   4.392   5.432
 4950SOL    HW215750   2.547   4.291   5.554
 4951SOL     OW15751   6.193   6.409   3.705
 4951SOL    HW115752   6.166   6.505   3.704
 4951SOL    HW215753   6.153   6.363   3.784
 4952SOL     OW15754   6.966   0.421   6.406
 4952SOL    HW115755   7.001   0.428   6.313
 4952SOL    HW215756   6.876   0.465   6.411
 4953SOL     OW15757   1.032   1.747   4.683
 4953SOL    HW115758   1.013   1.732   4.780
 4953SOL    HW215759   0.946   1.764   4.634
 4954SOL     OW15760   2.619   4.195   5.690
 4954SOL    HW115761   2.593   4.141   5.770
 4954SOL    HW215762   2.713   4.174   5.664
 4955SOL     OW15763   3.107   5.271   0.238
 4955SOL    HW115764   3.059   5.208   0.299
 4955SOL    HW215765   3.198   5.237   0.218
 4956SOL     OW15766   2.807   0.593   5.250
 4956SOL    HW115767   2.902   0.624   5.263
 4956SOL    HW215768   2.774   0.551   5.335
 4957SOL     OW15769   6.180   4.447   6.980
 4957SOL    HW115770   6.192   4.546   6.991
 4957SOL    HW215771   6.126   4.429   6.897
 4958SOL     OW15772   2.277   6.985   5.798
 4958SOL    HW115773   2.305   0.006   5.881
 4958SOL    HW215774   2.284   0.022   5.720
 4959SOL     OW15775   0.007   2.308   1.496
 4959SOL    HW115776   0.040   2.401   1.482
 4959SOL    HW215777   6.973   2.305   1.577
 4960SOL     OW15778   4.188   5.220   3.609
 4960SOL    HW115779   4.202   5.310   3.570
 4960SOL    HW215780   4.213   5.221   3.706
 4961SOL     OW15781   2.908   1.074   6.790
 4961SOL    HW115782   2.908   1.107   6.885
 4961SOL    HW215783   2.927   0.976   6.789
 4962SOL     OW15784   6.581   3.338   0.873
 4962SOL    HW115785   6.642   3.341   0.793
 4962SOL    HW215786   6.636   3.332   0.956
 4963SOL     OW15787   0.916   5.015   0.906
 4963SOL    HW115788   0.923   4.924   0.946
 4963SOL    HW215789   0.885   5.008   0.812
 4964SOL     OW15790   2.598   6.408   4.711
 4964SOL    HW115791   2.525   6.380   4.649
 4964SOL    HW215792   2.646   6.327   4.745
 4965SOL     OW15793   1.485   0.020   3.023
 4965SOL    HW115794   1.401   0.054   3.067
 4965SOL    HW215795   1.489   6.946   3.032
 4966SOL     OW15796   3.035   6.088   4.528
 4966SOL    HW115797   2.977   6.110   4.607
 4966SOL    HW215798   3.011   5.998   4.493
 4967SOL     OW15799   4.007   4.684   5.300
 4967SOL    HW115800   3.969   4.776   5.309
 4967SOL    HW215801   3.939   4.617   5.329
 4968SOL     OW15802   0.588   1.018   4.262
 4968SOL    HW115803   0.493   0.991   4.243
 4968SOL    HW215804   0.630   0.950   4.323
 4969SOL     OW15805   0.477   6.706   2.237
 4969SOL    HW115806   0.477   6.615   2.277
 4969SOL    HW215807   0.499   6.700   2.139
 4970SOL     OW15808   1.505   0.540   1.605
 4970SOL    HW115809   1.554   0.626   1.619
 4970SOL    HW215810   1.435   0.529   1.675
 4971SOL     OW15811   6.476   6.102   2.796
 4971SOL    HW115812   6.489   6.200   2.812
 4971SOL    HW215813   6.510   6.050   2.873
 4972SOL     OW15814   1.146   4.146   1.110
 4972SOL    HW115815   1.097   4.216   1.059
 4972SOL    HW215816   1.235   4.128   1.067
 4973SOL     OW15817   0.158   0.329   1.367
 4973SOL    HW115818   0.095   0.383   1.423
 4973SOL    HW215819   0.108   0.291   1.289
 4974SOL     OW15820   4.471   3.916   6.334
 4974SOL    HW115821   4.566   3.895   6.312
 4974SOL    HW215822   4.433   3.845   6.393
 4975SOL     OW15823   5.421   4.050   0.822
 4975SOL    HW115824   5.417   4.119   0.895
 4975SOL    HW215825   5.516   4.023   0.807
 4976SOL     OW15826   0.446   0.547   4.696
 4976SOL    HW115827   0.389   0.612   4.646
 4976SOL    HW215828   0.423   0.549   4.793
 4977SOL     OW15829   3.217   3.947   6.793
 4977SOL    HW115830   3.182   4.031   6.835
 4977SOL    HW215831   3.286   3.907   6.853
 4978SOL     OW15832   5.188   4.361   5.187
 4978SOL    HW115833   5.285   4.383   5.178
 4978SOL    HW215834   5.166   4.343   5.283
 4979SOL     OW15835   1.092   6.597   6.738
 4979SOL    HW115836   1.064   6.513   6.784
 4979SOL    HW215837   1.185   6.587   6.703
 4980SOL     OW15838   0.032   4.341   2.637
 4980SOL    HW115839   0.015   4.365   2.733
 4980SOL    HW215840   0.112   4.282   2.631
 4981SOL     OW15841   3.343   4.862   2.001
 4981SOL    HW115842   3.292   4.852   2.086
 4981SOL    HW215843   3.439   4.838   2.017
 4982SOL     OW15844   4.256   1.883   6.506
 4982SOL    HW115845   4.171   1.921   6.543
 4982SOL    HW215846   4.331   1.900   6.570
 4983SOL     OW15847   6.310   5.204   4.244
 4983SOL    HW115848   6.350   5.290   4.213
 4983SOL    HW215849   6.211   5.214   4.252
 4984SOL     OW15850   4.675   4.205   2.738
 4984SOL    HW115851   4.584   4.240   2.716
 4984SOL    HW215852   4.703   4.138   2.669
 4985SOL     OW15853   5.298   5.964   2.475
 4985SOL    HW115854   5.276   6.048   2.524
 4985SOL    HW215855   5.395   5.945   2.483
 4986SOL     OW15856   6.791   4.400   1.715
 4986SOL    HW115857   6.842   4.474   1.670
 4986SOL    HW215858   6.804   4.407   1.814
 4987SOL     OW15859   0.739   6.680   2.597
 4987SOL    HW115860   0.677   6.726   2.533
 4987SOL    HW215861   0.796   6.748   2.643
 4988SOL     OW15862   6.073   0.710   3.962
 4988SOL    HW115863   6.107   0.676   3.874
 4988SOL    HW215864   6.013   0.641   4.003
 4989SOL     OW15865   4.812   0.334   1.333
 4989SOL    HW115866   4.729   0.358   1.284
 4989SOL    HW215867   4.820   0.234   1.339
 4990SOL     OW15868   3.992   2.000   0.069
 4990SOL    HW115869   4.085   1.985   0.034
 4990SOL    HW215870   3.989   1.972   0.165
 4991SOL     OW15871   0.215   5.885   4.237
 4991SOL    HW115872   0.224   5.912   4.142
 4991SOL    HW215873   0.147   5.943   4.282
 4992SOL     OW15874   6.710   1.020   3.170
 4992SOL    HW115875   6.663   1.017   3.259
 4992SOL    HW215876   6.786   1.085   3.175
 4993SOL     OW15877   4.681   6.832   5.014
 4993SOL    HW115878   4.737   6.818   5.096
 4993SOL    HW215879   4.725   6.900   4.955
 4994SOL     OW15880   2.336   5.251   5.198
 4994SOL    HW115881   2.345   5.162   5.242
 4994SOL    HW215882   2.255   5.251   5.138
 4995SOL     OW15883   0.750   0.878   4.672
 4995SOL    HW115884   0.808   0.802   4.703
 4995SOL    HW215885   0.737   0.871   4.573
 4996SOL     OW15886   0.233   1.367   4.166
 4996SOL    HW115887   0.323   1.387   4.206
 4996SOL    HW215888   0.240   1.367   4.067
 4997SOL     OW15889   3.603   2.218   1.511
 4997SOL    HW115890   3.698   2.247   1.498
 4997SOL    HW215891   3.578   2.230   1.608
 4998SOL     OW15892   1.784   3.570   3.343
 4998SOL    HW115893   1.825   3.479   3.334
 4998SOL    HW215894   1.687   3.565   3.320
 4999SOL     OW15895   0.815   3.511   5.197
 4999SOL    HW115896   0.736   3.573   5.200
 4999SOL    HW215897   0.804   3.446   5.121
 5000SOL     OW15898   3.010   6.217   3.451
 5000SOL    HW115899   3.012   6.148   3.523
 5000SOL    HW215900   3.037   6.175   3.364
 5001SOL     OW15901   0.228   5.711   2.522
 5001SOL    HW115902   0.245   5.808   2.507
 5001SOL    HW215903   0.179   5.699   2.609
 5002SOL     OW15904   0.891   4.388   2.626
 5002SOL    HW115905   0.919   4.293   2.612
 5002SOL    HW215906   0.933   4.423   2.710
 5003SOL     OW15907   3.997   6.205   2.749
 5003SOL    HW115908   4.092   6.175   2.751
 5003SOL    HW215909   3.985   6.282   2.812
 5004SOL     OW15910   2.715   5.533   5.874
 5004SOL    HW115911   2.728   5.588   5.792
 5004SOL    HW215912   2.772   5.570   5.949
 5005SOL     OW15913   2.072   3.303   6.186
 5005SOL    HW115914   2.068   3.217   6.238
 5005SOL    HW215915   2.156   3.306   6.133
 5006SOL     OW15916   5.226   1.012   2.184
 5006SOL    HW115917   5.211   1.074   2.261
 5006SOL    HW215918   5.158   1.030   2.113
 5007SOL     OW15919   6.820   0.596   0.462
 5007SOL    HW115920   6.906   0.571   0.417
 5007SOL    HW215921   6.764   0.649   0.399
 5008SOL     OW15922   6.430   5.500   1.356
 5008SOL    HW115923   6.496   5.560   1.310
 5008SOL    HW215924   6.356   5.478   1.293
 5009SOL     OW15925   0.917   2.856   0.088
 5009SOL    HW115926   0.903   2.757   0.088
 5009SOL    HW215927   0.991   2.879   0.152
 5010SOL     OW15928   3.895   2.047   0.573
 5010SOL    HW115929   3.981   2.026   0.618
 5010SOL    HW215930   3.896   2.009   0.480
 5011SOL     OW15931   1.785   4.382   0.696
 5011SOL    HW115932   1.701   4.431   0.671
 5011SOL    HW215933   1.864   4.438   0.672
 5012SOL     OW15934   5.893   3.224   5.620
 5012SOL    HW115935   5.809   3.180   5.590
 5012SOL    HW215936   5.937   3.268   5.541
 5013SOL     OW15937   5.831   0.610   5.308
 5013SOL    HW115938   5.891   0.686   5.333
 5013SOL    HW215939   5.811   0.614   5.210
 5014SOL     OW15940   6.818   4.356   0.224
 5014SOL    HW115941   6.838   4.333   0.129
 5014SOL    HW215942   6.748   4.427   0.227
 5015SOL     OW15943   5.132   1.015   4.707
 5015SOL    HW115944   5.193   0.959   4.763
 5015SOL    HW215945   5.171   1.027   4.616
 5016SOL     OW15946   0.959   2.713   5.115
 5016SOL    HW115947   0.908   2.699   5.030
 5016SOL    HW215948   1.056   2.722   5.094
 5017SOL     OW15949   1.134   2.428   1.104
 5017SOL    HW115950   1.162   2.492   1.175
 5017SOL    HW215951   1.035   2.412   1.110
 5018SOL     OW15952   1.118   4.775   2.389
 5018SOL    HW115953   1.183   4.710   2.428
 5018SOL    HW215954   1.157   4.815   2.306
 5019SOL     OW15955   1.876   5.920   5.734
 5019SOL    HW115956   1.945   5.969   5.680
 5019SOL    HW215957   1.912   5.902   5.825
 5020SOL     OW15958   0.162   6.528   5.150
 5020SOL    HW115959   0.176   6.489   5.059
 5020SOL    HW215960   0.170   6.627   5.145
 5021SOL     OW15961   1.075   0.423   1.598
 5021SOL    HW115962   1.136   0.384   1.529
 5021SOL    HW215963   0.983   0.433   1.560
 5022SOL     OW15964   0.524   3.023   1.331
 5022SOL    HW115965   0.551   3.114   1.361
 5022SOL    HW215966   0.567   3.002   1.243
 5023SOL     OW15967   6.932   4.629   1.516
 5023SOL    HW115968   6.920   4.573   1.433
 5023SOL    HW215969   0.002   4.622   1.547
 5024SOL     OW15970   5.548   4.961   0.930
 5024SOL    HW115971   5.455   4.973   0.963
 5024SOL    HW215972   5.550   4.886   0.863
 5025SOL     OW15973   3.650   1.698   3.781
 5025SOL    HW115974   3.590   1.619   3.772
 5025SOL    HW215975   3.719   1.680   3.851
 5026SOL     OW15976   0.044   5.180   4.924
 5026SOL    HW115977   0.134   5.153   4.890
 5026SOL    HW215978   0.002   5.245   4.860
 5027SOL     OW15979   6.059   0.486   1.014
 5027SOL    HW115980   5.996   0.412   1.037
 5027SOL    HW215981   6.077   0.541   1.095
 5028SOL     OW15982   6.814   2.040   3.500
 5028SOL    HW115983   6.756   2.039   3.418
 5028SOL    HW215984   6.907   2.066   3.473
 5029SOL     OW15985   6.570   2.597   2.580
 5029SOL    HW115986   6.664   2.628   2.565
 5029SOL    HW215987   6.522   2.593   2.493
 5030SOL     OW15988   6.922   6.188   6.103
 5030SOL    HW115989   6.875   6.125   6.041
 5030SOL    HW215990   6.857   6.223   6.171
 5031SOL     OW15991   6.864   1.079   5.490
 5031SOL    HW115992   6.883   0.988   5.454
 5031SOL    HW215993   6.876   1.147   5.417
 5032SOL     OW15994   2.607   2.028   6.329
 5032SOL    HW115995   2.560   2.017   6.242
 5032SOL    HW215996   2.639   2.123   6.337
 5033SOL     OW15997   2.132   0.712   0.196
 5033SOL    HW115998   2.073   0.793   0.192
 5033SOL    HW215999   2.189   0.718   0.278
 5034SOL     OW16000   5.011   6.709   3.613
 5034SOL    HW116001   5.041   6.669   3.700
 5034SOL    HW216002   4.999   6.807   3.624
 5035SOL     OW16003   0.785   3.460   5.484
 5035SOL    HW116004   0.811   3.508   5.400
 5035SOL    HW216005   0.786   3.361   5.467
 5036SOL     OW16006   6.114   5.114   6.196
 5036SOL    HW116007   6.046   5.045   6.224
 5036SOL    HW216008   6.160   5.084   6.113
 5037SOL     OW16009   4.799   4.708   1.515
 5037SOL    HW116010   4.823   4.705   1.613
 5037SOL    HW216011   4.767   4.618   1.487
 5038SOL     OW16012   3.982   3.135   4.043
 5038SOL    HW116013   3.983   3.100   3.949
 5038SOL    HW216014   3.946   3.064   4.104
 5039SOL     OW16015   2.424   3.190   5.932
 5039SOL    HW116016   2.383   3.145   6.011
 5039SOL    HW216017   2.485   3.263   5.964
 5040SOL     OW16018   0.980   5.826   5.101
 5040SOL    HW116019   0.928   5.850   5.019
 5040SOL    HW216020   0.921   5.776   5.165
 5041SOL     OW16021   1.223   1.978   2.309
 5041SOL    HW116022   1.185   2.064   2.343
 5041SOL    HW216023   1.309   1.960   2.356
 5042SOL     OW16024   6.827   3.045   0.616
 5042SOL    HW116025   6.834   3.109   0.692
 5042SOL    HW216026   6.819   3.095   0.530
 5043SOL     OW16027   4.349   0.593   0.027
 5043SOL    HW116028   4.355   0.596   6.953
 5043SOL    HW216029   4.327   0.684   0.062
 5044SOL     OW16030   1.038   5.707   1.335
 5044SOL    HW116031   0.961   5.767   1.355
 5044SOL    HW216032   1.022   5.661   1.247
 5045SOL     OW16033   6.544   5.752   5.960
 5045SOL    HW116034   6.570   5.822   6.027
 5045SOL    HW216035   6.546   5.791   5.868
 5046SOL     OW16036   3.627   3.819   3.679
 5046SOL    HW116037   3.583   3.909   3.673
 5046SOL    HW216038   3.598   3.772   3.762
 5047SOL     OW16039   2.087   3.940   2.969
 5047SOL    HW116040   2.073   4.017   3.031
 5047SOL    HW216041   2.153   3.966   2.899
 5048SOL     OW16042   1.422   1.133   4.752
 5048SOL    HW116043   1.342   1.184   4.721
 5048SOL    HW216044   1.478   1.108   4.673
 5049SOL     OW16045   5.126   1.357   6.780
 5049SOL    HW116046   5.140   1.435   6.841
 5049SOL    HW216047   5.041   1.310   6.805
 5050SOL     OW16048   1.983   0.986   6.970
 5050SOL    HW116049   2.060   0.984   6.906
 5050SOL    HW216050   1.943   1.077   6.972
 5051SOL     OW16051   4.628   4.284   1.331
 5051SOL    HW116052   4.680   4.284   1.245
 5051SOL    HW216053   4.643   4.197   1.379
 5052SOL     OW16054   3.534   2.187   6.195
 5052SOL    HW116055   3.521   2.100   6.242
 5052SOL    HW216056   3.629   2.217   6.203
 5053SOL     OW16057   0.942   5.209   3.149
 5053SOL    HW116058   0.959   5.305   3.125
 5053SOL    HW216059   1.003   5.151   3.095
 5054SOL     OW16060   2.859   4.877   5.524
 5054SOL    HW116061   2.818   4.824   5.450
 5054SOL    HW216062   2.945   4.833   5.553
 5055SOL     OW16063   1.020   2.550   5.774
 5055SOL    HW116064   1.009   2.451   5.786
 5055SOL    HW216065   0.971   2.598   5.847
 5056SOL     OW16066   5.144   3.650   5.482
 5056SOL    HW116067   5.068   3.604   5.436
 5056SOL    HW216068   5.150   3.618   5.577
 5057SOL     OW16069   0.285   6.760   2.918
 5057SOL    HW116070   0.202   6.765   2.864
 5057SOL    HW216071   0.351   6.827   2.884
 5058SOL     OW16072   3.439   4.676   6.928
 5058SOL    HW116073   3.520   4.710   6.881
 5058SOL    HW216074   3.455   4.676   0.002
 5059SOL     OW16075   6.969   0.697   3.496
 5059SOL    HW116076   6.950   0.646   3.412
 5059SOL    HW216077   0.036   0.735   3.491
 5060SOL     OW16078   6.691   2.466   6.477
 5060SOL    HW116079   6.750   2.385   6.470
 5060SOL    HW216080   6.618   2.448   6.544
 5061SOL     OW16081   4.780   2.531   0.267
 5061SOL    HW116082   4.732   2.619   0.280
 5061SOL    HW216083   4.860   2.528   0.327
 5062SOL     OW16084   6.579   0.160   2.245
 5062SOL    HW116085   6.603   0.201   2.156
 5062SOL    HW216086   6.493   0.110   2.235
 5063SOL     OW16087   6.961   6.514   1.825
 5063SOL    HW116088   7.012   6.570   1.761
 5063SOL    HW216089   6.863   6.525   1.809
 5064SOL     OW16090   4.926   2.797   0.558
 5064SOL    HW116091   4.951   2.890   0.583
 5064SOL    HW216092   4.860   2.799   0.483
 5065SOL     OW16093   3.360   0.439   5.334
 5065SOL    HW116094   3.312   0.420   5.249
 5065SOL    HW216095   3.386   0.353   5.378
 5066SOL     OW16096   4.983   4.444   2.179
 5066SOL    HW116097   4.884   4.425   2.176
 5066SOL    HW216098   5.019   4.417   2.268
 5067SOL     OW16099   5.341   1.471   0.808
 5067SOL    HW116100   5.300   1.387   0.773
 5067SOL    HW216101   5.278   1.514   0.874
 5068SOL     OW16102   2.237   4.589   1.166
 5068SOL    HW116103   2.158   4.629   1.213
 5068SOL    HW216104   2.312   4.654   1.167
 5069SOL     OW16105   1.566   3.821   2.685
 5069SOL    HW116106   1.656   3.780   2.702
 5069SOL    HW216107   1.562   3.911   2.727
 5070SOL     OW16108   4.926   3.466   3.828
 5070SOL    HW116109   5.024   3.455   3.842
 5070SOL    HW216110   4.885   3.377   3.808
 5071SOL     OW16111   4.401   2.320   4.906
 5071SOL    HW116112   4.402   2.221   4.921
 5071SOL    HW216113   4.330   2.361   4.963
 5072SOL     OW16114   0.672   5.758   0.397
 5072SOL    HW116115   0.761   5.748   0.353
 5072SOL    HW216116   0.673   5.840   0.454
 5073SOL     OW16117   6.884   6.235   2.916
 5073SOL    HW116118   6.792   6.273   2.927
 5073SOL    HW216119   6.890   6.148   2.966
 5074SOL     OW16120   3.584   3.943   6.862
 5074SOL    HW116121   3.677   3.911   6.879
 5074SOL    HW216122   3.565   3.941   6.764
 5075SOL     OW16123   0.281   1.188   5.962
 5075SOL    HW116124   0.243   1.125   5.894
 5075SOL    HW216125   0.212   1.211   6.030
 5076SOL     OW16126   4.395   0.908   1.377
 5076SOL    HW116127   4.391   0.848   1.298
 5076SOL    HW216128   4.370   0.857   1.459
 5077SOL     OW16129   1.322   2.157   3.609
 5077SOL    HW116130   1.329   2.243   3.559
 5077SOL    HW216131   1.382   2.089   3.568
 5078SOL     OW16132   1.050   1.800   3.221
 5078SOL    HW116133   1.109   1.734   3.177
 5078SOL    HW216134   1.014   1.864   3.153
 5079SOL     OW16135   2.746   4.762   6.137
 5079SOL    HW116136   2.814   4.804   6.077
 5079SOL    HW216137   2.768   4.783   6.232
 5080SOL     OW16138   5.628   6.642   4.758
 5080SOL    HW116139   5.656   6.562   4.705
 5080SOL    HW216140   5.665   6.724   4.715
 5081SOL     OW16141   3.669   3.763   3.040
 5081SOL    HW116142   3.679   3.857   3.072
 5081SOL    HW216143   3.573   3.736   3.044
 5082SOL     OW16144   5.689   6.439   4.527
 5082SOL    HW116145   5.733   6.350   4.519
 5082SOL    HW216146   5.601   6.429   4.572
 5083SOL     OW16147   1.776   6.612   2.220
 5083SOL    HW116148   1.825   6.695   2.194
 5083SOL    HW216149   1.678   6.631   2.224
 5084SOL     OW16150   1.557   4.366   4.385
 5084SOL    HW116151   1.499   4.303   4.333
 5084SOL    HW216152   1.571   4.329   4.477
 5085SOL     OW16153   5.142   2.295   6.677
 5085SOL    HW116154   5.093   2.232   6.618
 5085SOL    HW216155   5.127   2.389   6.645
 5086SOL     OW16156   6.293   4.961   3.833
 5086SOL    HW116157   6.193   4.953   3.825
 5086SOL    HW216158   6.315   5.035   3.896
 5087SOL     OW16159   6.816   6.251   4.020
 5087SOL    HW116160   6.753   6.255   3.942
 5087SOL    HW216161   6.831   6.343   4.055
 5088SOL     OW16162   5.932   1.398   5.934
 5088SOL    HW116163   6.003   1.342   5.892
 5088SOL    HW216164   5.924   1.485   5.886
 5089SOL     OW16165   6.565   3.575   3.409
 5089SOL    HW116166   6.543   3.670   3.386
 5089SOL    HW216167   6.609   3.531   3.330
 5090SOL     OW16168   2.015   3.899   1.318
 5090SOL    HW116169   2.072   3.981   1.322
 5090SOL    HW216170   1.920   3.923   1.336
 5091SOL     OW16171   1.262   6.417   2.800
 5091SOL    HW116172   1.194   6.369   2.855
 5091SOL    HW216173   1.324   6.351   2.758
 5092SOL     OW16174   3.796   2.548   1.464
 5092SOL    HW116175   3.878   2.581   1.512
 5092SOL    HW216176   3.724   2.531   1.531
 5093SOL     OW16177   0.736   1.978   1.761
 5093SOL    HW116178   0.745   1.909   1.690
 5093SOL    HW216179   0.790   1.952   1.841
 5094SOL     OW16180   0.749   0.467   5.521
 5094SOL    HW116181   0.731   0.557   5.559
 5094SOL    HW216182   0.753   0.473   5.421
 5095SOL     OW16183   1.261   0.605   4.641
 5095SOL    HW116184   1.316   0.675   4.688
 5095SOL    HW216185   1.195   0.567   4.706
 5096SOL     OW16186   4.397   3.618   0.645
 5096SOL    HW116187   4.374   3.621   0.743
 5096SOL    HW216188   4.421   3.710   0.614
 5097SOL     OW16189   1.588   0.364   6.251
 5097SOL    HW116190   1.518   0.418   6.204
 5097SOL    HW216191   1.657   0.426   6.289
 5098SOL     OW16192   0.481   0.677   1.659
 5098SOL    HW116193   0.531   0.591   1.668
 5098SOL    HW216194   0.524   0.732   1.586
 5099SOL     OW16195   0.762   0.448   5.860
 5099SOL    HW116196   0.793   0.471   5.952
 5099SOL    HW216197   0.840   0.415   5.806
 5100SOL     OW16198   4.798   6.949   6.243
 5100SOL    HW116199   4.853   6.996   6.174
 5100SOL    HW216200   4.814   6.851   6.238
 5101SOL     OW16201   5.227   6.542   6.977
 5101SOL    HW116202   5.292   6.603   7.024
 5101SOL    HW216203   5.270   6.453   6.963
 5102SOL     OW16204   5.780   0.954   5.243
 5102SOL    HW116205   5.837   0.976   5.322
 5102SOL    HW216206   5.686   0.942   5.272
 5103SOL     OW16207   6.762   1.214   4.315
 5103SOL    HW116208   6.690   1.226   4.246
 5103SOL    HW216209   6.760   1.290   4.379
 5104SOL     OW16210   1.969   6.809   1.119
 5104SOL    HW116211   1.968   6.829   1.021
 5104SOL    HW216212   2.014   6.721   1.134
 5105SOL     OW16213   4.804   3.699   6.776
 5105SOL    HW116214   4.768   3.775   6.829
 5105SOL    HW216215   4.834   3.732   6.686
 5106SOL     OW16216   3.693   0.064   2.565
 5106SOL    HW116217   3.721   7.017   2.503
 5106SOL    HW216218   3.594   0.058   2.581
 5107SOL     OW16219   2.878   0.493   0.512
 5107SOL    HW116220   2.827   0.540   0.584
 5107SOL    HW216221   2.973   0.526   0.511
 5108SOL     OW16222   3.032   3.926   3.587
 5108SOL    HW116223   3.131   3.925   3.573
 5108SOL    HW216224   2.986   3.942   3.499
 5109SOL     OW16225   0.941   1.682   0.748
 5109SOL    HW116226   0.910   1.775   0.770
 5109SOL    HW216227   0.928   1.623   0.828
 5110SOL     OW16228   1.589   6.832   6.011
 5110SOL    HW116229   1.628   6.862   6.098
 5110SOL    HW216230   1.618   6.739   5.992
 5111SOL     OW16231   0.508   1.275   5.826
 5111SOL    HW116232   0.594   1.226   5.840
 5111SOL    HW216233   0.438   1.238   5.887
 5112SOL     OW16234   0.096   6.759   3.879
 5112SOL    HW116235   0.174   6.775   3.819
 5112SOL    HW216236   0.012   6.788   3.832
 5113SOL     OW16237   0.464   0.530   1.095
 5113SOL    HW116238   0.451   0.609   1.034
 5113SOL    HW216239   0.429   0.448   1.050
 5114SOL     OW16240   3.274   3.808   0.146
 5114SOL    HW116241   3.255   3.903   0.123
 5114SOL    HW216242   3.372   3.797   0.165
 5115SOL     OW16243   1.898   4.311   5.833
 5115SOL    HW116244   1.839   4.391   5.819
 5115SOL    HW216245   1.880   4.244   5.762
 5116SOL     OW16246   4.969   5.491   6.028
 5116SOL    HW116247   4.951   5.549   5.949
 5116SOL    HW216248   4.958   5.395   6.002
 5117SOL     OW16249   2.206   4.552   4.077
 5117SOL    HW116250   2.258   4.508   4.004
 5117SOL    HW216251   2.153   4.482   4.126
 5118SOL     OW16252   4.498   6.363   0.620
 5118SOL    HW116253   4.494   6.442   0.559
 5118SOL    HW216254   4.552   6.387   0.701
 5119SOL     OW16255   5.298   0.311   1.894
 5119SOL    HW116256   5.218   0.329   1.951
 5119SOL    HW216257   5.273   0.249   1.820
 5120SOL     OW16258   6.095   1.604   2.933
 5120SOL    HW116259   6.055   1.677   2.988
 5120SOL    HW216260   6.185   1.632   2.902
 5121SOL     OW16261   0.727   3.153   6.264
 5121SOL    HW116262   0.797   3.095   6.306
 5121SOL    HW216263   0.681   3.206   6.336
 5122SOL     OW16264   2.737   0.969   3.545
 5122SOL    HW116265   2.814   0.910   3.519
 5122SOL    HW216266   2.757   1.064   3.520
 5123SOL     OW16267   5.523   3.557   3.712
 5123SOL    HW116268   5.551   3.586   3.803
 5123SOL    HW216269   5.565   3.469   3.691
 5124SOL     OW16270   2.457   6.123   6.773
 5124SOL    HW116271   2.514   6.106   6.853
 5124SOL    HW216272   2.466   6.047   6.709
 5125SOL     OW16273   0.556   3.925   4.360
 5125SOL    HW116274   0.498   3.870   4.301
 5125SOL    HW216275   0.543   3.897   4.455
 5126SOL     OW16276   6.329   5.334   5.958
 5126SOL    HW116277   6.399   5.284   6.009
 5126SOL    HW216278   6.301   5.280   5.878
 5127SOL     OW16279   5.676   3.925   0.148
 5127SOL    HW116280   5.591   3.882   0.179
 5127SOL    HW216281   5.728   3.956   0.227
 5128SOL     OW16282   1.146   0.353   6.936
 5128SOL    HW116283   1.186   0.291   7.003
 5128SOL    HW216284   1.174   0.326   6.844
 5129SOL     OW16285   5.739   0.251   3.013
 5129SOL    HW116286   5.787   0.309   2.947
 5129SOL    HW216287   5.796   0.171   3.033
 5130SOL     OW16288   0.747   5.377   4.685
 5130SOL    HW116289   0.747   5.463   4.635
 5130SOL    HW216290   0.832   5.328   4.666
 5131SOL     OW16291   3.198   4.945   3.640
 5131SOL    HW116292   3.224   4.909   3.550
 5131SOL    HW216293   3.227   4.881   3.711
 5132SOL     OW16294   3.206   1.581   6.292
 5132SOL    HW116295   3.300   1.562   6.321
 5132SOL    HW216296   3.191   1.545   6.200
 5133SOL     OW16297   3.745   5.856   6.393
 5133SOL    HW116298   3.785   5.790   6.329
 5133SOL    HW216299   3.740   5.946   6.349
 5134SOL     OW16300   6.605   6.972   1.330
 5134SOL    HW116301   6.629   0.019   1.265
 5134SOL    HW216302   6.582   7.012   1.418
 5135SOL     OW16303   6.094   3.446   3.144
 5135SOL    HW116304   6.143   3.412   3.064
 5135SOL    HW216305   6.129   3.536   3.168
 5136SOL     OW16306   0.647   0.945   6.152
 5136SOL    HW116307   0.663   0.906   6.242
 5136SOL    HW216308   0.592   0.882   6.097
 5137SOL     OW16309   4.948   2.879   5.188
 5137SOL    HW116310   4.988   2.826   5.263
 5137SOL    HW216311   4.879   2.942   5.224
 5138SOL     OW16312   3.818   4.092   4.194
 5138SOL    HW116313   3.896   4.106   4.133
 5138SOL    HW216314   3.807   3.994   4.211
 5139SOL     OW16315   1.611   0.836   4.904
 5139SOL    HW116316   1.581   0.744   4.880
 5139SOL    HW216317   1.540   0.880   4.959
 5140SOL     OW16318   4.049   1.908   6.047
 5140SOL    HW116319   4.008   1.907   6.138
 5140SOL    HW216320   4.004   1.840   5.989
 5141SOL     OW16321   6.326   3.015   1.989
 5141SOL    HW116322   6.302   2.984   1.897
 5141SOL    HW216323   6.242   3.025   2.043
 5142SOL     OW16324   6.290   7.023   3.522
 5142SOL    HW116325   6.359   6.969   3.569
 5142SOL    HW216326   6.332   0.079   3.481
 5143SOL     OW16327   0.843   4.298   4.580
 5143SOL    HW116328   0.861   4.307   4.678
 5143SOL    HW216329   0.746   4.314   4.563
 5144SOL     OW16330   1.909   3.586   6.736
 5144SOL    HW116331   1.991   3.571   6.792
 5144SOL    HW216332   1.890   3.684   6.731
 5145SOL     OW16333   3.481   6.009   6.242
 5145SOL    HW116334   3.382   6.006   6.255
 5145SOL    HW216335   3.502   5.993   6.145
 5146SOL     OW16336   4.051   4.591   5.676
 5146SOL    HW116337   4.005   4.653   5.741
 5146SOL    HW216338   4.019   4.610   5.583
 5147SOL     OW16339   4.892   3.811   3.581
 5147SOL    HW116340   4.947   3.738   3.540
 5147SOL    HW216341   4.869   3.879   3.511
 5148SOL     OW16342   0.267   0.274   1.734
 5148SOL    HW116343   0.306   0.358   1.696
 5148SOL    HW216344   0.311   0.254   1.821
 5149SOL     OW16345   5.586   4.659   3.814
 5149SOL    HW116346   5.545   4.619   3.897
 5149SOL    HW216347   5.664   4.603   3.786
 5150SOL     OW16348   1.651   5.488   3.466
 5150SOL    HW116349   1.593   5.555   3.513
 5150SOL    HW216350   1.593   5.427   3.411
 5151SOL     OW16351   6.039   4.939   1.286
 5151SOL    HW116352   5.945   4.910   1.305
 5151SOL    HW216353   6.102   4.872   1.326
 5152SOL     OW16354   2.007   6.738   6.645
 5152SOL    HW116355   1.930   6.763   6.705
 5152SOL    HW216356   2.016   6.638   6.643
 5153SOL     OW16357   1.775   0.963   0.987
 5153SOL    HW116358   1.826   0.886   1.025
 5153SOL    HW216359   1.717   0.930   0.912
 5154SOL     OW16360   1.243   2.761   6.839
 5154SOL    HW116361   1.284   2.769   6.748
 5154SOL    HW216362   1.177   2.685   6.839
 5155SOL     OW16363   2.494   1.724   0.807
 5155SOL    HW116364   2.397   1.734   0.785
 5155SOL    HW216365   2.512   1.762   0.898
 5156SOL     OW16366   5.108   5.149   5.177
 5156SOL    HW116367   5.020   5.124   5.217
 5156SOL    HW216368   5.134   5.241   5.208
 5157SOL     OW16369   4.211   1.465   2.072
 5157SOL    HW116370   4.309   1.452   2.086
 5157SOL    HW216371   4.160   1.394   2.122
 5158SOL     OW16372   3.786   1.534   1.754
 5158SOL    HW116373   3.764   1.632   1.748
 5158SOL    HW216374   3.763   1.501   1.845
 5159SOL     OW16375   5.767   3.870   6.529
 5159SOL    HW116376   5.815   3.937   6.472
 5159SOL    HW216377   5.722   3.802   6.471
 5160SOL     OW16378   6.509   6.865   3.063
 5160SOL    HW116379   6.492   6.854   2.965
 5160SOL    HW216380   6.594   6.819   3.087
 5161SOL     OW16381   0.771   3.512   6.795
 5161SOL    HW116382   0.740   3.540   6.886
 5161SOL    HW216383   0.829   3.431   6.804
 5162SOL     OW16384   0.234   5.648   2.962
 5162SOL    HW116385   0.171   5.576   2.989
 5162SOL    HW216386   0.290   5.675   3.041
 5163SOL     OW16387   3.244   5.749   1.821
 5163SOL    HW116388   3.283   5.796   1.900
 5163SOL    HW216389   3.273   5.796   1.737
 5164SOL     OW16390   2.998   3.125   0.809
 5164SOL    HW116391   3.020   3.036   0.849
 5164SOL    HW216392   3.042   3.197   0.863
 5165SOL     OW16393   1.578   4.719   6.844
 5165SOL    HW116394   1.515   4.749   6.773
 5165SOL    HW216395   1.540   4.741   6.934
 5166SOL     OW16396   1.960   5.647   1.594
 5166SOL    HW116397   2.008   5.647   1.681
 5166SOL    HW216398   1.865   5.676   1.609
 5167SOL     OW16399   5.811   3.644   5.493
 5167SOL    HW116400   5.793   3.732   5.537
 5167SOL    HW216401   5.752   3.634   5.413
 5168SOL     OW16402   4.747   2.425   2.413
 5168SOL    HW116403   4.778   2.503   2.359
 5168SOL    HW216404   4.663   2.450   2.463
 5169SOL     OW16405   4.141   0.924   4.218
 5169SOL    HW116406   4.133   0.995   4.148
 5169SOL    HW216407   4.226   0.872   4.202
 5170SOL     OW16408   1.588   3.916   6.382
 5170SOL    HW116409   1.646   3.842   6.348
 5170SOL    HW216410   1.570   3.902   6.480
 5171SOL     OW16411   1.786   5.439   5.999
 5171SOL    HW116412   1.747   5.397   6.081
 5171SOL    HW216413   1.795   5.537   6.012
 5172SOL     OW16414   0.865   4.703   4.162
 5172SOL    HW116415   0.956   4.671   4.188
 5172SOL    HW216416   0.857   4.703   4.062
 5173SOL     OW16417   4.689   3.621   6.100
 5173SOL    HW116418   4.669   3.707   6.147
 5173SOL    HW216419   4.697   3.637   6.002
 5174SOL     OW16420   1.578   6.898   3.605
 5174SOL    HW116421   1.618   6.883   3.696
 5174SOL    HW216422   1.479   6.881   3.609
 5175SOL     OW16423   3.018   4.487   6.928
 5175SOL    HW116424   3.010   4.455   6.833
 5175SOL    HW216425   2.963   4.428   6.987
 5176SOL     OW16426   5.616   5.686   6.462
 5176SOL    HW116427   5.657   5.620   6.398
 5176SOL    HW216428   5.526   5.653   6.491
 5177SOL     OW16429   4.842   0.279   1.006
 5177SOL    HW116430   4.836   0.180   1.014
 5177SOL    HW216431   4.882   0.317   1.090
 5178SOL     OW16432   0.717   4.054   1.488
 5178SOL    HW116433   0.759   3.975   1.444
 5178SOL    HW216434   0.619   4.038   1.501
 5179SOL     OW16435   5.476   4.291   2.328
 5179SOL    HW116436   5.450   4.312   2.234
 5179SOL    HW216437   5.575   4.293   2.336
 5180SOL     OW16438   2.480   6.658   1.262
 5180SOL    HW116439   2.483   6.686   1.166
 5180SOL    HW216440   2.564   6.608   1.285
 5181SOL     OW16441   0.074   1.358   6.752
 5181SOL    HW116442   0.083   1.318   6.661
 5181SOL    HW216443   0.141   1.318   6.814
 5182SOL     OW16444   4.308   4.608   2.973
 5182SOL    HW116445   4.235   4.595   2.905
 5182SOL    HW216446   4.396   4.586   2.932
 5183SOL     OW16447   4.189   2.004   3.243
 5183SOL    HW116448   4.155   2.066   3.314
 5183SOL    HW216449   4.179   2.047   3.154
 5184SOL     OW16450   2.157   2.352   3.930
 5184SOL    HW116451   2.186   2.432   3.877
 5184SOL    HW216452   2.195   2.269   3.889
 5185SOL     OW16453   4.822   0.471   2.126
 5185SOL    HW116454   4.835   0.558   2.079
 5185SOL    HW216455   4.726   0.444   2.120
 5186SOL     OW16456   6.541   3.239   6.047
 5186SOL    HW116457   6.475   3.308   6.019
 5186SOL    HW216458   6.493   3.162   6.090
 5187SOL     OW16459   2.294   5.081   4.735
 5187SOL    HW116460   2.266   5.173   4.761
 5187SOL    HW216461   2.290   5.021   4.815
 5188SOL     OW16462   6.264   6.627   1.847
 5188SOL    HW116463   6.314   6.608   1.932
 5188SOL    HW216464   6.250   6.541   1.797
 5189SOL     OW16465   5.645   0.268   6.201
 5189SOL    HW116466   5.635   0.173   6.170
 5189SOL    HW216467   5.639   0.270   6.301
 5190SOL     OW16468   1.814   2.928   1.765
 5190SOL    HW116469   1.875   2.851   1.746
 5190SOL    HW216470   1.864   3.014   1.752
 5191SOL     OW16471   2.698   5.791   2.381
 5191SOL    HW116472   2.609   5.831   2.400
 5191SOL    HW216473   2.743   5.765   2.466
 5192SOL     OW16474   1.880   5.853   1.368
 5192SOL    HW116475   1.924   5.818   1.285
 5192SOL    HW216476   1.909   5.798   1.446
 5193SOL     OW16477   5.455   0.542   6.872
 5193SOL    HW116478   5.502   0.454   6.882
 5193SOL    HW216479   5.516   0.616   6.898
 5194SOL     OW16480   3.804   2.064   6.618
 5194SOL    HW116481   3.740   2.006   6.569
 5194SOL    HW216482   3.789   2.054   6.717
 5195SOL     OW16483   0.450   0.547   3.533
 5195SOL    HW116484   0.541   0.582   3.557
 5195SOL    HW216485   0.415   0.598   3.455
 5196SOL     OW16486   4.721   6.910   2.784
 5196SOL    HW116487   4.628   6.948   2.787
 5196SOL    HW216488   4.725   6.827   2.839
 5197SOL     OW16489   1.490   3.649   6.050
 5197SOL    HW116490   1.537   3.602   6.125
 5197SOL    HW216491   1.558   3.690   5.989
 5198SOL     OW16492   4.755   5.884   3.282
 5198SOL    HW116493   4.656   5.876   3.273
 5198SOL    HW216494   4.780   5.981   3.289
 5199SOL     OW16495   6.621   5.485   0.897
 5199SOL    HW116496   6.663   5.573   0.920
 5199SOL    HW216497   6.634   5.465   0.800
 5200SOL     OW16498   0.365   3.847   5.309
 5200SOL    HW116499   0.328   3.802   5.228
 5200SOL    HW216500   0.295   3.906   5.349
 5201SOL     OW16501   0.970   6.335   3.716
 5201SOL    HW116502   1.029   6.264   3.753
 5201SOL    HW216503   1.006   6.425   3.742
 5202SOL     OW16504   6.692   2.983   0.255
 5202SOL    HW116505   6.678   3.006   0.159
 5202SOL    HW216506   6.747   2.900   0.262
 5203SOL     OW16507   0.920   3.038   6.905
 5203SOL    HW116508   0.830   3.051   6.863
 5203SOL    HW216509   0.913   2.969   6.977
 5204SOL     OW16510   4.128   5.007   0.589
 5204SOL    HW116511   4.188   5.044   0.659
 5204SOL    HW216512   4.181   4.952   0.524
 5205SOL     OW16513   1.641   0.163   1.230
 5205SOL    HW116514   1.639   0.257   1.196
 5205SOL    HW216515   1.717   0.114   1.187
 5206SOL     OW16516   6.932   4.584   6.920
 5206SOL    HW116517   6.950   4.666   6.866
 5206SOL    HW216518   7.001   4.575   6.992
 5207SOL     OW16519   1.327   5.634   4.454
 5207SOL    HW116520   1.402   5.644   4.388
 5207SOL    HW216521   1.260   5.707   4.439
 5208SOL     OW16522   3.902   1.266   0.241
 5208SOL    HW116523   3.967   1.214   0.297
 5208SOL    HW216524   3.843   1.203   0.190
 5209SOL     OW16525   6.023   5.948   3.398
 5209SOL    HW116526   6.061   5.923   3.309
 5209SOL    HW216527   6.075   5.902   3.470
 5210SOL     OW16528   5.080   3.324   4.705
 5210SOL    HW116529   5.014   3.250   4.715
 5210SOL    HW216530   5.040   3.409   4.739
 5211SOL     OW16531   3.372   3.076   4.272
 5211SOL    HW116532   3.278   3.051   4.293
 5211SOL    HW216533   3.435   3.016   4.321
 5212SOL     OW16534   0.246   2.383   0.486
 5212SOL    HW116535   0.182   2.318   0.527
 5212SOL    HW216536   0.257   2.462   0.547
 5213SOL     OW16537   5.057   2.501   5.990
 5213SOL    HW116538   5.007   2.570   5.938
 5213SOL    HW216539   5.146   2.484   5.946
 5214SOL     OW16540   5.449   1.757   5.622
 5214SOL    HW116541   5.485   1.792   5.708
 5214SOL    HW216542   5.467   1.824   5.549
 5215SOL     OW16543   5.330   4.376   3.349
 5215SOL    HW116544   5.327   4.460   3.294
 5215SOL    HW216545   5.336   4.400   3.446
 5216SOL     OW16546   4.953   5.391   1.268
 5216SOL    HW116547   4.941   5.324   1.195
 5216SOL    HW216548   4.994   5.475   1.231
 5217SOL     OW16549   2.887   5.014   3.902
 5217SOL    HW116550   2.953   5.028   3.975
 5217SOL    HW216551   2.919   5.059   3.819
 5218SOL     OW16552   1.979   0.290   4.170
 5218SOL    HW116553   1.910   0.227   4.206
 5218SOL    HW216554   2.017   0.345   4.245
 5219SOL     OW16555   3.876   0.077   6.392
 5219SOL    HW116556   3.784   0.042   6.407
 5219SOL    HW216557   3.900   0.067   6.295
 5220SOL     OW16558   1.173   5.459   2.058
 5220SOL    HW116559   1.075   5.471   2.042
 5220SOL    HW216560   1.195   5.361   2.054
 5221SOL     OW16561   5.342   2.117   4.309
 5221SOL    HW116562   5.374   2.038   4.361
 5221SOL    HW216563   5.296   2.181   4.370
 5222SOL     OW16564   2.348   0.164   3.822
 5222SOL    HW116565   2.447   0.153   3.832
 5222SOL    HW216566   2.304   0.161   3.911
 5223SOL     OW16567   4.825   0.039   1.324
 5223SOL    HW116568   4.776   7.001   1.264
 5223SOL    HW216569   4.912   7.023   1.351
 5224SOL     OW16570   6.630   2.655   2.874
 5224SOL    HW116571   6.591   2.596   2.945
 5224SOL    HW216572   6.564   2.663   2.799
 5225SOL     OW16573   6.998   0.568   3.238
 5225SOL    HW116574   6.910   0.587   3.194
 5225SOL    HW216575   0.033   0.521   3.173
 5226SOL     OW16576   0.642   6.515   4.969
 5226SOL    HW116577   0.577   6.441   4.987
 5226SOL    HW216578   0.671   6.512   4.874
 5227SOL     OW16579   6.975   5.133   3.282
 5227SOL    HW116580   6.974   5.058   3.216
 5227SOL    HW216581   0.043   5.152   3.310
 5228SOL     OW16582   6.605   2.509   0.302
 5228SOL    HW116583   6.576   2.600   0.275
 5228SOL    HW216584   6.525   2.450   0.311
 5229SOL     OW16585   1.421   4.182   6.342
 5229SOL    HW116586   1.475   4.112   6.296
 5229SOL    HW216587   1.374   4.238   6.273
 5230SOL     OW16588   0.355   0.005   0.792
 5230SOL    HW116589   0.388   6.940   0.821
 5230SOL    HW216590   0.307   7.021   0.705
 5231SOL     OW16591   3.112   3.029   4.634
 5231SOL    HW116592   3.123   2.982   4.547
 5231SOL    HW216593   3.055   3.110   4.622
 5232SOL     OW16594   3.462   2.481   6.162
 5232SOL    HW116595   3.474   2.386   6.193
 5232SOL    HW216596   3.365   2.497   6.143
 5233SOL     OW16597   6.663   6.546   1.186
 5233SOL    HW116598   6.748   6.525   1.235
 5233SOL    HW216599   6.686   6.586   1.097
 5234SOL     OW16600   3.211   0.465   0.307
 5234SOL    HW116601   3.150   0.475   0.229
 5234SOL    HW216602   3.206   0.371   0.341
 5235SOL     OW16603   1.504   2.901   0.798
 5235SOL    HW116604   1.477   2.840   0.872
 5235SOL    HW216605   1.445   2.885   0.719
 5236SOL     OW16606   5.482   3.102   1.718
 5236SOL    HW116607   5.490   3.079   1.621
 5236SOL    HW216608   5.568   3.143   1.749
 5237SOL     OW16609   2.644   1.832   5.248
 5237SOL    HW116610   2.635   1.733   5.247
 5237SOL    HW216611   2.671   1.864   5.157
 5238SOL     OW16612   1.101   5.169   0.157
 5238SOL    HW116613   1.020   5.114   0.173
 5238SOL    HW216614   1.183   5.117   0.183
 5239SOL     OW16615   3.565   3.851   4.487
 5239SOL    HW116616   3.582   3.937   4.439
 5239SOL    HW216617   3.531   3.782   4.423
 5240SOL     OW16618   2.935   1.808   5.481
 5240SOL    HW116619   2.974   1.900   5.486
 5240SOL    HW216620   2.845   1.812   5.436
 5241SOL     OW16621   0.776   5.992   6.426
 5241SOL    HW116622   0.678   5.976   6.414
 5241SOL    HW216623   0.798   6.087   6.404
 5242SOL     OW16624   6.072   1.213   5.524
 5242SOL    HW116625   5.984   1.167   5.519
 5242SOL    HW216626   6.082   1.277   5.447
 5243SOL     OW16627   0.646   6.014   0.914
 5243SOL    HW116628   0.628   5.918   0.933
 5243SOL    HW216629   0.740   6.024   0.879
 5244SOL     OW16630   4.275   3.897   5.646
 5244SOL    HW116631   4.286   3.950   5.562
 5244SOL    HW216632   4.290   3.800   5.626
 5245SOL     OW16633   4.445   3.952   5.844
 5245SOL    HW116634   4.506   4.023   5.811
 5245SOL    HW216635   4.394   3.913   5.767
 5246SOL     OW16636   0.320   4.216   2.389
 5246SOL    HW116637   0.277   4.153   2.324
 5246SOL    HW216638   0.334   4.305   2.345
 5247SOL     OW16639   0.938   5.931   6.668
 5247SOL    HW116640   0.892   5.926   6.757
 5247SOL    HW216641   0.878   5.977   6.603
 5248SOL     OW16642   5.747   0.763   5.543
 5248SOL    HW116643   5.765   0.714   5.457
 5248SOL    HW216644   5.820   0.743   5.608
 5249SOL     OW16645   1.090   4.959   4.835
 5249SOL    HW116646   1.175   4.908   4.829
 5249SOL    HW216647   1.066   4.973   4.931
 5250SOL     OW16648   0.607   1.443   6.049
 5250SOL    HW116649   0.602   1.367   6.113
 5250SOL    HW216650   0.576   1.413   5.958
 5251SOL     OW16651   0.258   3.201   1.225
 5251SOL    HW116652   0.261   3.270   1.297
 5251SOL    HW216653   0.230   3.244   1.139
 5252SOL     OW16654   1.665   5.184   0.982
 5252SOL    HW116655   1.649   5.106   0.921
 5252SOL    HW216656   1.635   5.162   1.074
 5253SOL     OW16657   6.002   3.434   4.473
 5253SOL    HW116658   5.976   3.338   4.478
 5253SOL    HW216659   5.937   3.483   4.415
 5254SOL     OW16660   5.087   1.295   3.369
 5254SOL    HW116661   5.118   1.352   3.293
 5254SOL    HW216662   4.988   1.308   3.381
 5255SOL     OW16663   4.197   0.436   4.250
 5255SOL    HW116664   4.283   0.387   4.235
 5255SOL    HW216665   4.152   0.453   4.163
 5256SOL     OW16666   4.942   1.121   3.156
 5256SOL    HW116667   5.037   1.114   3.186
 5256SOL    HW216668   4.892   1.181   3.218
 5257SOL     OW16669   4.223   0.008   2.118
 5257SOL    HW116670   4.240   7.022   2.020
 5257SOL    HW216671   4.299   6.992   2.169
 5258SOL     OW16672   5.192   4.401   1.994
 5258SOL    HW116673   5.148   4.417   1.905
 5258SOL    HW216674   5.125   4.412   2.067
 5259SOL     OW16675   4.430   5.957   1.912
 5259SOL    HW116676   4.421   5.906   1.997
 5259SOL    HW216677   4.455   6.052   1.932
 5260SOL     OW16678   4.667   3.566   0.547
 5260SOL    HW116679   4.567   3.575   0.543
 5260SOL    HW216680   4.693   3.527   0.635
 5261SOL     OW16681   1.084   2.140   5.371
 5261SOL    HW116682   1.160   2.075   5.380
 5261SOL    HW216683   1.065   2.157   5.275
 5262SOL     OW16684   2.522   0.077   2.520
 5262SOL    HW116685   2.462   0.054   2.597
 5262SOL    HW216686   2.480   0.150   2.466
 5263SOL     OW16687   1.139   0.225   6.092
 5263SOL    HW116688   1.196   0.208   6.012
 5263SOL    HW216689   1.172   0.171   6.169
 5264SOL     OW16690   6.376   1.230   1.063
 5264SOL    HW116691   6.344   1.205   1.154
 5264SOL    HW216692   6.300   1.221   0.998
 5265SOL     OW16693   5.607   3.995   2.227
 5265SOL    HW116694   5.538   3.926   2.249
 5265SOL    HW216695   5.675   3.998   2.300
 5266SOL     OW16696   2.914   6.300   1.797
 5266SOL    HW116697   2.954   6.258   1.879
 5266SOL    HW216698   2.820   6.267   1.786
 5267SOL     OW16699   4.621   4.890   5.684
 5267SOL    HW116700   4.657   4.818   5.625
 5267SOL    HW216701   4.613   4.975   5.631
 5268SOL     OW16702   6.389   5.888   5.168
 5268SOL    HW116703   6.348   5.924   5.085
 5268SOL    HW216704   6.345   5.929   5.248
 5269SOL     OW16705   2.182   6.317   3.920
 5269SOL    HW116706   2.140   6.238   3.875
 5269SOL    HW216707   2.128   6.341   4.001
 5270SOL     OW16708   4.726   1.950   1.533
 5270SOL    HW116709   4.759   2.044   1.538
 5270SOL    HW216710   4.675   1.928   1.616
 5271SOL     OW16711   4.306   4.994   4.401
 5271SOL    HW116712   4.234   4.947   4.452
 5271SOL    HW216713   4.287   4.987   4.303
 5272SOL     OW16714   0.508   6.308   4.095
 5272SOL    HW116715   0.506   6.243   4.171
 5272SOL    HW216716   0.581   6.375   4.110
 5273SOL     OW16717   1.361   2.842   3.638
 5273SOL    HW116718   1.455   2.869   3.659
 5273SOL    HW216719   1.332   2.771   3.703
 5274SOL     OW16720   6.177   5.078   3.203
 5274SOL    HW116721   6.081   5.084   3.176
 5274SOL    HW216722   6.210   5.169   3.228
 5275SOL     OW16723   3.007   0.357   6.217
 5275SOL    HW116724   3.104   0.380   6.215
 5275SOL    HW216725   2.952   0.441   6.217
 5276SOL     OW16726   0.219   6.332   0.060
 5276SOL    HW116727   0.287   6.296   0.123
 5276SOL    HW216728   0.188   6.422   0.091
 5277SOL     OW16729   2.220   1.677   3.203
 5277SOL    HW116730   2.157   1.628   3.263
 5277SOL    HW216731   2.255   1.614   3.134
 5278SOL     OW16732   5.592   6.705   5.484
 5278SOL    HW116733   5.501   6.691   5.444
 5278SOL    HW216734   5.618   6.624   5.536
 5279SOL     OW16735   1.136   5.767   6.660
 5279SOL    HW116736   1.062   5.833   6.648
 5279SOL    HW216737   1.206   5.806   6.721
 5280SOL     OW16738   3.880   5.859   5.160
 5280SOL    HW116739   3.787   5.856   5.124
 5280SOL    HW216740   3.879   5.900   5.252
 5281SOL     OW16741   0.749   1.064   4.035
 5281SOL    HW116742   0.684   1.033   4.105
 5281SOL    HW216743   0.831   1.098   4.080
 5282SOL     OW16744   1.793   0.227   2.576
 5282SOL    HW116745   1.755   0.179   2.655
 5282SOL    HW216746   1.833   0.314   2.607
 5283SOL     OW16747   1.654   0.907   3.653
 5283SOL    HW116748   1.704   0.867   3.730
 5283SOL    HW216749   1.712   0.906   3.571
 5284SOL     OW16750   4.668   2.350   2.830
 5284SOL    HW116751   4.702   2.394   2.913
 5284SOL    HW216752   4.743   2.300   2.786
 5285SOL     OW16753   1.162   4.025   4.241
 5285SOL    HW116754   1.092   4.096   4.232
 5285SOL    HW216755   1.220   4.047   4.320
 5286SOL     OW16756   6.265   2.988   1.182
 5286SOL    HW116757   6.318   2.918   1.135
 5286SOL    HW216758   6.185   3.012   1.128
 5287SOL     OW16759   2.911   5.065   2.110
 5287SOL    HW116760   2.814   5.042   2.105
 5287SOL    HW216761   2.965   4.983   2.092
 5288SOL     OW16762   4.785   0.460   2.925
 5288SOL    HW116763   4.869   0.513   2.933
 5288SOL    HW216764   4.711   0.508   2.974
 5289SOL     OW16765   2.390   5.323   6.804
 5289SOL    HW116766   2.434   5.411   6.786
 5289SOL    HW216767   2.459   5.251   6.809
 5290SOL     OW16768   1.635   3.702   5.522
 5290SOL    HW116769   1.550   3.651   5.534
 5290SOL    HW216770   1.625   3.765   5.445
 5291SOL     OW16771   3.131   4.315   6.079
 5291SOL    HW116772   3.173   4.254   6.146
 5291SOL    HW216773   3.098   4.262   6.001
 5292SOL     OW16774   5.618   4.784   6.283
 5292SOL    HW116775   5.594   4.868   6.331
 5292SOL    HW216776   5.645   4.714   6.349
 5293SOL     OW16777   2.261   6.070   4.890
 5293SOL    HW116778   2.301   5.985   4.855
 5293SOL    HW216779   2.331   6.141   4.893
 5294SOL     OW16780   4.554   1.897   5.362
 5294SOL    HW116781   4.466   1.851   5.369
 5294SOL    HW216782   4.545   1.977   5.303
 5295SOL     OW16783   3.656   0.586   3.096
 5295SOL    HW116784   3.752   0.565   3.076
 5295SOL    HW216785   3.645   0.684   3.109
 5296SOL     OW16786   3.570   3.736   0.166
 5296SOL    HW116787   3.598   3.652   0.212
 5296SOL    HW216788   3.622   3.813   0.203
 5297SOL     OW16789   1.726   3.615   0.222
 5297SOL    HW116790   1.770   3.689   0.271
 5297SOL    HW216791   1.787   3.580   0.151
 5298SOL     OW16792   1.731   6.077   6.496
 5298SOL    HW116793   1.710   6.087   6.399
 5298SOL    HW216794   1.826   6.049   6.507
 5299SOL     OW16795   2.802   2.740   0.859
 5299SOL    HW116796   2.880   2.702   0.808
 5299SOL    HW216797   2.757   2.667   0.911
 5300SOL     OW16798   0.828   5.256   0.987
 5300SOL    HW116799   0.850   5.168   0.947
 5300SOL    HW216800   0.899   5.282   1.052
 5301SOL     OW16801   3.943   0.997   6.615
 5301SOL    HW116802   3.985   0.937   6.547
 5301SOL    HW216803   3.847   0.971   6.627
 5302SOL     OW16804   5.779   5.889   3.288
 5302SOL    HW116805   5.864   5.915   3.333
 5302SOL    HW216806   5.715   5.851   3.354
 5303SOL     OW16807   0.315   5.121   4.897
 5303SOL    HW116808   0.271   5.044   4.944
 5303SOL    HW216809   0.393   5.087   4.844
 5304SOL     OW16810   5.836   0.791   0.342
 5304SOL    HW116811   5.881   0.703   0.324
 5304SOL    HW216812   5.894   0.846   0.401
 5305SOL     OW16813   0.897   5.541   2.800
 5305SOL    HW116814   0.801   5.557   2.777
 5305SOL    HW216815   0.945   5.507   2.719
 5306SOL     OW16816   0.828   4.712   5.558
 5306SOL    HW116817   0.862   4.619   5.543
 5306SOL    HW216818   0.902   4.770   5.592
 5307SOL     OW16819   3.925   1.889   0.350
 5307SOL    HW116820   4.018   1.851   0.351
 5307SOL    HW216821   3.861   1.822   0.388
 5308SOL     OW16822   1.586   4.771   2.340
 5308SOL    HW116823   1.567   4.710   2.263
 5308SOL    HW216824   1.641   4.722   2.408
 5309SOL     OW16825   3.718   4.874   2.212
 5309SOL    HW116826   3.670   4.837   2.133
 5309SOL    HW216827   3.810   4.836   2.217
 5310SOL     OW16828   6.173   3.503   1.863
 5310SOL    HW116829   6.262   3.542   1.837
 5310SOL    HW216830   6.103   3.575   1.858
 5311SOL     OW16831   5.771   6.812   6.967
 5311SOL    HW116832   5.714   6.747   6.915
 5311SOL    HW216833   5.861   6.819   6.924
 5312SOL     OW16834   0.926   5.421   1.659
 5312SOL    HW116835   0.873   5.505   1.670
 5312SOL    HW216836   0.922   5.367   1.743
 5313SOL     OW16837   1.500   3.543   6.317
 5313SOL    HW116838   1.444   3.483   6.375
 5313SOL    HW216839   1.441   3.608   6.270
 5314SOL     OW16840   3.956   6.671   0.513
 5314SOL    HW116841   3.885   6.629   0.570
 5314SOL    HW216842   3.944   6.770   0.514
 5315SOL     OW16843   5.275   3.343   2.434
 5315SOL    HW116844   5.347   3.302   2.489
 5315SOL    HW216845   5.249   3.431   2.474
 5316SOL     OW16846   1.191   3.174   5.094
 5316SOL    HW116847   1.168   3.268   5.118
 5316SOL    HW216848   1.146   3.111   5.157
 5317SOL     OW16849   6.175   1.789   5.621
 5317SOL    HW116850   6.162   1.690   5.612
 5317SOL    HW216851   6.229   1.822   5.543
 5318SOL     OW16852   0.612   2.732   0.551
 5318SOL    HW116853   0.647   2.669   0.620
 5318SOL    HW216854   0.633   2.696   0.460
 5319SOL     OW16855   4.659   5.980   1.057
 5319SOL    HW116856   4.597   6.044   1.013
 5319SOL    HW216857   4.709   6.026   1.130
 5320SOL     OW16858   4.297   5.084   0.803
 5320SOL    HW116859   4.256   5.097   0.893
 5320SOL    HW216860   4.327   5.172   0.767
 5321SOL     OW16861   1.881   4.274   5.281
 5321SOL    HW116862   1.920   4.347   5.337
 5321SOL    HW216863   1.948   4.245   5.213
 5322SOL     OW16864   5.455   6.150   0.314
 5322SOL    HW116865   5.531   6.212   0.294
 5322SOL    HW216866   5.383   6.199   0.362
 5323SOL     OW16867   3.256   1.558   6.014
 5323SOL    HW116868   3.312   1.630   5.973
 5323SOL    HW216869   3.178   1.539   5.954
 5324SOL     OW16870   3.460   2.004   0.879
 5324SOL    HW116871   3.402   2.005   0.797
 5324SOL    HW216872   3.553   2.031   0.854
 5325SOL     OW16873   4.366   0.800   4.163
 5325SOL    HW116874   4.362   0.740   4.083
 5325SOL    HW216875   4.448   0.856   4.159
 5326SOL     OW16876   6.787   5.528   3.331
 5326SOL    HW116877   6.840   5.523   3.416
 5326SOL    HW216878   6.765   5.436   3.299
 5327SOL     OW16879   6.366   3.037   5.251
 5327SOL    HW116880   6.278   3.053   5.294
 5327SOL    HW216881   6.412   3.125   5.234
 5328SOL     OW16882   3.387   3.862   6.204
 5328SOL    HW116883   3.479   3.901   6.198
 5328SOL    HW216884   3.383   3.777   6.152
 5329SOL     OW16885   0.366   5.319   6.368
 5329SOL    HW116886   0.400   5.242   6.421
 5329SOL    HW216887   0.434   5.345   6.299
 5330SOL     OW16888   4.586   3.795   0.031
 5330SOL    HW116889   4.534   3.727   7.002
 5330SOL    HW216890   4.652   3.747   0.088
 5331SOL     OW16891   6.302   1.715   6.129
 5331SOL    HW116892   6.230   1.693   6.195
 5331SOL    HW216893   6.264   1.773   6.057
 5332SOL     OW16894   1.041   3.326   1.896
 5332SOL    HW116895   1.095   3.340   1.812
 5332SOL    HW216896   0.949   3.362   1.883
 5333SOL     OW16897   1.027   0.818   3.069
 5333SOL    HW116898   1.074   0.730   3.064
 5333SOL    HW216899   1.070   0.875   3.140
 5334SOL     OW16900   3.471   0.361   4.355
 5334SOL    HW116901   3.399   0.345   4.287
 5334SOL    HW216902   3.429   0.390   4.441
 5335SOL     OW16903   0.127   6.065   0.439
 5335SOL    HW116904   0.078   6.147   0.413
 5335SOL    HW216905   0.070   6.009   0.499
 5336SOL     OW16906   2.121   3.171   2.616
 5336SOL    HW116907   2.207   3.128   2.645
 5336SOL    HW216908   2.045   3.128   2.664
 5337SOL     OW16909   5.007   5.014   0.604
 5337SOL    HW116910   5.054   5.101   0.622
 5337SOL    HW216911   4.966   5.017   0.513
 5338SOL     OW16912   5.819   1.261   0.433
 5338SOL    HW116913   5.766   1.197   0.378
 5338SOL    HW216914   5.824   1.349   0.386
 5339SOL     OW16915   6.687   1.659   3.982
 5339SOL    HW116916   6.758   1.653   4.052
 5339SOL    HW216917   6.701   1.587   3.914
 5340SOL     OW16918   5.068   4.720   0.923
 5340SOL    HW116919   5.108   4.671   1.001
 5340SOL    HW216920   5.065   4.659   0.844
 5341SOL     OW16921   3.682   2.853   6.533
 5341SOL    HW116922   3.724   2.819   6.448
 5341SOL    HW216923   3.584   2.832   6.532
 5342SOL     OW16924   3.667   0.168   4.398
 5342SOL    HW116925   3.576   0.211   4.394
 5342SOL    HW216926   3.731   0.220   4.342
 5343SOL     OW16927   3.236   3.807   4.376
 5343SOL    HW116928   3.168   3.853   4.319
 5343SOL    HW216929   3.256   3.865   4.456
 5344SOL     OW16930   1.883   2.079   2.379
 5344SOL    HW116931   1.973   2.060   2.419
 5344SOL    HW216932   1.893   2.146   2.306
 5345SOL     OW16933   4.097   5.892   1.649
 5345SOL    HW116934   4.011   5.938   1.626
 5345SOL    HW216935   4.077   5.797   1.673
 5346SOL     OW16936   3.572   6.002   4.076
 5346SOL    HW116937   3.485   6.053   4.078
 5346SOL    HW216938   3.585   5.963   3.985
 5347SOL     OW16939   0.338   2.270   2.141
 5347SOL    HW116940   0.431   2.291   2.109
 5347SOL    HW216941   0.277   2.345   2.114
 5348SOL     OW16942   0.097   1.425   1.051
 5348SOL    HW116943   0.138   1.402   1.139
 5348SOL    HW216944   0.028   1.356   1.027
 5349SOL     OW16945   1.158   2.342   0.073
 5349SOL    HW116946   1.247   2.367   0.036
 5349SOL    HW216947   1.128   2.256   0.032
 5350SOL     OW16948   1.340   0.197   5.908
 5350SOL    HW116949   1.379   0.109   5.882
 5350SOL    HW216950   1.344   0.260   5.830
 5351SOL     OW16951   5.776   5.432   1.727
 5351SOL    HW116952   5.780   5.494   1.648
 5351SOL    HW216953   5.869   5.407   1.755
 5352SOL     OW16954   1.870   5.552   4.589
 5352SOL    HW116955   1.778   5.587   4.604
 5352SOL    HW216956   1.871   5.496   4.506
 5353SOL     OW16957   3.470   6.028   4.605
 5353SOL    HW116958   3.406   6.099   4.635
 5353SOL    HW216959   3.557   6.070   4.579
 5354SOL     OW16960   1.883   5.270   1.742
 5354SOL    HW116961   1.859   5.175   1.724
 5354SOL    HW216962   1.837   5.329   1.675
 5355SOL     OW16963   4.811   2.459   4.044
 5355SOL    HW116964   4.736   2.525   4.042
 5355SOL    HW216965   4.847   2.451   4.137
 5356SOL     OW16966   5.936   4.064   1.317
 5356SOL    HW116967   6.035   4.054   1.316
 5356SOL    HW216968   5.894   3.989   1.266
 5357SOL     OW16969   3.564   6.835   0.457
 5357SOL    HW116970   3.563   6.903   0.384
 5357SOL    HW216971   3.581   6.744   0.418
 5358SOL     OW16972   4.430   1.400   0.883
 5358SOL    HW116973   4.332   1.404   0.868
 5358SOL    HW216974   4.455   1.309   0.918
 5359SOL     OW16975   1.977   2.081   0.017
 5359SOL    HW116976   1.993   1.983   0.016
 5359SOL    HW216977   2.004   2.118   0.106
 5360SOL     OW16978   4.434   6.156   5.434
 5360SOL    HW116979   4.454   6.172   5.338
 5360SOL    HW216980   4.337   6.173   5.452
 5361SOL     OW16981   2.203   6.703   4.851
 5361SOL    HW116982   2.301   6.716   4.861
 5361SOL    HW216983   2.181   6.684   4.755
 5362SOL     OW16984   5.157   4.629   3.439
 5362SOL    HW116985   5.187   4.609   3.346
 5362SOL    HW216986   5.224   4.688   3.483
 5363SOL     OW16987   0.780   6.956   6.242
 5363SOL    HW116988   0.740   6.991   6.157
 5363SOL    HW216989   0.726   6.988   6.320
 5364SOL     OW16990   6.690   5.686   1.472
 5364SOL    HW116991   6.788   5.671   1.485
 5364SOL    HW216992   6.640   5.658   1.554
 5365SOL     OW16993   3.550   3.231   6.948
 5365SOL    HW116994   3.529   3.158   7.012
 5365SOL    HW216995   3.563   3.317   6.997
 5366SOL     OW16996   5.034   5.573   1.657
 5366SOL    HW116997   4.986   5.565   1.744
 5366SOL    HW216998   4.972   5.548   1.582
 5367SOL     OW16999   0.149   5.573   0.277
 5367SOL    HW117000   0.157   5.575   0.377
 5367SOL    HW217001   0.218   5.510   0.240
 5368SOL     OW17002   4.991   0.667   2.885
 5368SOL    HW117003   5.075   0.630   2.846
 5368SOL    HW217004   5.013   0.737   2.952
 5369SOL     OW17005   3.510   6.841   2.719
 5369SOL    HW117006   3.554   6.777   2.656
 5369SOL    HW217007   3.522   6.808   2.813
 5370SOL     OW17008   4.537   2.874   1.278
 5370SOL    HW117009   4.568   2.945   1.341
 5370SOL    HW217010   4.549   2.905   1.184
 5371SOL     OW17011   1.816   3.557   4.238
 5371SOL    HW117012   1.754   3.508   4.176
 5371SOL    HW217013   1.872   3.491   4.288
 5372SOL     OW17014   2.338   5.872   3.963
 5372SOL    HW117015   2.352   5.915   3.874
 5372SOL    HW217016   2.344   5.773   3.953
 5373SOL     OW17017   3.313   5.367   4.394
 5373SOL    HW117018   3.312   5.267   4.383
 5373SOL    HW217019   3.314   5.390   4.491
 5374SOL     OW17020   0.929   4.273   0.238
 5374SOL    HW117021   1.021   4.313   0.239
 5374SOL    HW217022   0.884   4.295   0.152
 5375SOL     OW17023   1.658   4.294   4.635
 5375SOL    HW117024   1.630   4.374   4.687
 5375SOL    HW217025   1.753   4.272   4.656
 5376SOL     OW17026   1.936   3.086   0.786
 5376SOL    HW117027   2.025   3.062   0.826
 5376SOL    HW217028   1.951   3.127   0.696
 5377SOL     OW17029   6.903   6.917   1.551
 5377SOL    HW117030   6.927   7.014   1.540
 5377SOL    HW217031   6.831   6.894   1.486
 5378SOL     OW17032   6.909   0.591   1.933
 5378SOL    HW117033   6.835   0.525   1.921
 5378SOL    HW217034   6.996   0.543   1.938
 5379SOL     OW17035   1.181   5.457   5.032
 5379SOL    HW117036   1.223   5.406   5.108
 5379SOL    HW217037   1.177   5.554   5.055
 5380SOL     OW17038   1.843   0.941   3.432
 5380SOL    HW117039   1.933   0.899   3.432
 5380SOL    HW217040   1.847   1.029   3.479
 5381SOL     OW17041   6.333   4.278   0.832
 5381SOL    HW117042   6.346   4.294   0.734
 5381SOL    HW217043   6.372   4.189   0.857
 5382SOL     OW17044   3.400   0.655   1.959
 5382SOL    HW117045   3.339   0.623   2.032
 5382SOL    HW217046   3.480   0.700   1.999
 5383SOL     OW17047   2.566   2.489   5.450
 5383SOL    HW117048   2.565   2.414   5.516
 5383SOL    HW217049   2.479   2.490   5.400
 5384SOL     OW17050   6.338   0.325   4.302
 5384SOL    HW117051   6.392   0.265   4.243
 5384SOL    HW217052   6.298   0.398   4.248
 5385SOL     OW17053   2.995   3.559   3.784
 5385SOL    HW117054   2.980   3.654   3.808
 5385SOL    HW217055   2.956   3.500   3.855
 5386SOL     OW17056   4.478   0.335   4.262
 5386SOL    HW117057   4.520   0.425   4.279
 5386SOL    HW217058   4.449   0.295   4.349
 5387SOL     OW17059   2.829   5.922   3.897
 5387SOL    HW117060   2.765   5.902   3.971
 5387SOL    HW217061   2.916   5.951   3.935
 5388SOL     OW17062   6.053   0.498   3.507
 5388SOL    HW117063   5.991   0.455   3.573
 5388SOL    HW217064   6.094   0.427   3.449
 5389SOL     OW17065   5.339   0.486   1.586
 5389SOL    HW117066   5.336   0.499   1.487
 5389SOL    HW217067   5.321   0.573   1.632
 5390SOL     OW17068   4.670   4.303   3.523
 5390SOL    HW117069   4.652   4.298   3.425
 5390SOL    HW217070   4.609   4.371   3.564
 5391SOL     OW17071   1.789   2.522   1.186
 5391SOL    HW117072   1.723   2.452   1.214
 5391SOL    HW217073   1.872   2.513   1.241
 5392SOL     OW17074   6.165   3.391   0.679
 5392SOL    HW117075   6.251   3.407   0.630
 5392SOL    HW217076   6.185   3.351   0.769
 5393SOL     OW17077   5.220   0.117   6.220
 5393SOL    HW117078   5.288   0.063   6.269
 5393SOL    HW217079   5.264   0.195   6.176
 5394SOL     OW17080   6.529   4.373   6.807
 5394SOL    HW117081   6.466   4.327   6.871
 5394SOL    HW217082   6.526   4.326   6.719
 5395SOL     OW17083   4.941   1.314   1.820
 5395SOL    HW117084   4.866   1.248   1.822
 5395SOL    HW217085   4.979   1.318   1.728
 5396SOL     OW17086   4.963   4.229   2.787
 5396SOL    HW117087   4.870   4.215   2.755
 5396SOL    HW217088   5.028   4.202   2.716
 5397SOL     OW17089   6.575   3.079   2.121
 5397SOL    HW117090   6.479   3.080   2.092
 5397SOL    HW217091   6.579   3.064   2.220
 5398SOL     OW17092   3.376   1.801   2.726
 5398SOL    HW117093   3.436   1.738   2.677
 5398SOL    HW217094   3.363   1.884   2.672
 5399SOL     OW17095   2.321   5.896   7.007
 5399SOL    HW117096   2.389   5.911   0.053
 5399SOL    HW217097   2.262   5.976   7.000
 5400SOL     OW17098   2.798   3.968   0.983
 5400SOL    HW117099   2.887   3.998   1.017
 5400SOL    HW217100   2.768   3.889   1.036
 5401SOL     OW17101   5.713   3.716   1.746
 5401SOL    HW117102   5.628   3.726   1.799
 5401SOL    HW217103   5.694   3.732   1.649
 5402SOL     OW17104   2.408   4.702   1.551
 5402SOL    HW117105   2.404   4.671   1.646
 5402SOL    HW217106   2.493   4.668   1.509
 5403SOL     OW17107   6.111   2.865   6.282
 5403SOL    HW117108   6.011   2.862   6.282
 5403SOL    HW217109   6.146   2.824   6.197
 5404SOL     OW17110   1.011   1.563   2.930
 5404SOL    HW117111   1.038   1.547   2.835
 5404SOL    HW217112   0.934   1.627   2.933
 5405SOL     OW17113   6.143   5.632   6.905
 5405SOL    HW117114   6.059   5.684   6.920
 5405SOL    HW217115   6.184   5.608   6.993
 5406SOL     OW17116   2.382   1.197   0.120
 5406SOL    HW117117   2.298   1.244   0.147
 5406SOL    HW217118   2.438   1.179   0.201
 5407SOL     OW17119   4.582   2.805   0.717
 5407SOL    HW117120   4.675   2.834   0.737
 5407SOL    HW217121   4.539   2.769   0.800
 5408SOL     OW17122   3.185   1.454   6.664
 5408SOL    HW117123   3.112   1.385   6.662
 5408SOL    HW217124   3.203   1.480   6.759
 5409SOL     OW17125   5.885   0.832   3.786
 5409SOL    HW117126   5.953   0.807   3.854
 5409SOL    HW217127   5.845   0.749   3.747
 5410SOL     OW17128   2.995   2.593   1.090
 5410SOL    HW117129   3.059   2.522   1.122
 5410SOL    HW217130   2.901   2.563   1.107
 5411SOL     OW17131   6.516   5.512   5.374
 5411SOL    HW117132   6.465   5.467   5.301
 5411SOL    HW217133   6.454   5.568   5.429
 5412SOL     OW17134   4.850   1.369   0.014
 5412SOL    HW117135   4.766   1.416   0.041
 5412SOL    HW217136   4.893   1.328   0.094
 5413SOL     OW17137   2.445   2.022   1.296
 5413SOL    HW117138   2.474   2.047   1.388
 5413SOL    HW217139   2.474   2.093   1.231
 5414SOL     OW17140   4.727   2.111   4.938
 5414SOL    HW117141   4.809   2.086   4.888
 5414SOL    HW217142   4.700   2.205   4.914
 5415SOL     OW17143   1.631   5.968   0.893
 5415SOL    HW117144   1.542   6.006   0.919
 5415SOL    HW217145   1.640   5.876   0.929
 5416SOL     OW17146   4.549   5.139   5.610
 5416SOL    HW117147   4.586   5.220   5.656
 5416SOL    HW217148   4.474   5.101   5.663
 5417SOL     OW17149   4.148   6.482   5.448
 5417SOL    HW117150   4.193   6.541   5.514
 5417SOL    HW217151   4.052   6.509   5.438
 5418SOL     OW17152   3.705   6.663   3.656
 5418SOL    HW117153   3.750   6.749   3.681
 5418SOL    HW217154   3.607   6.678   3.647
 5419SOL     OW17155   3.305   5.119   0.502
 5419SOL    HW117156   3.207   5.128   0.484
 5419SOL    HW217157   3.319   5.089   0.596
 5420SOL     OW17158   1.320   2.599   2.159
 5420SOL    HW117159   1.314   2.537   2.081
 5420SOL    HW217160   1.413   2.598   2.195
 5421SOL     OW17161   2.387   2.427   2.656
 5421SOL    HW117162   2.323   2.351   2.645
 5421SOL    HW217163   2.399   2.473   2.569
 5422SOL     OW17164   0.350   5.412   0.202
 5422SOL    HW117165   0.408   5.351   0.255
 5422SOL    HW217166   0.305   5.360   0.129
 5423SOL     OW17167   6.381   2.826   0.118
 5423SOL    HW117168   6.471   2.859   0.091
 5423SOL    HW217169   6.376   2.727   0.104
 5424SOL     OW17170   5.526   3.270   4.026
 5424SOL    HW117171   5.534   3.239   4.121
 5424SOL    HW217172   5.489   3.363   4.024
 5425SOL     OW17173   3.924   1.246   4.085
 5425SOL    HW117174   3.837   1.253   4.035
 5425SOL    HW217175   3.948   1.150   4.097
 5426SOL     OW17176   6.571   5.365   4.165
 5426SOL    HW117177   6.626   5.357   4.249
 5426SOL    HW217178   6.571   5.460   4.134
 5427SOL     OW17179   4.628   4.655   6.768
 5427SOL    HW117180   4.576   4.570   6.777
 5427SOL    HW217181   4.566   4.731   6.749
 5428SOL     OW17182   6.805   6.816   1.270
 5428SOL    HW117183   6.794   6.725   1.311
 5428SOL    HW217184   6.721   6.868   1.282
 5429SOL     OW17185   2.039   2.198   6.814
 5429SOL    HW117186   2.021   2.142   6.733
 5429SOL    HW217187   2.011   2.148   6.896
 5430SOL     OW17188   0.241   3.139   6.154
 5430SOL    HW117189   0.219   3.230   6.191
 5430SOL    HW217190   0.318   3.147   6.090
 5431SOL     OW17191   3.117   5.934   0.293
 5431SOL    HW117192   3.174   5.999   0.242
 5431SOL    HW217193   3.130   5.842   0.257
 5432SOL     OW17194   5.219   6.712   6.745
 5432SOL    HW117195   5.314   6.741   6.739
 5432SOL    HW217196   5.210   6.641   6.815
 5433SOL     OW17197   0.239   1.877   4.549
 5433SOL    HW117198   0.174   1.880   4.625
 5433SOL    HW217199   0.261   1.782   4.528
 5434SOL     OW17200   3.975   0.874   5.607
 5434SOL    HW117201   3.997   0.781   5.579
 5434SOL    HW217202   3.929   0.921   5.531
 5435SOL     OW17203   5.197   0.713   1.699
 5435SOL    HW117204   5.108   0.681   1.666
 5435SOL    HW217205   5.187   0.748   1.792
 5436SOL     OW17206   5.130   4.127   3.924
 5436SOL    HW117207   5.068   4.198   3.891
 5436SOL    HW217208   5.079   4.064   3.983
 5437SOL     OW17209   3.309   4.504   6.495
 5437SOL    HW117210   3.319   4.428   6.559
 5437SOL    HW217211   3.340   4.589   6.539
 5438SOL     OW17212   6.627   3.545   2.646
 5438SOL    HW117213   6.627   3.450   2.677
 5438SOL    HW217214   6.537   3.585   2.660
 5439SOL     OW17215   0.759   2.405   0.435
 5439SOL    HW117216   0.713   2.477   0.384
 5439SOL    HW217217   0.854   2.397   0.403
 5440SOL     OW17218   0.757   0.989   1.443
 5440SOL    HW117219   0.746   1.006   1.541
 5440SOL    HW217220   0.818   1.058   1.403
 5441SOL     OW17221   5.013   2.695   3.148
 5441SOL    HW117222   4.961   2.774   3.114
 5441SOL    HW217223   5.109   2.722   3.159
 5442SOL     OW17224   3.215   5.759   3.736
 5442SOL    HW117225   3.129   5.714   3.759
 5442SOL    HW217226   3.248   5.811   3.815
 5443SOL     OW17227   2.844   0.794   3.999
 5443SOL    HW117228   2.904   0.872   4.017
 5443SOL    HW217229   2.783   0.816   3.924
 5444SOL     OW17230   1.947   0.351   4.777
 5444SOL    HW117231   1.985   0.345   4.685
 5444SOL    HW217232   1.973   0.439   4.818
 5445SOL     OW17233   5.865   3.896   3.549
 5445SOL    HW117234   5.929   3.936   3.615
 5445SOL    HW217235   5.772   3.923   3.572
 5446SOL     OW17236   6.964   4.952   5.039
 5446SOL    HW117237   6.873   4.943   4.998
 5446SOL    HW217238   7.005   5.039   5.010
 5447SOL     OW17239   2.702   1.726   6.540
 5447SOL    HW117240   2.603   1.742   6.539
 5447SOL    HW217241   2.722   1.646   6.596
 5448SOL     OW17242   4.554   2.804   5.344
 5448SOL    HW117243   4.614   2.751   5.404
 5448SOL    HW217244   4.460   2.800   5.378
 5449SOL     OW17245   1.854   2.922   6.319
 5449SOL    HW117246   1.828   3.017   6.302
 5449SOL    HW217247   1.781   2.861   6.287
 5450SOL     OW17248   1.514   0.145   1.842
 5450SOL    HW117249   1.479   0.057   1.875
 5450SOL    HW217250   1.439   0.199   1.806
 5451SOL     OW17251   1.572   6.167   3.372
 5451SOL    HW117252   1.577   6.130   3.464
 5451SOL    HW217253   1.505   6.242   3.370
 5452SOL     OW17254   2.267   4.540   6.778
 5452SOL    HW117255   2.197   4.500   6.719
 5452SOL    HW217256   2.296   4.628   6.740
 5453SOL     OW17257   5.961   4.571   1.562
 5453SOL    HW117258   5.865   4.562   1.590
 5453SOL    HW217259   5.976   4.662   1.524
 5454SOL     OW17260   6.968   4.344   6.742
 5454SOL    HW117261   6.970   4.437   6.776
 5454SOL    HW217262   6.920   4.342   6.654
 5455SOL     OW17263   6.251   3.334   0.355
 5455SOL    HW117264   6.246   3.250   0.409
 5455SOL    HW217265   6.159   3.368   0.337
 5456SOL     OW17266   3.595   0.264   0.048
 5456SOL    HW117267   3.674   0.267   0.109
 5456SOL    HW217268   3.618   0.215   6.990
 5457SOL     OW17269   5.927   2.380   0.299
 5457SOL    HW117270   6.004   2.411   0.356
 5457SOL    HW217271   5.841   2.404   0.344
 5458SOL     OW17272   0.698   4.824   0.073
 5458SOL    HW117273   0.739   4.772   0.147
 5458SOL    HW217274   0.697   4.769   7.014
 5459SOL     OW17275   2.742   4.470   6.654
 5459SOL    HW117276   2.768   4.564   6.677
 5459SOL    HW217277   2.712   4.467   6.558
 5460SOL     OW17278   2.873   6.890   2.494
 5460SOL    HW117279   2.845   6.938   2.412
 5460SOL    HW217280   2.871   6.953   2.572
 5461SOL     OW17281   5.878   6.751   5.081
 5461SOL    HW117282   5.819   6.824   5.047
 5461SOL    HW217283   5.846   6.721   5.171
 5462SOL     OW17284   1.070   0.820   6.633
 5462SOL    HW117285   1.087   0.885   6.707
 5462SOL    HW217286   1.069   0.727   6.670
 5463SOL     OW17287   6.373   2.058   0.279
 5463SOL    HW117288   6.439   1.986   0.299
 5463SOL    HW217289   6.294   2.049   0.340
 5464SOL     OW17290   1.280   1.295   3.995
 5464SOL    HW117291   1.331   1.298   3.909
 5464SOL    HW217292   1.343   1.308   4.072
 5465SOL     OW17293   4.020   6.226   3.262
 5465SOL    HW117294   4.084   6.261   3.331
 5465SOL    HW217295   3.971   6.303   3.220
 5466SOL     OW17296   5.625   4.232   5.434
 5466SOL    HW117297   5.589   4.286   5.510
 5466SOL    HW217298   5.602   4.277   5.348
 5467SOL     OW17299   5.206   3.109   3.028
 5467SOL    HW117300   5.288   3.091   2.973
 5467SOL    HW217301   5.169   3.199   3.004
 5468SOL     OW17302   5.167   2.222   4.519
 5468SOL    HW117303   5.185   2.186   4.611
 5468SOL    HW217304   5.185   2.320   4.517
 5469SOL     OW17305   3.541   5.211   6.537
 5469SOL    HW117306   3.602   5.253   6.604
 5469SOL    HW217307   3.456   5.264   6.532
 5470SOL     OW17308   3.117   5.745   2.504
 5470SOL    HW117309   3.125   5.844   2.516
 5470SOL    HW217310   3.164   5.717   2.420
 5471SOL     OW17311   5.086   0.015   2.490
 5471SOL    HW117312   5.043   0.100   2.459
 5471SOL    HW217313   5.171   0.001   2.439
 5472SOL     OW17314   3.890   3.738   5.906
 5472SOL    HW117315   3.946   3.655   5.914
 5472SOL    HW217316   3.902   3.776   5.814
 5473SOL     OW17317   0.247   3.296   3.378
 5473SOL    HW117318   0.285   3.281   3.470
 5473SOL    HW217319   0.240   3.208   3.331
 5474SOL     OW17320   1.365   4.261   4.822
 5474SOL    HW117321   1.299   4.334   4.804
 5474SOL    HW217322   1.445   4.273   4.763
 5475SOL     OW17323   2.416   2.337   1.476
 5475SOL    HW117324   2.498   2.287   1.448
 5475SOL    HW217325   2.419   2.354   1.574
 5476SOL     OW17326   1.940   4.430   5.483
 5476SOL    HW117327   1.865   4.391   5.536
 5476SOL    HW217328   1.991   4.494   5.540
 5477SOL     OW17329   2.206   4.261   3.375
 5477SOL    HW117330   2.149   4.284   3.454
 5477SOL    HW217331   2.251   4.343   3.341
 5478SOL     OW17332   4.349   4.790   5.391
 5478SOL    HW117333   4.411   4.735   5.447
 5478SOL    HW217334   4.381   4.885   5.390
 5479SOL     OW17335   4.918   1.237   6.106
 5479SOL    HW117336   4.862   1.198   6.180
 5479SOL    HW217337   4.989   1.295   6.145
 5480SOL     OW17338   0.408   3.799   3.487
 5480SOL    HW117339   0.399   3.711   3.440
 5480SOL    HW217340   0.416   3.872   3.419
 5481SOL     OW17341   4.264   0.908   3.737
 5481SOL    HW117342   4.299   0.992   3.778
 5481SOL    HW217343   4.199   0.931   3.665
 5482SOL     OW17344   3.796   4.590   1.653
 5482SOL    HW117345   3.883   4.605   1.699
 5482SOL    HW217346   3.722   4.585   1.720
 5483SOL     OW17347   0.091   2.417   5.975
 5483SOL    HW117348   0.024   2.424   5.901
 5483SOL    HW217349   0.154   2.495   5.970
 5484SOL     OW17350   4.622   0.843   5.096
 5484SOL    HW117351   4.650   0.933   5.062
 5484SOL    HW217352   4.527   0.846   5.126
 5485SOL     OW17353   4.382   0.226   5.244
 5485SOL    HW117354   4.462   0.284   5.260
 5485SOL    HW217355   4.299   0.274   5.275
 5486SOL     OW17356   2.679   5.797   5.723
 5486SOL    HW117357   2.584   5.815   5.749
 5486SOL    HW217358   2.690   5.811   5.624
 5487SOL     OW17359   3.402   3.599   6.643
 5487SOL    HW117360   3.447   3.684   6.671
 5487SOL    HW217361   3.384   3.602   6.545
 5488SOL     OW17362   6.590   0.603   0.848
 5488SOL    HW117363   6.665   0.657   0.885
 5488SOL    HW217364   6.507   0.659   0.844
 5489SOL     OW17365   6.355   3.451   1.507
 5489SOL    HW117366   6.327   3.537   1.466
 5489SOL    HW217367   6.292   3.427   1.581
 5490SOL     OW17368   2.121   0.093   2.505
 5490SOL    HW117369   2.034   0.118   2.463
 5490SOL    HW217370   2.180   0.049   2.437
 5491SOL     OW17371   0.471   3.097   0.233
 5491SOL    HW117372   0.561   3.111   0.193
 5491SOL    HW217373   0.474   3.118   0.330
 5492SOL     OW17374   0.951   2.928   5.735
 5492SOL    HW117375   1.021   2.897   5.670
 5492SOL    HW217376   0.936   3.026   5.723
 5493SOL     OW17377   3.986   3.580   2.498
 5493SOL    HW117378   4.070   3.568   2.552
 5493SOL    HW217379   3.951   3.490   2.472
 5494SOL     OW17380   6.746   4.158   5.198
 5494SOL    HW117381   6.846   4.161   5.192
 5494SOL    HW217382   6.710   4.098   5.126
 5495SOL     OW17383   5.578   0.779   0.988
 5495SOL    HW117384   5.668   0.816   0.965
 5495SOL    HW217385   5.589   0.700   1.048
 5496SOL     OW17386   4.377   0.521   3.640
 5496SOL    HW117387   4.310   0.549   3.709
 5496SOL    HW217388   4.417   0.433   3.666
 5497SOL     OW17389   0.279   1.471   5.481
 5497SOL    HW117390   0.292   1.510   5.390
 5497SOL    HW217391   0.275   1.371   5.475
 5498SOL     OW17392   0.317   5.198   1.884
 5498SOL    HW117393   0.340   5.198   1.786
 5498SOL    HW217394   0.343   5.110   1.924
 5499SOL     OW17395   0.727   0.739   3.524
 5499SOL    HW117396   0.679   0.791   3.596
 5499SOL    HW217397   0.800   0.796   3.486
 5500SOL     OW17398   1.656   0.399   0.292
 5500SOL    HW117399   1.694   0.359   0.209
 5500SOL    HW217400   1.570   0.446   0.270
 5501SOL     OW17401   4.171   1.904   0.595
 5501SOL    HW117402   4.169   1.816   0.643
 5501SOL    HW217403   4.142   1.891   0.500
 5502SOL     OW17404   5.376   3.764   6.299
 5502SOL    HW117405   5.456   3.704   6.308
 5502SOL    HW217406   5.351   3.772   6.203
 5503SOL     OW17407   0.145   4.558   1.230
 5503SOL    HW117408   0.219   4.499   1.197
 5503SOL    HW217409   0.157   4.650   1.192
 5504SOL     OW17410   4.301   1.373   5.707
 5504SOL    HW117411   4.333   1.452   5.655
 5504SOL    HW217412   4.272   1.301   5.643
 5505SOL     OW17413   2.215   4.637   3.526
 5505SOL    HW117414   2.296   4.620   3.469
 5505SOL    HW217415   2.147   4.687   3.473
 5506SOL     OW17416   6.849   3.450   0.245
 5506SOL    HW117417   6.898   3.379   0.195
 5506SOL    HW217418   6.823   3.416   0.335
 5507SOL     OW17419   3.770   0.639   6.073
 5507SOL    HW117420   3.703   0.565   6.079
 5507SOL    HW217421   3.723   0.727   6.066
 5508SOL     OW17422   1.105   0.331   0.216
 5508SOL    HW117423   1.141   0.304   0.305
 5508SOL    HW217424   1.176   0.319   0.146
 5509SOL     OW17425   0.385   5.739   0.582
 5509SOL    HW117426   0.422   5.703   0.496
 5509SOL    HW217427   0.444   5.813   0.615
 5510SOL     OW17428   4.790   5.293   6.357
 5510SOL    HW117429   4.874   5.297   6.410
 5510SOL    HW217430   4.784   5.372   6.297
 5511SOL     OW17431   1.058   1.076   5.087
 5511SOL    HW117432   1.109   1.077   5.173
 5511SOL    HW217433   1.116   1.112   5.014
 5512SOL     OW17434   3.351   1.235   0.979
 5512SOL    HW117435   3.421   1.168   1.006
 5512SOL    HW217436   3.391   1.326   0.978
 5513SOL     OW17437   3.024   4.880   5.917
 5513SOL    HW117438   3.030   4.821   5.998
 5513SOL    HW217439   2.948   4.849   5.860
 5514SOL     OW17440   3.774   0.020   5.274
 5514SOL    HW117441   3.737   0.013   5.366
 5514SOL    HW217442   3.874   0.017   5.277
 5515SOL     OW17443   1.760   5.734   1.930
 5515SOL    HW117444   1.800   5.709   2.018
 5515SOL    HW217445   1.690   5.668   1.905
 5516SOL     OW17446   2.469   2.632   5.007
 5516SOL    HW117447   2.419   2.680   4.935
 5516SOL    HW217448   2.478   2.691   5.087
 5517SOL     OW17449   1.805   3.646   1.936
 5517SOL    HW117450   1.719   3.613   1.974
 5517SOL    HW217451   1.881   3.614   1.993
 5518SOL     OW17452   6.296   5.059   6.014
 5518SOL    HW117453   6.235   5.036   5.938
 5518SOL    HW217454   6.371   4.993   6.017
 5519SOL     OW17455   5.304   3.134   3.524
 5519SOL    HW117456   5.235   3.066   3.501
 5519SOL    HW217457   5.390   3.088   3.546
 5520SOL     OW17458   5.378   6.261   2.549
 5520SOL    HW117459   5.471   6.234   2.522
 5520SOL    HW217460   5.381   6.302   2.640
 5521SOL     OW17461   5.235   6.071   1.349
 5521SOL    HW117462   5.218   6.146   1.413
 5521SOL    HW217463   5.205   5.985   1.390
 5522SOL     OW17464   6.690   5.288   1.377
 5522SOL    HW117465   6.616   5.355   1.366
 5522SOL    HW217466   6.653   5.196   1.365
 5523SOL     OW17467   4.740   0.728   2.787
 5523SOL    HW117468   4.829   0.683   2.793
 5523SOL    HW217469   4.709   0.752   2.879
 5524SOL     OW17470   3.916   6.636   5.381
 5524SOL    HW117471   3.863   6.702   5.435
 5524SOL    HW217472   3.947   6.679   5.296
 5525SOL     OW17473   0.194   2.729   0.272
 5525SOL    HW117474   0.127   2.689   0.335
 5525SOL    HW217475   0.259   2.659   0.244
 5526SOL     OW17476   4.583   4.466   2.669
 5526SOL    HW117477   4.575   4.497   2.764
 5526SOL    HW217478   4.561   4.542   2.608
 5527SOL     OW17479   4.885   3.767   3.871
 5527SOL    HW117480   4.856   3.841   3.811
 5527SOL    HW217481   4.877   3.679   3.823
 5528SOL     OW17482   1.036   1.455   1.608
 5528SOL    HW117483   1.097   1.519   1.655
 5528SOL    HW217484   1.018   1.488   1.515
 5529SOL     OW17485   2.839   6.813   3.621
 5529SOL    HW117486   2.781   6.879   3.576
 5529SOL    HW217487   2.820   6.721   3.586
 5530SOL     OW17488   6.818   2.569   2.230
 5530SOL    HW117489   6.843   2.658   2.267
 5530SOL    HW217490   6.734   2.578   2.176
 5531SOL     OW17491   4.077   3.857   1.488
 5531SOL    HW117492   4.088   3.944   1.537
 5531SOL    HW217493   4.075   3.782   1.554
 5532SOL     OW17494   1.880   2.756   0.563
 5532SOL    HW117495   1.794   2.805   0.550
 5532SOL    HW217496   1.899   2.747   0.661
 5533SOL     OW17497   4.702   1.625   4.235
 5533SOL    HW117498   4.661   1.714   4.216
 5533SOL    HW217499   4.801   1.631   4.223
 5534SOL     OW17500   1.064   1.264   5.921
 5534SOL    HW117501   1.163   1.270   5.936
 5534SOL    HW217502   1.017   1.316   5.992
 5535SOL     OW17503   1.058   1.550   2.562
 5535SOL    HW117504   1.096   1.552   2.470
 5535SOL    HW217505   0.984   1.617   2.570
 5536SOL     OW17506   3.711   0.688   4.641
 5536SOL    HW117507   3.702   0.631   4.559
 5536SOL    HW217508   3.722   0.784   4.614
 5537SOL     OW17509   3.940   1.402   2.370
 5537SOL    HW117510   3.875   1.477   2.358
 5537SOL    HW217511   3.897   1.328   2.422
 5538SOL     OW17512   4.299   5.882   4.530
 5538SOL    HW117513   4.226   5.893   4.598
 5538SOL    HW217514   4.325   5.971   4.495
 5539SOL     OW17515   2.007   3.632   0.927
 5539SOL    HW117516   2.030   3.538   0.903
 5539SOL    HW217517   2.001   3.641   1.027
 5540SOL     OW17518   4.718   4.717   3.679
 5540SOL    HW117519   4.811   4.722   3.644
 5540SOL    HW217520   4.719   4.674   3.770
 5541SOL     OW17521   4.267   1.404   6.350
 5541SOL    HW117522   4.230   1.479   6.296
 5541SOL    HW217523   4.345   1.436   6.404
 5542SOL     OW17524   4.027   3.491   6.307
 5542SOL    HW117525   4.054   3.402   6.271
 5542SOL    HW217526   3.958   3.533   6.247
 5543SOL     OW17527   5.953   3.791   6.722
 5543SOL    HW117528   5.895   3.800   6.641
 5543SOL    HW217529   5.914   3.844   6.797
 5544SOL     OW17530   5.278   0.915   6.140
 5544SOL    HW117531   5.291   0.817   6.154
 5544SOL    HW217532   5.366   0.961   6.149
 5545SOL     OW17533   4.021   2.032   2.497
 5545SOL    HW117534   4.020   1.963   2.424
 5545SOL    HW217535   4.044   2.121   2.458
 5546SOL     OW17536   1.785   5.174   5.628
 5546SOL    HW117537   1.718   5.214   5.690
 5546SOL    HW217538   1.744   5.160   5.538
 5547SOL     OW17539   3.382   5.767   5.004
 5547SOL    HW117540   3.449   5.841   5.014
 5547SOL    HW217541   3.376   5.741   4.907
 5548SOL     OW17542   6.444   3.349   5.612
 5548SOL    HW117543   6.427   3.344   5.513
 5548SOL    HW217544   6.426   3.260   5.653
 5549SOL     OW17545   3.255   5.189   6.911
 5549SOL    HW117546   3.299   5.100   6.919
 5549SOL    HW217547   3.286   5.234   6.827
 5550SOL     OW17548   2.193   5.772   1.493
 5550SOL    HW117549   2.102   5.741   1.522
 5550SOL    HW217550   2.200   5.767   1.394
 5551SOL     OW17551   1.528   0.570   3.358
 5551SOL    HW117552   1.599   0.640   3.350
 5551SOL    HW217553   1.547   0.511   3.436
 5552SOL     OW17554   0.083   1.799   0.777
 5552SOL    HW117555   0.071   1.700   0.775
 5552SOL    HW217556   0.148   1.823   0.849
 5553SOL     OW17557   4.210   6.480   0.075
 5553SOL    HW117558   4.258   6.399   0.042
 5553SOL    HW217559   4.206   6.478   0.175
 5554SOL     OW17560   2.930   2.216   5.246
 5554SOL    HW117561   2.890   2.302   5.276
 5554SOL    HW217562   2.994   2.232   5.172
 5555SOL     OW17563   0.490   5.645   3.656
 5555SOL    HW117564   0.572   5.663   3.601
 5555SOL    HW217565   0.491   5.702   3.738
 5556SOL     OW17566   0.785   1.962   5.272
 5556SOL    HW117567   0.751   2.044   5.318
 5556SOL    HW217568   0.785   1.886   5.337
 5557SOL     OW17569   2.064   6.095   3.817
 5557SOL    HW117570   2.087   5.999   3.801
 5557SOL    HW217571   1.988   6.100   3.882
 5558SOL     OW17572   5.269   2.914   5.129
 5558SOL    HW117573   5.234   3.007   5.119
 5558SOL    HW217574   5.352   2.904   5.074
 5559SOL     OW17575   2.484   0.215   1.055
 5559SOL    HW117576   2.399   0.191   1.008
 5559SOL    HW217577   2.562   0.180   1.003
 5560SOL     OW17578   0.572   1.026   3.275
 5560SOL    HW117579   0.550   1.091   3.348
 5560SOL    HW217580   0.496   0.963   3.262
 5561SOL     OW17581   1.696   3.229   3.411
 5561SOL    HW117582   1.754   3.258   3.334
 5561SOL    HW217583   1.612   3.283   3.412
 5562SOL     OW17584   2.318   3.038   6.153
 5562SOL    HW117585   2.306   3.077   6.244
 5562SOL    HW217586   2.265   2.954   6.146
 5563SOL     OW17587   4.448   6.067   2.359
 5563SOL    HW117588   4.502   6.152   2.362
 5563SOL    HW217589   4.369   6.079   2.299
 5564SOL     OW17590   5.122   4.408   1.726
 5564SOL    HW117591   5.045   4.386   1.666
 5564SOL    HW217592   5.177   4.480   1.684
 5565SOL     OW17593   3.846   2.045   5.588
 5565SOL    HW117594   3.795   2.129   5.573
 5565SOL    HW217595   3.929   2.065   5.640
 5566SOL     OW17596   1.951   5.093   0.789
 5566SOL    HW117597   1.914   5.003   0.812
 5566SOL    HW217598   1.903   5.129   0.709
 5567SOL     OW17599   1.697   5.580   1.282
 5567SOL    HW117600   1.791   5.552   1.299
 5567SOL    HW217601   1.698   5.665   1.229
 5568SOL     OW17602   4.396   1.166   1.277
 5568SOL    HW117603   4.305   1.191   1.311
 5568SOL    HW217604   4.402   1.066   1.270
 5569SOL     OW17605   4.237   1.575   1.336
 5569SOL    HW117606   4.325   1.571   1.290
 5569SOL    HW217607   4.187   1.490   1.320
 5570SOL     OW17608   6.599   4.580   5.471
 5570SOL    HW117609   6.656   4.499   5.460
 5570SOL    HW217610   6.652   4.651   5.518
 5571SOL     OW17611   6.875   5.731   0.429
 5571SOL    HW117612   6.962   5.755   0.386
 5571SOL    HW217613   6.801   5.742   0.362
 5572SOL     OW17614   4.322   2.411   6.358
 5572SOL    HW117615   4.223   2.407   6.364
 5572SOL    HW217616   4.351   2.393   6.264
 5573SOL     OW17617   1.134   3.850   0.896
 5573SOL    HW117618   1.161   3.807   0.983
 5573SOL    HW217619   1.208   3.838   0.830
 5574SOL     OW17620   0.592   6.232   4.901
 5574SOL    HW117621   0.584   6.223   4.802
 5574SOL    HW217622   0.541   6.158   4.946
 5575SOL     OW17623   1.324   0.823   0.671
 5575SOL    HW117624   1.272   0.739   0.685
 5575SOL    HW217625   1.265   0.891   0.627
 5576SOL     OW17626   5.431   5.864   0.298
 5576SOL    HW117627   5.424   5.828   0.206
 5576SOL    HW217628   5.407   5.962   0.298
 5577SOL     OW17629   2.090   3.771   5.411
 5577SOL    HW117630   2.119   3.784   5.316
 5577SOL    HW217631   2.017   3.702   5.414
 5578SOL     OW17632   4.166   2.841   0.411
 5578SOL    HW117633   4.087   2.782   0.397
 5578SOL    HW217634   4.244   2.806   0.358
 5579SOL     OW17635   5.628   3.666   6.921
 5579SOL    HW117636   5.657   3.604   6.993
 5579SOL    HW217637   5.550   3.627   6.873
 5580SOL     OW17638   5.267   0.845   0.447
 5580SOL    HW117639   5.303   0.911   0.513
 5580SOL    HW217640   5.314   0.857   0.360
 5581SOL     OW17641   2.224   0.972   6.471
 5581SOL    HW117642   2.272   1.003   6.554
 5581SOL    HW217643   2.265   0.887   6.439
 5582SOL     OW17644   3.604   3.151   3.646
 5582SOL    HW117645   3.620   3.248   3.632
 5582SOL    HW217646   3.594   3.132   3.744
 5583SOL     OW17647   3.344   0.119   1.717
 5583SOL    HW117648   3.383   0.040   1.670
 5583SOL    HW217649   3.379   0.122   1.811
 5584SOL     OW17650   6.799   3.901   3.033
 5584SOL    HW117651   6.819   3.998   3.021
 5584SOL    HW217652   6.701   3.889   3.050
 5585SOL     OW17653   6.438   0.723   4.322
 5585SOL    HW117654   6.478   0.666   4.394
 5585SOL    HW217655   6.506   0.736   4.249
 5586SOL     OW17656   2.233   1.052   5.810
 5586SOL    HW117657   2.312   1.076   5.866
 5586SOL    HW217658   2.233   1.108   5.727
 5587SOL     OW17659   4.029   0.371   3.304
 5587SOL    HW117660   4.026   0.331   3.396
 5587SOL    HW217661   4.118   0.415   3.290
 5588SOL     OW17662   2.417   0.131   5.615
 5588SOL    HW117663   2.400   0.181   5.530
 5588SOL    HW217664   2.443   0.037   5.593
 5589SOL     OW17665   4.884   2.897   6.039
 5589SOL    HW117666   4.870   2.861   6.132
 5589SOL    HW217667   4.797   2.896   5.990
 5590SOL     OW17668   0.353   5.911   4.648
 5590SOL    HW117669   0.382   5.820   4.618
 5590SOL    HW217670   0.297   5.902   4.730
 5591SOL     OW17671   5.247   0.344   0.050
 5591SOL    HW117672   5.196   0.297   0.121
 5591SOL    HW217673   5.261   0.440   0.076
 5592SOL     OW17674   1.753   3.182   2.525
 5592SOL    HW117675   1.792   3.157   2.436
 5592SOL    HW217676   1.810   3.144   2.598
 5593SOL     OW17677   1.845   2.394   5.875
 5593SOL    HW117678   1.911   2.327   5.911
 5593SOL    HW217679   1.753   2.365   5.899
 5594SOL     OW17680   2.222   0.235   0.583
 5594SOL    HW117681   2.320   0.218   0.585
 5594SOL    HW217682   2.202   0.323   0.626
 5595SOL     OW17683   6.772   1.979   6.078
 5595SOL    HW117684   6.792   1.972   6.176
 5595SOL    HW217685   6.857   1.984   6.026
 5596SOL     OW17686   5.402   0.572   2.885
 5596SOL    HW117687   5.340   0.584   2.961
 5596SOL    HW217688   5.495   0.559   2.919
 5597SOL     OW17689   6.426   0.954   6.508
 5597SOL    HW117690   6.460   0.860   6.506
 5597SOL    HW217691   6.490   1.011   6.560
 5598SOL     OW17692   6.079   1.907   3.625
 5598SOL    HW117693   6.063   1.854   3.708
 5598SOL    HW217694   6.126   1.992   3.648
 5599SOL     OW17695   4.845   4.005   2.252
 5599SOL    HW117696   4.752   4.009   2.217
 5599SOL    HW217697   4.910   4.019   2.178
 5600SOL     OW17698   2.450   1.278   2.688
 5600SOL    HW117699   2.457   1.285   2.589
 5600SOL    HW217700   2.455   1.370   2.728
 5601SOL     OW17701   5.273   2.966   5.655
 5601SOL    HW117702   5.323   3.051   5.675
 5601SOL    HW217703   5.327   2.910   5.592
 5602SOL     OW17704   0.551   2.817   2.862
 5602SOL    HW117705   0.586   2.784   2.950
 5602SOL    HW217706   0.599   2.770   2.788
 5603SOL     OW17707   3.926   2.167   4.421
 5603SOL    HW117708   3.909   2.222   4.503
 5603SOL    HW217709   4.011   2.197   4.378
 5604SOL     OW17710   0.487   0.128   3.801
 5604SOL    HW117711   0.553   0.055   3.819
 5604SOL    HW217712   0.532   0.216   3.811
 5605SOL     OW17713   2.852   5.780   4.734
 5605SOL    HW117714   2.833   5.706   4.670
 5605SOL    HW217715   2.909   5.747   4.809
 5606SOL     OW17716   4.675   2.091   0.587
 5606SOL    HW117717   4.665   2.165   0.520
 5606SOL    HW217718   4.730   2.124   0.664
 5607SOL     OW17719   6.086   2.476   2.028
 5607SOL    HW117720   6.109   2.420   1.949
 5607SOL    HW217721   5.988   2.471   2.046
 5608SOL     OW17722   4.649   1.159   3.640
 5608SOL    HW117723   4.576   1.217   3.603
 5608SOL    HW217724   4.705   1.212   3.703
 5609SOL     OW17725   6.464   6.603   0.867
 5609SOL    HW117726   6.552   6.613   0.914
 5609SOL    HW217727   6.463   6.517   0.816
 5610SOL     OW17728   5.279   4.587   0.001
 5610SOL    HW117729   5.282   4.513   6.959
 5610SOL    HW217730   5.340   4.566   0.077
 5611SOL     OW17731   0.044   5.285   1.646
 5611SOL    HW117732   0.055   5.284   1.745
 5611SOL    HW217733   6.972   5.282   1.623
 5612SOL     OW17734   2.903   0.826   1.038
 5612SOL    HW117735   2.810   0.789   1.051
 5612SOL    HW217736   2.967   0.750   1.024
 5613SOL     OW17737   6.623   5.201   5.194
 5613SOL    HW117738   6.688   5.223   5.267
 5613SOL    HW217739   6.577   5.115   5.217
 5614SOL     OW17740   5.977   2.002   4.205
 5614SOL    HW117741   5.879   1.991   4.192
 5614SOL    HW217742   6.023   1.915   4.186
 5615SOL     OW17743   6.749   3.070   2.971
 5615SOL    HW117744   6.765   3.035   3.063
 5615SOL    HW217745   6.837   3.088   2.927
 5616SOL     OW17746   1.714   3.094   3.103
 5616SOL    HW117747   1.812   3.079   3.090
 5616SOL    HW217748   1.669   3.006   3.119
 5617SOL     OW17749   2.103   5.147   6.525
 5617SOL    HW117750   2.158   5.088   6.467
 5617SOL    HW217751   2.017   5.101   6.548
 5618SOL     OW17752   6.483   5.783   3.839
 5618SOL    HW117753   6.398   5.749   3.881
 5618SOL    HW217754   6.544   5.816   3.910
 5619SOL     OW17755   3.614   3.175   4.559
 5619SOL    HW117756   3.633   3.220   4.471
 5619SOL    HW217757   3.518   3.184   4.581
 5620SOL     OW17758   5.059   4.339   5.698
 5620SOL    HW117759   4.960   4.343   5.688
 5620SOL    HW217760   5.099   4.291   5.620
 5621SOL     OW17761   1.873   2.404   5.139
 5621SOL    HW117762   1.806   2.361   5.200
 5621SOL    HW217763   1.833   2.485   5.098
 5622SOL     OW17764   4.891   5.475   4.736
 5622SOL    HW117765   4.933   5.491   4.826
 5622SOL    HW217766   4.796   5.506   4.738
 5623SOL     OW17767   5.217   6.296   4.052
 5623SOL    HW117768   5.132   6.342   4.075
 5623SOL    HW217769   5.227   6.214   4.109
 5624SOL     OW17770   6.841   4.933   4.617
 5624SOL    HW117771   6.938   4.945   4.635
 5624SOL    HW217772   6.813   4.840   4.641
 5625SOL     OW17773   1.050   5.919   4.710
 5625SOL    HW117774   1.136   5.905   4.759
 5625SOL    HW217775   1.068   5.968   4.624
 5626SOL     OW17776   1.787   3.906   4.675
 5626SOL    HW117777   1.768   3.838   4.745
 5626SOL    HW217778   1.849   3.976   4.711
 5627SOL     OW17779   1.127   5.283   6.880
 5627SOL    HW117780   1.099   5.304   6.973
 5627SOL    HW217781   1.204   5.220   6.881
 5628SOL     OW17782   2.440   3.026   0.915
 5628SOL    HW117783   2.473   3.073   0.997
 5628SOL    HW217784   2.517   2.984   0.867
 5629SOL     OW17785   5.124   4.073   1.427
 5629SOL    HW117786   5.113   3.982   1.467
 5629SOL    HW217787   5.178   4.130   1.489
 5630SOL     OW17788   2.481   4.113   6.722
 5630SOL    HW117789   2.389   4.075   6.726
 5630SOL    HW217790   2.483   4.190   6.658
 5631SOL     OW17791   4.294   0.674   2.037
 5631SOL    HW117792   4.320   0.667   1.941
 5631SOL    HW217793   4.245   0.591   2.065
 5632SOL     OW17794   5.806   0.062   5.894
 5632SOL    HW117795   5.751   0.110   5.826
 5632SOL    HW217796   5.843   0.128   5.960
 5633SOL     OW17797   0.588   5.043   5.654
 5633SOL    HW117798   0.533   5.072   5.576
 5633SOL    HW217799   0.597   5.119   5.718
 5634SOL     OW17800   3.081   6.615   6.834
 5634SOL    HW117801   2.989   6.644   6.809
 5634SOL    HW217802   3.086   6.515   6.831
 5635SOL     OW17803   2.408   0.042   6.772
 5635SOL    HW117804   2.424   0.097   6.854
 5635SOL    HW217805   2.365   0.099   6.702
 5636SOL     OW17806   6.724   1.457   5.823
 5636SOL    HW117807   6.696   1.412   5.739
 5636SOL    HW217808   6.823   1.468   5.824
 5637SOL     OW17809   5.026   6.796   4.295
 5637SOL    HW117810   5.120   6.765   4.281
 5637SOL    HW217811   5.011   6.816   4.391
 5638SOL     OW17812   5.068   5.262   0.734
 5638SOL    HW117813   5.130   5.333   0.765
 5638SOL    HW217814   4.993   5.253   0.800
 5639SOL     OW17815   0.628   0.247   1.429
 5639SOL    HW117816   0.649   0.338   1.393
 5639SOL    HW217817   0.532   0.225   1.410
 5640SOL     OW17818   3.183   5.797   3.461
 5640SOL    HW117819   3.188   5.796   3.561
 5640SOL    HW217820   3.210   5.888   3.427
 5641SOL     OW17821   0.794   4.993   4.237
 5641SOL    HW117822   0.840   4.952   4.158
 5641SOL    HW217823   0.859   5.050   4.287
 5642SOL     OW17824   1.650   4.511   0.263
 5642SOL    HW117825   1.732   4.559   0.294
 5642SOL    HW217826   1.635   4.430   0.320
 5643SOL     OW17827   4.266   2.204   4.442
 5643SOL    HW117828   4.302   2.293   4.414
 5643SOL    HW217829   4.251   2.147   4.362
 5644SOL     OW17830   4.784   1.783   5.213
 5644SOL    HW117831   4.736   1.764   5.298
 5644SOL    HW217832   4.735   1.854   5.162
 5645SOL     OW17833   6.151   5.850   3.618
 5645SOL    HW117834   6.208   5.910   3.673
 5645SOL    HW217835   6.057   5.851   3.655
 5646SOL     OW17836   0.376   6.462   3.673
 5646SOL    HW117837   0.389   6.393   3.744
 5646SOL    HW217838   0.462   6.479   3.626
 5647SOL     OW17839   5.856   5.705   6.934
 5647SOL    HW117840   5.819   5.693   6.842
 5647SOL    HW217841   5.815   5.785   6.977
 5648SOL     OW17842   1.770   1.600   3.588
 5648SOL    HW117843   1.808   1.519   3.544
 5648SOL    HW217844   1.816   1.614   3.676
 5649SOL     OW17845   0.940   0.712   4.794
 5649SOL    HW117846   0.952   0.782   4.865
 5649SOL    HW217847   0.890   0.634   4.832
 5650SOL     OW17848   6.722   4.938   6.531
 5650SOL    HW117849   6.626   4.910   6.522
 5650SOL    HW217850   6.741   5.010   6.464
 5651SOL     OW17851   0.095   1.385   1.777
 5651SOL    HW117852   0.150   1.313   1.819
 5651SOL    HW217853   0.022   1.411   1.840
 5652SOL     OW17854   4.654   5.459   2.076
 5652SOL    HW117855   4.597   5.473   2.156
 5652SOL    HW217856   4.606   5.491   1.994
 5653SOL     OW17857   0.217   5.454   5.237
 5653SOL    HW117858   0.287   5.417   5.175
 5653SOL    HW217859   0.129   5.411   5.217
 5654SOL     OW17860   6.921   0.504   5.346
 5654SOL    HW117861   7.009   0.470   5.381
 5654SOL    HW217862   6.855   0.506   5.421
 5655SOL     OW17863   1.055   3.440   3.805
 5655SOL    HW117864   1.083   3.424   3.900
 5655SOL    HW217865   0.965   3.483   3.803
 5656SOL     OW17866   3.355   3.183   0.778
 5656SOL    HW117867   3.286   3.245   0.817
 5656SOL    HW217868   3.446   3.215   0.803
 5657SOL     OW17869   4.088   0.226   2.209
 5657SOL    HW117870   3.999   0.182   2.192
 5657SOL    HW217871   4.161   0.169   2.169
 5658SOL     OW17872   3.743   6.798   5.524
 5658SOL    HW117873   3.753   6.761   5.616
 5658SOL    HW217874   3.646   6.810   5.503
 5659SOL     OW17875   2.904   3.421   3.004
 5659SOL    HW117876   2.898   3.336   2.952
 5659SOL    HW217877   2.942   3.493   2.945
 5660SOL     OW17878   4.804   0.439   6.936
 5660SOL    HW117879   4.722   0.447   6.880
 5660SOL    HW217880   4.823   0.526   6.981
 5661SOL     OW17881   7.022   5.977   4.742
 5661SOL    HW117882   6.938   5.965   4.794
 5661SOL    HW217883   7.002   6.021   4.655
 5662SOL     OW17884   2.391   4.336   3.995
 5662SOL    HW117885   2.419   4.328   3.900
 5662SOL    HW217886   2.448   4.405   4.041
 5663SOL     OW17887   1.030   4.135   0.755
 5663SOL    HW117888   1.045   4.057   0.817
 5663SOL    HW217889   1.105   4.200   0.765
 5664SOL     OW17890   0.280   4.510   2.329
 5664SOL    HW117891   0.210   4.527   2.399
 5664SOL    HW217892   0.359   4.569   2.347
 5665SOL     OW17893   2.255   2.748   6.528
 5665SOL    HW117894   2.328   2.815   6.544
 5665SOL    HW217895   2.168   2.786   6.557
 5666SOL     OW17896   4.722   5.712   0.638
 5666SOL    HW117897   4.780   5.756   0.570
 5666SOL    HW217898   4.631   5.754   0.638
 5667SOL     OW17899   6.765   4.751   2.993
 5667SOL    HW117900   6.835   4.821   2.985
 5667SOL    HW217901   6.766   4.692   2.912
 5668SOL     OW17902   4.626   1.985   6.022
 5668SOL    HW117903   4.550   1.922   6.011
 5668SOL    HW217904   4.604   2.053   6.092
 5669SOL     OW17905   0.618   5.162   6.080
 5669SOL    HW117906   0.677   5.087   6.110
 5669SOL    HW217907   0.522   5.138   6.094
 5670SOL     OW17908   0.478   3.417   4.223
 5670SOL    HW117909   0.499   3.440   4.128
 5670SOL    HW217910   0.562   3.395   4.271
 5671SOL     OW17911   2.225   6.910   6.570
 5671SOL    HW117912   2.247   6.963   6.652
 5671SOL    HW217913   2.151   6.846   6.590
 5672SOL     OW17914   5.377   3.823   5.841
 5672SOL    HW117915   5.371   3.868   5.752
 5672SOL    HW217916   5.448   3.868   5.895
 5673SOL     OW17917   0.312   0.389   2.394
 5673SOL    HW117918   0.221   0.419   2.365
 5673SOL    HW217919   0.304   0.318   2.463
 5674SOL     OW17920   6.906   3.584   1.550
 5674SOL    HW117921   6.905   3.485   1.533
 5674SOL    HW217922   6.866   3.603   1.639
 5675SOL     OW17923   4.361   2.496   5.511
 5675SOL    HW117924   4.364   2.591   5.481
 5675SOL    HW217925   4.446   2.473   5.557
 5676SOL     OW17926   2.008   0.247   1.474
 5676SOL    HW117927   1.965   0.187   1.541
 5676SOL    HW217928   2.107   0.249   1.489
 5677SOL     OW17929   6.573   1.062   3.587
 5677SOL    HW117930   6.657   1.010   3.571
 5677SOL    HW217931   6.595   1.158   3.602
 5678SOL     OW17932   3.865   6.691   2.989
 5678SOL    HW117933   3.803   6.652   2.920
 5678SOL    HW217934   3.933   6.749   2.944
 5679SOL     OW17935   1.716   6.664   4.896
 5679SOL    HW117936   1.768   6.591   4.852
 5679SOL    HW217937   1.772   6.707   4.967
 5680SOL     OW17938   1.346   5.477   6.408
 5680SOL    HW117939   1.310   5.473   6.315
 5680SOL    HW217940   1.435   5.521   6.408
 5681SOL     OW17941   1.261   2.125   6.456
 5681SOL    HW117942   1.257   2.030   6.487
 5681SOL    HW217943   1.173   2.169   6.474
 5682SOL     OW17944   1.586   2.328   6.010
 5682SOL    HW117945   1.565   2.232   6.028
 5682SOL    HW217946   1.506   2.373   5.971
 5683SOL     OW17947   3.520   3.116   6.423
 5683SOL    HW117948   3.522   3.038   6.360
 5683SOL    HW217949   3.521   3.082   6.517
 5684SOL     OW17950   3.562   3.632   3.849
 5684SOL    HW117951   3.641   3.654   3.906
 5684SOL    HW217952   3.573   3.540   3.810
 5685SOL     OW17953   0.402   4.744   2.596
 5685SOL    HW117954   0.476   4.764   2.661
 5685SOL    HW217955   0.315   4.777   2.633
 5686SOL     OW17956   3.982   0.269   0.886
 5686SOL    HW117957   3.990   0.363   0.854
 5686SOL    HW217958   3.960   0.269   0.983
 5687SOL     OW17959   5.915   4.571   5.070
 5687SOL    HW117960   5.895   4.482   5.111
 5687SOL    HW217961   5.936   4.559   4.973
 5688SOL     OW17962   5.476   2.195   1.643
 5688SOL    HW117963   5.503   2.105   1.677
 5688SOL    HW217964   5.396   2.185   1.583
 5689SOL     OW17965   5.009   1.299   0.828
 5689SOL    HW117966   4.984   1.396   0.827
 5689SOL    HW217967   4.928   1.244   0.810
 5690SOL     OW17968   4.387   6.113   0.505
 5690SOL    HW117969   4.390   6.141   0.408
 5690SOL    HW217970   4.440   6.178   0.559
 5691SOL     OW17971   2.725   6.532   2.368
 5691SOL    HW117972   2.675   6.470   2.308
 5691SOL    HW217973   2.666   6.564   2.442
 5692SOL     OW17974   6.795   2.272   5.917
 5692SOL    HW117975   6.851   2.247   5.839
 5692SOL    HW217976   6.721   2.333   5.887
 5693SOL     OW17977   4.926   2.694   2.799
 5693SOL    HW117978   5.000   2.759   2.819
 5693SOL    HW217979   4.913   2.687   2.700
 5694SOL     OW17980   0.171   1.164   3.498
 5694SOL    HW117981   0.199   1.255   3.529
 5694SOL    HW217982   0.214   1.095   3.556
 5695SOL     OW17983   1.066   2.275   3.671
 5695SOL    HW117984   1.163   2.248   3.668
 5695SOL    HW217985   1.035   2.295   3.578
 5696SOL     OW17986   2.315   1.537   5.124
 5696SOL    HW117987   2.323   1.637   5.132
 5696SOL    HW217988   2.315   1.512   5.027
 5697SOL     OW17989   6.974   2.358   1.041
 5697SOL    HW117990   0.009   2.436   1.023
 5697SOL    HW217991   6.963   2.304   0.958
 5698SOL     OW17992   0.936   3.058   1.830
 5698SOL    HW117993   0.970   3.151   1.839
 5698SOL    HW217994   0.864   3.055   1.760
 5699SOL     OW17995   6.042   0.894   4.437
 5699SOL    HW117996   6.099   0.965   4.397
 5699SOL    HW217997   6.048   0.811   4.382
 5700SOL     OW17998   1.624   6.191   5.113
 5700SOL    HW117999   1.655   6.191   5.208
 5700SOL    HW218000   1.534   6.234   5.107
 5701SOL     OW18001   0.436   6.447   2.335
 5701SOL    HW118002   0.390   6.358   2.334
 5701SOL    HW218003   0.531   6.435   2.365
 5702SOL     OW18004   1.701   6.932   5.520
 5702SOL    HW118005   1.716   7.012   5.577
 5702SOL    HW218006   1.722   6.849   5.572
 5703SOL     OW18007   4.292   4.774   6.759
 5703SOL    HW118008   4.241   4.798   6.676
 5703SOL    HW218009   4.378   4.825   6.760
 5704SOL     OW18010   4.748   5.298   3.189
 5704SOL    HW118011   4.799   5.257   3.264
 5704SOL    HW218012   4.789   5.386   3.164
 5705SOL     OW18013   5.809   0.332   0.969
 5705SOL    HW118014   5.816   0.232   0.965
 5705SOL    HW218015   5.769   0.366   0.884
 5706SOL     OW18016   1.791   1.619   0.612
 5706SOL    HW118017   1.826   1.690   0.551
 5706SOL    HW218018   1.696   1.641   0.638
 5707SOL     OW18019   1.757   0.530   6.385
 5707SOL    HW118020   1.761   0.627   6.408
 5707SOL    HW218021   1.761   0.476   6.469
 5708SOL     OW18022   5.324   6.607   2.456
 5708SOL    HW118023   5.346   6.686   2.513
 5708SOL    HW218024   5.257   6.550   2.503
 5709SOL     OW18025   0.664   6.809   3.428
 5709SOL    HW118026   0.600   6.882   3.402
 5709SOL    HW218027   0.626   6.760   3.507
 5710SOL     OW18028   2.990   3.410   5.959
 5710SOL    HW118029   3.074   3.367   5.994
 5710SOL    HW218030   2.945   3.348   5.895
 5711SOL     OW18031   5.090   1.242   3.927
 5711SOL    HW118032   5.155   1.213   3.858
 5711SOL    HW218033   5.025   1.167   3.944
 5712SOL     OW18034   6.547   0.097   5.472
 5712SOL    HW118035   6.614   0.038   5.426
 5712SOL    HW218036   6.467   0.108   5.412
 5713SOL     OW18037   0.322   2.448   1.885
 5713SOL    HW118038   0.296   2.359   1.849
 5713SOL    HW218039   0.282   2.461   1.976
 5714SOL     OW18040   1.437   0.143   6.843
 5714SOL    HW118041   1.401   0.182   6.758
 5714SOL    HW218042   1.491   0.062   6.823
 5715SOL     OW18043   1.502   6.368   2.976
 5715SOL    HW118044   1.408   6.378   2.944
 5715SOL    HW218045   1.521   6.271   2.993
 5716SOL     OW18046   1.690   3.403   6.045
 5716SOL    HW118047   1.635   3.371   6.122
 5716SOL    HW218048   1.640   3.386   5.960
 5717SOL     OW18049   0.740   4.264   1.262
 5717SOL    HW118050   0.663   4.226   1.313
 5717SOL    HW218051   0.802   4.191   1.233
 5718SOL     OW18052   1.392   4.786   6.659
 5718SOL    HW118053   1.419   4.779   6.563
 5718SOL    HW218054   1.350   4.700   6.687
 5719SOL     OW18055   3.152   0.812   6.580
 5719SOL    HW118056   3.055   0.795   6.564
 5719SOL    HW218057   3.201   0.811   6.493
 5720SOL     OW18058   0.668   5.424   4.947
 5720SOL    HW118059   0.688   5.425   4.849
 5720SOL    HW218060   0.570   5.414   4.961
 5721SOL     OW18061   0.746   3.065   0.203
 5721SOL    HW118062   0.767   3.062   0.300
 5721SOL    HW218063   0.785   2.984   0.158
 5722SOL     OW18064   5.277   0.915   5.156
 5722SOL    HW118065   5.357   0.923   5.215
 5722SOL    HW218066   5.222   0.836   5.183
 5723SOL     OW18067   3.754   5.454   0.479
 5723SOL    HW118068   3.829   5.388   0.476
 5723SOL    HW218069   3.667   5.406   0.482
 5724SOL     OW18070   5.091   2.277   6.166
 5724SOL    HW118071   5.188   2.256   6.178
 5724SOL    HW218072   5.081   2.353   6.102
 5725SOL     OW18073   5.254   5.390   4.188
 5725SOL    HW118074   5.298   5.329   4.253
 5725SOL    HW218075   5.279   5.364   4.094
 5726SOL     OW18076   6.132   3.759   5.262
 5726SOL    HW118077   6.179   3.804   5.338
 5726SOL    HW218078   6.033   3.768   5.274
 5727SOL     OW18079   5.887   2.288   3.062
 5727SOL    HW118080   5.941   2.322   3.139
 5727SOL    HW218081   5.796   2.263   3.093
 5728SOL     OW18082   6.397   1.112   5.803
 5728SOL    HW118083   6.480   1.150   5.844
 5728SOL    HW218084   6.416   1.021   5.767
 5729SOL     OW18085   0.024   1.913   6.714
 5729SOL    HW118086   6.952   1.916   6.738
 5729SOL    HW218087   0.048   1.993   6.658
 5730SOL     OW18088   3.574   6.165   4.926
 5730SOL    HW118089   3.605   6.192   4.835
 5730SOL    HW218090   3.482   6.127   4.920
 5731SOL     OW18091   1.602   6.750   4.207
 5731SOL    HW118092   1.578   6.701   4.291
 5731SOL    HW218093   1.529   6.738   4.140
 5732SOL     OW18094   5.856   5.137   4.395
 5732SOL    HW118095   5.915   5.181   4.327
 5732SOL    HW218096   5.869   5.180   4.484
 5733SOL     OW18097   3.496   0.896   0.250
 5733SOL    HW118098   3.443   0.882   0.334
 5733SOL    HW218099   3.457   0.842   0.176
 5734SOL     OW18100   1.524   6.882   5.323
 5734SOL    HW118101   1.511   6.960   5.262
 5734SOL    HW218102   1.598   6.901   5.387
 5735SOL     OW18103   3.876   0.876   2.844
 5735SOL    HW118104   3.883   0.943   2.918
 5735SOL    HW218105   3.954   0.813   2.849
 5736SOL     OW18106   5.021   4.494   6.399
 5736SOL    HW118107   4.969   4.451   6.472
 5736SOL    HW218108   4.960   4.518   6.323
 5737SOL     OW18109   5.235   6.268   1.105
 5737SOL    HW118110   5.333   6.255   1.124
 5737SOL    HW218111   5.182   6.224   1.178
 5738SOL     OW18112   3.577   1.326   6.641
 5738SOL    HW118113   3.574   1.417   6.683
 5738SOL    HW218114   3.660   1.317   6.586
 5739SOL     OW18115   1.900   0.258   5.935
 5739SOL    HW118116   1.873   0.228   6.027
 5739SOL    HW218117   1.827   0.237   5.871
 5740SOL     OW18118   4.933   3.502   0.845
 5740SOL    HW118119   5.014   3.521   0.789
 5740SOL    HW218120   4.863   3.459   0.789
 5741SOL     OW18121   0.707   4.094   4.211
 5741SOL    HW118122   0.707   4.044   4.125
 5741SOL    HW218123   0.647   4.047   4.277
 5742SOL     OW18124   3.862   6.890   3.735
 5742SOL    HW118125   3.884   6.981   3.698
 5742SOL    HW218126   3.946   6.848   3.770
 5743SOL     OW18127   3.848   4.394   5.774
 5743SOL    HW118128   3.899   4.423   5.693
 5743SOL    HW218129   3.824   4.474   5.830
 5744SOL     OW18130   6.074   0.353   3.116
 5744SOL    HW118131   6.136   0.350   3.038
 5744SOL    HW218132   6.003   0.421   3.100
 5745SOL     OW18133   2.534   2.460   3.882
 5745SOL    HW118134   2.540   2.525   3.807
 5745SOL    HW218135   2.554   2.368   3.849
 5746SOL     OW18136   3.760   0.306   3.250
 5746SOL    HW118137   3.857   0.312   3.274
 5746SOL    HW218138   3.710   0.263   3.326
 5747SOL     OW18139   1.026   6.010   1.801
 5747SOL    HW118140   0.935   6.052   1.805
 5747SOL    HW218141   1.091   6.075   1.762
 5748SOL     OW18142   0.372   6.262   0.292
 5748SOL    HW118143   0.294   6.202   0.309
 5748SOL    HW218144   0.443   6.247   0.361
 5749SOL     OW18145   1.805   6.842   5.135
 5749SOL    HW118146   1.863   6.899   5.194
 5749SOL    HW218147   1.755   6.776   5.191
 5750SOL     OW18148   6.707   4.437   4.327
 5750SOL    HW118149   6.662   4.380   4.257
 5750SOL    HW218150   6.757   4.378   4.390
 5751SOL     OW18151   1.974   3.748   4.520
 5751SOL    HW118152   2.012   3.679   4.582
 5751SOL    HW218153   1.916   3.811   4.572
 5752SOL     OW18154   5.431   0.036   0.893
 5752SOL    HW118155   5.520   7.020   0.914
 5752SOL    HW218156   5.376   6.998   0.839
 5753SOL     OW18157   2.808   3.880   5.233
 5753SOL    HW118158   2.868   3.958   5.217
 5753SOL    HW218159   2.715   3.912   5.251
 5754SOL     OW18160   1.303   6.597   1.608
 5754SOL    HW118161   1.334   6.580   1.702
 5754SOL    HW218162   1.350   6.536   1.546
 5755SOL     OW18163   2.320   2.268   6.955
 5755SOL    HW118164   2.381   2.207   6.903
 5755SOL    HW218165   2.227   2.259   6.921
 5756SOL     OW18166   6.514   6.974   1.642
 5756SOL    HW118167   6.555   6.887   1.669
 5756SOL    HW218168   6.415   6.969   1.650
 5757SOL     OW18169   6.634   5.954   4.033
 5757SOL    HW118170   6.605   6.022   4.099
 5757SOL    HW218171   6.675   5.876   4.081
 5758SOL     OW18172   1.791   6.740   3.170
 5758SOL    HW118173   1.701   6.781   3.183
 5758SOL    HW218174   1.782   6.655   3.117
 5759SOL     OW18175   4.594   6.721   1.596
 5759SOL    HW118176   4.645   6.806   1.588
 5759SOL    HW218177   4.569   6.688   1.504
 5760SOL     OW18178   6.928   3.404   2.002
 5760SOL    HW118179   6.867   3.479   2.029
 5760SOL    HW218180   6.875   3.319   1.995
 5761SOL     OW18181   4.919   5.757   4.863
 5761SOL    HW118182   4.839   5.797   4.908
 5761SOL    HW218183   4.899   5.743   4.766
 5762SOL     OW18184   5.209   4.521   0.777
 5762SOL    HW118185   5.229   4.433   0.734
 5762SOL    HW218186   5.295   4.570   0.794
 5763SOL     OW18187   5.038   6.921   0.443
 5763SOL    HW118188   4.987   6.904   0.358
 5763SOL    HW218189   5.121   6.865   0.444
 5764SOL     OW18190   4.220   5.403   3.401
 5764SOL    HW118191   4.176   5.342   3.335
 5764SOL    HW218192   4.319   5.405   3.384
 5765SOL     OW18193   6.148   4.472   0.616
 5765SOL    HW118194   6.169   4.537   0.688
 5765SOL    HW218195   6.232   4.448   0.566
 5766SOL     OW18196   1.198   1.962   4.635
 5766SOL    HW118197   1.132   1.888   4.632
 5766SOL    HW218198   1.179   2.027   4.562
 5767SOL     OW18199   2.026   0.254   0.400
 5767SOL    HW118200   2.117   0.237   0.438
 5767SOL    HW218201   1.974   0.169   0.397
 5768SOL     OW18202   6.866   6.936   3.410
 5768SOL    HW118203   6.924   6.987   3.475
 5768SOL    HW218204   6.924   6.892   3.342
 5769SOL     OW18205   2.190   5.366   6.322
 5769SOL    HW118206   2.122   5.331   6.386
 5769SOL    HW218207   2.148   5.383   6.233
 5770SOL     OW18208   0.991   6.123   0.038
 5770SOL    HW118209   1.072   6.150   7.011
 5770SOL    HW218210   0.997   6.163   0.130
 5771SOL     OW18211   2.293   6.588   3.931
 5771SOL    HW118212   2.220   6.652   3.954
 5771SOL    HW218213   2.255   6.497   3.915
 5772SOL     OW18214   4.787   1.080   1.764
 5772SOL    HW118215   4.806   0.986   1.791
 5772SOL    HW218216   4.698   1.084   1.719
 5773SOL     OW18217   4.825   1.987   2.296
 5773SOL    HW118218   4.812   1.908   2.355
 5773SOL    HW218219   4.750   1.991   2.229
 5774SOL     OW18220   1.951   0.195   5.130
 5774SOL    HW118221   1.962   0.163   5.036
 5774SOL    HW218222   1.924   0.118   5.188
 5775SOL     OW18223   0.787   6.163   2.510
 5775SOL    HW118224   0.832   6.221   2.578
 5775SOL    HW218225   0.697   6.203   2.488
 5776SOL     OW18226   1.244   0.307   3.300
 5776SOL    HW118227   1.314   0.368   3.262
 5776SOL    HW218228   1.252   0.217   3.258
 5777SOL     OW18229   1.449   0.404   3.674
 5777SOL    HW118230   1.537   0.388   3.720
 5777SOL    HW218231   1.437   0.503   3.659
 5778SOL     OW18232   1.124   1.017   0.526
 5778SOL    HW118233   1.098   1.107   0.490
 5778SOL    HW218234   1.051   0.982   0.584
 5779SOL     OW18235   4.944   2.763   6.722
 5779SOL    HW118236   5.026   2.776   6.667
 5779SOL    HW218237   4.908   2.671   6.706
 5780SOL     OW18238   5.671   5.709   4.865
 5780SOL    HW118239   5.592   5.742   4.814
 5780SOL    HW218240   5.646   5.696   4.961
 5781SOL     OW18241   6.292   4.882   5.082
 5781SOL    HW118242   6.260   4.788   5.083
 5781SOL    HW218243   6.217   4.943   5.054
 5782SOL     OW18244   1.050   1.408   0.657
 5782SOL    HW118245   1.048   1.508   0.652
 5782SOL    HW218246   0.966   1.371   0.618
 5783SOL     OW18247   1.285   1.036   2.307
 5783SOL    HW118248   1.338   1.121   2.305
 5783SOL    HW218249   1.317   0.974   2.236
 5784SOL     OW18250   0.367   5.901   6.594
 5784SOL    HW118251   0.437   5.863   6.654
 5784SOL    HW218252   0.324   5.979   6.639
 5785SOL     OW18253   2.511   1.880   0.333
 5785SOL    HW118254   2.529   1.878   0.234
 5785SOL    HW218255   2.431   1.824   0.354
 5786SOL     OW18256   6.494   4.298   0.200
 5786SOL    HW118257   6.521   4.229   0.267
 5786SOL    HW218258   6.397   4.320   0.212
 5787SOL     OW18259   2.011   1.697   5.957
 5787SOL    HW118260   1.992   1.772   5.893
 5787SOL    HW218261   2.087   1.723   6.017
 5788SOL     OW18262   2.783   1.177   2.973
 5788SOL    HW118263   2.747   1.132   2.891
 5788SOL    HW218264   2.713   1.177   3.045
 5789SOL     OW18265   3.407   5.436   6.254
 5789SOL    HW118266   3.502   5.463   6.237
 5789SOL    HW218267   3.399   5.399   6.347
 5790SOL     OW18268   0.867   3.432   4.516
 5790SOL    HW118269   0.938   3.431   4.586
 5790SOL    HW218270   0.851   3.526   4.485
 5791SOL     OW18271   3.655   6.923   1.898
 5791SOL    HW118272   3.732   6.981   1.872
 5791SOL    HW218273   3.581   6.980   1.933
 5792SOL     OW18274   0.483   2.507   2.854
 5792SOL    HW118275   0.552   2.576   2.873
 5792SOL    HW218276   0.448   2.518   2.761
 5793SOL     OW18277   5.569   1.482   3.287
 5793SOL    HW118278   5.561   1.388   3.319
 5793SOL    HW218279   5.508   1.496   3.209
 5794SOL     OW18280   3.730   2.098   0.253
 5794SOL    HW118281   3.760   2.003   0.242
 5794SOL    HW218282   3.739   2.146   0.166
 5795SOL     OW18283   5.968   5.722   5.676
 5795SOL    HW118284   5.992   5.633   5.714
 5795SOL    HW218285   6.049   5.763   5.634
 5796SOL     OW18286   3.910   1.408   0.006
 5796SOL    HW118287   3.910   1.379   0.101
 5796SOL    HW218288   3.876   1.334   6.973
 5797SOL     OW18289   3.958   1.772   4.763
 5797SOL    HW118290   4.055   1.769   4.740
 5797SOL    HW218291   3.905   1.782   4.679
 5798SOL     OW18292   0.849   4.430   5.566
 5798SOL    HW118293   0.886   4.409   5.656
 5798SOL    HW218294   0.819   4.346   5.522
 5799SOL     OW18295   5.456   1.404   3.778
 5799SOL    HW118296   5.401   1.414   3.862
 5799SOL    HW218297   5.505   1.489   3.760
 5800SOL     OW18298   5.513   6.087   0.638
 5800SOL    HW118299   5.545   6.005   0.685
 5800SOL    HW218300   5.591   6.137   0.601
 5801SOL     OW18301   1.090   2.552   4.710
 5801SOL    HW118302   1.140   2.476   4.668
 5801SOL    HW218303   1.148   2.632   4.715
 5802SOL     OW18304   1.125   4.629   0.419
 5802SOL    HW118305   1.092   4.632   0.513
 5802SOL    HW218306   1.143   4.534   0.393
 5803SOL     OW18307   1.540   4.606   2.134
 5803SOL    HW118308   1.604   4.545   2.087
 5803SOL    HW218309   1.447   4.571   2.125
 5804SOL     OW18310   6.385   4.288   3.616
 5804SOL    HW118311   6.433   4.346   3.682
 5804SOL    HW218312   6.412   4.193   3.630
 5805SOL     OW18313   3.776   4.662   6.986
 5805SOL    HW118314   3.837   4.734   6.950
 5805SOL    HW218315   3.830   4.597   0.015
 5806SOL     OW18316   0.287   6.432   6.619
 5806SOL    HW118317   0.381   6.442   6.585
 5806SOL    HW218318   0.283   6.358   6.686
 5807SOL     OW18319   1.627   4.102   1.574
 5807SOL    HW118320   1.623   4.197   1.545
 5807SOL    HW218321   1.702   4.090   1.639
 5808SOL     OW18322   5.963   4.225   3.086
 5808SOL    HW118323   5.953   4.255   3.181
 5808SOL    HW218324   5.877   4.184   3.055
 5809SOL     OW18325   0.395   2.418   5.133
 5809SOL    HW118326   0.450   2.453   5.058
 5809SOL    HW218327   0.313   2.374   5.097
 5810SOL     OW18328   2.958   0.656   3.726
 5810SOL    HW118329   3.042   0.709   3.721
 5810SOL    HW218330   2.907   0.666   3.640
 5811SOL     OW18331   2.822   6.857   4.829
 5811SOL    HW118332   2.918   6.862   4.803
 5811SOL    HW218333   2.815   6.812   4.919
 5812SOL     OW18334   5.544   0.354   4.177
 5812SOL    HW118335   5.562   0.445   4.215
 5812SOL    HW218336   5.447   0.344   4.157
 5813SOL     OW18337   1.489   1.209   0.368
 5813SOL    HW118338   1.460   1.181   0.459
 5813SOL    HW218339   1.422   1.178   0.300
 5814SOL     OW18340   6.140   4.386   0.957
 5814SOL    HW118341   6.102   4.474   0.931
 5814SOL    HW218342   6.221   4.367   0.901
 5815SOL     OW18343   4.415   2.331   4.059
 5815SOL    HW118344   4.432   2.342   4.157
 5815SOL    HW218345   4.408   2.233   4.037
 5816SOL     OW18346   4.910   5.970   0.286
 5816SOL    HW118347   4.904   5.975   0.386
 5816SOL    HW218348   4.840   6.028   0.244
 5817SOL     OW18349   5.320   3.094   5.362
 5817SOL    HW118350   5.257   3.156   5.315
 5817SOL    HW218351   5.338   3.014   5.304
 5818SOL     OW18352   6.778   6.346   5.100
 5818SOL    HW118353   6.803   6.435   5.136
 5818SOL    HW218354   6.838   6.276   5.139
 5819SOL     OW18355   4.403   0.352   0.127
 5819SOL    HW118356   4.500   0.371   0.138
 5819SOL    HW218357   4.352   0.439   0.123
 5820SOL     OW18358   4.431   6.796   3.821
 5820SOL    HW118359   4.488   6.798   3.739
 5820SOL    HW218360   4.489   6.810   3.902
 5821SOL     OW18361   0.820   0.007   2.341
 5821SOL    HW118362   0.907   0.017   2.293
 5821SOL    HW218363   0.806   0.085   2.402
 5822SOL     OW18364   0.192   1.979   2.079
 5822SOL    HW118365   0.175   2.071   2.114
 5822SOL    HW218366   0.247   1.928   2.146
 5823SOL     OW18367   0.932   1.365   6.150
 5823SOL    HW118368   0.849   1.418   6.170
 5823SOL    HW218369   0.908   1.268   6.140
 5824SOL     OW18370   6.755   6.041   2.731
 5824SOL    HW118371   6.796   6.105   2.796
 5824SOL    HW218372   6.656   6.054   2.730
 5825SOL     OW18373   2.156   1.873   5.507
 5825SOL    HW118374   2.188   1.809   5.437
 5825SOL    HW218375   2.232   1.897   5.567
 5826SOL     OW18376   6.991   5.328   5.141
 5826SOL    HW118377   6.913   5.371   5.185
 5826SOL    HW218378   6.960   5.275   5.062
 5827SOL     OW18379   1.902   5.025   4.912
 5827SOL    HW118380   1.944   4.986   4.994
 5827SOL    HW218381   1.940   4.981   4.831
 5828SOL     OW18382   6.980   3.145   1.727
 5828SOL    HW118383   6.916   3.150   1.803
 5828SOL    HW218384   6.980   3.232   1.678
 5829SOL     OW18385   2.699   1.577   2.917
 5829SOL    HW118386   2.743   1.488   2.929
 5829SOL    HW218387   2.765   1.649   2.934
 5830SOL     OW18388   4.183   0.352   5.450
 5830SOL    HW118389   4.153   0.285   5.518
 5830SOL    HW218390   4.107   0.414   5.429
 5831SOL     OW18391   6.974   0.527   4.080
 5831SOL    HW118392   6.978   0.434   4.116
 5831SOL    HW218393   6.887   0.541   4.032
 5832SOL     OW18394   3.567   4.169   5.426
 5832SOL    HW118395   3.483   4.171   5.372
 5832SOL    HW218396   3.643   4.136   5.370
 5833SOL     OW18397   4.032   3.155   4.757
 5833SOL    HW118398   4.052   3.057   4.757
 5833SOL    HW218399   4.047   3.192   4.665
 5834SOL     OW18400   6.095   2.479   0.481
 5834SOL    HW118401   6.065   2.506   0.573
 5834SOL    HW218402   6.169   2.539   0.451
 5835SOL     OW18403   4.825   2.999   2.498
 5835SOL    HW118404   4.876   3.071   2.546
 5835SOL    HW218405   4.848   3.000   2.401
 5836SOL     OW18406   2.961   6.421   3.203
 5836SOL    HW118407   2.896   6.354   3.169
 5836SOL    HW218408   2.935   6.450   3.295
 5837SOL     OW18409   4.486   4.896   5.919
 5837SOL    HW118410   4.447   4.988   5.924
 5837SOL    HW218411   4.542   4.887   5.837
 5838SOL     OW18412   2.291   1.659   6.176
 5838SOL    HW118413   2.370   1.610   6.138
 5838SOL    HW218414   2.279   1.632   6.272
 5839SOL     OW18415   0.395   2.905   2.560
 5839SOL    HW118416   0.469   2.847   2.525
 5839SOL    HW218417   0.339   2.852   2.625
 5840SOL     OW18418   1.565   5.137   6.832
 5840SOL    HW118419   1.587   5.166   6.739
 5840SOL    HW218420   1.645   5.149   6.891
 5841SOL     OW18421   5.843   2.357   2.310
 5841SOL    HW118422   5.830   2.355   2.211
 5841SOL    HW218423   5.806   2.442   2.347
 5842SOL     OW18424   4.301   3.446   1.756
 5842SOL    HW118425   4.205   3.424   1.742
 5842SOL    HW218426   4.324   3.530   1.708
 5843SOL     OW18427   2.247   4.031   2.112
 5843SOL    HW118428   2.197   3.959   2.161
 5843SOL    HW218429   2.258   4.005   2.017
 5844SOL     OW18430   0.400   0.148   6.061
 5844SOL    HW118431   0.496   0.170   6.047
 5844SOL    HW218432   0.387   0.109   6.152
 5845SOL     OW18433   1.233   0.333   2.919
 5845SOL    HW118434   1.260   0.272   2.994
 5845SOL    HW218435   1.308   0.339   2.853
 5846SOL     OW18436   6.089   2.873   4.193
 5846SOL    HW118437   6.088   2.864   4.093
 5846SOL    HW218438   6.052   2.962   4.219
 5847SOL     OW18439   2.167   1.953   2.131
 5847SOL    HW118440   2.150   2.041   2.086
 5847SOL    HW218441   2.140   1.879   2.070
 5848SOL     OW18442   2.301   5.137   3.000
 5848SOL    HW118443   2.339   5.090   2.921
 5848SOL    HW218444   2.230   5.081   3.042
 5849SOL     OW18445   6.704   0.650   6.147
 5849SOL    HW118446   6.632   0.691   6.091
 5849SOL    HW218447   6.793   0.683   6.117
 5850SOL     OW18448   0.728   3.313   2.463
 5850SOL    HW118449   0.697   3.371   2.537
 5850SOL    HW218450   0.826   3.293   2.475
 5851SOL     OW18451   4.900   3.399   3.027
 5851SOL    HW118452   4.876   3.436   3.117
 5851SOL    HW218453   4.893   3.471   2.958
 5852SOL     OW18454   4.925   6.495   3.106
 5852SOL    HW118455   4.868   6.557   3.160
 5852SOL    HW218456   4.871   6.456   3.032
 5853SOL     OW18457   3.098   5.938   5.543
 5853SOL    HW118458   3.045   5.921   5.460
 5853SOL    HW218459   3.164   6.012   5.526
 5854SOL     OW18460   6.309   3.565   5.688
 5854SOL    HW118461   6.230   3.532   5.739
 5854SOL    HW218462   6.379   3.493   5.685
 5855SOL     OW18463   0.765   0.418   4.327
 5855SOL    HW118464   0.829   0.492   4.352
 5855SOL    HW218465   0.816   0.342   4.288
 5856SOL     OW18466   2.283   5.877   3.649
 5856SOL    HW118467   2.346   5.801   3.630
 5856SOL    HW218468   2.308   5.956   3.594
 5857SOL     OW18469   6.207   2.690   5.405
 5857SOL    HW118470   6.163   2.723   5.322
 5857SOL    HW218471   6.306   2.686   5.392
 5858SOL     OW18472   2.636   2.374   2.157
 5858SOL    HW118473   2.648   2.345   2.252
 5858SOL    HW218474   2.713   2.340   2.102
 5859SOL     OW18475   5.086   6.823   1.075
 5859SOL    HW118476   5.183   6.835   1.097
 5859SOL    HW218477   5.065   6.725   1.071
 5860SOL     OW18478   2.175   3.749   1.919
 5860SOL    HW118479   2.120   3.737   2.001
 5860SOL    HW218480   2.196   3.660   1.879
 5861SOL     OW18481   4.995   1.649   4.239
 5861SOL    HW118482   4.983   1.687   4.330
 5861SOL    HW218483   5.079   1.684   4.198
 5862SOL     OW18484   4.759   4.655   3.302
 5862SOL    HW118485   4.672   4.704   3.306
 5862SOL    HW218486   4.824   4.699   3.363
 5863SOL     OW18487   3.258   0.761   4.880
 5863SOL    HW118488   3.269   0.845   4.826
 5863SOL    HW218489   3.277   0.781   4.976
 5864SOL     OW18490   4.252   3.889   1.767
 5864SOL    HW118491   4.196   3.853   1.841
 5864SOL    HW218492   4.284   3.814   1.709
 5865SOL     OW18493   5.591   0.170   3.775
 5865SOL    HW118494   5.568   0.173   3.678
 5865SOL    HW218495   5.608   0.262   3.808
 5866SOL     OW18496   3.641   6.201   6.283
 5866SOL    HW118497   3.579   6.124   6.298
 5866SOL    HW218498   3.687   6.190   6.195
 5867SOL     OW18499   0.502   3.367   0.960
 5867SOL    HW118500   0.489   3.376   0.861
 5867SOL    HW218501   0.482   3.273   0.987
 5868SOL     OW18502   6.936   0.700   4.972
 5868SOL    HW118503   6.918   0.794   4.944
 5868SOL    HW218504   6.865   0.669   5.036
 5869SOL     OW18505   1.868   5.508   3.317
 5869SOL    HW118506   1.778   5.502   3.360
 5869SOL    HW218507   1.910   5.417   3.317
 5870SOL     OW18508   4.624   5.600   4.781
 5870SOL    HW118509   4.552   5.618   4.715
 5870SOL    HW218510   4.603   5.516   4.831
 5871SOL     OW18511   4.344   3.474   0.043
 5871SOL    HW118512   4.423   3.458   0.101
 5871SOL    HW218513   4.366   3.543   6.999
 5872SOL     OW18514   4.029   4.815   6.880
 5872SOL    HW118515   4.097   4.778   6.944
 5872SOL    HW218516   4.017   4.913   6.898
 5873SOL     OW18517   2.198   2.830   0.777
 5873SOL    HW118518   2.229   2.910   0.827
 5873SOL    HW218519   2.116   2.793   0.819
 5874SOL     OW18520   3.125   2.823   1.215
 5874SOL    HW118521   3.052   2.755   1.206
 5874SOL    HW218522   3.188   2.795   1.287
 5875SOL     OW18523   3.781   1.614   0.919
 5875SOL    HW118524   3.866   1.614   0.971
 5875SOL    HW218525   3.769   1.525   0.874
 5876SOL     OW18526   3.192   2.868   6.895
 5876SOL    HW118527   3.174   2.857   6.993
 5876SOL    HW218528   3.128   2.813   6.843
 5877SOL     OW18529   6.216   6.940   0.670
 5877SOL    HW118530   6.140   7.002   0.693
 5877SOL    HW218531   6.184   6.871   0.605
 5878SOL     OW18532   5.218   5.501   3.265
 5878SOL    HW118533   5.227   5.469   3.170
 5878SOL    HW218534   5.124   5.530   3.281
 5879SOL     OW18535   2.938   2.927   5.926
 5879SOL    HW118536   3.010   2.951   5.861
 5879SOL    HW218537   2.876   3.004   5.938
 5880SOL     OW18538   4.336   4.128   6.232
 5880SOL    HW118539   4.389   4.047   6.256
 5880SOL    HW218540   4.375   4.170   6.150
 5881SOL     OW18541   0.921   6.767   2.807
 5881SOL    HW118542   0.895   6.723   2.893
 5881SOL    HW218543   0.991   6.712   2.762
 5882SOL     OW18544   0.580   6.899   5.837
 5882SOL    HW118545   0.570   6.806   5.872
 5882SOL    HW218546   0.491   6.935   5.811
 5883SOL     OW18547   0.365   1.920   0.324
 5883SOL    HW118548   0.323   1.881   0.406
 5883SOL    HW218549   0.457   1.952   0.346
 5884SOL     OW18550   6.450   0.754   4.707
 5884SOL    HW118551   6.459   0.854   4.714
 5884SOL    HW218552   6.469   0.713   4.795
 5885SOL     OW18553   0.731   5.367   0.749
 5885SOL    HW118554   0.752   5.403   0.840
 5885SOL    HW218555   0.632   5.371   0.734
 5886SOL     OW18556   1.464   3.398   3.384
 5886SOL    HW118557   1.505   3.472   3.437
 5886SOL    HW218558   1.395   3.351   3.440
 5887SOL     OW18559   2.786   1.987   1.816
 5887SOL    HW118560   2.780   1.939   1.904
 5887SOL    HW218561   2.733   2.071   1.820
 5888SOL     OW18562   3.119   6.900   0.966
 5888SOL    HW118563   3.055   6.955   0.912
 5888SOL    HW218564   3.072   6.863   1.046
 5889SOL     OW18565   6.884   1.279   1.006
 5889SOL    HW118566   6.791   1.265   1.038
 5889SOL    HW218567   6.883   1.296   0.907
 5890SOL     OW18568   1.742   6.781   2.490
 5890SOL    HW118569   1.671   6.851   2.502
 5890SOL    HW218570   1.767   6.776   2.393
 5891SOL     OW18571   2.595   3.762   0.318
 5891SOL    HW118572   2.657   3.792   0.245
 5891SOL    HW218573   2.646   3.712   0.387
 5892SOL     OW18574   0.352   5.034   1.171
 5892SOL    HW118575   0.428   5.096   1.150
 5892SOL    HW218576   0.387   4.954   1.219
 5893SOL     OW18577   1.321   4.746   1.433
 5893SOL    HW118578   1.299   4.735   1.530
 5893SOL    HW218579   1.266   4.683   1.379
 5894SOL     OW18580   0.680   5.871   5.491
 5894SOL    HW118581   0.694   5.828   5.402
 5894SOL    HW218582   0.747   5.837   5.556
 5895SOL     OW18583   6.270   3.435   4.286
 5895SOL    HW118584   6.335   3.400   4.218
 5895SOL    HW218585   6.320   3.460   4.369
 5896SOL     OW18586   5.069   1.307   1.558
 5896SOL    HW118587   5.037   1.326   1.465
 5896SOL    HW218588   5.125   1.225   1.557
 5897SOL     OW18589   4.124   1.307   1.807
 5897SOL    HW118590   4.152   1.364   1.884
 5897SOL    HW218591   4.088   1.366   1.734
 5898SOL     OW18592   2.504   1.642   5.913
 5898SOL    HW118593   2.414   1.683   5.918
 5898SOL    HW218594   2.573   1.707   5.944
 5899SOL     OW18595   0.126   5.118   5.834
 5899SOL    HW118596   0.090   5.200   5.879
 5899SOL    HW218597   0.145   5.138   5.738
 5900SOL     OW18598   0.255   5.154   2.976
 5900SOL    HW118599   0.200   5.206   3.042
 5900SOL    HW218600   0.339   5.204   2.955
 5901SOL     OW18601   1.175   0.597   0.708
 5901SOL    HW118602   1.079   0.570   0.713
 5901SOL    HW218603   1.226   0.531   0.653
 5902SOL     OW18604   5.502   3.588   4.730
 5902SOL    HW118605   5.583   3.631   4.689
 5902SOL    HW218606   5.458   3.652   4.791
 5903SOL     OW18607   5.366   2.790   6.854
 5903SOL    HW118608   5.368   2.754   6.947
 5903SOL    HW218609   5.421   2.732   6.795
 5904SOL     OW18610   1.547   4.380   1.029
 5904SOL    HW118611   1.519   4.399   1.123
 5904SOL    HW218612   1.601   4.296   1.027
 5905SOL     OW18613   5.551   1.026   3.514
 5905SOL    HW118614   5.538   1.092   3.588
 5905SOL    HW218615   5.595   0.944   3.550
 5906SOL     OW18616   5.479   1.691   5.295
 5906SOL    HW118617   5.547   1.732   5.355
 5906SOL    HW218618   5.390   1.688   5.341
 5907SOL     OW18619   1.725   6.891   0.569
 5907SOL    HW118620   1.659   6.875   0.496
 5907SOL    HW218621   1.756   6.803   0.605
 5908SOL     OW18622   5.052   3.603   0.265
 5908SOL    HW118623   5.101   3.667   0.205
 5908SOL    HW218624   4.972   3.650   0.304
 5909SOL     OW18625   0.693   3.928   5.589
 5909SOL    HW118626   0.621   3.882   5.642
 5909SOL    HW218627   0.688   4.026   5.603
 5910SOL     OW18628   1.018   4.497   0.951
 5910SOL    HW118629   0.978   4.483   0.860
 5910SOL    HW218630   0.947   4.485   1.020
 5911SOL     OW18631   0.253   6.155   5.805
 5911SOL    HW118632   0.194   6.219   5.854
 5911SOL    HW218633   0.225   6.150   5.709
 5912SOL     OW18634   5.900   3.223   6.606
 5912SOL    HW118635   5.849   3.305   6.632
 5912SOL    HW218636   5.940   3.236   6.515
 5913SOL     OW18637   2.366   2.906   5.834
 5913SOL    HW118638   2.352   3.004   5.844
 5913SOL    HW218639   2.326   2.858   5.912
 5914SOL     OW18640   2.606   5.495   0.420
 5914SOL    HW118641   2.646   5.485   0.511
 5914SOL    HW218642   2.624   5.587   0.386
 5915SOL     OW18643   5.580   3.306   2.343
 5915SOL    HW118644   5.544   3.247   2.271
 5915SOL    HW218645   5.528   3.290   2.428
 5916SOL     OW18646   4.879   0.530   5.640
 5916SOL    HW118647   4.856   0.544   5.544
 5916SOL    HW218648   4.797   0.501   5.690
 5917SOL     OW18649   3.689   2.900   3.476
 5917SOL    HW118650   3.658   2.953   3.555
 5917SOL    HW218651   3.612   2.849   3.438
 5918SOL     OW18652   2.055   3.508   4.665
 5918SOL    HW118653   1.990   3.466   4.729
 5918SOL    HW218654   2.068   3.448   4.586
 5919SOL     OW18655   3.017   1.873   0.513
 5919SOL    HW118656   3.089   1.812   0.547
 5919SOL    HW218657   2.928   1.829   0.524
 5920SOL     OW18658   3.976   0.143   6.685
 5920SOL    HW118659   4.058   0.096   6.716
 5920SOL    HW218660   3.944   0.102   6.599
 5921SOL     OW18661   3.607   5.220   5.381
 5921SOL    HW118662   3.523   5.246   5.333
 5921SOL    HW218663   3.610   5.121   5.392
 5922SOL     OW18664   6.440   5.079   3.416
 5922SOL    HW118665   6.360   5.028   3.447
 5922SOL    HW218666   6.412   5.172   3.392
 5923SOL     OW18667   6.793   0.930   3.539
 5923SOL    HW118668   6.857   1.006   3.549
 5923SOL    HW218669   6.843   0.845   3.527
 5924SOL     OW18670   5.392   2.423   5.300
 5924SOL    HW118671   5.385   2.391   5.206
 5924SOL    HW218672   5.488   2.419   5.329
 5925SOL     OW18673   4.610   6.252   3.054
 5925SOL    HW118674   4.671   6.218   3.126
 5925SOL    HW218675   4.546   6.179   3.029
 5926SOL     OW18676   3.170   5.025   1.541
 5926SOL    HW118677   3.205   4.984   1.626
 5926SOL    HW218678   3.140   5.118   1.559
 5927SOL     OW18679   2.152   4.730   1.471
 5927SOL    HW118680   2.249   4.738   1.491
 5927SOL    HW218681   2.114   4.653   1.521
 5928SOL     OW18682   2.434   0.344   2.383
 5928SOL    HW118683   2.533   0.330   2.378
 5928SOL    HW218684   2.403   0.397   2.304
 5929SOL     OW18685   0.784   6.412   5.768
 5929SOL    HW118686   0.786   6.504   5.731
 5929SOL    HW218687   0.849   6.354   5.718
 5930SOL     OW18688   5.748   1.373   4.112
 5930SOL    HW118689   5.762   1.335   4.021
 5930SOL    HW218690   5.694   1.456   4.105
 5931SOL     OW18691   6.085   4.987   2.131
 5931SOL    HW118692   6.178   5.023   2.126
 5931SOL    HW218693   6.036   5.028   2.208
 5932SOL     OW18694   2.506   6.792   1.030
 5932SOL    HW118695   2.426   6.815   0.975
 5932SOL    HW218696   2.531   6.870   1.086
 5933SOL     OW18697   0.018   4.140   1.966
 5933SOL    HW118698   0.027   4.228   2.013
 5933SOL    HW218699   0.016   4.155   1.867
 5934SOL     OW18700   3.702   3.730   3.426
 5934SOL    HW118701   3.678   3.759   3.519
 5934SOL    HW218702   3.802   3.720   3.419
 5935SOL     OW18703   4.003   3.882   4.543
 5935SOL    HW118704   3.973   3.971   4.578
 5935SOL    HW218705   4.058   3.836   4.612
 5936SOL     OW18706   4.082   3.647   6.588
 5936SOL    HW118707   4.039   3.579   6.646
 5936SOL    HW218708   4.014   3.687   6.527
 5937SOL     OW18709   0.642   3.529   2.066
 5937SOL    HW118710   0.680   3.611   2.022
 5937SOL    HW218711   0.717   3.467   2.090
 5938SOL     OW18712   1.443   5.169   4.012
 5938SOL    HW118713   1.355   5.215   4.004
 5938SOL    HW218714   1.443   5.111   4.094
 5939SOL     OW18715   3.179   0.394   3.197
 5939SOL    HW118716   3.130   0.443   3.269
 5939SOL    HW218717   3.225   0.459   3.137
 5940SOL     OW18718   4.056   6.816   2.155
 5940SOL    HW118719   4.074   6.914   2.169
 5940SOL    HW218720   3.960   6.797   2.174
 5941SOL     OW18721   6.251   4.723   1.936
 5941SOL    HW118722   6.273   4.662   1.860
 5941SOL    HW218723   6.154   4.712   1.960
 5942SOL     OW18724   4.328   2.860   6.508
 5942SOL    HW118725   4.404   2.847   6.572
 5942SOL    HW218726   4.338   2.797   6.431
 5943SOL     OW18727   2.597   6.314   0.300
 5943SOL    HW118728   2.680   6.323   0.356
 5943SOL    HW218729   2.525   6.269   0.354
 5944SOL     OW18730   5.400   1.376   1.571
 5944SOL    HW118731   5.354   1.293   1.603
 5944SOL    HW218732   5.333   1.450   1.564
 5945SOL     OW18733   6.551   4.923   5.171
 5945SOL    HW118734   6.589   4.832   5.183
 5945SOL    HW218735   6.452   4.917   5.160
 5946SOL     OW18736   3.288   4.088   5.897
 5946SOL    HW118737   3.309   4.155   5.968
 5946SOL    HW218738   3.285   4.134   5.808
 5947SOL     OW18739   4.072   3.102   1.881
 5947SOL    HW118740   4.040   3.173   1.944
 5947SOL    HW218741   4.068   3.136   1.787
 5948SOL     OW18742   4.110   5.327   3.137
 5948SOL    HW118743   4.030   5.286   3.093
 5948SOL    HW218744   4.182   5.342   3.069
 5949SOL     OW18745   3.908   4.395   1.367
 5949SOL    HW118746   3.860   4.353   1.444
 5949SOL    HW218747   3.912   4.330   1.291
 5950SOL     OW18748   5.682   2.440   4.734
 5950SOL    HW118749   5.750   2.494   4.784
 5950SOL    HW218750   5.729   2.384   4.665
 5951SOL     OW18751   0.901   6.268   5.001
 5951SOL    HW118752   0.806   6.248   4.976
 5951SOL    HW218753   0.911   6.366   5.018
 5952SOL     OW18754   6.431   6.543   3.706
 5952SOL    HW118755   6.374   6.462   3.717
 5952SOL    HW218756   6.376   6.625   3.728
 5953SOL     OW18757   6.940   3.363   5.197
 5953SOL    HW118758   6.852   3.330   5.231
 5953SOL    HW218759   6.926   3.450   5.148
 5954SOL     OW18760   6.944   4.509   5.395
 5954SOL    HW118761   7.020   4.485   5.455
 5954SOL    HW218762   6.881   4.432   5.389
 5955SOL     OW18763   5.879   5.879   2.299
 5955SOL    HW118764   5.928   5.938   2.363
 5955SOL    HW218765   5.942   5.842   2.232
 5956SOL     OW18766   3.642   1.917   0.677
 5956SOL    HW118767   3.702   1.993   0.653
 5956SOL    HW218768   3.688   1.830   0.658
 5957SOL     OW18769   4.898   6.900   5.754
 5957SOL    HW118770   4.964   6.944   5.694
 5957SOL    HW218771   4.905   6.800   5.745
 5958SOL     OW18772   6.539   6.412   2.602
 5958SOL    HW118773   6.444   6.423   2.571
 5958SOL    HW218774   6.581   6.336   2.554
 5959SOL     OW18775   3.210   1.793   5.429
 5959SOL    HW118776   3.117   1.802   5.463
 5959SOL    HW218777   3.229   1.867   5.363
 5960SOL     OW18778   3.551   0.168   3.831
 5960SOL    HW118779   3.494   0.207   3.759
 5960SOL    HW218780   3.622   0.111   3.790
 5961SOL     OW18781   4.203   0.946   3.456
 5961SOL    HW118782   4.253   0.974   3.374
 5961SOL    HW218783   4.197   1.024   3.519
 5962SOL     OW18784   5.258   5.228   2.307
 5962SOL    HW118785   5.335   5.184   2.353
 5962SOL    HW218786   5.286   5.257   2.216
 5963SOL     OW18787   3.727   3.283   3.879
 5963SOL    HW118788   3.743   3.200   3.933
 5963SOL    HW218789   3.734   3.363   3.938
 5964SOL     OW18790   0.072   5.324   6.033
 5964SOL    HW118791   0.075   5.283   6.124
 5964SOL    HW218792   7.003   5.346   6.010
 5965SOL     OW18793   2.008   2.234   6.393
 5965SOL    HW118794   2.040   2.319   6.435
 5965SOL    HW218795   1.908   2.232   6.393
 5966SOL     OW18796   2.982   5.647   5.224
 5966SOL    HW118797   2.991   5.667   5.126
 5966SOL    HW218798   2.960   5.550   5.236
 5967SOL     OW18799   3.855   6.320   2.514
 5967SOL    HW118800   3.877   6.270   2.599
 5967SOL    HW218801   3.764   6.362   2.523
 5968SOL     OW18802   6.221   1.906   3.256
 5968SOL    HW118803   6.153   1.945   3.319
 5968SOL    HW218804   6.193   1.925   3.162
 5969SOL     OW18805   6.459   2.122   4.934
 5969SOL    HW118806   6.368   2.142   4.971
 5969SOL    HW218807   6.503   2.051   4.989
 5970SOL     OW18808   0.569   4.169   2.154
 5970SOL    HW118809   0.492   4.219   2.114
 5970SOL    HW218810   0.645   4.167   2.088
 5971SOL     OW18811   1.734   0.075   2.828
 5971SOL    HW118812   1.751   7.002   2.821
 5971SOL    HW218813   1.659   0.092   2.892
 5972SOL     OW18814   4.433   6.558   0.469
 5972SOL    HW118815   4.425   6.618   0.389
 5972SOL    HW218816   4.353   6.571   0.528
 5973SOL     OW18817   1.730   5.254   2.669
 5973SOL    HW118818   1.796   5.235   2.741
 5973SOL    HW218819   1.768   5.227   2.580
 5974SOL     OW18820   6.018   4.217   6.070
 5974SOL    HW118821   5.919   4.209   6.083
 5974SOL    HW218822   6.064   4.218   6.159
 5975SOL     OW18823   4.254   2.443   0.994
 5975SOL    HW118824   4.185   2.426   0.924
 5975SOL    HW218825   4.265   2.541   1.008
 5976SOL     OW18826   2.963   3.230   4.911
 5976SOL    HW118827   3.006   3.209   4.998
 5976SOL    HW218828   2.885   3.169   4.896
 5977SOL     OW18829   1.329   4.641   1.693
 5977SOL    HW118830   1.288   4.634   1.784
 5977SOL    HW218831   1.322   4.552   1.647
 5978SOL     OW18832   5.561   4.656   2.710
 5978SOL    HW118833   5.519   4.568   2.734
 5978SOL    HW218834   5.658   4.655   2.737
 5979SOL     OW18835   6.535   0.553   3.778
 5979SOL    HW118836   6.528   0.642   3.731
 5979SOL    HW218837   6.480   0.485   3.729
 5980SOL     OW18838   4.090   4.486   6.876
 5980SOL    HW118839   4.032   4.541   6.816
 5980SOL    HW218840   4.155   4.546   6.924
 5981SOL     OW18841   6.929   1.806   1.905
 5981SOL    HW118842   0.002   1.814   1.892
 5981SOL    HW218843   6.882   1.828   1.819
 5982SOL     OW18844   6.195   1.508   6.828
 5982SOL    HW118845   6.203   1.595   6.876
 5982SOL    HW218846   6.235   1.435   6.883
 5983SOL     OW18847   2.363   1.486   4.318
 5983SOL    HW118848   2.354   1.531   4.408
 5983SOL    HW218849   2.369   1.556   4.247
 5984SOL     OW18850   0.240   7.024   4.723
 5984SOL    HW118851   0.311   6.954   4.726
 5984SOL    HW218852   0.269   0.073   4.662
 5985SOL     OW18853   5.372   2.352   3.863
 5985SOL    HW118854   5.380   2.361   3.764
 5985SOL    HW218855   5.425   2.424   3.908
 5986SOL     OW18856   2.952   3.321   4.018
 5986SOL    HW118857   2.905   3.366   4.094
 5986SOL    HW218858   3.047   3.303   4.044
 5987SOL     OW18859   4.207   0.718   4.944
 5987SOL    HW118860   4.231   0.802   4.992
 5987SOL    HW218861   4.243   0.722   4.850
 5988SOL     OW18862   3.936   6.671   4.754
 5988SOL    HW118863   3.998   6.750   4.751
 5988SOL    HW218864   3.980   6.593   4.709
 5989SOL     OW18865   2.434   6.356   6.615
 5989SOL    HW118866   2.420   6.329   6.520
 5989SOL    HW218867   2.442   6.274   6.672
 5990SOL     OW18868   3.914   4.134   0.562
 5990SOL    HW118869   3.914   4.234   0.549
 5990SOL    HW218870   3.853   4.111   0.637
 5991SOL     OW18871   3.926   5.312   4.919
 5991SOL    HW118872   3.973   5.351   4.840
 5991SOL    HW218873   3.830   5.341   4.919
 5992SOL     OW18874   3.656   0.796   4.223
 5992SOL    HW118875   3.569   0.805   4.271
 5992SOL    HW218876   3.706   0.716   4.259
 5993SOL     OW18877   3.763   6.713   5.782
 5993SOL    HW118878   3.769   6.616   5.803
 5993SOL    HW218879   3.694   6.756   5.841
 5994SOL     OW18880   5.999   2.217   2.020
 5994SOL    HW118881   5.990   2.118   2.032
 5994SOL    HW218882   6.070   2.251   2.083
 5995SOL     OW18883   0.274   5.308   1.312
 5995SOL    HW118884   0.238   5.290   1.220
 5995SOL    HW218885   0.308   5.223   1.351
 5996SOL     OW18886   0.506   5.964   6.353
 5996SOL    HW118887   0.450   5.980   6.434
 5996SOL    HW218888   0.497   5.868   6.325
 5997SOL     OW18889   0.279   6.900   2.247
 5997SOL    HW118890   0.328   6.988   2.244
 5997SOL    HW218891   0.345   6.825   2.251
 5998SOL     OW18892   5.616   2.440   2.842
 5998SOL    HW118893   5.544   2.433   2.773
 5998SOL    HW218894   5.683   2.368   2.828
 5999SOL     OW18895   1.083   2.248   3.181
 5999SOL    HW118896   1.047   2.171   3.128
 5999SOL    HW218897   1.182   2.240   3.187
 6000SOL     OW18898   3.586   5.558   2.058
 6000SOL    HW118899   3.535   5.476   2.035
 6000SOL    HW218900   3.649   5.539   2.134
 6001SOL     OW18901   0.120   3.891   6.888
 6001SOL    HW118902   0.213   3.914   6.858
 6001SOL    HW218903   0.098   3.797   6.861
 6002SOL     OW18904   0.066   6.657   1.139
 6002SOL    HW118905   0.066   6.689   1.234
 6002SOL    HW218906   0.048   6.734   1.078
 6003SOL     OW18907   5.898   3.427   4.996
 6003SOL    HW118908   5.836   3.366   5.045
 6003SOL    HW218909   5.939   3.377   4.919
 6004SOL     OW18910   0.894   3.943   3.609
 6004SOL    HW118911   0.819   3.882   3.634
 6004SOL    HW218912   0.884   3.972   3.514
 6005SOL     OW18913   4.135   4.999   3.847
 6005SOL    HW118914   4.187   5.081   3.868
 6005SOL    HW218915   4.037   5.021   3.845
 6006SOL     OW18916   3.754   0.419   6.842
 6006SOL    HW118917   3.723   0.362   6.767
 6006SOL    HW218918   3.808   0.364   6.906
 6007SOL     OW18919   5.016   3.018   3.443
 6007SOL    HW118920   5.006   3.053   3.350
 6007SOL    HW218921   4.926   2.993   3.479
 6008SOL     OW18922   3.275   5.595   5.881
 6008SOL    HW118923   3.277   5.520   5.947
 6008SOL    HW218924   3.278   5.558   5.788
 6009SOL     OW18925   2.643   1.531   4.834
 6009SOL    HW118926   2.674   1.564   4.745
 6009SOL    HW218927   2.647   1.431   4.837
 6010SOL     OW18928   2.041   4.586   2.054
 6010SOL    HW118929   1.971   4.625   2.114
 6010SOL    HW218930   2.049   4.643   1.972
 6011SOL     OW18931   5.356   2.311   1.877
 6011SOL    HW118932   5.308   2.224   1.882
 6011SOL    HW218933   5.419   2.310   1.800
 6012SOL     OW18934   0.041   1.942   0.519
 6012SOL    HW118935   0.124   1.889   0.535
 6012SOL    HW218936   0.007   1.923   0.427
 6013SOL     OW18937   6.077   1.794   2.283
 6013SOL    HW118938   6.130   1.717   2.320
 6013SOL    HW218939   5.982   1.765   2.270
 6014SOL     OW18940   5.131   1.961   0.956
 6014SOL    HW118941   5.153   2.048   0.913
 6014SOL    HW218942   5.210   1.900   0.951
 6015SOL     OW18943   6.103   2.498   5.775
 6015SOL    HW118944   6.143   2.579   5.732
 6015SOL    HW218945   6.103   2.511   5.874
 6016SOL     OW18946   0.716   0.735   5.615
 6016SOL    HW118947   0.653   0.765   5.686
 6016SOL    HW218948   0.809   0.766   5.636
 6017SOL     OW18949   5.846   5.546   2.687
 6017SOL    HW118950   5.815   5.450   2.685
 6017SOL    HW218951   5.804   5.592   2.765
 6018SOL     OW18952   3.283   3.050   0.200
 6018SOL    HW118953   3.312   3.120   0.136
 6018SOL    HW218954   3.224   3.091   0.270
 6019SOL     OW18955   4.462   1.592   3.639
 6019SOL    HW118956   4.467   1.686   3.604
 6019SOL    HW218957   4.538   1.576   3.701
 6020SOL     OW18958   2.343   6.559   1.868
 6020SOL    HW118959   2.301   6.555   1.958
 6020SOL    HW218960   2.377   6.652   1.851
 6021SOL     OW18961   4.345   0.248   2.713
 6021SOL    HW118962   4.427   0.305   2.704
 6021SOL    HW218963   4.283   0.288   2.781
 6022SOL     OW18964   4.618   1.032   3.912
 6022SOL    HW118965   4.647   1.047   3.817
 6022SOL    HW218966   4.519   1.043   3.918
 6023SOL     OW18967   6.602   1.426   3.342
 6023SOL    HW118968   6.585   1.327   3.335
 6023SOL    HW218969   6.522   1.472   3.379
 6024SOL     OW18970   0.530   4.644   2.324
 6024SOL    HW118971   0.542   4.743   2.333
 6024SOL    HW218972   0.598   4.597   2.380
 6025SOL     OW18973   4.671   0.450   1.703
 6025SOL    HW118974   4.753   0.416   1.657
 6025SOL    HW218975   4.650   0.392   1.781
 6026SOL     OW18976   0.730   4.719   4.576
 6026SOL    HW118977   0.672   4.795   4.547
 6026SOL    HW218978   0.739   4.653   4.502
 6027SOL     OW18979   1.722   4.070   5.910
 6027SOL    HW118980   1.685   4.001   5.847
 6027SOL    HW218981   1.773   4.139   5.859
 6028SOL     OW18982   1.000   4.006   0.308
 6028SOL    HW118983   1.094   4.036   0.327
 6028SOL    HW218984   0.942   4.086   0.293
 6029SOL     OW18985   2.158   6.696   6.938
 6029SOL    HW118986   2.173   6.712   6.840
 6029SOL    HW218987   2.224   6.748   6.991
 6030SOL     OW18988   2.392   0.604   2.974
 6030SOL    HW118989   2.346   0.670   3.033
 6030SOL    HW218990   2.369   0.623   2.879
 6031SOL     OW18991   4.169   5.208   5.020
 6031SOL    HW118992   4.168   5.213   5.120
 6031SOL    HW218993   4.093   5.262   4.984
 6032SOL     OW18994   1.628   3.250   2.195
 6032SOL    HW118995   1.655   3.332   2.246
 6032SOL    HW218996   1.635   3.268   2.097
 6033SOL     OW18997   1.984   2.321   3.073
 6033SOL    HW118998   2.004   2.326   3.171
 6033SOL    HW218999   1.976   2.414   3.036
 6034SOL     OW19000   2.158   4.773   4.505
 6034SOL    HW119001   2.210   4.742   4.426
 6034SOL    HW219002   2.131   4.869   4.491
 6035SOL     OW19003   5.568   0.429   3.892
 6035SOL    HW119004   5.530   0.521   3.895
 6035SOL    HW219005   5.590   0.398   3.985
 6036SOL     OW19006   0.128   0.297   5.109
 6036SOL    HW119007   0.215   0.313   5.062
 6036SOL    HW219008   0.060   0.264   5.042
 6037SOL     OW19009   4.503   5.317   6.408
 6037SOL    HW119010   4.501   5.277   6.499
 6037SOL    HW219011   4.598   5.330   6.379
 6038SOL     OW19012   0.500   3.212   6.048
 6038SOL    HW119013   0.513   3.285   5.982
 6038SOL    HW219014   0.571   3.217   6.118
 6039SOL     OW19015   3.331   3.735   3.021
 6039SOL    HW119016   3.289   3.693   3.102
 6039SOL    HW219017   3.305   3.683   2.940
 6040SOL     OW19018   0.577   1.498   6.612
 6040SOL    HW119019   0.495   1.506   6.668
 6040SOL    HW219020   0.657   1.486   6.671
 6041SOL     OW19021   1.549   1.502   6.800
 6041SOL    HW119022   1.471   1.457   6.845
 6041SOL    HW219023   1.596   1.436   6.742
 6042SOL     OW19024   5.959   5.305   2.087
 6042SOL    HW119025   6.047   5.269   2.119
 6042SOL    HW219026   5.970   5.342   1.995
 6043SOL     OW19027   1.314   4.751   5.091
 6043SOL    HW119028   1.295   4.762   4.994
 6043SOL    HW219029   1.413   4.752   5.106
 6044SOL     OW19030   0.000   1.827   1.160
 6044SOL    HW119031   6.960   1.902   1.171
 6044SOL    HW219032   6.978   1.740   1.167
 6045SOL     OW19033   5.259   5.674   0.822
 6045SOL    HW119034   5.241   5.575   0.819
 6045SOL    HW219035   5.292   5.704   0.732
 6046SOL     OW19036   3.382   2.328   0.866
 6046SOL    HW119037   3.479   2.308   0.879
 6046SOL    HW219038   3.364   2.349   0.770
 6047SOL     OW19039   6.350   1.241   4.121
 6047SOL    HW119040   6.341   1.241   4.021
 6047SOL    HW219041   6.333   1.333   4.156
 6048SOL     OW19042   4.170   6.870   3.506
 6048SOL    HW119043   4.171   6.949   3.443
 6048SOL    HW219044   4.115   6.893   3.586
 6049SOL     OW19045   4.871   2.858   6.356
 6049SOL    HW119046   4.793   2.796   6.349
 6049SOL    HW219047   4.953   2.805   6.376
 6050SOL     OW19048   4.101   4.165   6.019
 6050SOL    HW119049   4.161   4.172   5.939
 6050SOL    HW219050   4.125   4.082   6.071
 6051SOL     OW19051   2.275   1.967   3.274
 6051SOL    HW119052   2.314   1.885   3.231
 6051SOL    HW219053   2.214   2.012   3.210
 6052SOL     OW19054   6.808   0.128   0.302
 6052SOL    HW119055   6.728   0.077   0.335
 6052SOL    HW219056   6.854   0.076   0.230
 6053SOL     OW19057   3.344   0.377   0.029
 6053SOL    HW119058   3.425   0.332   0.068
 6053SOL    HW219059   3.266   0.316   0.034
 6054SOL     OW19060   2.423   3.991   1.136
 6054SOL    HW119061   2.455   4.084   1.117
 6054SOL    HW219062   2.432   3.935   1.053
 6055SOL     OW19063   5.457   0.790   5.530
 6055SOL    HW119064   5.531   0.729   5.558
 6055SOL    HW219065   5.441   0.857   5.602
 6056SOL     OW19066   3.994   1.764   5.387
 6056SOL    HW119067   4.001   1.689   5.453
 6056SOL    HW219068   4.043   1.739   5.304
 6057SOL     OW19069   4.409   1.516   4.760
 6057SOL    HW119070   4.367   1.455   4.693
 6057SOL    HW219071   4.507   1.497   4.766
 6058SOL     OW19072   5.839   2.975   3.123
 6058SOL    HW119073   5.841   2.897   3.186
 6058SOL    HW219074   5.757   3.030   3.141
 6059SOL     OW19075   4.511   5.652   5.921
 6059SOL    HW119076   4.535   5.615   6.010
 6059SOL    HW219077   4.414   5.638   5.904
 6060SOL     OW19078   3.509   3.919   5.884
 6060SOL    HW119079   3.429   3.979   5.892
 6060SOL    HW219080   3.565   3.948   5.806
 6061SOL     OW19081   3.168   2.796   0.142
 6061SOL    HW119082   3.211   2.879   0.179
 6061SOL    HW219083   3.184   2.720   0.205
 6062SOL     OW19084   2.367   1.267   4.631
 6062SOL    HW119085   2.418   1.288   4.548
 6062SOL    HW219086   2.316   1.182   4.618
 6063SOL     OW19087   3.895   1.412   6.268
 6063SOL    HW119088   3.868   1.435   6.175
 6063SOL    HW219089   3.921   1.496   6.317
 6064SOL     OW19090   1.969   5.414   2.437
 6064SOL    HW119091   1.996   5.319   2.427
 6064SOL    HW219092   1.884   5.430   2.387
 6065SOL     OW19093   6.255   6.575   1.013
 6065SOL    HW119094   6.345   6.572   0.968
 6065SOL    HW219095   6.242   6.665   1.054
 6066SOL     OW19096   4.906   1.465   1.346
 6066SOL    HW119097   4.879   1.554   1.309
 6066SOL    HW219098   4.832   1.399   1.333
 6067SOL     OW19099   6.671   2.127   6.722
 6067SOL    HW119100   6.752   2.185   6.731
 6067SOL    HW219101   6.611   2.140   6.800
 6068SOL     OW19102   5.570   3.421   4.962
 6068SOL    HW119103   5.475   3.398   4.940
 6068SOL    HW219104   5.597   3.504   4.913
 6069SOL     OW19105   6.652   3.783   6.216
 6069SOL    HW119106   6.748   3.773   6.241
 6069SOL    HW219107   6.624   3.701   6.165
 6070SOL     OW19108   3.261   2.352   6.559
 6070SOL    HW119109   3.162   2.336   6.557
 6070SOL    HW219110   3.288   2.406   6.479
 6071SOL     OW19111   4.295   5.918   5.713
 6071SOL    HW119112   4.222   5.855   5.740
 6071SOL    HW219113   4.303   5.919   5.613
 6072SOL     OW19114   0.977   1.150   1.888
 6072SOL    HW119115   0.890   1.196   1.870
 6072SOL    HW219116   0.997   1.154   1.985
 6073SOL     OW19117   6.257   3.109   0.525
 6073SOL    HW119118   6.327   3.070   0.465
 6073SOL    HW219119   6.172   3.058   0.515
 6074SOL     OW19120   1.004   6.696   4.669
 6074SOL    HW119121   1.014   6.608   4.716
 6074SOL    HW219122   0.983   6.679   4.573
 6075SOL     OW19123   6.664   2.711   0.025
 6075SOL    HW119124   6.683   2.621   7.011
 6075SOL    HW219125   6.712   2.721   0.112
 6076SOL     OW19126   2.366   0.304   5.021
 6076SOL    HW119127   2.349   0.241   4.945
 6076SOL    HW219128   2.450   0.278   5.068
 6077SOL     OW19129   4.807   5.873   2.523
 6077SOL    HW119130   4.824   5.775   2.532
 6077SOL    HW219131   4.893   5.920   2.504
 6078SOL     OW19132   3.371   4.908   2.851
 6078SOL    HW119133   3.353   4.947   2.761
 6078SOL    HW219134   3.470   4.899   2.864
 6079SOL     OW19135   2.994   3.644   6.757
 6079SOL    HW119136   3.001   3.741   6.779
 6079SOL    HW219137   3.085   3.604   6.755
 6080SOL     OW19138   6.677   1.798   0.845
 6080SOL    HW119139   6.707   1.878   0.794
 6080SOL    HW219140   6.756   1.752   0.886
 6081SOL     OW19141   6.558   3.964   4.275
 6081SOL    HW119142   6.636   3.915   4.312
 6081SOL    HW219143   6.504   3.903   4.217
 6082SOL     OW19144   3.605   0.343   3.009
 6082SOL    HW119145   3.607   0.437   3.045
 6082SOL    HW219146   3.655   0.283   3.070
 6083SOL     OW19147   1.203   5.450   6.185
 6083SOL    HW119148   1.248   5.375   6.138
 6083SOL    HW219149   1.104   5.432   6.189
 6084SOL     OW19150   6.794   5.417   4.359
 6084SOL    HW119151   6.801   5.342   4.424
 6084SOL    HW219152   6.759   5.499   4.405
 6085SOL     OW19153   6.620   4.099   0.008
 6085SOL    HW119154   6.581   4.154   0.082
 6085SOL    HW219155   6.694   4.151   6.989
 6086SOL     OW19156   3.661   1.149   4.687
 6086SOL    HW119157   3.735   1.101   4.734
 6086SOL    HW219158   3.629   1.224   4.745
 6087SOL     OW19159   5.369   0.025   6.737
 6087SOL    HW119160   5.320   0.045   6.653
 6087SOL    HW219161   5.462   7.019   6.715
 6088SOL     OW19162   0.168   6.430   4.646
 6088SOL    HW119163   0.079   6.474   4.657
 6088SOL    HW219164   0.158   6.331   4.657
 6089SOL     OW19165   0.548   3.806   1.744
 6089SOL    HW119166   0.524   3.883   1.685
 6089SOL    HW219167   0.466   3.753   1.766
 6090SOL     OW19168   0.522   6.139   6.140
 6090SOL    HW119169   0.503   6.110   6.047
 6090SOL    HW219170   0.523   6.060   6.201
 6091SOL     OW19171   0.741   1.072   2.195
 6091SOL    HW119172   0.757   1.017   2.113
 6091SOL    HW219173   0.802   1.041   2.268
 6092SOL     OW19174   2.904   0.581   3.155
 6092SOL    HW119175   2.819   0.618   3.119
 6092SOL    HW219176   2.951   0.527   3.084
 6093SOL     OW19177   1.914   2.727   1.974
 6093SOL    HW119178   1.859   2.810   1.976
 6093SOL    HW219179   2.004   2.745   2.013
 6094SOL     OW19180   2.086   1.578   1.803
 6094SOL    HW119181   2.181   1.586   1.773
 6094SOL    HW219182   2.025   1.608   1.730
 6095SOL     OW19183   5.054   2.993   6.874
 6095SOL    HW119184   5.081   2.976   6.969
 6095SOL    HW219185   5.050   2.906   6.825
 6096SOL     OW19186   6.145   0.739   4.228
 6096SOL    HW119187   6.239   0.736   4.261
 6096SOL    HW219188   6.145   0.745   4.128
 6097SOL     OW19189   2.070   0.537   2.911
 6097SOL    HW119190   2.094   0.543   3.008
 6097SOL    HW219191   2.030   0.447   2.893
 6098SOL     OW19192   1.494   2.112   5.810
 6098SOL    HW119193   1.590   2.098   5.837
 6098SOL    HW219194   1.488   2.115   5.710
 6099SOL     OW19195   5.474   5.954   5.360
 6099SOL    HW119196   5.574   5.959   5.355
 6099SOL    HW219197   5.448   5.907   5.444
 6100SOL     OW19198   5.969   3.578   6.312
 6100SOL    HW119199   6.023   3.658   6.288
 6100SOL    HW219200   5.878   3.586   6.272
 6101SOL     OW19201   6.526   2.219   6.031
 6101SOL    HW119202   6.512   2.206   6.129
 6101SOL    HW219203   6.624   2.209   6.009
 6102SOL     OW19204   3.182   0.956   4.466
 6102SOL    HW119205   3.258   0.990   4.410
 6102SOL    HW219206   3.120   0.902   4.408
 6103SOL     OW19207   0.151   0.643   3.910
 6103SOL    HW119208   0.075   0.600   3.959
 6103SOL    HW219209   0.128   0.738   3.889
 6104SOL     OW19210   6.283   2.256   6.682
 6104SOL    HW119211   6.204   2.313   6.706
 6104SOL    HW219212   6.368   2.304   6.707
 6105SOL     OW19213   3.554   6.333   5.603
 6105SOL    HW119214   3.642   6.377   5.586
 6105SOL    HW219215   3.521   6.358   5.694
 6106SOL     OW19216   2.524   4.930   6.388
 6106SOL    HW119217   2.479   4.966   6.306
 6106SOL    HW219218   2.581   5.001   6.429
 6107SOL     OW19219   2.207   4.850   4.029
 6107SOL    HW119220   2.179   4.755   4.047
 6107SOL    HW219221   2.251   4.854   3.939
 6108SOL     OW19222   0.666   1.922   3.506
 6108SOL    HW119223   0.666   1.955   3.412
 6108SOL    HW219224   0.679   1.823   3.506
 6109SOL     OW19225   5.282   2.712   0.086
 6109SOL    HW119226   5.194   2.689   0.127
 6109SOL    HW219227   5.353   2.653   0.123
 6110SOL     OW19228   2.809   2.528   6.367
 6110SOL    HW119229   2.729   2.481   6.403
 6110SOL    HW219230   2.804   2.533   6.268
 6111SOL     OW19231   0.936   4.708   3.049
 6111SOL    HW119232   1.025   4.755   3.050
 6111SOL    HW219233   0.866   4.770   3.085
 6112SOL     OW19234   2.053   1.841   2.969
 6112SOL    HW119235   2.061   1.768   3.037
 6112SOL    HW219236   1.998   1.808   2.892
 6113SOL     OW19237   0.885   1.087   6.131
 6113SOL    HW119238   0.804   1.031   6.116
 6113SOL    HW219239   0.905   1.091   6.229
 6114SOL     OW19240   5.034   5.254   0.076
 6114SOL    HW119241   5.035   5.348   0.041
 6114SOL    HW219242   5.015   5.191   0.001
 6115SOL     OW19243   4.663   5.116   3.445
 6115SOL    HW119244   4.635   5.083   3.536
 6115SOL    HW219245   4.761   5.135   3.446
 6116SOL     OW19246   2.926   1.417   1.283
 6116SOL    HW119247   2.910   1.320   1.263
 6116SOL    HW219248   2.904   1.435   1.379
 6117SOL     OW19249   6.180   6.926   4.782
 6117SOL    HW119250   6.209   7.018   4.756
 6117SOL    HW219251   6.260   6.870   4.802
 6118SOL     OW19252   6.849   2.087   1.877
 6118SOL    HW119253   6.870   1.999   1.921
 6118SOL    HW219254   6.933   2.140   1.869
 6119SOL     OW19255   0.271   4.560   5.009
 6119SOL    HW119256   0.368   4.585   5.011
 6119SOL    HW219257   0.230   4.583   5.097
 6120SOL     OW19258   3.121   6.735   4.045
 6120SOL    HW119259   3.070   6.658   4.083
 6120SOL    HW219260   3.059   6.812   4.028
 6121SOL     OW19261   6.905   2.893   4.243
 6121SOL    HW119262   6.982   2.957   4.246
 6121SOL    HW219263   6.819   2.944   4.248
 6122SOL     OW19264   3.407   6.289   2.726
 6122SOL    HW119265   3.312   6.258   2.729
 6122SOL    HW219266   3.468   6.210   2.739
 6123SOL     OW19267   7.007   0.686   1.338
 6123SOL    HW119268   0.059   0.655   1.284
 6123SOL    HW219269   0.004   0.679   1.436
 6124SOL     OW19270   3.771   6.480   5.554
 6124SOL    HW119271   3.840   6.470   5.626
 6124SOL    HW219272   3.805   6.541   5.483
 6125SOL     OW19273   2.454   5.547   1.146
 6125SOL    HW119274   2.392   5.482   1.101
 6125SOL    HW219275   2.548   5.530   1.116
 6126SOL     OW19276   5.206   6.084   4.248
 6126SOL    HW119277   5.196   5.988   4.222
 6126SOL    HW219278   5.154   6.101   4.332
 6127SOL     OW19279   2.612   0.052   1.517
 6127SOL    HW119280   2.612   0.142   1.474
 6127SOL    HW219281   2.531   0.001   1.487
 6128SOL     OW19282   6.962   3.420   0.566
 6128SOL    HW119283   0.001   3.346   0.588
 6128SOL    HW219284   7.009   3.489   0.510
 6129SOL     OW19285   6.375   4.132   3.215
 6129SOL    HW119286   6.317   4.065   3.262
 6129SOL    HW219287   6.386   4.105   3.119
 6130SOL     OW19288   6.137   3.092   4.577
 6130SOL    HW119289   6.117   3.157   4.504
 6130SOL    HW219290   6.105   3.001   4.551
 6131SOL     OW19291   7.013   1.386   5.455
 6131SOL    HW119292   6.983   1.317   5.389
 6131SOL    HW219293   0.085   1.372   5.474
 6132SOL     OW19294   3.631   1.393   1.171
 6132SOL    HW119295   3.539   1.403   1.133
 6132SOL    HW219296   3.626   1.340   1.255
 6133SOL     OW19297   0.503   2.985   2.173
 6133SOL    HW119298   0.542   3.065   2.218
 6133SOL    HW219299   0.576   2.931   2.132
 6134SOL     OW19300   3.499   3.059   6.698
 6134SOL    HW119301   3.543   3.131   6.752
 6134SOL    HW219302   3.520   2.970   6.739
 6135SOL     OW19303   7.018   0.246   1.905
 6135SOL    HW119304   7.022   0.169   1.968
 6135SOL    HW219305   0.008   0.214   1.812
 6136SOL     OW19306   0.689   1.387   2.613
 6136SOL    HW119307   0.722   1.344   2.697
 6136SOL    HW219308   0.689   1.486   2.624
 6137SOL     OW19309   3.971   1.015   6.107
 6137SOL    HW119310   4.047   0.992   6.046
 6137SOL    HW219311   3.991   1.100   6.156
 6138SOL     OW19312   3.595   6.405   2.565
 6138SOL    HW119313   3.601   6.366   2.474
 6138SOL    HW219314   3.514   6.371   2.611
 6139SOL     OW19315   2.176   3.142   5.240
 6139SOL    HW119316   2.244   3.078   5.204
 6139SOL    HW219317   2.197   3.235   5.210
 6140SOL     OW19318   0.348   6.936   1.845
 6140SOL    HW119319   0.326   0.008   1.854
 6140SOL    HW219320   0.446   6.925   1.828
 6141SOL     OW19321   6.507   6.244   4.713
 6141SOL    HW119322   6.434   6.306   4.682
 6141SOL    HW219323   6.471   6.182   4.782
 6142SOL     OW19324   6.979   4.578   0.547
 6142SOL    HW119325   6.978   4.483   0.580
 6142SOL    HW219326   6.885   4.609   0.531
 6143SOL     OW19327   5.955   4.913   6.235
 6143SOL    HW119328   5.942   4.839   6.301
 6143SOL    HW219329   5.884   4.908   6.165
 6144SOL     OW19330   0.116   4.184   2.879
 6144SOL    HW119331   0.172   4.106   2.906
 6144SOL    HW219332   0.150   4.221   2.793
 6145SOL     OW19333   4.889   5.603   3.594
 6145SOL    HW119334   4.965   5.564   3.646
 6145SOL    HW219335   4.827   5.651   3.656
 6146SOL     OW19336   4.391   1.346   3.566
 6146SOL    HW119337   4.397   1.331   3.467
 6146SOL    HW219338   4.410   1.442   3.586
 6147SOL     OW19339   2.091   5.007   3.099
 6147SOL    HW119340   2.110   5.046   3.190
 6147SOL    HW219341   1.993   4.990   3.090
 6148SOL     OW19342   6.730   6.485   4.558
 6148SOL    HW119343   6.740   6.404   4.501
 6148SOL    HW219344   6.643   6.529   4.539
 6149SOL     OW19345   3.912   4.870   3.276
 6149SOL    HW119346   3.990   4.824   3.233
 6149SOL    HW219347   3.944   4.952   3.324
 6150SOL     OW19348   4.184   5.373   6.797
 6150SOL    HW119349   4.159   5.359   6.892
 6150SOL    HW219350   4.157   5.293   6.743
 6151SOL     OW19351   5.846   3.157   5.331
 6151SOL    HW119352   5.787   3.116   5.401
 6151SOL    HW219353   5.798   3.234   5.288
 6152SOL     OW19354   5.062   4.950   6.078
 6152SOL    HW119355   5.061   4.947   6.178
 6152SOL    HW219356   5.156   4.951   6.045
 6153SOL     OW19357   4.542   4.038   1.489
 6153SOL    HW119358   4.467   4.072   1.546
 6153SOL    HW219359   4.525   3.942   1.466
 6154SOL     OW19360   5.474   1.426   2.017
 6154SOL    HW119361   5.534   1.506   2.025
 6154SOL    HW219362   5.382   1.450   2.048
 6155SOL     OW19363   0.878   3.211   4.369
 6155SOL    HW119364   0.870   3.296   4.421
 6155SOL    HW219365   0.974   3.185   4.364
 6156SOL     OW19366   4.808   6.364   2.910
 6156SOL    HW119367   4.887   6.303   2.911
 6156SOL    HW219368   4.727   6.314   2.941
 6157SOL     OW19369   1.602   2.618   3.276
 6157SOL    HW119370   1.503   2.610   3.289
 6157SOL    HW219371   1.621   2.656   3.186
 6158SOL     OW19372   4.589   0.895   6.888
 6158SOL    HW119373   4.535   0.934   6.813
 6158SOL    HW219374   4.539   0.902   6.973
 6159SOL     OW19375   5.070   1.462   0.332
 6159SOL    HW119376   5.139   1.390   0.324
 6159SOL    HW219377   5.112   1.545   0.369
 6160SOL     OW19378   5.349   5.721   0.568
 6160SOL    HW119379   5.383   5.765   0.485
 6160SOL    HW219380   5.394   5.633   0.581
 6161SOL     OW19381   6.180   1.502   5.669
 6161SOL    HW119382   6.247   1.441   5.627
 6161SOL    HW219383   6.197   1.508   5.767
 6162SOL     OW19384   0.979   4.869   4.590
 6162SOL    HW119385   1.012   4.895   4.681
 6162SOL    HW219386   0.895   4.815   4.599
 6163SOL     OW19387   5.287   4.896   1.085
 6163SOL    HW119388   5.275   4.937   1.175
 6163SOL    HW219389   5.216   4.827   1.070
 6164SOL     OW19390   2.056   2.296   1.643
 6164SOL    HW119391   2.058   2.197   1.654
 6164SOL    HW219392   2.146   2.333   1.667
 6165SOL     OW19393   3.993   6.237   0.124
 6165SOL    HW119394   3.967   6.146   0.156
 6165SOL    HW219395   3.943   6.258   0.040
 6166SOL     OW19396   2.889   1.017   5.671
 6166SOL    HW119397   2.845   0.932   5.701
 6166SOL    HW219398   2.949   1.051   5.743
 6167SOL     OW19399   0.871   4.662   2.476
 6167SOL    HW119400   0.956   4.715   2.470
 6167SOL    HW219401   0.892   4.568   2.503
 6168SOL     OW19402   0.611   3.618   1.370
 6168SOL    HW119403   0.664   3.695   1.333
 6168SOL    HW219404   0.661   3.577   1.446
 6169SOL     OW19405   2.111   3.543   1.582
 6169SOL    HW119406   2.045   3.510   1.514
 6169SOL    HW219407   2.155   3.626   1.548
 6170SOL     OW19408   0.357   3.498   5.346
 6170SOL    HW119409   0.363   3.399   5.362
 6170SOL    HW219410   0.338   3.514   5.249
 6171SOL     OW19411   0.744   0.537   0.972
 6171SOL    HW119412   0.775   0.442   0.972
 6171SOL    HW219413   0.651   0.542   1.007
 6172SOL     OW19414   1.040   2.533   3.159
 6172SOL    HW119415   1.052   2.434   3.167
 6172SOL    HW219416   1.010   2.570   3.248
 6173SOL     OW19417   6.850   5.703   3.146
 6173SOL    HW119418   6.895   5.776   3.196
 6173SOL    HW219419   6.835   5.625   3.207
 6174SOL     OW19420   5.226   4.797   3.004
 6174SOL    HW119421   5.199   4.799   2.907
 6174SOL    HW219422   5.252   4.890   3.032
 6175SOL     OW19423   3.448   0.300   4.920
 6175SOL    HW119424   3.518   0.300   4.991
 6175SOL    HW219425   3.492   0.301   4.830
 6176SOL     OW19426   4.483   3.696   5.291
 6176SOL    HW119427   4.557   3.638   5.257
 6176SOL    HW219428   4.414   3.708   5.220
 6177SOL     OW19429   6.197   1.524   1.712
 6177SOL    HW119430   6.296   1.513   1.705
 6177SOL    HW219431   6.169   1.517   1.808
 6178SOL     OW19432   4.943   3.787   1.961
 6178SOL    HW119433   4.861   3.738   1.932
 6178SOL    HW219434   4.963   3.860   1.897
 6179SOL     OW19435   6.543   4.737   1.730
 6179SOL    HW119436   6.481   4.794   1.783
 6179SOL    HW219437   6.518   4.641   1.741
 6180SOL     OW19438   3.183   4.839   0.730
 6180SOL    HW119439   3.252   4.851   0.801
 6180SOL    HW219440   3.113   4.909   0.739
 6181SOL     OW19441   4.602   5.154   5.960
 6181SOL    HW119442   4.667   5.210   5.909
 6181SOL    HW219443   4.641   5.064   5.976
 6182SOL     OW19444   3.599   3.031   0.332
 6182SOL    HW119445   3.698   3.025   0.331
 6182SOL    HW219446   3.563   3.013   0.241
 6183SOL     OW19447   1.509   2.465   0.877
 6183SOL    HW119448   1.412   2.445   0.866
 6183SOL    HW219449   1.551   2.479   0.787
 6184SOL     OW19450   2.818   0.832   6.090
 6184SOL    HW119451   2.908   0.866   6.120
 6184SOL    HW219452   2.820   0.818   5.991
 6185SOL     OW19453   3.116   3.043   5.359
 6185SOL    HW119454   3.081   2.962   5.312
 6185SOL    HW219455   3.215   3.036   5.369
 6186SOL     OW19456   6.810   1.876   1.649
 6186SOL    HW119457   6.739   1.926   1.601
 6186SOL    HW219458   6.898   1.922   1.638
 6187SOL     OW19459   4.665   2.266   5.386
 6187SOL    HW119460   4.745   2.206   5.394
 6187SOL    HW219461   4.692   2.361   5.399
 6188SOL     OW19462   1.982   1.325   5.685
 6188SOL    HW119463   1.892   1.326   5.728
 6188SOL    HW219464   2.009   1.231   5.664
 6189SOL     OW19465   3.906   5.607   2.437
 6189SOL    HW119466   3.856   5.690   2.460
 6189SOL    HW219467   3.991   5.632   2.389
 6190SOL     OW19468   6.349   3.445   5.992
 6190SOL    HW119469   6.331   3.447   6.091
 6190SOL    HW219470   6.264   3.465   5.943
 6191SOL     OW19471   2.549   3.448   5.956
 6191SOL    HW119472   2.643   3.455   5.991
 6191SOL    HW219473   2.521   3.535   5.917
 6192SOL     OW19474   2.599   1.798   6.835
 6192SOL    HW119475   2.527   1.743   6.792
 6192SOL    HW219476   2.654   1.841   6.764
 6193SOL     OW19477   5.367   4.951   0.167
 6193SOL    HW119478   5.410   4.898   0.241
 6193SOL    HW219479   5.365   5.047   0.193
 6194SOL     OW19480   6.891   0.600   6.663
 6194SOL    HW119481   6.837   0.560   6.737
 6194SOL    HW219482   6.939   0.528   6.613
 6195SOL     OW19483   5.859   0.532   4.814
 6195SOL    HW119484   5.807   0.493   4.738
 6195SOL    HW219485   5.820   0.620   4.841
 6196SOL     OW19486   5.116   4.483   2.789
 6196SOL    HW119487   5.095   4.385   2.785
 6196SOL    HW219488   5.215   4.497   2.778
 6197SOL     OW19489   2.726   5.269   1.886
 6197SOL    HW119490   2.705   5.231   1.796
 6197SOL    HW219491   2.718   5.197   1.956
 6198SOL     OW19492   5.444   6.348   6.046
 6198SOL    HW119493   5.431   6.445   6.022
 6198SOL    HW219494   5.390   6.328   6.128
 6199SOL     OW19495   0.459   0.267   0.385
 6199SOL    HW119496   0.559   0.267   0.383
 6199SOL    HW219497   0.424   0.282   0.292
 6200SOL     OW19498   1.563   0.799   2.351
 6200SOL    HW119499   1.526   0.781   2.260
 6200SOL    HW219500   1.657   0.833   2.342
 6201SOL     OW19501   6.992   4.343   3.757
 6201SOL    HW119502   6.950   4.354   3.847
 6201SOL    HW219503   7.010   4.246   3.741
 6202SOL     OW19504   6.032   2.061   3.397
 6202SOL    HW119505   6.035   2.156   3.427
 6202SOL    HW219506   6.043   2.001   3.476
 6203SOL     OW19507   6.584   5.675   1.739
 6203SOL    HW119508   6.534   5.600   1.782
 6203SOL    HW219509   6.662   5.700   1.797
 6204SOL     OW19510   1.266   6.293   5.147
 6204SOL    HW119511   1.230   6.220   5.087
 6204SOL    HW219512   1.282   6.375   5.092
 6205SOL     OW19513   4.740   4.876   2.253
 6205SOL    HW119514   4.748   4.816   2.333
 6205SOL    HW219515   4.742   4.820   2.170
 6206SOL     OW19516   5.041   1.592   3.729
 6206SOL    HW119517   5.041   1.692   3.728
 6206SOL    HW219518   5.001   1.560   3.815
 6207SOL     OW19519   1.112   5.780   4.379
 6207SOL    HW119520   1.084   5.780   4.283
 6207SOL    HW219521   1.154   5.867   4.402
 6208SOL     OW19522   3.743   2.784   5.891
 6208SOL    HW119523   3.675   2.711   5.898
 6208SOL    HW219524   3.764   2.801   5.795
 6209SOL     OW19525   3.686   4.227   0.994
 6209SOL    HW119526   3.709   4.296   0.925
 6209SOL    HW219527   3.766   4.211   1.053
 6210SOL     OW19528   4.882   3.523   3.357
 6210SOL    HW119529   4.944   3.541   3.433
 6210SOL    HW219530   4.809   3.462   3.386
 6211SOL     OW19531   4.745   5.365   5.098
 6211SOL    HW119532   4.771   5.270   5.080
 6211SOL    HW219533   4.670   5.391   5.037
 6212SOL     OW19534   2.701   5.090   5.436
 6212SOL    HW119535   2.717   5.183   5.468
 6212SOL    HW219536   2.769   5.028   5.475
 6213SOL     OW19537   4.918   6.595   0.572
 6213SOL    HW119538   4.856   6.525   0.608
 6213SOL    HW219539   4.931   6.666   0.641
 6214SOL     OW19540   6.072   5.933   5.301
 6214SOL    HW119541   6.063   5.881   5.216
 6214SOL    HW219542   6.007   6.009   5.300
 6215SOL     OW19543   5.197   3.151   6.150
 6215SOL    HW119544   5.130   3.165   6.223
 6215SOL    HW219545   5.157   3.091   6.080
 6216SOL     OW19546   5.542   2.756   3.568
 6216SOL    HW119547   5.537   2.855   3.578
 6216SOL    HW219548   5.576   2.733   3.477
 6217SOL     OW19549   1.121   5.002   2.577
 6217SOL    HW119550   1.134   5.021   2.674
 6217SOL    HW219551   1.144   4.907   2.557
 6218SOL     OW19552   5.166   5.977   0.138
 6218SOL    HW119553   5.104   5.964   0.215
 6218SOL    HW219554   5.206   6.069   0.142
 6219SOL     OW19555   0.924   0.890   4.975
 6219SOL    HW119556   0.824   0.894   4.981
 6219SOL    HW219557   0.963   0.964   5.031
 6220SOL     OW19558   3.709   0.644   0.564
 6220SOL    HW119559   3.615   0.668   0.543
 6220SOL    HW219560   3.718   0.545   0.571
 6221SOL     OW19561   6.787   6.274   6.332
 6221SOL    HW119562   6.857   6.244   6.397
 6221SOL    HW219563   6.763   6.369   6.351
 6222SOL     OW19564   5.862   1.195   2.011
 6222SOL    HW119565   5.861   1.294   2.028
 6222SOL    HW219566   5.896   1.178   1.919
 6223SOL     OW19567   0.557   4.987   3.936
 6223SOL    HW119568   0.586   4.892   3.923
 6223SOL    HW219569   0.471   5.003   3.886
 6224SOL     OW19570   4.255   1.618   6.729
 6224SOL    HW119571   4.180   1.667   6.686
 6224SOL    HW219572   4.220   1.562   6.804
 6225SOL     OW19573   3.731   0.894   6.910
 6225SOL    HW119574   3.777   0.844   6.837
 6225SOL    HW219575   3.673   0.830   6.962
 6226SOL     OW19576   1.308   1.652   4.035
 6226SOL    HW119577   1.251   1.734   4.032
 6226SOL    HW219578   1.253   1.572   4.008
 6227SOL     OW19579   2.979   4.303   5.837
 6227SOL    HW119580   2.884   4.331   5.820
 6227SOL    HW219581   3.030   4.304   5.752
 6228SOL     OW19582   2.128   2.338   3.573
 6228SOL    HW119583   2.144   2.424   3.622
 6228SOL    HW219584   2.048   2.347   3.514
 6229SOL     OW19585   6.982   3.525   4.874
 6229SOL    HW119586   6.981   3.575   4.788
 6229SOL    HW219587   6.888   3.508   4.904
 6230SOL     OW19588   0.426   1.716   2.547
 6230SOL    HW119589   0.379   1.773   2.480
 6230SOL    HW219590   0.362   1.649   2.586
 6231SOL     OW19591   5.441   4.564   0.999
 6231SOL    HW119592   5.418   4.587   1.093
 6231SOL    HW219593   5.463   4.648   0.948
 6232SOL     OW19594   5.605   0.325   0.417
 6232SOL    HW119595   5.635   0.413   0.382
 6232SOL    HW219596   5.536   0.338   0.488
 6233SOL     OW19597   0.388   3.481   2.641
 6233SOL    HW119598   0.382   3.550   2.713
 6233SOL    HW219599   0.468   3.423   2.658
 6234SOL     OW19600   0.132   6.964   4.313
 6234SOL    HW119601   0.102   6.906   4.389
 6234SOL    HW219602   0.140   0.033   4.344
 6235SOL     OW19603   6.613   1.112   2.443
 6235SOL    HW119604   6.605   1.036   2.508
 6235SOL    HW219605   6.687   1.172   2.471
 6236SOL     OW19606   0.947   4.786   1.065
 6236SOL    HW119607   0.946   4.688   1.046
 6236SOL    HW219608   1.039   4.814   1.094
 6237SOL     OW19609   3.761   0.011   0.562
 6237SOL    HW119610   3.731   6.954   0.514
 6237SOL    HW219611   3.682   0.063   0.594
 6238SOL     OW19612   2.928   6.560   4.100
 6238SOL    HW119613   2.884   6.549   4.189
 6238SOL    HW219614   2.862   6.540   4.028
 6239SOL     OW19615   4.663   0.269   2.394
 6239SOL    HW119616   4.579   0.218   2.410
 6239SOL    HW219617   4.658   0.357   2.442
 6240SOL     OW19618   3.318   3.359   4.920
 6240SOL    HW119619   3.403   3.411   4.925
 6240SOL    HW219620   3.249   3.413   4.872
 6241SOL     OW19621   2.952   6.285   3.778
 6241SOL    HW119622   2.990   6.305   3.868
 6241SOL    HW219623   2.995   6.202   3.742
 6242SOL     OW19624   2.740   2.053   2.804
 6242SOL    HW119625   2.645   2.043   2.775
 6242SOL    HW219626   2.748   2.025   2.900
 6243SOL     OW19627   6.115   1.447   6.557
 6243SOL    HW119628   6.027   1.400   6.553
 6243SOL    HW219629   6.136   1.470   6.652
 6244SOL     OW19630   4.418   5.074   2.983
 6244SOL    HW119631   4.386   5.056   2.890
 6244SOL    HW219632   4.517   5.065   2.986
 6245SOL     OW19633   1.336   4.624   2.488
 6245SOL    HW119634   1.406   4.695   2.479
 6245SOL    HW219635   1.377   4.543   2.530
 6246SOL     OW19636   1.222   6.860   4.727
 6246SOL    HW119637   1.158   6.789   4.697
 6246SOL    HW219638   1.315   6.832   4.705
 6247SOL     OW19639   0.227   5.750   3.588
 6247SOL    HW119640   0.314   5.726   3.631
 6247SOL    HW219641   0.168   5.795   3.655
 6248SOL     OW19642   4.190   2.685   6.694
 6248SOL    HW119643   4.124   2.693   6.619
 6248SOL    HW219644   4.263   2.752   6.682
 6249SOL     OW19645   7.019   2.959   1.369
 6249SOL    HW119646   0.063   2.948   1.440
 6249SOL    HW219647   6.945   3.018   1.402
 6250SOL     OW19648   6.935   6.963   0.661
 6250SOL    HW119649   6.942   0.025   0.709
 6250SOL    HW219650   6.844   6.954   0.620
 6251SOL     OW19651   3.176   0.097   4.551
 6251SOL    HW119652   3.206   0.065   4.461
 6251SOL    HW219653   3.248   0.154   4.591
 6252SOL     OW19654   2.683   5.780   6.999
 6252SOL    HW119655   2.708   5.684   6.989
 6252SOL    HW219656   2.584   5.788   7.010
 6253SOL     OW19657   2.806   5.154   4.544
 6253SOL    HW119658   2.831   5.238   4.593
 6253SOL    HW219659   2.724   5.115   4.585
 6254SOL     OW19660   0.160   5.388   0.534
 6254SOL    HW119661   0.140   5.443   0.615
 6254SOL    HW219662   0.254   5.354   0.538
 6255SOL     OW19663   1.194   1.746   0.835
 6255SOL    HW119664   1.205   1.815   0.763
 6255SOL    HW219665   1.111   1.693   0.819
 6256SOL     OW19666   4.593   5.657   3.003
 6256SOL    HW119667   4.664   5.664   3.073
 6256SOL    HW219668   4.504   5.648   3.047
 6257SOL     OW19669   4.394   3.890   0.775
 6257SOL    HW119670   4.442   3.884   0.687
 6257SOL    HW219671   4.460   3.903   0.849
 6258SOL     OW19672   4.572   0.402   5.700
 6258SOL    HW119673   4.537   0.425   5.610
 6258SOL    HW219674   4.558   0.479   5.762
 6259SOL     OW19675   2.423   6.514   5.446
 6259SOL    HW119676   2.426   6.473   5.537
 6259SOL    HW219677   2.366   6.596   5.448
 6260SOL     OW19678   1.985   0.546   0.488
 6260SOL    HW119679   2.005   0.468   0.429
 6260SOL    HW219680   1.904   0.594   0.453
 6261SOL     OW19681   4.508   6.692   1.235
 6261SOL    HW119682   4.441   6.708   1.162
 6261SOL    HW219683   4.483   6.610   1.286
 6262SOL     OW19684   6.280   6.413   2.502
 6262SOL    HW119685   6.264   6.325   2.457
 6262SOL    HW219686   6.266   6.487   2.435
 6263SOL     OW19687   0.362   6.603   4.557
 6263SOL    HW119688   0.297   6.546   4.609
 6263SOL    HW219689   0.393   6.679   4.615
 6264SOL     OW19690   0.741   6.748   0.886
 6264SOL    HW119691   0.770   6.684   0.956
 6264SOL    HW219692   0.773   6.716   0.796
 6265SOL     OW19693   3.903   2.313   0.277
 6265SOL    HW119694   3.830   2.245   0.280
 6265SOL    HW219695   3.980   2.282   0.333
 6266SOL     OW19696   3.418   5.149   3.417
 6266SOL    HW119697   3.445   5.054   3.408
 6266SOL    HW219698   3.402   5.170   3.514
 6267SOL     OW19699   1.234   6.663   5.750
 6267SOL    HW119700   1.182   6.625   5.674
 6267SOL    HW219701   1.274   6.750   5.723
 6268SOL     OW19702   3.721   0.403   1.760
 6268SOL    HW119703   3.655   0.383   1.688
 6268SOL    HW219704   3.686   0.371   1.848
 6269SOL     OW19705   5.583   6.569   1.281
 6269SOL    HW119706   5.670   6.616   1.293
 6269SOL    HW219707   5.555   6.529   1.368
 6270SOL     OW19708   1.381   6.378   6.978
 6270SOL    HW119709   1.455   6.421   6.926
 6270SOL    HW219710   1.335   6.310   6.922
 6271SOL     OW19711   6.219   3.402   6.908
 6271SOL    HW119712   6.262   3.478   6.956
 6271SOL    HW219713   6.153   3.439   6.842
 6272SOL     OW19714   5.501   0.220   6.931
 6272SOL    HW119715   5.435   0.253   6.998
 6272SOL    HW219716   5.454   0.182   6.852
 6273SOL     OW19717   6.895   6.826   2.302
 6273SOL    HW119718   6.919   6.768   2.224
 6273SOL    HW219719   6.934   6.788   2.386
 6274SOL     OW19720   2.994   6.298   4.943
 6274SOL    HW119721   3.060   6.225   4.925
 6274SOL    HW219722   3.037   6.387   4.925
 6275SOL     OW19723   2.131   6.156   0.708
 6275SOL    HW119724   2.140   6.106   0.794
 6275SOL    HW219725   2.063   6.111   0.650
 6276SOL     OW19726   1.961   5.244   3.334
 6276SOL    HW119727   1.930   5.240   3.429
 6276SOL    HW219728   2.048   5.194   3.326
 6277SOL     OW19729   5.380   2.485   1.466
 6277SOL    HW119730   5.354   2.514   1.558
 6277SOL    HW219731   5.343   2.394   1.449
 6278SOL     OW19732   3.437   0.214   5.416
 6278SOL    HW119733   3.371   0.202   5.490
 6278SOL    HW219734   3.526   0.177   5.443
 6279SOL     OW19735   3.441   5.807   1.312
 6279SOL    HW119736   3.522   5.779   1.259
 6279SOL    HW219737   3.375   5.851   1.251
 6280SOL     OW19738   6.221   1.760   6.966
 6280SOL    HW119739   6.147   1.755   0.008
 6280SOL    HW219740   6.280   1.837   6.988
 6281SOL     OW19741   6.101   4.467   4.841
 6281SOL    HW119742   6.182   4.435   4.888
 6281SOL    HW219743   6.069   4.397   4.777
 6282SOL     OW19744   0.210   3.311   6.569
 6282SOL    HW119745   0.184   3.348   6.480
 6282SOL    HW219746   0.254   3.383   6.623
 6283SOL     OW19747   1.247   5.995   5.301
 6283SOL    HW119748   1.164   6.048   5.280
 6283SOL    HW219749   1.221   5.909   5.345
 6284SOL     OW19750   2.216   3.979   6.787
 6284SOL    HW119751   2.198   3.922   6.708
 6284SOL    HW219752   2.130   4.002   6.833
 6285SOL     OW19753   1.912   3.073   2.743
 6285SOL    HW119754   1.968   2.996   2.773
 6285SOL    HW219755   1.846   3.096   2.815
 6286SOL     OW19756   0.812   3.081   4.946
 6286SOL    HW119757   0.720   3.042   4.940
 6286SOL    HW219758   0.868   3.047   4.871
 6287SOL     OW19759   4.169   4.830   5.044
 6287SOL    HW119760   4.184   4.775   4.961
 6287SOL    HW219761   4.099   4.898   5.026
 6288SOL     OW19762   3.704   3.170   6.099
 6288SOL    HW119763   3.752   3.082   6.097
 6288SOL    HW219764   3.640   3.171   6.176
 6289SOL     OW19765   2.844   4.795   6.379
 6289SOL    HW119766   2.855   4.884   6.422
 6289SOL    HW219767   2.911   4.731   6.417
 6290SOL     OW19768   5.783   5.452   5.788
 6290SOL    HW119769   5.792   5.377   5.853
 6290SOL    HW219770   5.742   5.531   5.833
 6291SOL     OW19771   3.602   3.112   3.248
 6291SOL    HW119772   3.582   3.040   3.181
 6291SOL    HW219773   3.642   3.072   3.330
 6292SOL     OW19774   2.317   2.895   4.574
 6292SOL    HW119775   2.301   2.853   4.484
 6292SOL    HW219776   2.391   2.961   4.568
 6293SOL     OW19777   5.569   0.960   6.589
 6293SOL    HW119778   5.480   0.965   6.543
 6293SOL    HW219779   5.594   1.051   6.622
 6294SOL     OW19780   2.711   1.220   3.973
 6294SOL    HW119781   2.692   1.176   3.886
 6294SOL    HW219782   2.703   1.319   3.963
 6295SOL     OW19783   5.569   5.022   5.239
 6295SOL    HW119784   5.486   4.995   5.191
 6295SOL    HW219785   5.617   4.941   5.271
 6296SOL     OW19786   0.047   3.074   6.524
 6296SOL    HW119787   0.096   3.147   6.572
 6296SOL    HW219788   0.056   3.087   6.426
 6297SOL     OW19789   6.490   0.334   4.528
 6297SOL    HW119790   6.440   0.325   4.442
 6297SOL    HW219791   6.522   0.244   4.558
 6298SOL     OW19792   5.646   4.654   0.001
 6298SOL    HW119793   5.587   4.577   7.002
 6298SOL    HW219794   5.724   4.621   0.053
 6299SOL     OW19795   4.544   2.635   2.876
 6299SOL    HW119796   4.629   2.602   2.918
 6299SOL    HW219797   4.565   2.674   2.786
 6300SOL     OW19798   3.703   0.904   6.091
 6300SOL    HW119799   3.651   0.941   6.014
 6300SOL    HW219800   3.792   0.949   6.096
 6301SOL     OW19801   3.541   6.977   6.826
 6301SOL    HW119802   3.564   6.894   6.877
 6301SOL    HW219803   3.619   0.014   6.825
 6302SOL     OW19804   2.669   0.430   5.411
 6302SOL    HW119805   2.680   0.403   5.507
 6302SOL    HW219806   2.584   0.392   5.375
 6303SOL     OW19807   1.061   6.277   6.064
 6303SOL    HW119808   0.962   6.286   6.060
 6303SOL    HW219809   1.091   6.277   6.159
 6304SOL     OW19810   4.177   1.197   2.882
 6304SOL    HW119811   4.199   1.256   2.804
 6304SOL    HW219812   4.185   1.250   2.967
 6305SOL     OW19813   0.162   5.699   5.075
 6305SOL    HW119814   0.182   5.602   5.089
 6305SOL    HW219815   0.066   5.717   5.095
 6306SOL     OW19816   6.797   4.741   3.938
 6306SOL    HW119817   6.873   4.709   3.995
 6306SOL    HW219818   6.829   4.753   3.844
 6307SOL     OW19819   4.020   3.754   3.458
 6307SOL    HW119820   4.101   3.720   3.505
 6307SOL    HW219821   4.044   3.778   3.363
 6308SOL     OW19822   0.092   2.608   6.395
 6308SOL    HW119823   0.162   2.665   6.437
 6308SOL    HW219824   0.055   2.654   6.314
 6309SOL     OW19825   1.230   6.493   4.967
 6309SOL    HW119826   1.233   6.443   4.881
 6309SOL    HW219827   1.136   6.522   4.986
 6310SOL     OW19828   1.954   6.713   3.497
 6310SOL    HW119829   1.907   6.801   3.487
 6310SOL    HW219830   1.958   6.667   3.409
 6311SOL     OW19831   5.629   1.316   5.899
 6311SOL    HW119832   5.729   1.318   5.903
 6311SOL    HW219833   5.592   1.348   5.987
 6312SOL     OW19834   3.413   6.767   6.690
 6312SOL    HW119835   3.439   6.860   6.717
 6312SOL    HW219836   3.325   6.770   6.643
 6313SOL     OW19837   4.935   6.358   3.315
 6313SOL    HW119838   5.025   6.377   3.354
 6313SOL    HW219839   4.924   6.409   3.230
 6314SOL     OW19840   2.885   0.237   1.594
 6314SOL    HW119841   2.847   0.192   1.675
 6314SOL    HW219842   2.842   0.201   1.512
 6315SOL     OW19843   2.208   3.100   4.251
 6315SOL    HW119844   2.247   3.041   4.181
 6315SOL    HW219845   2.188   3.190   4.211
 6316SOL     OW19846   5.187   2.153   5.365
 6316SOL    HW119847   5.137   2.126   5.448
 6316SOL    HW219848   5.124   2.155   5.288
 6317SOL     OW19849   4.977   4.722   2.027
 6317SOL    HW119850   4.992   4.646   2.091
 6317SOL    HW219851   4.976   4.808   2.077
 6318SOL     OW19852   6.223   0.811   6.324
 6318SOL    HW119853   6.187   0.863   6.247
 6318SOL    HW219854   6.301   0.859   6.363
 6319SOL     OW19855   5.483   2.606   4.676
 6319SOL    HW119856   5.477   2.688   4.732
 6319SOL    HW219857   5.544   2.539   4.721
 6320SOL     OW19858   0.221   1.246   3.890
 6320SOL    HW119859   0.125   1.232   3.866
 6320SOL    HW219860   0.271   1.159   3.884
 6321SOL     OW19861   5.670   2.351   0.702
 6321SOL    HW119862   5.702   2.256   0.698
 6321SOL    HW219863   5.687   2.388   0.794
 6322SOL     OW19864   1.990   0.829   1.098
 6322SOL    HW119865   2.043   0.909   1.124
 6322SOL    HW219866   1.956   0.783   1.180
 6323SOL     OW19867   2.928   2.955   1.059
 6323SOL    HW119868   3.004   2.930   1.119
 6323SOL    HW219869   2.890   2.872   1.018
 6324SOL     OW19870   4.907   1.204   1.121
 6324SOL    HW119871   4.877   1.296   1.099
 6324SOL    HW219872   4.993   1.208   1.172
 6325SOL     OW19873   1.465   2.207   2.602
 6325SOL    HW119874   1.365   2.220   2.605
 6325SOL    HW219875   1.509   2.276   2.659
 6326SOL     OW19876   4.979   5.279   5.691
 6326SOL    HW119877   5.003   5.193   5.644
 6326SOL    HW219878   4.963   5.350   5.623
 6327SOL     OW19879   7.023   1.956   3.707
 6327SOL    HW119880   6.939   1.917   3.745
 6327SOL    HW219881   7.004   1.995   3.617
 6328SOL     OW19882   4.581   3.359   6.111
 6328SOL    HW119883   4.486   3.369   6.140
 6328SOL    HW219884   4.623   3.450   6.105
 6329SOL     OW19885   1.692   2.589   5.488
 6329SOL    HW119886   1.639   2.607   5.405
 6329SOL    HW219887   1.689   2.670   5.547
 6330SOL     OW19888   6.282   0.816   3.545
 6330SOL    HW119889   6.232   0.759   3.610
 6330SOL    HW219890   6.235   0.813   3.456
 6331SOL     OW19891   6.343   2.935   4.403
 6331SOL    HW119892   6.418   2.884   4.362
 6331SOL    HW219893   6.268   2.945   4.336
 6332SOL     OW19894   2.045   1.749   1.169
 6332SOL    HW119895   2.117   1.776   1.105
 6332SOL    HW219896   1.961   1.728   1.118
 6333SOL     OW19897   4.843   0.347   0.409
 6333SOL    HW119898   4.761   0.352   0.466
 6333SOL    HW219899   4.923   0.375   0.462
 6334SOL     OW19900   2.962   1.622   2.333
 6334SOL    HW119901   2.887   1.626   2.398
 6334SOL    HW219902   2.985   1.714   2.301
 6335SOL     OW19903   5.587   0.702   0.358
 6335SOL    HW119904   5.684   0.725   0.366
 6335SOL    HW219905   5.547   0.695   0.449
 6336SOL     OW19906   0.205   3.846   6.013
 6336SOL    HW119907   0.261   3.875   6.090
 6336SOL    HW219908   0.249   3.770   5.966
 6337SOL     OW19909   4.521   5.395   4.948
 6337SOL    HW119910   4.465   5.430   5.023
 6337SOL    HW219911   4.462   5.369   4.872
 6338SOL     OW19912   3.291   1.882   3.974
 6338SOL    HW119913   3.259   1.826   4.051
 6338SOL    HW219914   3.331   1.967   4.009
 6339SOL     OW19915   1.249   4.073   3.077
 6339SOL    HW119916   1.230   4.149   3.139
 6339SOL    HW219917   1.329   4.093   3.021
 6340SOL     OW19918   2.222   3.781   1.467
 6340SOL    HW119919   2.143   3.839   1.445
 6340SOL    HW219920   2.290   3.787   1.394
 6341SOL     OW19921   1.103   4.755   4.361
 6341SOL    HW119922   1.189   4.805   4.347
 6341SOL    HW219923   1.071   4.771   4.455
 6342SOL     OW19924   1.903   0.828   2.139
 6342SOL    HW119925   1.851   0.747   2.113
 6342SOL    HW219926   1.931   0.820   2.235
 6343SOL     OW19927   2.872   5.910   0.431
 6343SOL    HW119928   2.913   5.885   0.519
 6343SOL    HW219929   2.944   5.922   0.363
 6344SOL     OW19930   5.656   2.489   3.685
 6344SOL    HW119931   5.664   2.488   3.785
 6344SOL    HW219932   5.690   2.576   3.649
 6345SOL     OW19933   5.778   3.359   2.019
 6345SOL    HW119934   5.774   3.410   2.105
 6345SOL    HW219935   5.752   3.264   2.036
 6346SOL     OW19936   0.664   4.179   5.832
 6346SOL    HW119937   0.628   4.268   5.857
 6346SOL    HW219938   0.735   4.152   5.898
 6347SOL     OW19939   2.822   2.291   2.745
 6347SOL    HW119940   2.920   2.313   2.745
 6347SOL    HW219941   2.810   2.193   2.758
 6348SOL     OW19942   0.257   1.512   5.834
 6348SOL    HW119943   0.308   1.564   5.766
 6348SOL    HW219944   0.287   1.416   5.833
 6349SOL     OW19945   0.581   0.429   0.601
 6349SOL    HW119946   0.678   0.445   0.581
 6349SOL    HW219947   0.532   0.414   0.515
 6350SOL     OW19948   0.876   4.163   2.086
 6350SOL    HW119949   0.859   4.200   1.994
 6350SOL    HW219950   0.869   4.063   2.083
 6351SOL     OW19951   6.340   3.810   3.489
 6351SOL    HW119952   6.284   3.867   3.549
 6351SOL    HW219953   6.324   3.714   3.510
 6352SOL     OW19954   2.427   0.274   4.201
 6352SOL    HW119955   2.341   0.233   4.174
 6352SOL    HW219956   2.420   0.373   4.197
 6353SOL     OW19957   2.148   6.115   6.741
 6353SOL    HW119958   2.246   6.138   6.738
 6353SOL    HW219959   2.099   6.170   6.674
 6354SOL     OW19960   4.989   4.331   3.031
 6354SOL    HW119961   4.915   4.398   3.036
 6354SOL    HW219962   4.993   4.291   2.940
 6355SOL     OW19963   2.835   4.641   0.604
 6355SOL    HW119964   2.760   4.593   0.559
 6355SOL    HW219965   2.898   4.574   0.645
 6356SOL     OW19966   4.579   4.963   6.487
 6356SOL    HW119967   4.664   4.998   6.447
 6356SOL    HW219968   4.511   4.951   6.416
 6357SOL     OW19969   5.999   2.111   1.743
 6357SOL    HW119970   6.074   2.145   1.686
 6357SOL    HW219971   6.016   2.137   1.838
 6358SOL     OW19972   1.591   2.099   6.798
 6358SOL    HW119973   1.644   2.043   6.862
 6358SOL    HW219974   1.582   2.050   6.711
 6359SOL     OW19975   5.373   6.319   0.714
 6359SOL    HW119976   5.436   6.365   0.777
 6359SOL    HW219977   5.408   6.228   0.692
 6360SOL     OW19978   0.506   2.542   3.455
 6360SOL    HW119979   0.565   2.461   3.452
 6360SOL    HW219980   0.524   2.594   3.539
 6361SOL     OW19981   0.249   0.513   6.969
 6361SOL    HW119982   0.331   0.567   6.987
 6361SOL    HW219983   0.178   0.537   0.009
 6362SOL     OW19984   0.840   5.433   6.708
 6362SOL    HW119985   0.781   5.489   6.649
 6362SOL    HW219986   0.879   5.490   6.780
 6363SOL     OW19987   2.696   5.273   3.642
 6363SOL    HW119988   2.775   5.215   3.661
 6363SOL    HW219989   2.619   5.216   3.614
 6364SOL     OW19990   2.429   2.093   5.179
 6364SOL    HW119991   2.496   2.092   5.105
 6364SOL    HW219992   2.475   2.080   5.266
 6365SOL     OW19993   5.906   6.121   4.104
 6365SOL    HW119994   5.858   6.182   4.168
 6365SOL    HW219995   5.841   6.083   4.039
 6366SOL     OW19996   6.025   6.411   4.920
 6366SOL    HW119997   6.070   6.479   4.978
 6366SOL    HW219998   5.937   6.385   4.962
 6367SOL     OW19999   3.222   2.167   3.031
 6367SOL    HW120000   3.193   2.177   3.126
 6367SOL    HW220001   3.322   2.174   3.025
 6368SOL     OW20002   4.997   3.926   4.055
 6368SOL    HW120003   4.944   3.930   4.140
 6368SOL    HW220004   4.946   3.876   3.986
 6369SOL     OW20005   3.468   6.502   6.065
 6369SOL    HW120006   3.477   6.408   6.031
 6369SOL    HW220007   3.381   6.512   6.113
 6370SOL     OW20008   5.308   3.883   3.700
 6370SOL    HW120009   5.365   3.829   3.639
 6370SOL    HW220010   5.265   3.957   3.647
 6371SOL     OW20011   5.275   4.216   1.592
 6371SOL    HW120012   5.238   4.273   1.665
 6371SOL    HW220013   5.334   4.145   1.632
 6372SOL     OW20014   0.294   1.286   3.048
 6372SOL    HW120015   0.310   1.193   3.015
 6372SOL    HW220016   0.202   1.316   3.021
 6373SOL     OW20017   5.808   4.292   1.255
 6373SOL    HW120018   5.864   4.372   1.273
 6373SOL    HW220019   5.855   4.210   1.288
 6374SOL     OW20020   4.716   2.801   0.347
 6374SOL    HW120021   4.739   2.859   0.269
 6374SOL    HW220022   4.664   2.854   0.414
 6375SOL     OW20023   6.751   2.979   2.639
 6375SOL    HW120024   6.709   3.070   2.639
 6375SOL    HW220025   6.827   2.978   2.704
 6376SOL     OW20026   3.763   1.244   5.237
 6376SOL    HW120027   3.686   1.263   5.176
 6376SOL    HW220028   3.769   1.315   5.307
 6377SOL     OW20029   0.041   6.981   6.810
 6377SOL    HW120030   0.106   6.987   6.885
 6377SOL    HW220031   0.073   0.011   6.733
 6378SOL     OW20032   5.620   5.758   3.475
 6378SOL    HW120033   5.595   5.714   3.389
 6378SOL    HW220034   5.556   5.731   3.546
 6379SOL     OW20035   2.329   5.842   6.350
 6379SOL    HW120036   2.328   5.822   6.252
 6379SOL    HW220037   2.311   5.758   6.401
 6380SOL     OW20038   1.149   3.006   4.877
 6380SOL    HW120039   1.142   3.078   4.946
 6380SOL    HW220040   1.087   3.027   4.801
 6381SOL     OW20041   4.567   3.466   0.182
 6381SOL    HW120042   4.597   3.399   0.249
 6381SOL    HW220043   4.641   3.482   0.116
 6382SOL     OW20044   2.842   1.843   1.178
 6382SOL    HW120045   2.803   1.793   1.256
 6382SOL    HW220046   2.932   1.878   1.203
 6383SOL     OW20047   1.940   2.306   2.789
 6383SOL    HW120048   1.884   2.224   2.777
 6383SOL    HW220049   1.973   2.310   2.883
 6384SOL     OW20050   6.618   2.533   2.052
 6384SOL    HW120051   6.597   2.459   1.988
 6384SOL    HW220052   6.569   2.616   2.024
 6385SOL     OW20053   0.423   3.486   1.219
 6385SOL    HW120054   0.448   3.445   1.132
 6385SOL    HW220055   0.505   3.508   1.271
 6386SOL     OW20056   1.907   3.464   0.549
 6386SOL    HW120057   1.841   3.455   0.624
 6386SOL    HW220058   1.927   3.560   0.533
 6387SOL     OW20059   6.212   0.851   0.201
 6387SOL    HW120060   6.181   0.780   0.264
 6387SOL    HW220061   6.229   0.935   0.252
 6388SOL     OW20062   6.156   5.123   2.568
 6388SOL    HW120063   6.225   5.065   2.524
 6388SOL    HW220064   6.067   5.103   2.528
 6389SOL     OW20065   1.758   6.927   0.213
 6389SOL    HW120066   1.669   6.905   0.175
 6389SOL    HW220067   1.753   7.012   0.266
 6390SOL     OW20068   6.205   0.831   6.961
 6390SOL    HW120069   6.226   0.912   6.907
 6390SOL    HW220070   6.194   0.857   0.032
 6391SOL     OW20071   1.077   0.729   5.130
 6391SOL    HW120072   1.020   0.801   5.089
 6391SOL    HW220073   1.035   0.640   5.111
 6392SOL     OW20074   3.063   5.514   3.492
 6392SOL    HW120075   3.081   5.598   3.441
 6392SOL    HW220076   3.107   5.437   3.445
 6393SOL     OW20077   5.900   6.527   1.485
 6393SOL    HW120078   5.952   6.504   1.403
 6393SOL    HW220079   5.950   6.597   1.538
 6394SOL     OW20080   0.576   5.164   1.117
 6394SOL    HW120081   0.650   5.220   1.079
 6394SOL    HW220082   0.616   5.083   1.161
 6395SOL     OW20083   1.167   4.393   3.043
 6395SOL    HW120084   1.097   4.350   3.100
 6395SOL    HW220085   1.217   4.460   3.097
 6396SOL     OW20086   6.416   3.524   0.421
 6396SOL    HW120087   6.475   3.547   0.343
 6396SOL    HW220088   6.357   3.447   0.396
 6397SOL     OW20089   5.305   2.308   3.178
 6397SOL    HW120090   5.305   2.208   3.177
 6397SOL    HW220091   5.275   2.342   3.089
 6398SOL     OW20092   0.919   6.391   1.268
 6398SOL    HW120093   0.987   6.364   1.200
 6398SOL    HW220094   0.960   6.459   1.330
 6399SOL     OW20095   2.151   6.957   6.293
 6399SOL    HW120096   2.131   0.025   6.262
 6399SOL    HW220097   2.169   6.957   6.391
 6400SOL     OW20098   1.616   5.740   2.630
 6400SOL    HW120099   1.539   5.803   2.630
 6400SOL    HW220100   1.701   5.791   2.615
 6401SOL     OW20101   4.087   5.018   2.943
 6401SOL    HW120102   4.141   4.943   2.982
 6401SOL    HW220103   4.009   5.037   3.003
 6402SOL     OW20104   1.982   4.871   4.262
 6402SOL    HW120105   1.930   4.817   4.195
 6402SOL    HW220106   2.048   4.929   4.214
 6403SOL     OW20107   5.124   6.618   4.607
 6403SOL    HW120108   5.178   6.595   4.689
 6403SOL    HW220109   5.119   6.717   4.597
 6404SOL     OW20110   3.383   0.727   2.405
 6404SOL    HW120111   3.342   0.636   2.415
 6404SOL    HW220112   3.437   0.748   2.486
 6405SOL     OW20113   5.228   1.381   3.138
 6405SOL    HW120114   5.145   1.434   3.123
 6405SOL    HW220115   5.308   1.440   3.128
 6406SOL     OW20116   1.245   2.810   2.551
 6406SOL    HW120117   1.254   2.907   2.525
 6406SOL    HW220118   1.173   2.801   2.620
 6407SOL     OW20119   2.482   6.316   3.573
 6407SOL    HW120120   2.414   6.365   3.518
 6407SOL    HW220121   2.568   6.310   3.522
 6408SOL     OW20122   0.084   0.636   0.534
 6408SOL    HW120123   0.091   0.613   0.631
 6408SOL    HW220124   0.063   0.554   0.482
 6409SOL     OW20125   6.652   4.975   3.572
 6409SOL    HW120126   6.560   5.014   3.563
 6409SOL    HW220127   6.649   4.897   3.636
 6410SOL     OW20128   2.971   1.447   5.535
 6410SOL    HW120129   2.938   1.539   5.512
 6410SOL    HW220130   3.048   1.424   5.476
 6411SOL     OW20131   0.313   2.593   2.602
 6411SOL    HW120132   0.288   2.500   2.628
 6411SOL    HW220133   0.277   2.657   2.671
 6412SOL     OW20134   3.277   0.707   0.122
 6412SOL    HW120135   3.263   0.719   0.024
 6412SOL    HW220136   3.264   0.611   0.147
 6413SOL     OW20137   4.259   4.919   4.147
 6413SOL    HW120138   4.235   4.955   4.057
 6413SOL    HW220139   4.312   4.835   4.137
 6414SOL     OW20140   0.998   0.034   6.962
 6414SOL    HW120141   0.953   0.021   0.025
 6414SOL    HW220142   0.951   0.107   6.912
 6415SOL     OW20143   1.323   2.859   3.361
 6415SOL    HW120144   1.353   2.853   3.457
 6415SOL    HW220145   1.293   2.952   3.342
 6416SOL     OW20146   2.950   0.199   6.431
 6416SOL    HW120147   2.902   0.260   6.493
 6416SOL    HW220148   2.994   0.252   6.359
 6417SOL     OW20149   4.718   1.688   0.916
 6417SOL    HW120150   4.670   1.734   0.841
 6417SOL    HW220151   4.756   1.758   0.977
 6418SOL     OW20152   4.199   4.785   1.453
 6418SOL    HW120153   4.120   4.723   1.461
 6418SOL    HW220154   4.276   4.735   1.414
 6419SOL     OW20155   0.897   6.614   6.508
 6419SOL    HW120156   0.860   6.698   6.469
 6419SOL    HW220157   0.958   6.637   6.583
 6420SOL     OW20158   1.509   3.245   3.754
 6420SOL    HW120159   1.482   3.333   3.793
 6420SOL    HW220160   1.432   3.205   3.705
 6421SOL     OW20161   5.052   6.884   1.559
 6421SOL    HW120162   5.132   6.865   1.504
 6421SOL    HW220163   5.077   6.882   1.656
 6422SOL     OW20164   6.913   3.095   4.721
 6422SOL    HW120165   6.932   3.111   4.818
 6422SOL    HW220166   6.832   3.038   4.712
 6423SOL     OW20167   2.317   4.676   4.326
 6423SOL    HW120168   2.311   4.602   4.260
 6423SOL    HW220169   2.412   4.705   4.335
 6424SOL     OW20170   0.348   3.519   4.737
 6424SOL    HW120171   0.435   3.470   4.731
 6424SOL    HW220172   0.285   3.470   4.796
 6425SOL     OW20173   0.247   6.039   2.792
 6425SOL    HW120174   0.274   6.034   2.696
 6425SOL    HW220175   0.295   6.115   2.836
 6426SOL     OW20176   4.591   4.510   4.828
 6426SOL    HW120177   4.594   4.579   4.756
 6426SOL    HW220178   4.512   4.525   4.887
 6427SOL     OW20179   3.202   3.386   3.694
 6427SOL    HW120180   3.148   3.454   3.743
 6427SOL    HW220181   3.157   3.297   3.700
 6428SOL     OW20182   4.685   2.292   0.144
 6428SOL    HW120183   4.649   2.213   0.193
 6428SOL    HW220184   4.700   2.367   0.207
 6429SOL     OW20185   2.518   0.629   5.113
 6429SOL    HW120186   2.445   0.575   5.154
 6429SOL    HW220187   2.563   0.683   5.184
 6430SOL     OW20188   6.726   0.618   5.168
 6430SOL    HW120189   6.812   0.616   5.218
 6430SOL    HW220190   6.674   0.700   5.194
 6431SOL     OW20191   4.274   5.416   2.696
 6431SOL    HW120192   4.235   5.508   2.691
 6431SOL    HW220193   4.200   5.350   2.707
 6432SOL     OW20194   3.622   4.678   6.705
 6432SOL    HW120195   3.704   4.688   6.761
 6432SOL    HW220196   3.629   4.595   6.650
 6433SOL     OW20197   2.482   5.575   6.866
 6433SOL    HW120198   2.497   5.638   6.790
 6433SOL    HW220199   2.568   5.530   6.890
 6434SOL     OW20200   2.854   5.909   5.919
 6434SOL    HW120201   2.896   5.831   5.964
 6434SOL    HW220202   2.794   5.878   5.846
 6435SOL     OW20203   5.622   0.162   0.714
 6435SOL    HW120204   5.627   0.066   0.686
 6435SOL    HW220205   5.526   0.188   0.725
 6436SOL     OW20206   0.436   4.289   3.799
 6436SOL    HW120207   0.416   4.203   3.750
 6436SOL    HW220208   0.370   4.359   3.772
 6437SOL     OW20209   0.801   1.106   5.570
 6437SOL    HW120210   0.801   1.010   5.543
 6437SOL    HW220211   0.893   1.144   5.560
 6438SOL     OW20212   0.568   5.760   6.743
 6438SOL    HW120213   0.500   5.688   6.757
 6438SOL    HW220214   0.613   5.747   6.655
 6439SOL     OW20215   5.852   1.041   3.617
 6439SOL    HW120216   5.802   0.996   3.543
 6439SOL    HW220217   5.881   0.974   3.684
 6440SOL     OW20218   2.559   0.740   5.914
 6440SOL    HW120219   2.517   0.649   5.917
 6440SOL    HW220220   2.530   0.793   5.993
 6441SOL     OW20221   0.273   0.720   3.039
 6441SOL    HW120222   0.356   0.775   3.032
 6441SOL    HW220223   0.195   0.781   3.054
 6442SOL     OW20224   2.563   2.238   5.580
 6442SOL    HW120225   2.564   2.154   5.526
 6442SOL    HW220226   2.474   2.248   5.624
 6443SOL     OW20227   4.194   2.075   0.817
 6443SOL    HW120228   4.168   2.020   0.737
 6443SOL    HW220229   4.123   2.142   0.836
 6444SOL     OW20230   0.318   2.700   5.801
 6444SOL    HW120231   0.244   2.764   5.820
 6444SOL    HW220232   0.406   2.747   5.807
 6445SOL     OW20233   2.999   3.443   3.259
 6445SOL    HW120234   2.960   3.397   3.338
 6445SOL    HW220235   2.952   3.413   3.176
 6446SOL     OW20236   1.965   1.408   6.876
 6446SOL    HW120237   1.893   1.467   6.840
 6446SOL    HW220238   2.045   1.411   6.815
 6447SOL     OW20239   6.533   4.205   1.122
 6447SOL    HW120240   6.568   4.182   1.031
 6447SOL    HW220241   6.601   4.262   1.170
 6448SOL     OW20242   4.549   5.542   1.824
 6448SOL    HW120243   4.589   5.478   1.759
 6448SOL    HW220244   4.454   5.517   1.842
 6449SOL     OW20245   2.911   5.506   1.901
 6449SOL    HW120246   2.837   5.468   1.847
 6449SOL    HW220247   2.935   5.597   1.867
 6450SOL     OW20248   0.200   3.949   1.211
 6450SOL    HW120249   0.278   3.987   1.162
 6450SOL    HW220250   0.189   3.998   1.298
 6451SOL     OW20251   3.675   2.301   0.821
 6451SOL    HW120252   3.717   2.302   0.730
 6451SOL    HW220253   3.694   2.387   0.868
 6452SOL     OW20254   5.343   3.674   3.506
 6452SOL    HW120255   5.414   3.710   3.445
 6452SOL    HW220256   5.386   3.628   3.584
 6453SOL     OW20257   3.702   6.994   1.406
 6453SOL    HW120258   3.658   6.950   1.328
 6453SOL    HW220259   3.802   6.992   1.394
 6454SOL     OW20260   6.333   2.722   2.764
 6454SOL    HW120261   6.234   2.731   2.764
 6454SOL    HW220262   6.367   2.728   2.670
 6455SOL     OW20263   6.891   4.154   2.936
 6455SOL    HW120264   6.877   4.207   3.020
 6455SOL    HW220265   6.988   4.157   2.911
 6456SOL     OW20266   0.300   1.483   3.255
 6456SOL    HW120267   0.226   1.459   3.317
 6456SOL    HW220268   0.297   1.422   3.175
 6457SOL     OW20269   4.778   6.911   1.548
 6457SOL    HW120270   4.763   6.973   1.471
 6457SOL    HW220271   4.874   6.885   1.551
 6458SOL     OW20272   0.995   4.893   3.547
 6458SOL    HW120273   1.055   4.862   3.621
 6458SOL    HW220274   0.926   4.822   3.529
 6459SOL     OW20275   6.389   2.859   3.126
 6459SOL    HW120276   6.327   2.889   3.054
 6459SOL    HW220277   6.362   2.769   3.159
 6460SOL     OW20278   6.943   6.076   5.679
 6460SOL    HW120279   6.960   6.043   5.586
 6460SOL    HW220280   6.978   6.169   5.688
 6461SOL     OW20281   2.976   4.347   0.435
 6461SOL    HW120282   3.065   4.392   0.436
 6461SOL    HW220283   2.908   4.409   0.396
 6462SOL     OW20284   1.530   3.679   4.882
 6462SOL    HW120285   1.540   3.596   4.826
 6462SOL    HW220286   1.497   3.754   4.825
 6463SOL     OW20287   4.796   0.923   1.118
 6463SOL    HW120288   4.699   0.915   1.097
 6463SOL    HW220289   4.830   1.012   1.085
 6464SOL     OW20290   0.948   6.340   4.195
 6464SOL    HW120291   1.032   6.394   4.193
 6464SOL    HW220292   0.957   6.262   4.133
 6465SOL     OW20293   5.178   2.833   2.891
 6465SOL    HW120294   5.191   2.927   2.861
 6465SOL    HW220295   5.201   2.825   2.988
 6466SOL     OW20296   6.774   3.896   6.953
 6466SOL    HW120297   6.706   3.946   7.007
 6466SOL    HW220298   6.830   3.961   6.902
 6467SOL     OW20299   3.310   0.575   0.776
 6467SOL    HW120300   3.369   0.633   0.720
 6467SOL    HW220301   3.217   0.611   0.776
 6468SOL     OW20302   3.552   0.009   0.246
 6468SOL    HW120303   3.635   0.041   0.200
 6468SOL    HW220304   3.492   6.991   0.180
 6469SOL     OW20305   3.192   1.660   3.647
 6469SOL    HW120306   3.165   1.749   3.684
 6469SOL    HW220307   3.241   1.608   3.716
 6470SOL     OW20308   6.888   2.655   6.540
 6470SOL    HW120309   6.959   2.642   6.471
 6470SOL    HW220310   6.839   2.569   6.555
 6471SOL     OW20311   0.171   6.153   4.994
 6471SOL    HW120312   0.188   6.082   5.063
 6471SOL    HW220313   0.212   6.126   4.907
 6472SOL     OW20314   0.086   6.051   2.098
 6472SOL    HW120315   0.081   6.069   1.999
 6472SOL    HW220316   0.086   5.952   2.113
 6473SOL     OW20317   1.922   1.383   3.995
 6473SOL    HW120318   1.936   1.285   3.979
 6473SOL    HW220319   2.011   1.428   4.009
 6474SOL     OW20320   3.623   5.452   4.644
 6474SOL    HW120321   3.676   5.390   4.586
 6474SOL    HW220322   3.587   5.527   4.589
 6475SOL     OW20323   5.653   5.322   3.319
 6475SOL    HW120324   5.636   5.229   3.354
 6475SOL    HW220325   5.678   5.318   3.223
 6476SOL     OW20326   4.104   2.144   6.589
 6476SOL    HW120327   4.142   2.201   6.662
 6476SOL    HW220328   4.020   2.101   6.620
 6477SOL     OW20329   0.095   5.987   0.893
 6477SOL    HW120330   0.104   6.069   0.836
 6477SOL    HW220331   0.184   5.943   0.902
 6478SOL     OW20332   2.918   5.820   1.762
 6478SOL    HW120333   3.008   5.860   1.780
 6478SOL    HW220334   2.892   5.836   1.667
 6479SOL     OW20335   3.516   5.650   4.162
 6479SOL    HW120336   3.598   5.641   4.219
 6479SOL    HW220337   3.490   5.746   4.156
 6480SOL     OW20338   2.963   1.309   6.635
 6480SOL    HW120339   2.935   1.290   6.541
 6480SOL    HW220340   2.929   1.237   6.695
 6481SOL     OW20341   3.329   2.512   1.713
 6481SOL    HW120342   3.348   2.594   1.767
 6481SOL    HW220343   3.230   2.503   1.700
 6482SOL     OW20344   6.672   3.245   4.882
 6482SOL    HW120345   6.668   3.151   4.846
 6482SOL    HW220346   6.744   3.250   4.951
 6483SOL     OW20347   1.391   5.514   4.686
 6483SOL    HW120348   1.346   5.556   4.607
 6483SOL    HW220349   1.328   5.449   4.729
 6484SOL     OW20350   2.667   0.841   3.773
 6484SOL    HW120351   2.612   0.921   3.798
 6484SOL    HW220352   2.695   0.848   3.678
 6485SOL     OW20353   1.908   6.477   4.863
 6485SOL    HW120354   1.996   6.501   4.905
 6485SOL    HW220355   1.870   6.397   4.909
 6486SOL     OW20356   1.511   5.345   3.229
 6486SOL    HW120357   1.608   5.319   3.222
 6486SOL    HW220358   1.454   5.263   3.219
 6487SOL     OW20359   0.371   5.388   4.419
 6487SOL    HW120360   0.296   5.331   4.452
 6487SOL    HW220361   0.333   5.469   4.373
 6488SOL     OW20362   5.041   5.478   4.341
 6488SOL    HW120363   5.112   5.429   4.291
 6488SOL    HW220364   4.951   5.440   4.319
 6489SOL     OW20365   3.981   3.260   6.477
 6489SOL    HW120366   4.009   3.293   6.567
 6489SOL    HW220367   3.984   3.336   6.411
 6490SOL     OW20368   1.861   1.202   7.016
 6490SOL    HW120369   1.798   1.221   0.066
 6490SOL    HW220370   1.885   1.288   6.971
 6491SOL     OW20371   1.474   6.963   1.283
 6491SOL    HW120372   1.530   6.883   1.259
 6491SOL    HW220373   1.533   0.018   1.291
 6492SOL     OW20374   3.027   3.908   4.638
 6492SOL    HW120375   3.028   3.965   4.721
 6492SOL    HW220376   2.966   3.830   4.653
 6493SOL     OW20377   1.851   4.542   6.135
 6493SOL    HW120378   1.802   4.547   6.222
 6493SOL    HW220379   1.907   4.459   6.133
 6494SOL     OW20380   6.073   6.561   2.046
 6494SOL    HW120381   6.051   6.481   1.990
 6494SOL    HW220382   6.081   6.642   1.987
 6495SOL     OW20383   0.233   0.173   3.969
 6495SOL    HW120384   0.237   0.083   4.012
 6495SOL    HW220385   0.308   0.182   3.904
 6496SOL     OW20386   4.914   6.863   2.356
 6496SOL    HW120387   4.923   6.840   2.453
 6496SOL    HW220388   4.969   6.944   2.336
 6497SOL     OW20389   0.581   1.511   0.759
 6497SOL    HW120390   0.522   1.566   0.819
 6497SOL    HW220391   0.674   1.508   0.797
 6498SOL     OW20392   0.643   4.653   4.304
 6498SOL    HW120393   0.724   4.692   4.259
 6498SOL    HW220394   0.632   4.558   4.275
 6499SOL     OW20395   6.099   4.218   3.931
 6499SOL    HW120396   6.005   4.191   3.908
 6499SOL    HW220397   6.156   4.136   3.937
 6500SOL     OW20398   1.009   3.409   2.491
 6500SOL    HW120399   1.013   3.434   2.587
 6500SOL    HW220400   1.091   3.357   2.466
 6501SOL     OW20401   6.548   1.995   1.028
 6501SOL    HW120402   6.502   2.008   1.116
 6501SOL    HW220403   6.647   1.996   1.043
 6502SOL     OW20404   5.880   3.779   1.288
 6502SOL    HW120405   5.945   3.709   1.259
 6502SOL    HW220406   5.806   3.737   1.340
 6503SOL     OW20407   6.545   3.127   5.805
 6503SOL    HW120408   6.632   3.080   5.800
 6503SOL    HW220409   6.547   3.193   5.880
 6504SOL     OW20410   4.438   6.744   6.505
 6504SOL    HW120411   4.459   6.839   6.530
 6504SOL    HW220412   4.370   6.744   6.432
 6505SOL     OW20413   5.456   6.276   6.933
 6505SOL    HW120414   5.465   6.291   6.835
 6505SOL    HW220415   5.527   6.326   6.982
 6506SOL     OW20416   0.107   2.937   3.398
 6506SOL    HW120417   0.144   2.884   3.475
 6506SOL    HW220418   0.065   2.874   3.333
 6507SOL     OW20419   3.048   5.637   6.520
 6507SOL    HW120420   3.116   5.639   6.447
 6507SOL    HW220421   2.959   5.667   6.485
 6508SOL     OW20422   1.073   7.003   1.771
 6508SOL    HW120423   1.142   6.994   1.699
 6508SOL    HW220424   0.983   6.980   1.735
 6509SOL     OW20425   3.462   1.472   5.559
 6509SOL    HW120426   3.517   1.534   5.616
 6509SOL    HW220427   3.522   1.418   5.501
 6510SOL     OW20428   4.407   5.673   5.548
 6510SOL    HW120429   4.444   5.590   5.506
 6510SOL    HW220430   4.467   5.750   5.529
 6511SOL     OW20431   3.937   1.648   6.361
 6511SOL    HW120432   3.928   1.744   6.333
 6511SOL    HW220433   3.958   1.644   6.459
 6512SOL     OW20434   2.578   0.786   1.804
 6512SOL    HW120435   2.555   0.716   1.737
 6512SOL    HW220436   2.670   0.768   1.839
 6513SOL     OW20437   2.997   5.680   4.947
 6513SOL    HW120438   3.081   5.694   4.894
 6513SOL    HW220439   2.955   5.593   4.920
 6514SOL     OW20440   5.577   0.448   5.040
 6514SOL    HW120441   5.572   0.396   4.955
 6514SOL    HW220442   5.574   0.385   5.118
 6515SOL     OW20443   2.378   4.940   2.070
 6515SOL    HW120444   2.292   4.970   2.112
 6515SOL    HW220445   2.381   4.971   1.975
 6516SOL     OW20446   0.581   3.275   1.373
 6516SOL    HW120447   0.602   3.297   1.278
 6516SOL    HW220448   0.647   3.320   1.433
 6517SOL     OW20449   6.875   2.571   6.828
 6517SOL    HW120450   6.793   2.602   6.780
 6517SOL    HW220451   6.905   2.643   6.892
 6518SOL     OW20452   0.659   1.243   2.870
 6518SOL    HW120453   0.693   1.196   2.951
 6518SOL    HW220454   0.636   1.176   2.800
 6519SOL     OW20455   1.134   1.005   3.264
 6519SOL    HW120456   1.083   1.082   3.303
 6519SOL    HW220457   1.232   1.024   3.272
 6520SOL     OW20458   6.864   5.720   6.739
 6520SOL    HW120459   6.918   5.746   6.659
 6520SOL    HW220460   6.862   5.620   6.746
 6521SOL     OW20461   1.615   2.950   3.639
 6521SOL    HW120462   1.696   2.897   3.665
 6521SOL    HW220463   1.629   3.046   3.662
 6522SOL     OW20464   2.941   3.795   5.462
 6522SOL    HW120465   2.905   3.820   5.372
 6522SOL    HW220466   3.007   3.864   5.492
 6523SOL     OW20467   5.910   0.532   0.337
 6523SOL    HW120468   5.947   0.452   0.385
 6523SOL    HW220469   5.878   0.503   0.247
 6524SOL     OW20470   2.704   2.220   1.908
 6524SOL    HW120471   2.780   2.242   1.969
 6524SOL    HW220472   2.636   2.294   1.912
 6525SOL     OW20473   1.456   5.584   3.681
 6525SOL    HW120474   1.525   5.551   3.746
 6525SOL    HW220475   1.402   5.507   3.646
 6526SOL     OW20476   0.088   6.858   0.848
 6526SOL    HW120477   0.027   6.868   0.770
 6526SOL    HW220478   0.038   6.878   0.932
 6527SOL     OW20479   0.519   2.652   1.016
 6527SOL    HW120480   0.524   2.614   0.924
 6527SOL    HW220481   0.610   2.676   1.048
 6528SOL     OW20482   6.116   1.223   5.807
 6528SOL    HW120483   6.212   1.233   5.830
 6528SOL    HW220484   6.107   1.194   5.712
 6529SOL     OW20485   0.253   1.516   2.580
 6529SOL    HW120486   0.228   1.499   2.484
 6529SOL    HW220487   0.306   1.440   2.615
 6530SOL     OW20488   0.935   2.792   2.229
 6530SOL    HW120489   0.986   2.739   2.161
 6530SOL    HW220490   0.926   2.739   2.313
 6531SOL     OW20491   4.165   3.176   5.946
 6531SOL    HW120492   4.215   3.244   5.892
 6531SOL    HW220493   4.163   3.089   5.896
 6532SOL     OW20494   1.668   0.786   1.290
 6532SOL    HW120495   1.611   0.830   1.360
 6532SOL    HW220496   1.610   0.752   1.217
 6533SOL     OW20497   4.727   4.072   0.024
 6533SOL    HW120498   4.822   4.053   7.024
 6533SOL    HW220499   4.673   3.988   0.015
 6534SOL     OW20500   5.974   4.721   2.126
 6534SOL    HW120501   5.875   4.726   2.131
 6534SOL    HW220502   6.013   4.812   2.136
 6535SOL     OW20503   5.755   3.699   4.623
 6535SOL    HW120504   5.781   3.693   4.527
 6535SOL    HW220505   5.835   3.719   4.679
 6536SOL     OW20506   0.223   2.255   5.641
 6536SOL    HW120507   0.243   2.204   5.557
 6536SOL    HW220508   0.125   2.274   5.645
 6537SOL     OW20509   6.210   4.300   5.245
 6537SOL    HW120510   6.277   4.367   5.278
 6537SOL    HW220511   6.208   4.302   5.145
 6538SOL     OW20512   2.191   3.799   5.141
 6538SOL    HW120513   2.215   3.765   5.050
 6538SOL    HW220514   2.239   3.884   5.159
 6539SOL     OW20515   6.075   0.573   6.735
 6539SOL    HW120516   6.065   0.671   6.719
 6539SOL    HW220517   6.037   0.522   6.658
 6540SOL     OW20518   3.755   2.643   5.507
 6540SOL    HW120519   3.753   2.737   5.541
 6540SOL    HW220520   3.848   2.619   5.480
 6541SOL     OW20521   5.880   1.986   5.535
 6541SOL    HW120522   5.960   1.949   5.582
 6541SOL    HW220523   5.853   2.072   5.578
 6542SOL     OW20524   1.398   3.303   4.338
 6542SOL    HW120525   1.495   3.308   4.364
 6542SOL    HW220526   1.352   3.387   4.365
 6543SOL     OW20527   3.446   2.122   5.064
 6543SOL    HW120528   3.379   2.184   5.105
 6543SOL    HW220529   3.492   2.168   4.988
 6544SOL     OW20530   0.126   6.805   1.670
 6544SOL    HW120531   0.196   6.855   1.722
 6544SOL    HW220532   0.045   6.862   1.658
 6545SOL     OW20533   4.340   6.751   1.017
 6545SOL    HW120534   4.369   6.839   0.979
 6545SOL    HW220535   4.261   6.718   0.966
 6546SOL     OW20536   5.012   4.762   6.486
 6546SOL    HW120537   4.937   4.773   6.552
 6546SOL    HW220538   5.024   4.665   6.466
 6547SOL     OW20539   5.029   6.507   6.426
 6547SOL    HW120540   5.008   6.462   6.512
 6547SOL    HW220541   5.098   6.454   6.376
 6548SOL     OW20542   0.938   2.668   6.321
 6548SOL    HW120543   1.007   2.599   6.296
 6548SOL    HW220544   0.959   2.754   6.274
 6549SOL     OW20545   5.039   6.771   1.991
 6549SOL    HW120546   5.083   6.856   2.020
 6549SOL    HW220547   5.055   6.700   2.060
 6550SOL     OW20548   6.613   0.128   3.067
 6550SOL    HW120549   6.542   0.058   3.073
 6550SOL    HW220550   6.659   0.136   3.155
 6551SOL     OW20551   3.251   3.442   1.685
 6551SOL    HW120552   3.155   3.414   1.687
 6551SOL    HW220553   3.270   3.490   1.599
 6552SOL     OW20554   1.926   6.560   0.405
 6552SOL    HW120555   1.911   6.635   0.340
 6552SOL    HW220556   2.024   6.544   0.415
 6553SOL     OW20557   0.070   1.633   2.752
 6553SOL    HW120558   0.039   1.725   2.728
 6553SOL    HW220559   0.141   1.604   2.687
 6554SOL     OW20560   2.969   1.091   4.587
 6554SOL    HW120561   2.892   1.061   4.530
 6554SOL    HW220562   3.052   1.044   4.557
 6555SOL     OW20563   6.444   2.051   4.609
 6555SOL    HW120564   6.443   2.036   4.708
 6555SOL    HW220565   6.510   2.123   4.587
 6556SOL     OW20566   5.654   3.462   3.074
 6556SOL    HW120567   5.594   3.448   3.153
 6556SOL    HW220568   5.748   3.442   3.100
 6557SOL     OW20569   1.281   6.774   2.441
 6557SOL    HW120570   1.212   6.818   2.383
 6557SOL    HW220571   1.235   6.722   2.513
 6558SOL     OW20572   5.739   5.352   0.223
 6558SOL    HW120573   5.780   5.443   0.214
 6558SOL    HW220574   5.700   5.342   0.315
 6559SOL     OW20575   6.844   3.960   6.575
 6559SOL    HW120576   6.894   4.011   6.645
 6559SOL    HW220577   6.746   3.978   6.584
 6560SOL     OW20578   4.161   5.020   0.293
 6560SOL    HW120579   4.118   5.064   0.372
 6560SOL    HW220580   4.224   5.084   0.249
 6561SOL     OW20581   3.874   5.328   0.227
 6561SOL    HW120582   3.900   5.299   0.319
 6561SOL    HW220583   3.957   5.346   0.174
 6562SOL     OW20584   5.652   2.408   1.017
 6562SOL    HW120585   5.627   2.336   1.082
 6562SOL    HW220586   5.600   2.491   1.038
 6563SOL     OW20587   5.269   0.233   5.542
 6563SOL    HW120588   5.300   0.172   5.616
 6563SOL    HW220589   5.172   0.252   5.553
 6564SOL     OW20590   6.689   3.647   2.388
 6564SOL    HW120591   6.664   3.610   2.478
 6564SOL    HW220592   6.747   3.728   2.401
 6565SOL     OW20593   6.399   7.001   2.447
 6565SOL    HW120594   6.398   6.992   2.347
 6565SOL    HW220595   6.416   0.071   2.471
 6566SOL     OW20596   3.778   5.461   2.234
 6566SOL    HW120597   3.800   5.526   2.307
 6566SOL    HW220598   3.773   5.369   2.272
 6567SOL     OW20599   4.656   0.635   1.400
 6567SOL    HW120600   4.722   0.565   1.372
 6567SOL    HW220601   4.583   0.592   1.453
 6568SOL     OW20602   4.127   1.212   2.156
 6568SOL    HW120603   4.033   1.200   2.190
 6568SOL    HW220604   4.162   1.125   2.123
 6569SOL     OW20605   0.922   2.903   6.139
 6569SOL    HW120606   0.841   2.958   6.159
 6569SOL    HW220607   0.906   2.849   6.056
 6570SOL     OW20608   3.750   6.905   2.381
 6570SOL    HW120609   3.754   6.889   2.282
 6570SOL    HW220610   3.713   6.825   2.427
 6571SOL     OW20611   2.482   5.020   3.247
 6571SOL    HW120612   2.507   4.938   3.196
 6571SOL    HW220613   2.403   5.064   3.204
 6572SOL     OW20614   0.374   4.711   4.108
 6572SOL    HW120615   0.471   4.734   4.099
 6572SOL    HW220616   0.356   4.684   4.203
 6573SOL     OW20617   1.644   0.828   3.275
 6573SOL    HW120618   1.574   0.899   3.269
 6573SOL    HW220619   1.719   0.859   3.334
 6574SOL     OW20620   2.266   6.387   3.394
 6574SOL    HW120621   2.292   6.463   3.334
 6574SOL    HW220622   2.268   6.302   3.343
 6575SOL     OW20623   0.053   0.116   2.686
 6575SOL    HW120624   0.059   0.100   2.784
 6575SOL    HW220625   0.090   0.038   2.636
 6576SOL     OW20626   3.558   4.923   0.115
 6576SOL    HW120627   3.484   4.869   0.155
 6576SOL    HW220628   3.645   4.898   0.157
 6577SOL     OW20629   2.145   2.577   3.758
 6577SOL    HW120630   2.199   2.616   3.683
 6577SOL    HW220631   2.055   2.620   3.761
 6578SOL     OW20632   1.016   5.357   1.157
 6578SOL    HW120633   0.969   5.314   1.234
 6578SOL    HW220634   1.112   5.371   1.181
 6579SOL     OW20635   0.013   1.560   4.125
 6579SOL    HW120636   7.016   1.628   4.194
 6579SOL    HW220637   0.095   1.509   4.152
 6580SOL     OW20638   1.256   0.208   0.457
 6580SOL    HW120639   1.165   0.177   0.486
 6580SOL    HW220640   1.323   0.139   0.483
 6581SOL     OW20641   1.385   1.132   0.636
 6581SOL    HW120642   1.309   1.071   0.612
 6581SOL    HW220643   1.423   1.105   0.725
 6582SOL     OW20644   6.897   0.730   2.965
 6582SOL    HW120645   6.964   0.779   3.020
 6582SOL    HW220646   6.817   0.708   3.022
 6583SOL     OW20647   4.545   0.017   5.938
 6583SOL    HW120648   4.622   0.082   5.936
 6583SOL    HW220649   4.459   0.067   5.926
 6584SOL     OW20650   4.043   2.345   0.814
 6584SOL    HW120651   3.988   2.379   0.737
 6584SOL    HW220652   3.983   2.300   0.880
 6585SOL     OW20653   6.423   0.030   0.503
 6585SOL    HW120654   6.360   7.025   0.575
 6585SOL    HW220655   6.473   0.111   0.535
 6586SOL     OW20656   6.479   2.297   6.321
 6586SOL    HW120657   6.459   2.373   6.383
 6586SOL    HW220658   6.516   2.220   6.374
 6587SOL     OW20659   1.743   4.280   5.601
 6587SOL    HW120660   1.648   4.306   5.616
 6587SOL    HW220661   1.749   4.215   5.525
 6588SOL     OW20662   0.505   3.222   0.475
 6588SOL    HW120663   0.548   3.143   0.518
 6588SOL    HW220664   0.471   3.284   0.546
 6589SOL     OW20665   6.025   0.963   1.437
 6589SOL    HW120666   6.053   0.915   1.520
 6589SOL    HW220667   5.987   0.898   1.372
 6590SOL     OW20668   0.752   0.537   4.911
 6590SOL    HW120669   0.818   0.467   4.939
 6590SOL    HW220670   0.682   0.495   4.853
 6591SOL     OW20671   5.206   5.727   4.324
 6591SOL    HW120672   5.174   5.738   4.230
 6591SOL    HW220673   5.170   5.641   4.362
 6592SOL     OW20674   4.757   0.207   3.121
 6592SOL    HW120675   4.692   0.135   3.098
 6592SOL    HW220676   4.814   0.227   3.041
 6593SOL     OW20677   2.889   2.179   2.327
 6593SOL    HW120678   2.896   2.228   2.240
 6593SOL    HW220679   2.802   2.130   2.331
 6594SOL     OW20680   3.664   1.832   6.154
 6594SOL    HW120681   3.569   1.861   6.166
 6594SOL    HW220682   3.703   1.878   6.075
 6595SOL     OW20683   2.034   2.561   4.472
 6595SOL    HW120684   1.979   2.627   4.524
 6595SOL    HW220685   2.051   2.480   4.529
 6596SOL     OW20686   4.876   5.824   3.009
 6596SOL    HW120687   4.875   5.884   3.089
 6596SOL    HW220688   4.828   5.868   2.934
 6597SOL     OW20689   1.278   5.236   1.760
 6597SOL    HW120690   1.223   5.260   1.840
 6597SOL    HW220691   1.218   5.202   1.687
 6598SOL     OW20692   1.864   4.594   3.803
 6598SOL    HW120693   1.858   4.639   3.714
 6598SOL    HW220694   1.957   4.560   3.817
 6599SOL     OW20695   5.777   5.608   6.698
 6599SOL    HW120696   5.861   5.632   6.650
 6599SOL    HW220697   5.700   5.658   6.657
 6600SOL     OW20698   4.712   0.633   4.942
 6600SOL    HW120699   4.665   0.702   4.998
 6600SOL    HW220700   4.746   0.676   4.858
 6601SOL     OW20701   0.720   2.782   3.083
 6601SOL    HW120702   0.787   2.842   3.039
 6601SOL    HW220703   0.700   2.816   3.175
 6602SOL     OW20704   2.745   0.207   1.330
 6602SOL    HW120705   2.815   0.153   1.283
 6602SOL    HW220706   2.744   0.300   1.294
 6603SOL     OW20707   0.800   3.338   3.923
 6603SOL    HW120708   0.858   3.264   3.958
 6603SOL    HW220709   0.751   3.306   3.842
 6604SOL     OW20710   2.560   0.221   1.967
 6604SOL    HW120711   2.470   0.229   2.008
 6604SOL    HW220712   2.623   0.286   2.010
 6605SOL     OW20713   5.736   5.809   1.930
 6605SOL    HW120714   5.780   5.777   2.014
 6605SOL    HW220715   5.801   5.804   1.855
 6606SOL     OW20716   1.429   3.527   3.042
 6606SOL    HW120717   1.393   3.550   2.951
 6606SOL    HW220718   1.483   3.605   3.077
 6607SOL     OW20719   6.175   4.911   4.138
 6607SOL    HW120720   6.273   4.897   4.127
 6607SOL    HW220721   6.136   4.942   4.051
 6608SOL     OW20722   6.882   6.974   0.091
 6608SOL    HW120723   6.980   6.957   0.077
 6608SOL    HW220724   6.847   0.005   0.016
 6609SOL     OW20725   4.544   1.712   6.497
 6609SOL    HW120726   4.519   1.803   6.529
 6609SOL    HW220727   4.644   1.705   6.492
 6610SOL     OW20728   2.365   6.275   0.578
 6610SOL    HW120729   2.382   6.221   0.495
 6610SOL    HW220730   2.277   6.249   0.617
 6611SOL     OW20731   5.075   2.378   3.719
 6611SOL    HW120732   5.164   2.334   3.704
 6611SOL    HW220733   5.010   2.311   3.754
 6612SOL     OW20734   6.153   2.011   6.593
 6612SOL    HW120735   6.202   2.095   6.617
 6612SOL    HW220736   6.156   1.999   6.494
 6613SOL     OW20737   5.534   0.648   6.476
 6613SOL    HW120738   5.495   0.740   6.486
 6613SOL    HW220739   5.606   0.635   6.545
 6614SOL     OW20740   4.790   5.862   1.330
 6614SOL    HW120741   4.822   5.856   1.425
 6614SOL    HW220742   4.779   5.958   1.305
 6615SOL     OW20743   2.993   5.480   0.398
 6615SOL    HW120744   3.061   5.551   0.418
 6615SOL    HW220745   3.040   5.396   0.370
 6616SOL     OW20746   4.029   0.401   6.124
 6616SOL    HW120747   4.042   0.498   6.143
 6616SOL    HW220748   3.934   0.376   6.139
 6617SOL     OW20749   4.012   0.060   3.632
 6617SOL    HW120750   4.081   0.123   3.598
 6617SOL    HW220751   3.922   0.090   3.602
 6618SOL     OW20752   0.926   1.397   3.173
 6618SOL    HW120753   0.913   1.446   3.087
 6618SOL    HW220754   0.893   1.453   3.249
 6619SOL     OW20755   4.397   0.068   3.989
 6619SOL    HW120756   4.343   0.045   4.070
 6619SOL    HW220757   4.458   7.017   3.967
 6620SOL     OW20758   1.531   3.860   3.453
 6620SOL    HW120759   1.502   3.778   3.503
 6620SOL    HW220760   1.616   3.895   3.492
 6621SOL     OW20761   3.803   3.310   4.743
 6621SOL    HW120762   3.889   3.268   4.773
 6621SOL    HW220763   3.737   3.239   4.719
 6622SOL     OW20764   6.051   6.041   1.179
 6622SOL    HW120765   5.966   5.988   1.183
 6622SOL    HW220766   6.129   5.980   1.192
 6623SOL     OW20767   3.442   4.125   4.853
 6623SOL    HW120768   3.505   4.156   4.925
 6623SOL    HW220769   3.405   4.035   4.878
 6624SOL     OW20770   0.881   2.708   4.828
 6624SOL    HW120771   0.940   2.660   4.763
 6624SOL    HW220772   0.877   2.805   4.804
 6625SOL     OW20773   6.182   2.730   5.667
 6625SOL    HW120774   6.193   2.718   5.569
 6625SOL    HW220775   6.106   2.794   5.685
 6626SOL     OW20776   3.083   0.223   4.848
 6626SOL    HW120777   3.148   0.151   4.873
 6626SOL    HW220778   2.994   0.183   4.828
 6627SOL     OW20779   1.165   6.084   4.499
 6627SOL    HW120780   1.128   6.177   4.497
 6627SOL    HW220781   1.263   6.086   4.479
 6628SOL     OW20782   5.193   5.870   4.053
 6628SOL    HW120783   5.212   5.916   3.966
 6628SOL    HW220784   5.197   5.771   4.039
 6629SOL     OW20785   4.921   5.372   6.730
 6629SOL    HW120786   4.955   5.307   6.663
 6629SOL    HW220787   4.993   5.437   6.752
 6630SOL     OW20788   3.360   1.049   2.126
 6630SOL    HW120789   3.307   1.025   2.206
 6630SOL    HW220790   3.402   1.139   2.140
 6631SOL     OW20791   1.293   5.460   5.286
 6631SOL    HW120792   1.357   5.536   5.273
 6631SOL    HW220793   1.244   5.472   5.372
 6632SOL     OW20794   1.286   0.834   1.426
 6632SOL    HW120795   1.213   0.864   1.487
 6632SOL    HW220796   1.299   0.735   1.434
 6633SOL     OW20797   2.826   5.226   6.220
 6633SOL    HW120798   2.922   5.199   6.218
 6633SOL    HW220799   2.769   5.150   6.188
 6634SOL     OW20800   5.115   2.191   5.845
 6634SOL    HW120801   5.049   2.265   5.833
 6634SOL    HW220802   5.110   2.128   5.767
 6635SOL     OW20803   4.752   4.350   2.496
 6635SOL    HW120804   4.677   4.379   2.556
 6635SOL    HW220805   4.767   4.252   2.507
 6636SOL     OW20806   3.083   0.778   2.108
 6636SOL    HW120807   3.037   0.766   2.021
 6636SOL    HW220808   3.142   0.699   2.126
 6637SOL     OW20809   2.144   0.692   0.912
 6637SOL    HW120810   2.077   0.632   0.869
 6637SOL    HW220811   2.097   0.754   0.976
 6638SOL     OW20812   2.964   3.642   3.486
 6638SOL    HW120813   2.971   3.543   3.497
 6638SOL    HW220814   2.988   3.688   3.572
 6639SOL     OW20815   3.966   2.698   0.311
 6639SOL    HW120816   3.872   2.671   0.333
 6639SOL    HW220817   3.973   2.717   0.213
 6640SOL     OW20818   0.117   2.548   5.465
 6640SOL    HW120819   0.146   2.466   5.415
 6640SOL    HW220820   0.196   2.607   5.480
 6641SOL     OW20821   3.921   1.901   0.930
 6641SOL    HW120822   3.934   1.811   0.889
 6641SOL    HW220823   3.980   1.910   1.010
 6642SOL     OW20824   1.875   4.930   0.113
 6642SOL    HW120825   1.899   4.911   0.018
 6642SOL    HW220826   1.894   5.026   0.134
 6643SOL     OW20827   5.730   6.774   0.205
 6643SOL    HW120828   5.761   6.789   0.111
 6643SOL    HW220829   5.659   6.841   0.228
 6644SOL     OW20830   1.688   6.483   2.786
 6644SOL    HW120831   1.616   6.441   2.841
 6644SOL    HW220832   1.777   6.451   2.817
 6645SOL     OW20833   6.233   2.583   1.048
 6645SOL    HW120834   6.224   2.511   1.118
 6645SOL    HW220835   6.159   2.649   1.059
 6646SOL     OW20836   4.047   1.006   0.032
 6646SOL    HW120837   4.115   0.934   0.045
 6646SOL    HW220838   3.957   0.972   0.059
 6647SOL     OW20839   4.593   5.245   1.385
 6647SOL    HW120840   4.566   5.327   1.336
 6647SOL    HW220841   4.618   5.268   1.479
 6648SOL     OW20842   3.440   6.280   4.434
 6648SOL    HW120843   3.522   6.234   4.468
 6648SOL    HW220844   3.363   6.260   4.494
 6649SOL     OW20845   5.840   2.960   6.440
 6649SOL    HW120846   5.774   2.991   6.508
 6649SOL    HW220847   5.849   2.861   6.444
 6650SOL     OW20848   4.116   0.950   5.245
 6650SOL    HW120849   4.167   0.867   5.268
 6650SOL    HW220850   4.039   0.960   5.307
 6651SOL     OW20851   1.572   1.464   0.240
 6651SOL    HW120852   1.534   1.379   0.279
 6651SOL    HW220853   1.670   1.467   0.257
 6652SOL     OW20854   1.235   4.641   0.096
 6652SOL    HW120855   1.203   4.723   0.047
 6652SOL    HW220856   1.214   4.651   0.193
 6653SOL     OW20857   5.288   3.026   0.323
 6653SOL    HW120858   5.369   2.976   0.292
 6653SOL    HW220859   5.317   3.105   0.377
 6654SOL     OW20860   0.063   4.801   2.695
 6654SOL    HW120861   0.038   4.777   2.602
 6654SOL    HW220862   0.075   4.900   2.702
 6655SOL     OW20863   0.097   5.773   2.129
 6655SOL    HW120864   0.149   5.690   2.113
 6655SOL    HW220865   0.047   5.765   2.216
 6656SOL     OW20866   4.493   1.766   2.692
 6656SOL    HW120867   4.534   1.775   2.601
 6656SOL    HW220868   4.406   1.816   2.695
 6657SOL     OW20869   5.200   2.211   4.827
 6657SOL    HW120870   5.147   2.256   4.898
 6657SOL    HW220871   5.294   2.199   4.857
 6658SOL     OW20872   6.593   0.632   5.493
 6658SOL    HW120873   6.511   0.690   5.492
 6658SOL    HW220874   6.573   0.546   5.446
 6659SOL     OW20875   1.554   4.795   1.715
 6659SOL    HW120876   1.475   4.736   1.698
 6659SOL    HW220877   1.530   4.890   1.694
 6660SOL     OW20878   1.750   5.283   2.002
 6660SOL    HW120879   1.823   5.300   1.936
 6660SOL    HW220880   1.661   5.296   1.957
 6661SOL     OW20881   2.666   6.697   4.644
 6661SOL    HW120882   2.719   6.757   4.704
 6661SOL    HW220883   2.639   6.615   4.695
 6662SOL     OW20884   1.859   0.154   1.664
 6662SOL    HW120885   1.870   0.090   1.740
 6662SOL    HW220886   1.838   0.245   1.700
 6663SOL     OW20887   1.082   5.992   5.729
 6663SOL    HW120888   1.094   5.953   5.637
 6663SOL    HW220889   1.018   5.936   5.780
 6664SOL     OW20890   2.187   0.376   1.674
 6664SOL    HW120891   2.188   0.427   1.588
 6664SOL    HW220892   2.204   0.279   1.655
 6665SOL     OW20893   2.638   6.523   5.879
 6665SOL    HW120894   2.627   6.623   5.875
 6665SOL    HW220895   2.682   6.498   5.965
 6666SOL     OW20896   6.623   5.784   5.047
 6666SOL    HW120897   6.554   5.841   5.090
 6666SOL    HW220898   6.597   5.688   5.054
 6667SOL     OW20899   0.543   6.617   5.821
 6667SOL    HW120900   0.497   6.529   5.832
 6667SOL    HW220901   0.625   6.606   5.766
 6668SOL     OW20902   6.732   6.040   1.410
 6668SOL    HW120903   6.708   6.033   1.313
 6668SOL    HW220904   6.729   5.949   1.452
 6669SOL     OW20905   3.168   1.638   1.909
 6669SOL    HW120906   3.251   1.598   1.869
 6669SOL    HW220907   3.113   1.681   1.837
 6670SOL     OW20908   3.019   1.476   0.098
 6670SOL    HW120909   3.097   1.504   0.042
 6670SOL    HW220910   2.958   1.553   0.112
 6671SOL     OW20911   4.622   6.455   0.877
 6671SOL    HW120912   4.631   6.547   0.840
 6671SOL    HW220913   4.626   6.458   0.977
 6672SOL     OW20914   1.627   2.328   0.429
 6672SOL    HW120915   1.670   2.399   0.373
 6672SOL    HW220916   1.662   2.333   0.523
 6673SOL     OW20917   5.158   3.683   4.345
 6673SOL    HW120918   5.060   3.692   4.326
 6673SOL    HW220919   5.199   3.621   4.279
 6674SOL     OW20920   0.264   2.723   6.573
 6674SOL    HW120921   0.361   2.704   6.560
 6674SOL    HW220922   0.253   2.797   6.640
 6675SOL     OW20923   4.368   2.293   0.098
 6675SOL    HW120924   4.451   2.334   0.134
 6675SOL    HW220925   4.343   2.337   0.012
 6676SOL     OW20926   1.602   4.227   2.506
 6676SOL    HW120927   1.603   4.151   2.441
 6676SOL    HW220928   1.659   4.205   2.585
 6677SOL     OW20929   0.567   0.748   6.737
 6677SOL    HW120930   0.520   0.724   6.652
 6677SOL    HW220931   0.658   0.784   6.715
 6678SOL     OW20932   1.664   3.753   0.518
 6678SOL    HW120933   1.597   3.695   0.565
 6678SOL    HW220934   1.751   3.705   0.511
 6679SOL     OW20935   3.184   0.807   3.677
 6679SOL    HW120936   3.276   0.770   3.687
 6679SOL    HW220937   3.189   0.897   3.634
 6680SOL     OW20938   4.970   6.519   0.324
 6680SOL    HW120939   4.958   6.552   0.417
 6680SOL    HW220940   4.916   6.435   0.311
 6681SOL     OW20941   4.696   5.350   1.690
 6681SOL    HW120942   4.762   5.278   1.714
 6681SOL    HW220943   4.730   5.401   1.612
 6682SOL     OW20944   2.813   4.725   6.736
 6682SOL    HW120945   2.828   4.698   6.831
 6682SOL    HW220946   2.888   4.782   6.704
 6683SOL     OW20947   6.185   3.469   6.498
 6683SOL    HW120948   6.124   3.510   6.430
 6683SOL    HW220949   6.148   3.487   6.590
 6684SOL     OW20950   3.391   0.069   2.020
 6684SOL    HW120951   3.414   0.080   2.116
 6684SOL    HW220952   3.305   0.019   2.011
 6685SOL     OW20953   4.047   3.000   6.541
 6685SOL    HW120954   4.140   2.963   6.532
 6685SOL    HW220955   4.035   3.075   6.477
 6686SOL     OW20956   6.265   5.319   3.295
 6686SOL    HW120957   6.176   5.352   3.325
 6686SOL    HW220958   6.337   5.355   3.354
 6687SOL     OW20959   6.888   2.230   1.267
 6687SOL    HW120960   6.940   2.248   1.351
 6687SOL    HW220961   6.923   2.288   1.193
 6688SOL     OW20962   4.288   4.134   0.793
 6688SOL    HW120963   4.213   4.150   0.857
 6688SOL    HW220964   4.328   4.044   0.811
 6689SOL     OW20965   4.191   4.139   5.755
 6689SOL    HW120966   4.192   4.039   5.752
 6689SOL    HW220967   4.259   4.175   5.691
 6690SOL     OW20968   1.469   0.169   6.378
 6690SOL    HW120969   1.519   0.238   6.325
 6690SOL    HW220970   1.402   0.125   6.319
 6691SOL     OW20971   1.374   0.622   2.465
 6691SOL    HW120972   1.296   0.651   2.411
 6691SOL    HW220973   1.453   0.679   2.443
 6692SOL     OW20974   3.969   4.192   1.742
 6692SOL    HW120975   3.876   4.195   1.707
 6692SOL    HW220976   3.987   4.104   1.785
 6693SOL     OW20977   4.645   1.722   4.467
 6693SOL    HW120978   4.675   1.650   4.405
 6693SOL    HW220979   4.692   1.808   4.444
 6694SOL     OW20980   3.732   5.160   1.431
 6694SOL    HW120981   3.666   5.195   1.497
 6694SOL    HW220982   3.811   5.222   1.425
 6695SOL     OW20983   2.727   2.138   0.075
 6695SOL    HW120984   2.783   2.078   0.132
 6695SOL    HW220985   2.767   2.144   7.009
 6696SOL     OW20986   3.809   4.035   3.752
 6696SOL    HW120987   3.773   3.943   3.739
 6696SOL    HW220988   3.822   4.079   3.664
 6697SOL     OW20989   5.344   2.405   2.918
 6697SOL    HW120990   5.326   2.477   2.851
 6697SOL    HW220991   5.410   2.439   2.985
 6698SOL     OW20992   2.984   3.359   1.648
 6698SOL    HW120993   2.965   3.261   1.653
 6698SOL    HW220994   2.916   3.404   1.591
 6699SOL     OW20995   1.812   5.696   6.021
 6699SOL    HW120996   1.897   5.736   5.987
 6699SOL    HW220997   1.736   5.723   5.962
 6700SOL     OW20998   5.691   0.556   0.756
 6700SOL    HW120999   5.650   0.534   0.844
 6700SOL    HW221000   5.620   0.591   0.695
 6701SOL     OW21001   6.233   0.241   1.499
 6701SOL    HW121002   6.299   0.270   1.568
 6701SOL    HW221003   6.154   0.199   1.543
 6702SOL     OW21004   2.214   2.238   1.324
 6702SOL    HW121005   2.277   2.277   1.391
 6702SOL    HW221006   2.218   2.138   1.329
 6703SOL     OW21007   1.215   1.057   6.709
 6703SOL    HW121008   1.314   1.044   6.714
 6703SOL    HW221009   1.193   1.121   6.635
 6704SOL     OW21010   3.624   1.190   4.421
 6704SOL    HW121011   3.714   1.231   4.410
 6704SOL    HW221012   3.615   1.152   4.513
 6705SOL     OW21013   6.055   3.007   0.989
 6705SOL    HW121014   6.004   3.087   1.022
 6705SOL    HW221015   6.063   3.011   0.890
 6706SOL     OW21016   1.634   5.960   1.210
 6706SOL    HW121017   1.642   6.058   1.192
 6706SOL    HW221018   1.724   5.923   1.234
 6707SOL     OW21019   5.469   0.412   2.214
 6707SOL    HW121020   5.490   0.445   2.122
 6707SOL    HW221021   5.553   0.388   2.262
 6708SOL     OW21022   6.163   5.094   1.513
 6708SOL    HW121023   6.261   5.112   1.515
 6708SOL    HW221024   6.122   5.141   1.435
 6709SOL     OW21025   1.235   4.145   2.382
 6709SOL    HW121026   1.152   4.189   2.348
 6709SOL    HW221027   1.210   4.069   2.442
 6710SOL     OW21028   4.867   1.517   1.996
 6710SOL    HW121029   4.897   1.434   1.949
 6710SOL    HW221030   4.799   1.494   2.066
 6711SOL     OW21031   4.982   6.651   6.059
 6711SOL    HW121032   5.006   6.625   5.965
 6711SOL    HW221033   4.902   6.711   6.058
 6712SOL     OW21034   6.345   3.711   0.606
 6712SOL    HW121035   6.396   3.658   0.538
 6712SOL    HW221036   6.362   3.673   0.697
 6713SOL     OW21037   1.334   0.975   3.540
 6713SOL    HW121038   1.381   0.997   3.626
 6713SOL    HW221039   1.238   1.003   3.547
 6714SOL     OW21040   5.890   1.229   0.907
 6714SOL    HW121041   5.846   1.239   0.997
 6714SOL    HW221042   5.857   1.146   0.863
 6715SOL     OW21043   1.553   0.804   1.691
 6715SOL    HW121044   1.551   0.857   1.606
 6715SOL    HW221045   1.612   0.851   1.757
 6716SOL     OW21046   6.407   5.629   2.318
 6716SOL    HW121047   6.458   5.543   2.308
 6716SOL    HW221048   6.309   5.611   2.312
 6717SOL     OW21049   2.793   2.165   6.607
 6717SOL    HW121050   2.833   2.251   6.576
 6717SOL    HW221051   2.816   2.092   6.543
 6718SOL     OW21052   4.755   1.427   1.023
 6718SOL    HW121053   4.677   1.364   1.021
 6718SOL    HW221054   4.726   1.517   0.993
 6719SOL     OW21055   2.002   6.763   0.217
 6719SOL    HW121056   1.937   6.836   0.199
 6719SOL    HW221057   2.022   6.715   0.131
 6720SOL     OW21058   2.913   0.851   5.138
 6720SOL    HW121059   2.915   0.865   5.039
 6720SOL    HW221060   2.850   0.777   5.159
 6721SOL     OW21061   0.016   0.178   0.448
 6721SOL    HW121062   6.952   0.152   0.414
 6721SOL    HW221063   0.075   0.098   0.453
 6722SOL     OW21064   0.338   2.400   0.217
 6722SOL    HW121065   0.308   2.427   0.308
 6722SOL    HW221066   0.357   2.481   0.162
 6723SOL     OW21067   1.972   0.681   6.708
 6723SOL    HW121068   1.938   0.610   6.771
 6723SOL    HW221069   2.072   0.677   6.706
 6724SOL     OW21070   2.610   2.358   6.441
 6724SOL    HW121071   2.583   2.335   6.347
 6724SOL    HW221072   2.528   2.377   6.495
 6725SOL     OW21073   5.888   2.996   2.831
 6725SOL    HW121074   5.886   2.959   2.924
 6725SOL    HW221075   5.964   3.060   2.823
 6726SOL     OW21076   0.571   1.706   4.909
 6726SOL    HW121077   0.582   1.652   4.826
 6726SOL    HW221078   0.474   1.707   4.935
 6727SOL     OW21079   0.986   4.140   5.404
 6727SOL    HW121080   1.006   4.059   5.458
 6727SOL    HW221081   1.072   4.182   5.374
 6728SOL     OW21082   4.098   1.884   3.530
 6728SOL    HW121083   4.032   1.906   3.457
 6728SOL    HW221084   4.175   1.949   3.525
 6729SOL     OW21085   6.579   2.166   6.997
 6729SOL    HW121086   6.529   2.251   6.981
 6729SOL    HW221087   6.642   2.179   0.049
 6730SOL     OW21088   1.268   0.767   1.752
 6730SOL    HW121089   1.357   0.811   1.759
 6730SOL    HW221090   1.205   0.826   1.701
 6731SOL     OW21091   1.789   6.539   1.181
 6731SOL    HW121092   1.796   6.585   1.270
 6731SOL    HW221093   1.880   6.532   1.140
 6732SOL     OW21094   5.344   4.387   4.588
 6732SOL    HW121095   5.408   4.464   4.589
 6732SOL    HW221096   5.251   4.421   4.574
 6733SOL     OW21097   3.709   5.332   6.702
 6733SOL    HW121098   3.751   5.288   6.781
 6733SOL    HW221099   3.725   5.431   6.707
 6734SOL     OW21100   5.472   2.076   5.341
 6734SOL    HW121101   5.485   2.048   5.246
 6734SOL    HW221102   5.380   2.113   5.352
 6735SOL     OW21103   5.991   4.116   4.237
 6735SOL    HW121104   5.915   4.171   4.271
 6735SOL    HW221105   6.033   4.163   4.159
 6736SOL     OW21106   2.891   4.307   0.100
 6736SOL    HW121107   2.836   4.245   0.044
 6736SOL    HW221108   2.956   4.254   0.154
 6737SOL     OW21109   0.769   2.711   1.139
 6737SOL    HW121110   0.846   2.763   1.103
 6737SOL    HW221111   0.753   2.736   1.234
 6738SOL     OW21112   1.313   5.958   3.711
 6738SOL    HW121113   1.409   5.976   3.734
 6738SOL    HW221114   1.308   5.901   3.629
 6739SOL     OW21115   6.612   6.142   3.577
 6739SOL    HW121116   6.515   6.122   3.580
 6739SOL    HW221117   6.664   6.066   3.616
 6740SOL     OW21118   6.343   6.471   4.577
 6740SOL    HW121119   6.403   6.543   4.611
 6740SOL    HW221120   6.248   6.492   4.602
 6741SOL     OW21121   4.263   2.109   6.103
 6741SOL    HW121122   4.190   2.045   6.079
 6741SOL    HW221123   4.331   2.062   6.159
 6742SOL     OW21124   5.838   5.402   3.776
 6742SOL    HW121125   5.788   5.323   3.812
 6742SOL    HW221126   5.794   5.434   3.692
 6743SOL     OW21127   3.939   4.175   6.711
 6743SOL    HW121128   3.991   4.188   6.626
 6743SOL    HW221129   3.904   4.082   6.715
 6744SOL     OW21130   0.068   6.316   5.930
 6744SOL    HW121131   0.025   6.355   5.848
 6744SOL    HW221132   7.023   6.292   5.997
 6745SOL     OW21133   6.872   6.409   3.647
 6745SOL    HW121134   6.874   6.417   3.547
 6745SOL    HW221135   6.821   6.486   3.685
 6746SOL     OW21136   1.831   0.773   2.459
 6746SOL    HW121137   1.774   0.766   2.541
 6746SOL    HW221138   1.924   0.797   2.485
 6747SOL     OW21139   6.138   6.505   6.419
 6747SOL    HW121140   6.195   6.493   6.338
 6747SOL    HW221141   6.192   6.550   6.490
 6748SOL     OW21142   2.892   1.978   3.652
 6748SOL    HW121143   2.888   1.927   3.566
 6748SOL    HW221144   2.972   1.950   3.704
 6749SOL     OW21145   3.731   4.035   0.791
 6749SOL    HW121146   3.713   4.095   0.870
 6749SOL    HW221147   3.759   3.945   0.824
 6750SOL     OW21148   2.881   1.793   4.217
 6750SOL    HW121149   2.845   1.857   4.149
 6750SOL    HW221150   2.836   1.704   4.206
 6751SOL     OW21151   4.662   0.382   3.327
 6751SOL    HW121152   4.677   0.332   3.242
 6751SOL    HW221153   4.612   0.466   3.308
 6752SOL     OW21154   1.636   0.112   4.006
 6752SOL    HW121155   1.718   0.145   3.960
 6752SOL    HW221156   1.558   0.114   3.943
 6753SOL     OW21157   3.385   2.136   5.985
 6753SOL    HW121158   3.454   2.155   6.055
 6753SOL    HW221159   3.423   2.074   5.917
 6754SOL     OW21160   6.224   1.011   1.225
 6754SOL    HW121161   6.182   1.028   1.314
 6754SOL    HW221162   6.154   1.011   1.154
 6755SOL     OW21163   3.613   4.473   1.186
 6755SOL    HW121164   3.640   4.457   1.281
 6755SOL    HW221165   3.514   4.489   1.182
 6756SOL     OW21166   3.730   0.678   5.788
 6756SOL    HW121167   3.747   0.751   5.721
 6756SOL    HW221168   3.802   0.679   5.857
 6757SOL     OW21169   4.133   1.477   1.582
 6757SOL    HW121170   4.039   1.456   1.554
 6757SOL    HW221171   4.188   1.497   1.500
 6758SOL     OW21172   5.787   2.777   1.822
 6758SOL    HW121173   5.840   2.854   1.857
 6758SOL    HW221174   5.700   2.811   1.786
 6759SOL     OW21175   6.987   3.175   3.459
 6759SOL    HW121176   6.890   3.150   3.462
 6759SOL    HW221177   0.011   3.107   3.404
 6760SOL     OW21178   6.342   3.930   2.549
 6760SOL    HW121179   6.281   3.998   2.590
 6760SOL    HW221180   6.433   3.938   2.590
 6761SOL     OW21181   5.409   2.804   4.853
 6761SOL    HW121182   5.364   2.722   4.888
 6761SOL    HW221183   5.340   2.871   4.825
 6762SOL     OW21184   0.530   4.453   4.720
 6762SOL    HW121185   0.594   4.529   4.734
 6762SOL    HW221186   0.438   4.489   4.707
 6763SOL     OW21187   5.235   5.251   4.908
 6763SOL    HW121188   5.166   5.323   4.924
 6763SOL    HW221189   5.300   5.251   4.984
 6764SOL     OW21190   2.130   5.592   2.155
 6764SOL    HW121191   2.147   5.496   2.178
 6764SOL    HW221192   2.217   5.637   2.137
 6765SOL     OW21193   6.400   4.374   3.349
 6765SOL    HW121194   6.392   4.353   3.446
 6765SOL    HW221195   6.384   4.290   3.296
 6766SOL     OW21196   4.848   5.864   5.968
 6766SOL    HW121197   4.784   5.925   5.923
 6766SOL    HW221198   4.805   5.824   6.049
 6767SOL     OW21199   3.401   0.305   1.216
 6767SOL    HW121200   3.371   0.312   1.121
 6767SOL    HW221201   3.492   0.344   1.226
 6768SOL     OW21202   2.010   0.581   6.123
 6768SOL    HW121203   2.026   0.545   6.031
 6768SOL    HW221204   1.930   0.537   6.163
 6769SOL     OW21205   3.298   2.012   0.662
 6769SOL    HW121206   3.205   1.987   0.690
 6769SOL    HW221207   3.295   2.099   0.612
 6770SOL     OW21208   6.757   1.113   1.754
 6770SOL    HW121209   6.795   1.133   1.844
 6770SOL    HW221210   6.830   1.118   1.686
 6771SOL     OW21211   4.709   2.653   3.460
 6771SOL    HW121212   4.711   2.699   3.371
 6771SOL    HW221213   4.788   2.593   3.469
 6772SOL     OW21214   3.391   0.877   3.344
 6772SOL    HW121215   3.390   0.779   3.364
 6772SOL    HW221216   3.321   0.897   3.275
 6773SOL     OW21217   6.811   5.349   1.594
 6773SOL    HW121218   6.746   5.338   1.669
 6773SOL    HW221219   6.771   5.313   1.510
 6774SOL     OW21220   0.564   2.850   5.722
 6774SOL    HW121221   0.596   2.779   5.659
 6774SOL    HW221222   0.599   2.939   5.692
 6775SOL     OW21223   2.691   3.230   1.624
 6775SOL    HW121224   2.761   3.177   1.671
 6775SOL    HW221225   2.630   3.271   1.692
 6776SOL     OW21226   4.684   4.340   0.072
 6776SOL    HW121227   4.746   4.388   0.010
 6776SOL    HW221228   4.679   4.243   0.046
 6777SOL     OW21229   4.113   3.809   6.808
 6777SOL    HW121230   4.017   3.789   6.831
 6777SOL    HW221231   4.132   3.778   6.715
 6778SOL     OW21232   6.588   4.794   2.104
 6778SOL    HW121233   6.527   4.748   2.168
 6778SOL    HW221234   6.534   4.849   2.041
 6779SOL     OW21235   6.840   4.750   5.460
 6779SOL    HW121236   6.900   4.677   5.427
 6779SOL    HW221237   6.844   4.754   5.559
 6780SOL     OW21238   1.215   2.280   2.625
 6780SOL    HW121239   1.137   2.267   2.686
 6780SOL    HW221240   1.186   2.331   2.544
 6781SOL     OW21241   5.510   0.258   4.831
 6781SOL    HW121242   5.579   0.244   4.760
 6781SOL    HW221243   5.421   0.272   4.788
 6782SOL     OW21244   0.112   0.213   3.087
 6782SOL    HW121245   0.127   0.117   3.112
 6782SOL    HW221246   0.036   0.219   3.023
 6783SOL     OW21247   6.745   0.826   6.359
 6783SOL    HW121248   6.697   0.791   6.278
 6783SOL    HW221249   6.702   0.791   6.442
 6784SOL     OW21250   3.077   3.715   0.383
 6784SOL    HW121251   3.074   3.616   0.394
 6784SOL    HW221252   3.152   3.739   0.321
 6785SOL     OW21253   5.170   4.814   2.721
 6785SOL    HW121254   5.130   4.724   2.702
 6785SOL    HW221255   5.136   4.880   2.654
 6786SOL     OW21256   1.708   1.739   0.070
 6786SOL    HW121257   1.619   1.766   0.032
 6786SOL    HW221258   1.700   1.648   0.111
 6787SOL     OW21259   1.930   2.692   0.812
 6787SOL    HW121260   1.874   2.705   0.894
 6787SOL    HW221261   1.986   2.611   0.823
 6788SOL     OW21262   2.524   3.512   1.666
 6788SOL    HW121263   2.562   3.603   1.650
 6788SOL    HW221264   2.463   3.514   1.745
 6789SOL     OW21265   0.173   6.358   3.111
 6789SOL    HW121266   0.249   6.419   3.132
 6789SOL    HW221267   0.125   6.391   3.030
 6790SOL     OW21268   1.375   4.045   1.004
 6790SOL    HW121269   1.458   4.088   0.971
 6790SOL    HW221270   1.317   4.019   0.927
 6791SOL     OW21271   4.318   2.675   1.583
 6791SOL    HW121272   4.337   2.604   1.650
 6791SOL    HW221273   4.309   2.763   1.629
 6792SOL     OW21274   6.309   6.201   5.905
 6792SOL    HW121275   6.405   6.227   5.899
 6792SOL    HW221276   6.300   6.103   5.890
 6793SOL     OW21277   0.902   1.926   7.004
 6793SOL    HW121278   0.910   1.944   0.077
 6793SOL    HW221279   0.852   1.840   6.989
 6794SOL     OW21280   4.933   1.662   5.774
 6794SOL    HW121281   4.881   1.742   5.805
 6794SOL    HW221282   4.875   1.581   5.779
 6795SOL     OW21283   2.688   6.405   0.925
 6795SOL    HW121284   2.750   6.335   0.891
 6795SOL    HW221285   2.605   6.407   0.869
 6796SOL     OW21286   6.073   0.833   2.253
 6796SOL    HW121287   6.016   0.800   2.178
 6796SOL    HW221288   6.019   0.838   2.337
 6797SOL     OW21289   5.516   3.403   1.427
 6797SOL    HW121290   5.434   3.452   1.456
 6797SOL    HW221291   5.497   3.304   1.428
 6798SOL     OW21292   5.766   6.162   2.884
 6798SOL    HW121293   5.840   6.178   2.950
 6798SOL    HW221294   5.726   6.249   2.857
 6799SOL     OW21295   6.606   5.740   6.790
 6799SOL    HW121296   6.589   5.657   6.737
 6799SOL    HW221297   6.700   5.769   6.777
 6800SOL     OW21298   2.218   4.111   1.303
 6800SOL    HW121299   2.266   4.195   1.329
 6800SOL    HW221300   2.278   4.055   1.245
 6801SOL     OW21301   1.246   0.852   2.784
 6801SOL    HW121302   1.257   0.753   2.777
 6801SOL    HW221303   1.322   0.897   2.738
 6802SOL     OW21304   3.169   5.688   0.402
 6802SOL    HW121305   3.240   5.665   0.468
 6802SOL    HW221306   3.206   5.682   0.309
 6803SOL     OW21307   5.350   2.852   6.056
 6803SOL    HW121308   5.284   2.890   5.992
 6803SOL    HW221309   5.435   2.832   6.009
 6804SOL     OW21310   2.791   5.525   3.555
 6804SOL    HW121311   2.745   5.436   3.551
 6804SOL    HW221312   2.890   5.512   3.549
 6805SOL     OW21313   5.528   5.758   5.137
 6805SOL    HW121314   5.467   5.816   5.192
 6805SOL    HW221315   5.595   5.714   5.197
 6806SOL     OW21316   5.540   1.205   3.297
 6806SOL    HW121317   5.540   1.122   3.353
 6806SOL    HW221318   5.615   1.201   3.231
 6807SOL     OW21319   3.054   2.801   0.613
 6807SOL    HW121320   3.099   2.890   0.601
 6807SOL    HW221321   3.082   2.762   0.701
 6808SOL     OW21322   6.934   1.962   5.633
 6808SOL    HW121323   6.884   1.999   5.555
 6808SOL    HW221324   7.010   1.906   5.601
 6809SOL     OW21325   1.280   3.523   1.209
 6809SOL    HW121326   1.319   3.442   1.254
 6809SOL    HW221327   1.196   3.498   1.162
 6810SOL     OW21328   1.978   0.259   2.024
 6810SOL    HW121329   1.900   0.274   2.085
 6810SOL    HW221330   1.997   0.343   1.973
 6811SOL     OW21331   5.080   3.877   0.337
 6811SOL    HW121332   5.027   3.960   0.319
 6811SOL    HW221333   5.024   3.813   0.391
 6812SOL     OW21334   3.386   3.454   3.518
 6812SOL    HW121335   3.324   3.405   3.579
 6812SOL    HW221336   3.334   3.517   3.461
 6813SOL     OW21337   5.092   1.970   2.241
 6813SOL    HW121338   5.101   1.945   2.337
 6813SOL    HW221339   4.997   1.992   2.221
 6814SOL     OW21340   3.381   2.412   0.603
 6814SOL    HW121341   3.348   2.333   0.551
 6814SOL    HW221342   3.338   2.496   0.569
 6815SOL     OW21343   3.036   6.969   1.530
 6815SOL    HW121344   3.010   0.020   1.471
 6815SOL    HW221345   2.995   6.982   1.620
 6816SOL     OW21346   0.306   7.017   6.571
 6816SOL    HW121347   0.321   6.952   6.645
 6816SOL    HW221348   0.246   0.065   6.604
 6817SOL     OW21349   0.480   2.075   5.144
 6817SOL    HW121350   0.497   2.099   5.048
 6817SOL    HW221351   0.546   2.123   5.202
 6818SOL     OW21352   3.056   5.294   1.993
 6818SOL    HW121353   2.995   5.220   2.022
 6818SOL    HW221354   3.003   5.365   1.947
 6819SOL     OW21355   4.755   1.194   4.463
 6819SOL    HW121356   4.841   1.212   4.511
 6819SOL    HW221357   4.760   1.230   4.370
 6820SOL     OW21358   0.952   5.473   3.067
 6820SOL    HW121359   1.043   5.503   3.096
 6820SOL    HW221360   0.933   5.509   2.976
 6821SOL     OW21361   3.204   1.066   5.450
 6821SOL    HW121362   3.170   1.107   5.365
 6821SOL    HW221363   3.160   0.978   5.465
 6822SOL     OW21364   6.142   2.460   6.034
 6822SOL    HW121365   6.118   2.367   6.061
 6822SOL    HW221366   6.226   2.488   6.079
 6823SOL     OW21367   3.777   3.497   4.009
 6823SOL    HW121368   3.867   3.454   4.020
 6823SOL    HW221369   3.744   3.528   4.098
 6824SOL     OW21370   0.938   3.342   6.111
 6824SOL    HW121371   1.031   3.356   6.145
 6824SOL    HW221372   0.888   3.282   6.174
 6825SOL     OW21373   5.133   6.371   2.499
 6825SOL    HW121374   5.211   6.317   2.531
 6825SOL    HW221375   5.103   6.433   2.572
 6826SOL     OW21376   2.308   4.299   2.574
 6826SOL    HW121377   2.263   4.263   2.492
 6826SOL    HW221378   2.407   4.301   2.560
 6827SOL     OW21379   4.486   5.854   6.787
 6827SOL    HW121380   4.527   5.945   6.783
 6827SOL    HW221381   4.558   5.785   6.778
 6828SOL     OW21382   2.767   1.650   1.915
 6828SOL    HW121383   2.862   1.637   1.887
 6828SOL    HW221384   2.761   1.724   1.982
 6829SOL     OW21385   4.539   6.849   4.072
 6829SOL    HW121386   4.627   6.864   4.117
 6829SOL    HW221387   4.467   6.842   4.141
 6830SOL     OW21388   5.325   1.466   4.042
 6830SOL    HW121389   5.266   1.411   4.102
 6830SOL    HW221390   5.295   1.561   4.043
 6831SOL     OW21391   1.058   0.571   5.962
 6831SOL    HW121392   0.999   0.515   6.021
 6831SOL    HW221393   1.128   0.615   6.018
 6832SOL     OW21394   2.852   3.947   1.387
 6832SOL    HW121395   2.898   3.859   1.375
 6832SOL    HW221396   2.801   3.946   1.474
 6833SOL     OW21397   4.523   4.409   6.794
 6833SOL    HW121398   4.596   4.365   6.848
 6833SOL    HW221399   4.443   4.349   6.791
 6834SOL     OW21400   5.207   6.918   1.793
 6834SOL    HW121401   5.275   6.878   1.732
 6834SOL    HW221402   5.238   6.909   1.888
 6835SOL     OW21403   3.951   0.342   5.054
 6835SOL    HW121404   4.039   0.388   5.039
 6835SOL    HW221405   3.898   0.344   4.969
 6836SOL     OW21406   3.532   5.227   0.448
 6836SOL    HW121407   3.581   5.224   0.361
 6836SOL    HW221408   3.447   5.175   0.440
 6837SOL     OW21409   1.385   2.285   2.254
 6837SOL    HW121410   1.294   2.278   2.294
 6837SOL    HW221411   1.450   2.316   2.323
 6838SOL     OW21412   2.316   6.301   1.019
 6838SOL    HW121413   2.281   6.207   1.013
 6838SOL    HW221414   2.375   6.309   1.099
 6839SOL     OW21415   5.007   0.909   6.624
 6839SOL    HW121416   5.020   0.817   6.588
 6839SOL    HW221417   5.023   0.976   6.552
 6840SOL     OW21418   2.612   2.056   4.984
 6840SOL    HW121419   2.624   1.961   4.953
 6840SOL    HW221420   2.680   2.114   4.941
 6841SOL     OW21421   5.267   3.694   6.059
 6841SOL    HW121422   5.294   3.725   5.968
 6841SOL    HW221423   5.167   3.699   6.068
 6842SOL     OW21424   3.041   4.398   1.114
 6842SOL    HW121425   3.002   4.481   1.074
 6842SOL    HW221426   3.056   4.330   1.043
 6843SOL     OW21427   5.571   6.568   0.393
 6843SOL    HW121428   5.482   6.544   0.432
 6843SOL    HW221429   5.570   6.662   0.361
 6844SOL     OW21430   5.467   0.864   4.178
 6844SOL    HW121431   5.493   0.857   4.274
 6844SOL    HW221432   5.450   0.960   4.155
 6845SOL     OW21433   5.921   3.318   2.954
 6845SOL    HW121434   5.964   3.329   3.043
 6845SOL    HW221435   5.976   3.258   2.896
 6846SOL     OW21436   3.385   4.024   7.010
 6846SOL    HW121437   3.458   3.982   6.956
 6846SOL    HW221438   3.414   4.115   0.015
 6847SOL     OW21439   0.121   3.792   5.119
 6847SOL    HW121440   0.180   3.712   5.125
 6847SOL    HW221441   0.042   3.780   5.179
 6848SOL     OW21442   5.248   4.176   3.568
 6848SOL    HW121443   5.311   4.213   3.636
 6848SOL    HW221444   5.163   4.227   3.570
 6849SOL     OW21445   3.931   3.824   5.616
 6849SOL    HW121446   3.991   3.774   5.553
 6849SOL    HW221447   3.945   3.922   5.606
 6850SOL     OW21448   5.198   3.108   2.751
 6850SOL    HW121449   5.226   3.203   2.739
 6850SOL    HW221450   5.226   3.055   2.670
 6851SOL     OW21451   1.114   2.266   2.334
 6851SOL    HW121452   1.047   2.255   2.407
 6851SOL    HW221453   1.067   2.297   2.251
 6852SOL     OW21454   2.900   5.227   0.927
 6852SOL    HW121455   2.938   5.198   1.015
 6852SOL    HW221456   2.900   5.327   0.923
 6853SOL     OW21457   5.107   3.797   6.358
 6853SOL    HW121458   5.176   3.757   6.298
 6853SOL    HW221459   5.074   3.726   6.421
 6854SOL     OW21460   5.729   0.445   5.771
 6854SOL    HW121461   5.665   0.381   5.728
 6854SOL    HW221462   5.780   0.397   5.843
 6855SOL     OW21463   4.057   5.717   3.778
 6855SOL    HW121464   4.078   5.677   3.689
 6855SOL    HW221465   4.114   5.798   3.793
 6856SOL     OW21466   0.537   2.276   5.626
 6856SOL    HW121467   0.536   2.180   5.655
 6856SOL    HW221468   0.501   2.334   5.699
 6857SOL     OW21469   0.708   3.305   6.532
 6857SOL    HW121470   0.799   3.348   6.532
 6857SOL    HW221471   0.695   3.256   6.618
 6858SOL     OW21472   3.689   4.112   1.813
 6858SOL    HW121473   3.622   4.076   1.878
 6858SOL    HW221474   3.641   4.162   1.740
 6859SOL     OW21475   0.223   0.689   1.630
 6859SOL    HW121476   0.225   0.789   1.637
 6859SOL    HW221477   0.316   0.653   1.634
 6860SOL     OW21478   6.586   4.665   1.468
 6860SOL    HW121479   6.590   4.719   1.552
 6860SOL    HW221480   6.528   4.585   1.483
 6861SOL     OW21481   4.738   3.884   6.233
 6861SOL    HW121482   4.742   3.972   6.187
 6861SOL    HW221483   4.829   3.842   6.233
 6862SOL     OW21484   0.240   4.874   5.513
 6862SOL    HW121485   0.204   4.806   5.577
 6862SOL    HW221486   0.240   4.964   5.556
 6863SOL     OW21487   6.854   6.311   5.452
 6863SOL    HW121488   6.784   6.375   5.421
 6863SOL    HW221489   6.845   6.224   5.403
 6864SOL     OW21490   2.167   4.489   5.165
 6864SOL    HW121491   2.226   4.408   5.172
 6864SOL    HW221492   2.072   4.463   5.185
 6865SOL     OW21493   1.296   0.328   5.154
 6865SOL    HW121494   1.282   0.295   5.060
 6865SOL    HW221495   1.384   0.375   5.161
 6866SOL     OW21496   6.208   4.546   2.427
 6866SOL    HW121497   6.236   4.503   2.512
 6866SOL    HW221498   6.117   4.586   2.438
 6867SOL     OW21499   2.073   3.631   1.200
 6867SOL    HW121500   2.044   3.717   1.243
 6867SOL    HW221501   2.171   3.636   1.179
 6868SOL     OW21502   2.644   6.772   5.327
 6868SOL    HW121503   2.638   6.718   5.243
 6868SOL    HW221504   2.656   6.710   5.405
 6869SOL     OW21505   4.590   1.075   5.838
 6869SOL    HW121506   4.586   1.149   5.905
 6869SOL    HW221507   4.683   1.038   5.835
 6870SOL     OW21508   0.080   3.769   1.023
 6870SOL    HW121509   0.120   3.845   1.073
 6870SOL    HW221510   0.052   3.800   0.932
 6871SOL     OW21511   6.609   3.917   2.653
 6871SOL    HW121512   6.644   3.996   2.704
 6871SOL    HW221513   6.634   3.833   2.701
 6872SOL     OW21514   0.681   2.769   2.057
 6872SOL    HW121515   0.764   2.784   2.004
 6872SOL    HW221516   0.633   2.689   2.023
 6873SOL     OW21517   0.955   4.335   4.067
 6873SOL    HW121518   0.856   4.326   4.079
 6873SOL    HW221519   0.992   4.395   4.137
 6874SOL     OW21520   6.494   5.769   3.513
 6874SOL    HW121521   6.475   5.744   3.608
 6874SOL    HW221522   6.593   5.771   3.499
 6875SOL     OW21523   2.142   1.937   2.408
 6875SOL    HW121524   2.134   1.938   2.308
 6875SOL    HW221525   2.220   1.993   2.436
 6876SOL     OW21526   3.587   6.966   3.540
 6876SOL    HW121527   3.534   6.996   3.460
 6876SOL    HW221528   3.537   6.893   3.587
 6877SOL     OW21529   3.349   4.332   1.685
 6877SOL    HW121530   3.279   4.267   1.712
 6877SOL    HW221531   3.415   4.287   1.624
 6878SOL     OW21532   2.680   1.991   3.413
 6878SOL    HW121533   2.646   2.029   3.498
 6878SOL    HW221534   2.614   1.926   3.376
 6879SOL     OW21535   2.467   2.861   0.405
 6879SOL    HW121536   2.388   2.818   0.363
 6879SOL    HW221537   2.476   2.830   0.500
 6880SOL     OW21538   1.031   6.712   5.939
 6880SOL    HW121539   1.105   6.658   5.898
 6880SOL    HW221540   0.982   6.761   5.867
 6881SOL     OW21541   1.370   3.315   1.434
 6881SOL    HW121542   1.419   3.248   1.490
 6881SOL    HW221543   1.271   3.304   1.449
 6882SOL     OW21544   2.744   0.978   0.602
 6882SOL    HW121545   2.690   0.907   0.648
 6882SOL    HW221546   2.819   1.007   0.662
 6883SOL     OW21547   5.539   1.376   6.135
 6883SOL    HW121548   5.506   1.469   6.152
 6883SOL    HW221549   5.527   1.321   6.217
 6884SOL     OW21550   1.719   4.034   2.823
 6884SOL    HW121551   1.727   4.010   2.920
 6884SOL    HW221552   1.810   4.039   2.782
 6885SOL     OW21553   4.805   4.995   3.914
 6885SOL    HW121554   4.773   4.900   3.905
 6885SOL    HW221555   4.730   5.057   3.892
 6886SOL     OW21556   6.840   1.464   4.802
 6886SOL    HW121557   6.796   1.552   4.823
 6886SOL    HW221558   6.801   1.394   4.862
 6887SOL     OW21559   4.512   5.712   0.166
 6887SOL    HW121560   4.459   5.760   0.096
 6887SOL    HW221561   4.513   5.766   0.250
 6888SOL     OW21562   5.342   4.516   6.266
 6888SOL    HW121563   5.311   4.569   6.187
 6888SOL    HW221564   5.336   4.572   6.349
 6889SOL     OW21565   2.046   2.438   5.707
 6889SOL    HW121566   2.059   2.524   5.756
 6889SOL    HW221567   1.977   2.382   5.753
 6890SOL     OW21568   3.861   5.907   3.016
 6890SOL    HW121569   3.798   5.829   3.021
 6890SOL    HW221570   3.807   5.992   3.013
 6891SOL     OW21571   2.136   3.195   1.502
 6891SOL    HW121572   2.232   3.197   1.474
 6891SOL    HW221573   2.087   3.271   1.458
 6892SOL     OW21574   3.193   1.264   3.847
 6892SOL    HW121575   3.152   1.283   3.758
 6892SOL    HW221576   3.123   1.224   3.907
 6893SOL     OW21577   5.737   3.436   0.714
 6893SOL    HW121578   5.801   3.373   0.757
 6893SOL    HW221579   5.644   3.416   0.746
 6894SOL     OW21580   5.325   5.128   1.283
 6894SOL    HW121581   5.336   5.138   1.382
 6894SOL    HW221582   5.402   5.173   1.237
 6895SOL     OW21583   1.906   5.575   0.978
 6895SOL    HW121584   1.910   5.483   1.017
 6895SOL    HW221585   1.915   5.569   0.878
 6896SOL     OW21586   2.988   1.631   3.980
 6896SOL    HW121587   3.085   1.614   3.963
 6896SOL    HW221588   2.970   1.729   3.978
 6897SOL     OW21589   4.828   3.857   5.218
 6897SOL    HW121590   4.847   3.787   5.148
 6897SOL    HW221591   4.842   3.948   5.178
 6898SOL     OW21592   3.431   1.370   1.695
 6898SOL    HW121593   3.342   1.327   1.712
 6898SOL    HW221594   3.438   1.455   1.746
 6899SOL     OW21595   4.885   6.476   2.652
 6899SOL    HW121596   4.844   6.428   2.730
 6899SOL    HW221597   4.952   6.542   2.686
 6900SOL     OW21598   6.755   4.767   5.729
 6900SOL    HW121599   6.743   4.679   5.775
 6900SOL    HW221600   6.686   4.831   5.761
 6901SOL     OW21601   4.549   5.544   6.168
 6901SOL    HW121602   4.641   5.565   6.202
 6901SOL    HW221603   4.523   5.452   6.197
 6902SOL     OW21604   6.555   6.123   5.569
 6902SOL    HW121605   6.634   6.118   5.507
 6902SOL    HW221606   6.471   6.123   5.515
 6903SOL     OW21607   3.056   4.770   5.231
 6903SOL    HW121608   3.011   4.686   5.201
 6903SOL    HW221609   2.987   4.842   5.243
 6904SOL     OW21610   6.381   6.634   5.836
 6904SOL    HW121611   6.310   6.572   5.870
 6904SOL    HW221612   6.460   6.580   5.806
 6905SOL     OW21613   5.241   5.298   6.630
 6905SOL    HW121614   5.292   5.331   6.551
 6905SOL    HW221615   5.292   5.317   6.714
 6906SOL     OW21616   3.489   1.307   3.409
 6906SOL    HW121617   3.433   1.267   3.337
 6906SOL    HW221618   3.582   1.271   3.404
 6907SOL     OW21619   6.489   2.785   2.030
 6907SOL    HW121620   6.447   2.864   2.074
 6907SOL    HW221621   6.539   2.814   1.949
 6908SOL     OW21622   2.404   4.766   6.750
 6908SOL    HW121623   2.482   4.756   6.811
 6908SOL    HW221624   2.432   4.742   6.656
 6909SOL     OW21625   5.664   4.822   1.886
 6909SOL    HW121626   5.604   4.810   1.807
 6909SOL    HW221627   5.640   4.754   1.956
 6910SOL     OW21628   1.460   2.686   2.906
 6910SOL    HW121629   1.367   2.671   2.940
 6910SOL    HW221630   1.463   2.665   2.808
 6911SOL     OW21631   4.205   0.171   4.778
 6911SOL    HW121632   4.138   0.243   4.762
 6911SOL    HW221633   4.290   0.211   4.811
 6912SOL     OW21634   2.558   3.492   6.557
 6912SOL    HW121635   2.626   3.456   6.620
 6912SOL    HW221636   2.591   3.577   6.517
 6913SOL     OW21637   5.048   6.903   4.574
 6913SOL    HW121638   5.124   6.968   4.564
 6913SOL    HW221639   5.004   6.917   4.662
 6914SOL     OW21640   6.240   4.339   3.085
 6914SOL    HW121641   6.301   4.294   3.150
 6914SOL    HW221642   6.166   4.277   3.060
 6915SOL     OW21643   0.864   2.135   2.535
 6915SOL    HW121644   0.770   2.141   2.500
 6915SOL    HW221645   0.897   2.041   2.524
 6916SOL     OW21646   5.702   1.650   6.030
 6916SOL    HW121647   5.721   1.569   6.086
 6916SOL    HW221648   5.759   1.726   6.061
 6917SOL     OW21649   3.992   5.870   2.184
 6917SOL    HW121650   3.953   5.816   2.259
 6917SOL    HW221651   3.942   5.850   2.100
 6918SOL     OW21652   6.982   2.515   3.433
 6918SOL    HW121653   0.027   2.481   3.370
 6918SOL    HW221654   7.001   2.480   3.525
 6919SOL     OW21655   6.389   5.761   3.047
 6919SOL    HW121656   6.377   5.704   3.129
 6919SOL    HW221657   6.410   5.854   3.074
 6920SOL     OW21658   5.355   7.011   5.708
 6920SOL    HW121659   5.317   6.926   5.743
 6920SOL    HW221660   5.335   0.060   5.772
 6921SOL     OW21661   3.922   0.305   3.823
 6921SOL    HW121662   3.933   0.372   3.750
 6921SOL    HW221663   3.935   0.213   3.787
 6922SOL     OW21664   1.960   6.623   5.216
 6922SOL    HW121665   2.010   6.544   5.179
 6922SOL    HW221666   1.997   6.706   5.175
 6923SOL     OW21667   6.108   6.536   2.336
 6923SOL    HW121668   6.036   6.519   2.403
 6923SOL    HW221669   6.097   6.628   2.298
 6924SOL     OW21670   3.049   5.075   0.470
 6924SOL    HW121671   2.996   5.076   0.555
 6924SOL    HW221672   2.994   5.035   0.397
 6925SOL     OW21673   4.360   5.535   5.163
 6925SOL    HW121674   4.400   5.617   5.205
 6925SOL    HW221675   4.305   5.561   5.084
 6926SOL     OW21676   2.080   2.039   0.617
 6926SOL    HW121677   2.159   2.035   0.555
 6926SOL    HW221678   2.097   1.982   0.697
 6927SOL     OW21679   3.433   1.746   6.777
 6927SOL    HW121680   3.386   1.760   6.864
 6927SOL    HW221681   3.367   1.743   6.702
 6928SOL     OW21682   5.051   6.015   1.103
 6928SOL    HW121683   5.096   5.926   1.115
 6928SOL    HW221684   5.061   6.045   1.009
 6929SOL     OW21685   5.417   6.113   1.743
 6929SOL    HW121686   5.350   6.168   1.792
 6929SOL    HW221687   5.406   6.016   1.767
 6930SOL     OW21688   0.501   0.825   0.736
 6930SOL    HW121689   0.537   0.818   0.829
 6930SOL    HW221690   0.472   0.735   0.705
 6931SOL     OW21691   1.615   1.634   1.729
 6931SOL    HW121692   1.587   1.550   1.682
 6931SOL    HW221693   1.636   1.613   1.824
 6932SOL     OW21694   4.788   5.766   0.990
 6932SOL    HW121695   4.749   5.856   1.006
 6932SOL    HW221696   4.878   5.775   0.947
 6933SOL     OW21697   3.565   6.746   5.976
 6933SOL    HW121698   3.612   6.768   6.062
 6933SOL    HW221699   3.523   6.656   5.983
 6934SOL     OW21700   5.020   3.375   5.864
 6934SOL    HW121701   4.961   3.343   5.938
 6934SOL    HW221702   4.972   3.367   5.777
 6935SOL     OW21703   4.226   5.955   2.884
 6935SOL    HW121704   4.166   5.900   2.827
 6935SOL    HW221705   4.179   5.981   2.968
 6936SOL     OW21706   0.002   2.654   4.322
 6936SOL    HW121707   6.993   2.743   4.293
 6936SOL    HW221708   0.084   2.666   4.378
 6937SOL     OW21709   5.772   6.559   0.928
 6937SOL    HW121710   5.794   6.489   0.860
 6937SOL    HW221711   5.819   6.538   1.014
 6938SOL     OW21712   0.595   2.201   4.462
 6938SOL    HW121713   0.522   2.165   4.520
 6938SOL    HW221714   0.659   2.254   4.517
 6939SOL     OW21715   6.695   5.155   2.708
 6939SOL    HW121716   6.711   5.057   2.724
 6939SOL    HW221717   6.723   5.207   2.789
 6940SOL     OW21718   4.405   6.743   0.297
 6940SOL    HW121719   4.375   6.787   0.382
 6940SOL    HW221720   4.489   6.786   0.265
 6941SOL     OW21721   2.911   3.600   2.343
 6941SOL    HW121722   2.999   3.559   2.366
 6941SOL    HW221723   2.901   3.605   2.243
 6942SOL     OW21724   6.131   0.215   1.923
 6942SOL    HW121725   6.102   0.204   1.828
 6942SOL    HW221726   6.074   0.157   1.982
 6943SOL     OW21727   4.036   4.786   0.273
 6943SOL    HW121728   4.082   4.712   0.322
 6943SOL    HW221729   4.083   4.872   0.289
 6944SOL     OW21730   0.772   5.185   6.362
 6944SOL    HW121731   0.773   5.260   6.295
 6944SOL    HW221732   0.851   5.193   6.422
 6945SOL     OW21733   6.851   2.574   1.518
 6945SOL    HW121734   6.854   2.518   1.601
 6945SOL    HW221735   6.893   2.663   1.536
 6946SOL     OW21736   3.806   6.138   1.873
 6946SOL    HW121737   3.866   6.208   1.911
 6946SOL    HW221738   3.726   6.128   1.932
 6947SOL     OW21739   4.247   5.133   6.006
 6947SOL    HW121740   4.161   5.180   6.026
 6947SOL    HW221741   4.295   5.115   6.092
 6948SOL     OW21742   0.534   5.740   1.021
 6948SOL    HW121743   0.483   5.685   0.954
 6948SOL    HW221744   0.632   5.733   1.001
 6949SOL     OW21745   2.590   1.855   2.966
 6949SOL    HW121746   2.546   1.910   2.895
 6949SOL    HW221747   2.571   1.758   2.949
 6950SOL     OW21748   1.850   0.547   4.434
 6950SOL    HW121749   1.808   0.554   4.344
 6950SOL    HW221750   1.780   0.540   4.504
 6951SOL     OW21751   6.447   6.154   6.520
 6951SOL    HW121752   6.459   6.087   6.446
 6951SOL    HW221753   6.522   6.219   6.517
 6952SOL     OW21754   2.168   5.355   2.870
 6952SOL    HW121755   2.247   5.302   2.900
 6952SOL    HW221756   2.161   5.438   2.926
 6953SOL     OW21757   4.877   6.838   0.215
 6953SOL    HW121758   4.865   6.801   0.122
 6953SOL    HW221759   4.817   6.788   0.278
 6954SOL     OW21760   7.017   3.931   1.624
 6954SOL    HW121761   6.921   3.908   1.636
 6954SOL    HW221762   0.041   3.850   1.589
 6955SOL     OW21763   4.401   0.673   2.491
 6955SOL    HW121764   4.408   0.772   2.503
 6955SOL    HW221765   4.320   0.651   2.437
 6956SOL     OW21766   5.397   5.348   3.460
 6956SOL    HW121767   5.458   5.325   3.385
 6956SOL    HW221768   5.355   5.437   3.443
 6957SOL     OW21769   5.911   6.211   0.192
 6957SOL    HW121770   5.998   6.205   0.241
 6957SOL    HW221771   5.921   6.168   0.102
 6958SOL     OW21772   3.463   3.721   4.255
 6958SOL    HW121773   3.457   3.727   4.156
 6958SOL    HW221774   3.383   3.765   4.296
 6959SOL     OW21775   1.773   3.669   2.746
 6959SOL    HW121776   1.832   3.686   2.825
 6959SOL    HW221777   1.798   3.582   2.704
 6960SOL     OW21778   2.583   4.213   1.096
 6960SOL    HW121779   2.672   4.183   1.133
 6960SOL    HW221780   2.583   4.312   1.086
 6961SOL     OW21781   5.341   1.425   4.870
 6961SOL    HW121782   5.399   1.351   4.904
 6961SOL    HW221783   5.245   1.397   4.875
 6962SOL     OW21784   4.342   5.605   1.060
 6962SOL    HW121785   4.340   5.704   1.074
 6962SOL    HW221786   4.263   5.563   1.106
 6963SOL     OW21787   5.275   4.789   0.405
 6963SOL    HW121788   5.312   4.849   0.476
 6963SOL    HW221789   5.202   4.836   0.355
 6964SOL     OW21790   3.780   0.345   5.595
 6964SOL    HW121791   3.792   0.382   5.503
 6964SOL    HW221792   3.861   0.366   5.650
 6965SOL     OW21793   1.708   1.186   0.201
 6965SOL    HW121794   1.627   1.182   0.259
 6965SOL    HW221795   1.786   1.144   0.249
 6966SOL     OW21796   0.792   0.793   2.673
 6966SOL    HW121797   0.790   0.772   2.575
 6966SOL    HW221798   0.856   0.731   2.719
 6967SOL     OW21799   3.467   1.370   6.076
 6967SOL    HW121800   3.512   1.311   6.009
 6967SOL    HW221801   3.387   1.414   6.034
 6968SOL     OW21802   2.631   0.830   3.301
 6968SOL    HW121803   2.640   0.856   3.397
 6968SOL    HW221804   2.713   0.857   3.251
 6969SOL     OW21805   3.339   1.921   1.158
 6969SOL    HW121806   3.405   1.950   1.227
 6969SOL    HW221807   3.355   1.971   1.073
 6970SOL     OW21808   4.095   3.680   5.433
 6970SOL    HW121809   4.180   3.643   5.471
 6970SOL    HW221810   4.116   3.743   5.359
 6971SOL     OW21811   5.555   5.227   1.182
 6971SOL    HW121812   5.557   5.325   1.168
 6971SOL    HW221813   5.624   5.183   1.123
 6972SOL     OW21814   5.683   3.548   2.183
 6972SOL    HW121815   5.613   3.546   2.112
 6972SOL    HW221816   5.665   3.476   2.250
 6973SOL     OW21817   0.762   2.683   3.582
 6973SOL    HW121818   0.794   2.656   3.673
 6973SOL    HW221819   0.819   2.640   3.512
 6974SOL     OW21820   2.855   3.679   2.828
 6974SOL    HW121821   2.898   3.691   2.739
 6974SOL    HW221822   2.756   3.696   2.820
 6975SOL     OW21823   1.838   6.537   4.613
 6975SOL    HW121824   1.749   6.491   4.616
 6975SOL    HW221825   1.886   6.522   4.699
 6976SOL     OW21826   5.755   3.980   5.715
 6976SOL    HW121827   5.843   3.941   5.745
 6976SOL    HW221828   5.770   4.040   5.637
 6977SOL     OW21829   3.955   3.782   1.053
 6977SOL    HW121830   4.003   3.778   0.965
 6977SOL    HW221831   4.013   3.827   1.121
 6978SOL     OW21832   4.947   2.902   1.309
 6978SOL    HW121833   5.020   2.849   1.352
 6978SOL    HW221834   4.927   2.863   1.219
 6979SOL     OW21835   1.379   3.052   1.019
 6979SOL    HW121836   1.448   3.067   0.949
 6979SOL    HW221837   1.304   3.117   1.007
 6980SOL     OW21838   2.062   1.046   3.735
 6980SOL    HW121839   2.109   1.114   3.680
 6980SOL    HW221840   2.021   0.977   3.676
 6981SOL     OW21841   3.758   3.321   5.893
 6981SOL    HW121842   3.823   3.395   5.913
 6981SOL    HW221843   3.741   3.269   5.977
 6982SOL     OW21844   1.003   1.022   4.173
 6982SOL    HW121845   1.050   0.962   4.237
 6982SOL    HW221846   0.977   1.107   4.220
 6983SOL     OW21847   5.078   1.393   4.899
 6983SOL    HW121848   5.029   1.471   4.937
 6983SOL    HW221849   5.081   1.320   4.967
 6984SOL     OW21850   1.524   1.626   2.711
 6984SOL    HW121851   1.484   1.604   2.800
 6984SOL    HW221852   1.452   1.628   2.642
 6985SOL     OW21853   6.140   5.185   0.149
 6985SOL    HW121854   6.230   5.187   0.194
 6985SOL    HW221855   6.142   5.244   0.069
 6986SOL     OW21856   3.689   6.792   6.246
 6986SOL    HW121857   3.752   6.725   6.284
 6986SOL    HW221858   3.660   6.855   6.318
 6987SOL     OW21859   6.995   1.501   5.827
 6987SOL    HW121860   7.018   1.481   5.922
 6987SOL    HW221861   0.053   1.503   5.772
 6988SOL     OW21862   1.878   6.927   6.482
 6988SOL    HW121863   1.938   6.898   6.557
 6988SOL    HW221864   1.808   6.989   6.518
 6989SOL     OW21865   6.574   4.541   2.673
 6989SOL    HW121866   6.494   4.595   2.701
 6989SOL    HW221867   6.652   4.564   2.731
 6990SOL     OW21868   3.978   2.474   1.266
 6990SOL    HW121869   3.920   2.505   1.341
 6990SOL    HW221870   4.074   2.494   1.287
 6991SOL     OW21871   5.601   4.391   3.055
 6991SOL    HW121872   5.582   4.487   3.034
 6991SOL    HW221873   5.527   4.353   3.110
 6992SOL     OW21874   6.716   5.788   0.211
 6992SOL    HW121875   6.618   5.781   0.227
 6992SOL    HW221876   6.741   5.883   0.195
 6993SOL     OW21877   6.548   0.663   1.214
 6993SOL    HW121878   6.516   0.754   1.191
 6993SOL    HW221879   6.497   0.595   1.161
 6994SOL     OW21880   1.587   0.849   4.260
 6994SOL    HW121881   1.648   0.919   4.224
 6994SOL    HW221882   1.496   0.889   4.275
 6995SOL     OW21883   0.211   4.088   0.316
 6995SOL    HW121884   0.188   4.041   0.402
 6995SOL    HW221885   0.160   4.174   0.312
 6996SOL     OW21886   1.276   0.654   0.973
 6996SOL    HW121887   1.223   0.664   0.889
 6996SOL    HW221888   1.231   0.588   1.033
 6997SOL     OW21889   0.261   5.020   4.531
 6997SOL    HW121890   0.324   4.962   4.582
 6997SOL    HW221891   0.299   5.038   4.440
 6998SOL     OW21892   0.827   1.467   1.370
 6998SOL    HW121893   0.730   1.473   1.347
 6998SOL    HW221894   0.879   1.535   1.318
 6999SOL     OW21895   1.165   2.449   6.496
 6999SOL    HW121896   1.141   2.528   6.554
 6999SOL    HW221897   1.114   2.369   6.526
 7000SOL     OW21898   5.842   0.748   1.767
 7000SOL    HW121899   5.785   0.831   1.763
 7000SOL    HW221900   5.936   0.771   1.744
 7001SOL     OW21901   0.848   1.958   5.601
 7001SOL    HW121902   0.817   1.961   5.696
 7001SOL    HW221903   0.838   2.049   5.560
 7002SOL     OW21904   1.534   5.511   3.955
 7002SOL    HW121905   1.459   5.564   3.995
 7002SOL    HW221906   1.519   5.414   3.973
 7003SOL     OW21907   4.833   5.538   1.471
 7003SOL    HW121908   4.749   5.590   1.454
 7003SOL    HW221909   4.875   5.513   1.384
 7004SOL     OW21910   0.915   5.429   0.314
 7004SOL    HW121911   0.832   5.383   0.280
 7004SOL    HW221912   0.964   5.469   0.238
 7005SOL     OW21913   0.752   0.217   0.368
 7005SOL    HW121914   0.801   0.193   0.452
 7005SOL    HW221915   0.805   0.285   0.317
 7006SOL     OW21916   6.608   6.462   3.135
 7006SOL    HW121917   6.537   6.506   3.190
 7006SOL    HW221918   6.628   6.372   3.174
 7007SOL     OW21919   4.175   0.501   5.094
 7007SOL    HW121920   4.267   0.503   5.133
 7007SOL    HW221921   4.161   0.582   5.038
 7008SOL     OW21922   6.870   4.364   3.993
 7008SOL    HW121923   6.794   4.413   4.036
 7008SOL    HW221924   6.954   4.380   4.045
 7009SOL     OW21925   4.503   6.618   1.830
 7009SOL    HW121926   4.537   6.667   1.750
 7009SOL    HW221927   4.444   6.678   1.884
 7010SOL     OW21928   5.990   4.593   3.367
 7010SOL    HW121929   5.931   4.671   3.347
 7010SOL    HW221930   6.030   4.604   3.458
 7011SOL     OW21931   3.743   6.687   0.754
 7011SOL    HW121932   3.752   6.758   0.824
 7011SOL    HW221933   3.646   6.667   0.738
 7012SOL     OW21934   1.303   2.123   1.366
 7012SOL    HW121935   1.343   2.186   1.300
 7012SOL    HW221936   1.209   2.102   1.340
 7013SOL     OW21937   2.316   0.175   6.545
 7013SOL    HW121938   2.234   0.122   6.524
 7013SOL    HW221939   2.297   0.272   6.535
 7014SOL     OW21940   5.366   3.323   1.045
 7014SOL    HW121941   5.339   3.407   1.092
 7014SOL    HW221942   5.311   3.247   1.080
 7015SOL     OW21943   5.720   4.702   2.192
 7015SOL    HW121944   5.719   4.673   2.287
 7015SOL    HW221945   5.643   4.661   2.143
 7016SOL     OW21946   3.847   4.990   1.094
 7016SOL    HW121947   3.765   4.975   1.149
 7016SOL    HW221948   3.910   5.049   1.144
 7017SOL     OW21949   2.741   5.061   2.915
 7017SOL    HW121950   2.669   4.995   2.937
 7017SOL    HW221951   2.703   5.133   2.856
 7018SOL     OW21952   5.243   3.832   4.130
 7018SOL    HW121953   5.247   3.772   4.210
 7018SOL    HW221954   5.151   3.829   4.091
 7019SOL     OW21955   4.323   5.455   2.294
 7019SOL    HW121956   4.330   5.360   2.324
 7019SOL    HW221957   4.412   5.500   2.303
 7020SOL     OW21958   0.404   3.890   6.868
 7020SOL    HW121959   0.504   3.894   6.873
 7020SOL    HW221960   0.374   3.916   6.777
 7021SOL     OW21961   1.510   2.982   4.454
 7021SOL    HW121962   1.597   2.931   4.458
 7021SOL    HW221963   1.528   3.075   4.422
 7022SOL     OW21964   4.662   0.343   0.159
 7022SOL    HW121965   4.725   0.367   0.086
 7022SOL    HW221966   4.709   0.347   0.247
 7023SOL     OW21967   0.423   2.537   1.493
 7023SOL    HW121968   0.448   2.604   1.564
 7023SOL    HW221969   0.416   2.584   1.405
 7024SOL     OW21970   3.924   3.460   3.239
 7024SOL    HW121971   3.968   3.478   3.327
 7024SOL    HW221972   3.827   3.443   3.253
 7025SOL     OW21973   3.515   0.245   0.380
 7025SOL    HW121974   3.542   0.158   0.339
 7025SOL    HW221975   3.542   0.320   0.320
 7026SOL     OW21976   3.782   2.027   2.179
 7026SOL    HW121977   3.725   2.035   2.261
 7026SOL    HW221978   3.752   2.094   2.111
 7027SOL     OW21979   2.393   6.167   3.779
 7027SOL    HW121980   2.320   6.215   3.826
 7027SOL    HW221981   2.426   6.222   3.703
 7028SOL     OW21982   2.608   0.104   3.853
 7028SOL    HW121983   2.608   0.005   3.866
 7028SOL    HW221984   2.702   0.137   3.846
 7029SOL     OW21985   3.670   3.766   5.566
 7029SOL    HW121986   3.763   3.735   5.586
 7029SOL    HW221987   3.660   3.861   5.595
 7030SOL     OW21988   0.786   1.895   5.007
 7030SOL    HW121989   0.763   1.907   5.104
 7030SOL    HW221990   0.743   1.812   4.972
 7031SOL     OW21991   3.981   6.285   0.715
 7031SOL    HW121992   3.970   6.268   0.617
 7031SOL    HW221993   4.071   6.326   0.732
 7032SOL     OW21994   4.386   0.747   3.488
 7032SOL    HW121995   4.375   0.660   3.536
 7032SOL    HW221996   4.309   0.807   3.510
 7033SOL     OW21997   1.849   2.597   3.987
 7033SOL    HW121998   1.813   2.665   4.050
 7033SOL    HW221999   1.861   2.639   3.897
 7034SOL     OW22000   6.739   3.051   3.256
 7034SOL    HW122001   6.724   3.079   3.351
 7034SOL    HW222002   6.709   2.956   3.245
 7035SOL     OW22003   2.399   0.322   1.317
 7035SOL    HW122004   2.391   0.293   1.221
 7035SOL    HW222005   2.385   0.244   1.377
 7036SOL     OW22006   6.980   2.183   2.399
 7036SOL    HW122007   6.923   2.207   2.320
 7036SOL    HW222008   6.952   2.237   2.478
 7037SOL     OW22009   0.808   1.487   5.786
 7037SOL    HW122010   0.830   1.392   5.811
 7037SOL    HW222011   0.836   1.548   5.860
 7038SOL     OW22012   2.100   4.605   5.633
 7038SOL    HW122013   2.181   4.565   5.590
 7038SOL    HW222014   2.128   4.659   5.712
 7039SOL     OW22015   0.445   6.067   3.692
 7039SOL    HW122016   0.530   6.043   3.739
 7039SOL    HW222017   0.398   6.139   3.744
 7040SOL     OW22018   4.530   2.039   5.114
 7040SOL    HW122019   4.604   2.067   5.054
 7040SOL    HW222020   4.443   2.048   5.067
 7041SOL     OW22021   0.866   1.698   3.601
 7041SOL    HW122022   0.938   1.764   3.578
 7041SOL    HW222023   0.897   1.640   3.677
 7042SOL     OW22024   4.152   5.647   4.426
 7042SOL    HW122025   4.168   5.549   4.422
 7042SOL    HW222026   4.232   5.692   4.467
 7043SOL     OW22027   2.581   4.607   3.563
 7043SOL    HW122028   2.502   4.600   3.502
 7043SOL    HW222029   2.551   4.601   3.658
 7044SOL     OW22030   4.802   0.444   4.558
 7044SOL    HW122031   4.819   0.379   4.632
 7044SOL    HW222032   4.793   0.536   4.595
 7045SOL     OW22033   5.549   5.588   2.241
 7045SOL    HW122034   5.640   5.550   2.222
 7045SOL    HW222035   5.546   5.621   2.335
 7046SOL     OW22036   3.163   2.205   3.785
 7046SOL    HW122037   3.227   2.172   3.715
 7046SOL    HW222038   3.210   2.212   3.873
 7047SOL     OW22039   6.930   0.923   1.231
 7047SOL    HW122040   6.949   0.848   1.294
 7047SOL    HW222041   6.964   0.900   1.140
 7048SOL     OW22042   6.038   6.744   4.432
 7048SOL    HW122043   6.022   6.740   4.531
 7048SOL    HW222044   5.969   6.688   4.385
 7049SOL     OW22045   3.733   1.054   2.207
 7049SOL    HW122046   3.674   0.972   2.204
 7049SOL    HW222047   3.775   1.067   2.118
 7050SOL     OW22048   3.955   4.328   0.846
 7050SOL    HW122049   3.959   4.354   0.749
 7050SOL    HW222050   3.953   4.411   0.902
 7051SOL     OW22051   6.306   6.313   0.933
 7051SOL    HW122052   6.404   6.297   0.940
 7051SOL    HW222053   6.282   6.393   0.988
 7052SOL     OW22054   5.915   0.140   3.517
 7052SOL    HW122055   5.971   0.065   3.551
 7052SOL    HW222056   5.937   0.157   3.421
 7053SOL     OW22057   2.193   3.854   3.897
 7053SOL    HW122058   2.210   3.913   3.818
 7053SOL    HW222059   2.249   3.884   3.974
 7054SOL     OW22060   6.971   6.925   1.092
 7054SOL    HW122061   7.001   7.013   1.129
 7054SOL    HW222062   6.894   6.891   1.146
 7055SOL     OW22063   2.699   0.332   0.380
 7055SOL    HW122064   2.771   0.384   0.426
 7055SOL    HW222065   2.740   0.277   0.307
 7056SOL     OW22066   7.006   5.733   0.890
 7056SOL    HW122067   6.922   5.717   0.839
 7056SOL    HW222068   7.012   5.829   0.916
 7057SOL     OW22069   3.328   5.917   4.374
 7057SOL    HW122070   3.377   5.908   4.461
 7057SOL    HW222071   3.350   6.005   4.333
 7058SOL     OW22072   5.731   2.345   6.368
 7058SOL    HW122073   5.674   2.425   6.351
 7058SOL    HW222074   5.750   2.298   6.282
 7059SOL     OW22075   1.625   1.421   4.959
 7059SOL    HW122076   1.695   1.357   4.927
 7059SOL    HW222077   1.659   1.470   5.039
 7060SOL     OW22078   3.548   6.345   1.733
 7060SOL    HW122079   3.641   6.349   1.769
 7060SOL    HW222080   3.546   6.384   1.641
 7061SOL     OW22081   0.605   2.250   2.611
 7061SOL    HW122082   0.660   2.309   2.670
 7061SOL    HW222083   0.584   2.165   2.660
 7062SOL     OW22084   4.200   2.014   4.240
 7062SOL    HW122085   4.207   1.975   4.148
 7062SOL    HW222086   4.147   1.953   4.299
 7063SOL     OW22087   0.181   6.459   1.969
 7063SOL    HW122088   0.215   6.552   1.977
 7063SOL    HW222089   0.096   6.459   1.917
 7064SOL     OW22090   4.469   2.007   6.258
 7064SOL    HW122091   4.407   1.930   6.271
 7064SOL    HW222092   4.479   2.056   6.345
 7065SOL     OW22093   3.285   4.601   5.357
 7065SOL    HW122094   3.242   4.512   5.342
 7065SOL    HW222095   3.224   4.673   5.325
 7066SOL     OW22096   4.646   1.210   6.620
 7066SOL    HW122097   4.566   1.183   6.674
 7066SOL    HW222098   4.619   1.278   6.552
 7067SOL     OW22099   1.448   3.483   6.695
 7067SOL    HW122100   1.389   3.424   6.639
 7067SOL    HW222101   1.525   3.430   6.730
 7068SOL     OW22102   5.983   4.436   4.314
 7068SOL    HW122103   6.019   4.524   4.283
 7068SOL    HW222104   6.044   4.397   4.383
 7069SOL     OW22105   6.001   1.992   5.902
 7069SOL    HW122106   6.097   1.964   5.905
 7069SOL    HW222107   5.958   1.973   5.990
 7070SOL     OW22108   0.846   6.902   5.063
 7070SOL    HW122109   0.784   6.973   5.028
 7070SOL    HW222110   0.817   6.875   5.155
 7071SOL     OW22111   4.977   6.289   0.095
 7071SOL    HW122112   5.074   6.267   0.106
 7071SOL    HW222113   4.967   6.376   0.048
 7072SOL     OW22114   1.999   4.210   6.983
 7072SOL    HW122115   1.934   4.280   7.013
 7072SOL    HW222116   2.089   4.229   7.024
 7073SOL     OW22117   3.899   0.064   3.190
 7073SOL    HW122118   3.843   7.007   3.179
 7073SOL    HW222119   3.860   0.138   3.136
 7074SOL     OW22120   0.064   3.464   4.043
 7074SOL    HW122121   0.092   3.442   3.950
 7074SOL    HW222122   7.022   3.396   4.074
 7075SOL     OW22123   3.084   4.840   4.751
 7075SOL    HW122124   2.989   4.843   4.780
 7075SOL    HW222125   3.104   4.751   4.711
 7076SOL     OW22126   5.911   3.461   1.609
 7076SOL    HW122127   5.922   3.373   1.564
 7076SOL    HW222128   5.926   3.451   1.707
 7077SOL     OW22129   2.334   4.688   2.693
 7077SOL    HW122130   2.421   4.736   2.701
 7077SOL    HW222131   2.316   4.667   2.597
 7078SOL     OW22132   5.249   6.616   0.683
 7078SOL    HW122133   5.321   6.551   0.708
 7078SOL    HW222134   5.164   6.591   0.728
 7079SOL     OW22135   0.996   6.729   4.170
 7079SOL    HW122136   1.033   6.753   4.081
 7079SOL    HW222137   0.896   6.724   4.165
 7080SOL     OW22138   3.840   1.928   4.139
 7080SOL    HW122139   3.896   1.971   4.068
 7080SOL    HW222140   3.883   1.938   4.228
 7081SOL     OW22141   1.526   6.263   0.159
 7081SOL    HW122142   1.494   6.282   0.066
 7081SOL    HW222143   1.548   6.349   0.205
 7082SOL     OW22144   6.757   3.865   1.687
 7082SOL    HW122145   6.795   3.793   1.745
 7082SOL    HW222146   6.695   3.824   1.619
 7083SOL     OW22147   0.198   1.528   2.065
 7083SOL    HW122148   0.262   1.479   2.006
 7083SOL    HW222149   0.108   1.532   2.022
 7084SOL     OW22150   0.224   5.949   5.193
 7084SOL    HW122151   0.268   5.959   5.282
 7084SOL    HW222152   0.219   5.853   5.168
 7085SOL     OW22153   6.410   2.345   2.654
 7085SOL    HW122154   6.492   2.401   2.640
 7085SOL    HW222155   6.347   2.358   2.577
 7086SOL     OW22156   5.769   0.208   6.835
 7086SOL    HW122157   5.683   0.191   6.884
 7086SOL    HW222158   5.771   0.303   6.804
 7087SOL     OW22159   5.316   3.588   2.559
 7087SOL    HW122160   5.376   3.633   2.492
 7087SOL    HW222161   5.370   3.559   2.638
 7088SOL     OW22162   5.740   2.273   5.228
 7088SOL    HW122163   5.822   2.220   5.249
 7088SOL    HW222164   5.694   2.297   5.314
 7089SOL     OW22165   2.831   4.810   2.610
 7089SOL    HW122166   2.926   4.820   2.642
 7089SOL    HW222167   2.819   4.861   2.526
 7090SOL     OW22168   2.983   0.969   0.760
 7090SOL    HW122169   2.966   1.027   0.840
 7090SOL    HW222170   3.080   0.974   0.736
 7091SOL     OW22171   0.961   0.755   1.354
 7091SOL    HW122172   0.954   0.708   1.266
 7091SOL    HW222173   1.055   0.787   1.368
 7092SOL     OW22174   4.295   2.703   6.277
 7092SOL    HW122175   4.302   2.605   6.293
 7092SOL    HW222176   4.258   2.720   6.185
 7093SOL     OW22177   3.364   3.647   1.125
 7093SOL    HW122178   3.416   3.696   1.195
 7093SOL    HW222179   3.426   3.589   1.072
 7094SOL     OW22180   1.710   6.623   5.329
 7094SOL    HW122181   1.734   6.665   5.417
 7094SOL    HW222182   1.792   6.612   5.273
 7095SOL     OW22183   3.214   4.569   5.738
 7095SOL    HW122184   3.222   4.576   5.838
 7095SOL    HW222185   3.170   4.652   5.703
 7096SOL     OW22186   6.524   0.981   1.810
 7096SOL    HW122187   6.593   0.943   1.748
 7096SOL    HW222188   6.569   1.035   1.881
 7097SOL     OW22189   5.016   0.721   2.367
 7097SOL    HW122190   4.997   0.628   2.399
 7097SOL    HW222191   5.103   0.723   2.319
 7098SOL     OW22192   2.124   6.870   5.092
 7098SOL    HW122193   2.158   6.962   5.113
 7098SOL    HW222194   2.154   6.844   5.000
 7099SOL     OW22195   3.616   2.079   3.939
 7099SOL    HW122196   3.715   2.070   3.925
 7099SOL    HW222197   3.596   2.074   4.037
 7100SOL     OW22198   0.253   4.036   0.727
 7100SOL    HW122199   0.279   3.941   0.712
 7100SOL    HW222200   0.159   4.041   0.758
 7101SOL     OW22201   2.543   6.547   5.178
 7101SOL    HW122202   2.519   6.547   5.275
 7101SOL    HW222203   2.544   6.453   5.144
 7102SOL     OW22204   5.300   0.487   0.868
 7102SOL    HW122205   5.213   0.447   0.842
 7102SOL    HW222206   5.361   0.415   0.902
 7103SOL     OW22207   5.246   5.293   1.898
 7103SOL    HW122208   5.290   5.209   1.931
 7103SOL    HW222209   5.287   5.320   1.811
 7104SOL     OW22210   5.477   3.262   2.576
 7104SOL    HW122211   5.477   3.169   2.614
 7104SOL    HW222212   5.490   3.327   2.651
 7105SOL     OW22213   3.836   3.840   4.320
 7105SOL    HW122214   3.760   3.839   4.385
 7105SOL    HW222215   3.919   3.871   4.366
 7106SOL     OW22216   3.468   2.848   1.213
 7106SOL    HW122217   3.437   2.753   1.200
 7106SOL    HW222218   3.561   2.848   1.250
 7107SOL     OW22219   3.956   0.278   6.971
 7107SOL    HW122220   4.034   0.223   6.999
 7107SOL    HW222221   3.981   0.375   6.972
 7108SOL     OW22222   2.489   6.412   2.528
 7108SOL    HW122223   2.552   6.337   2.548
 7108SOL    HW222224   2.508   6.489   2.589
 7109SOL     OW22225   1.542   0.396   6.953
 7109SOL    HW122226   1.610   0.376   7.023
 7109SOL    HW222227   1.517   0.312   6.905
 7110SOL     OW22228   3.222   6.566   4.266
 7110SOL    HW122229   3.311   6.603   4.295
 7110SOL    HW222230   3.187   6.622   4.190
 7111SOL     OW22231   1.179   1.476   3.694
 7111SOL    HW122232   1.260   1.423   3.720
 7111SOL    HW222233   1.107   1.413   3.663
 7112SOL     OW22234   2.304   4.277   4.791
 7112SOL    HW122235   2.356   4.355   4.826
 7112SOL    HW222236   2.311   4.201   4.856
 7113SOL     OW22237   2.910   5.374   5.238
 7113SOL    HW122238   2.859   5.369   5.324
 7113SOL    HW222239   2.966   5.292   5.228
 7114SOL     OW22240   4.248   5.295   1.651
 7114SOL    HW122241   4.286   5.383   1.623
 7114SOL    HW222242   4.151   5.306   1.673
 7115SOL     OW22243   5.320   4.664   6.735
 7115SOL    HW122244   5.311   4.567   6.759
 7115SOL    HW222245   5.325   4.673   6.636
 7116SOL     OW22246   5.681   4.356   3.437
 7116SOL    HW122247   5.770   4.359   3.392
 7116SOL    HW222248   5.627   4.436   3.410
 7117SOL     OW22249   6.013   7.003   4.260
 7117SOL    HW122250   5.998   6.987   4.162
 7117SOL    HW222251   5.991   6.920   4.311
 7118SOL     OW22252   3.812   4.544   5.425
 7118SOL    HW122253   3.719   4.513   5.441
 7118SOL    HW222254   3.870   4.465   5.404
 7119SOL     OW22255   5.114   1.079   5.346
 7119SOL    HW122256   5.151   1.047   5.433
 7119SOL    HW222257   5.176   1.053   5.272
 7120SOL     OW22258   5.644   1.452   1.223
 7120SOL    HW122259   5.720   1.391   1.202
 7120SOL    HW222260   5.586   1.409   1.292
 7121SOL     OW22261   0.614   6.488   3.533
 7121SOL    HW122262   0.667   6.423   3.478
 7121SOL    HW222263   0.647   6.487   3.628
 7122SOL     OW22264   2.607   6.814   5.903
 7122SOL    HW122265   2.545   6.784   5.975
 7122SOL    HW222266   2.610   6.914   5.901
 7123SOL     OW22267   6.227   5.079   4.699
 7123SOL    HW122268   6.216   5.056   4.603
 7123SOL    HW222269   6.199   5.174   4.714
 7124SOL     OW22270   1.214   2.113   1.921
 7124SOL    HW122271   1.152   2.147   1.849
 7124SOL    HW222272   1.267   2.190   1.957
 7125SOL     OW22273   0.939   0.700   2.177
 7125SOL    HW122274   0.873   0.637   2.136
 7125SOL    HW222275   0.996   0.740   2.105
 7126SOL     OW22276   4.009   6.183   1.104
 7126SOL    HW122277   4.022   6.086   1.086
 7126SOL    HW222278   4.099   6.227   1.115
 7127SOL     OW22279   3.162   6.218   5.832
 7127SOL    HW122280   3.208   6.130   5.835
 7127SOL    HW222281   3.114   6.227   5.745
 7128SOL     OW22282   4.105   4.201   6.989
 7128SOL    HW122283   4.185   4.170   6.936
 7128SOL    HW222284   4.078   4.292   6.958
 7129SOL     OW22285   0.278   1.778   0.556
 7129SOL    HW122286   0.301   1.681   0.548
 7129SOL    HW222287   0.230   1.793   0.642
 7130SOL     OW22288   3.591   0.275   4.689
 7130SOL    HW122289   3.574   0.325   4.604
 7130SOL    HW222290   3.689   0.279   4.710
 7131SOL     OW22291   3.542   0.849   2.203
 7131SOL    HW122292   3.474   0.918   2.179
 7131SOL    HW222293   3.506   0.790   2.276
 7132SOL     OW22294   4.963   4.013   6.955
 7132SOL    HW122295   4.951   4.040   6.860
 7132SOL    HW222296   5.025   3.934   6.960
 7133SOL     OW22297   3.893   5.112   3.690
 7133SOL    HW122298   3.886   5.211   3.703
 7133SOL    HW222299   3.867   5.089   3.596
 7134SOL     OW22300   5.084   6.193   2.019
 7134SOL    HW122301   5.143   6.113   2.014
 7134SOL    HW222302   5.073   6.220   2.115
 7135SOL     OW22303   2.210   3.066   1.903
 7135SOL    HW122304   2.118   3.083   1.867
 7135SOL    HW222305   2.275   3.129   1.861
 7136SOL     OW22306   2.695   1.726   1.426
 7136SOL    HW122307   2.679   1.795   1.497
 7136SOL    HW222308   2.792   1.700   1.426
 7137SOL     OW22309   2.823   1.581   1.004
 7137SOL    HW122310   2.880   1.546   1.078
 7137SOL    HW222311   2.785   1.670   1.030
 7138SOL     OW22312   2.272   1.013   1.398
 7138SOL    HW122313   2.186   0.984   1.441
 7138SOL    HW222314   2.349   0.979   1.452
 7139SOL     OW22315   4.926   5.475   2.191
 7139SOL    HW122316   4.955   5.566   2.222
 7139SOL    HW222317   4.836   5.481   2.148
 7140SOL     OW22318   5.980   4.250   0.595
 7140SOL    HW122319   6.028   4.337   0.593
 7140SOL    HW222320   5.959   4.225   0.689
 7141SOL     OW22321   4.074   6.176   1.411
 7141SOL    HW122322   4.011   6.165   1.488
 7141SOL    HW222323   4.035   6.133   1.330
 7142SOL     OW22324   3.055   0.475   4.430
 7142SOL    HW122325   3.126   0.447   4.364
 7142SOL    HW222326   3.018   0.394   4.475
 7143SOL     OW22327   2.406   4.322   6.579
 7143SOL    HW122328   2.329   4.357   6.525
 7143SOL    HW222329   2.484   4.384   6.567
 7144SOL     OW22330   0.177   1.171   4.317
 7144SOL    HW122331   0.163   1.251   4.259
 7144SOL    HW222332   0.224   1.100   4.266
 7145SOL     OW22333   4.543   1.655   6.922
 7145SOL    HW122334   4.483   1.632   6.845
 7145SOL    HW222335   4.499   1.725   6.978
 7146SOL     OW22336   1.998   1.136   5.100
 7146SOL    HW122337   1.920   1.149   5.038
 7146SOL    HW222338   2.083   1.157   5.051
 7147SOL     OW22339   5.548   5.049   3.370
 7147SOL    HW122340   5.597   4.988   3.432
 7147SOL    HW222341   5.534   5.004   3.282
 7148SOL     OW22342   6.233   6.398   0.641
 7148SOL    HW122343   6.171   6.321   0.629
 7148SOL    HW222344   6.319   6.367   0.680
 7149SOL     OW22345   7.006   4.758   3.260
 7149SOL    HW122346   0.059   4.740   3.319
 7149SOL    HW222347   6.923   4.762   3.316
 7150SOL     OW22348   4.475   3.207   7.017
 7150SOL    HW122349   4.562   3.197   6.969
 7150SOL    HW222350   4.447   3.303   7.018
 7151SOL     OW22351   3.392   6.931   0.933
 7151SOL    HW122352   3.293   6.926   0.947
 7151SOL    HW222353   3.438   6.923   1.022
 7152SOL     OW22354   6.860   0.874   6.735
 7152SOL    HW122355   6.882   0.785   6.694
 7152SOL    HW222356   6.943   0.931   6.738
 7153SOL     OW22357   3.990   5.362   1.647
 7153SOL    HW122358   3.964   5.340   1.553
 7153SOL    HW222359   3.908   5.370   1.703
 7154SOL     OW22360   4.169   1.099   2.578
 7154SOL    HW122361   4.089   1.040   2.565
 7154SOL    HW222362   4.146   1.172   2.643
 7155SOL     OW22363   3.060   1.880   1.476
 7155SOL    HW122364   3.067   1.925   1.387
 7155SOL    HW222365   3.152   1.869   1.516
 7156SOL     OW22366   5.446   3.395   1.989
 7156SOL    HW122367   5.536   3.377   1.951
 7156SOL    HW222368   5.385   3.318   1.969
 7157SOL     OW22369   5.776   4.272   0.418
 7157SOL    HW122370   5.857   4.276   0.477
 7157SOL    HW222371   5.717   4.351   0.437
 7158SOL     OW22372   6.107   0.389   3.942
 7158SOL    HW122373   6.042   0.350   4.007
 7158SOL    HW222374   6.182   0.433   3.992
 7159SOL     OW22375   6.861   4.992   4.317
 7159SOL    HW122376   6.840   4.937   4.398
 7159SOL    HW222377   6.954   4.972   4.286
 7160SOL     OW22378   5.928   6.675   2.567
 7160SOL    HW122379   5.854   6.611   2.588
 7160SOL    HW222380   5.914   6.760   2.618
 7161SOL     OW22381   3.418   3.726   3.417
 7161SOL    HW122382   3.372   3.677   3.343
 7161SOL    HW222383   3.515   3.701   3.418
 7162SOL     OW22384   6.760   4.657   1.263
 7162SOL    HW122385   6.697   4.663   1.341
 7162SOL    HW222386   6.782   4.749   1.231
 7163SOL     OW22387   1.214   1.466   2.766
 7163SOL    HW122388   1.193   1.368   2.762
 7163SOL    HW222389   1.186   1.510   2.680
 7164SOL     OW22390   1.809   0.711   5.909
 7164SOL    HW122391   1.733   0.647   5.907
 7164SOL    HW222392   1.884   0.677   5.851
 7165SOL     OW22393   5.320   0.129   0.585
 7165SOL    HW122394   5.358   0.091   0.500
 7165SOL    HW222395   5.283   0.055   0.640
 7166SOL     OW22396   5.271   0.752   5.791
 7166SOL    HW122397   5.346   0.817   5.782
 7166SOL    HW222398   5.229   0.737   5.702
 7167SOL     OW22399   6.073   2.211   5.749
 7167SOL    HW122400   6.114   2.289   5.797
 7167SOL    HW222401   6.039   2.145   5.816
 7168SOL     OW22402   3.092   0.506   2.890
 7168SOL    HW122403   3.122   0.583   2.833
 7168SOL    HW222404   3.167   0.440   2.899
 7169SOL     OW22405   1.588   3.824   5.277
 7169SOL    HW122406   1.577   3.728   5.254
 7169SOL    HW222407   1.554   3.881   5.202
 7170SOL     OW22408   4.663   0.298   1.936
 7170SOL    HW122409   4.599   0.336   2.003
 7170SOL    HW222410   4.744   0.264   1.984
 7171SOL     OW22411   5.724   5.165   0.844
 7171SOL    HW122412   5.679   5.082   0.878
 7171SOL    HW222413   5.786   5.141   0.769
 7172SOL     OW22414   1.727   1.582   5.143
 7172SOL    HW122415   1.751   1.565   5.239
 7172SOL    HW222416   1.721   1.681   5.128
 7173SOL     OW22417   5.809   5.959   6.515
 7173SOL    HW122418   5.738   5.892   6.496
 7173SOL    HW222419   5.823   6.018   6.435
 7174SOL     OW22420   6.219   4.765   1.349
 7174SOL    HW122421   6.232   4.666   1.351
 7174SOL    HW222422   6.307   4.811   1.361
 7175SOL     OW22423   6.143   3.974   5.059
 7175SOL    HW122424   6.093   3.906   5.112
 7175SOL    HW222425   6.208   3.928   4.998
 7176SOL     OW22426   0.735   1.380   3.695
 7176SOL    HW122427   0.668   1.413   3.628
 7176SOL    HW222428   0.765   1.456   3.753
 7177SOL     OW22429   1.774   5.548   5.674
 7177SOL    HW122430   1.729   5.612   5.736
 7177SOL    HW222431   1.720   5.464   5.666
 7178SOL     OW22432   0.292   0.972   5.521
 7178SOL    HW122433   0.314   0.923   5.437
 7178SOL    HW222434   0.343   0.932   5.597
 7179SOL     OW22435   2.144   4.494   5.910
 7179SOL    HW122436   2.066   4.450   5.865
 7179SOL    HW222437   2.225   4.437   5.898
 7180SOL     OW22438   2.131   4.739   0.829
 7180SOL    HW122439   2.193   4.662   0.820
 7180SOL    HW222440   2.041   4.706   0.856
 7181SOL     OW22441   2.248   1.079   6.205
 7181SOL    HW122442   2.283   1.050   6.294
 7181SOL    HW222443   2.208   1.001   6.157
 7182SOL     OW22444   0.441   3.027   4.477
 7182SOL    HW122445   0.531   3.058   4.507
 7182SOL    HW222446   0.383   3.107   4.459
 7183SOL     OW22447   1.774   6.591   1.448
 7183SOL    HW122448   1.706   6.581   1.521
 7183SOL    HW222449   1.863   6.613   1.488
 7184SOL     OW22450   5.818   1.594   3.238
 7184SOL    HW122451   5.808   1.660   3.163
 7184SOL    HW222452   5.728   1.560   3.264
 7185SOL     OW22453   5.030   1.282   5.750
 7185SOL    HW122454   5.104   1.327   5.799
 7185SOL    HW222455   4.993   1.208   5.805
 7186SOL     OW22456   0.377   6.992   0.254
 7186SOL    HW122457   0.341   6.997   0.347
 7186SOL    HW222458   0.376   6.897   0.224
 7187SOL     OW22459   2.975   3.532   4.539
 7187SOL    HW122460   2.951   3.568   4.449
 7187SOL    HW222461   2.937   3.592   4.610
 7188SOL     OW22462   4.526   3.919   6.740
 7188SOL    HW122463   4.492   3.872   6.659
 7188SOL    HW222464   4.456   3.919   6.811
 7189SOL     OW22465   6.106   3.048   5.353
 7189SOL    HW122466   6.116   3.022   5.449
 7189SOL    HW222467   6.024   3.106   5.343
 7190SOL     OW22468   5.893   5.773   0.894
 7190SOL    HW122469   5.943   5.843   0.844
 7190SOL    HW222470   5.823   5.734   0.835
 7191SOL     OW22471   0.926   4.269   3.236
 7191SOL    HW122472   0.837   4.242   3.200
 7191SOL    HW222473   0.919   4.360   3.278
 7192SOL     OW22474   1.901   3.840   6.690
 7192SOL    HW122475   1.871   3.919   6.743
 7192SOL    HW222476   1.922   3.869   6.596
 7193SOL     OW22477   2.703   1.801   2.448
 7193SOL    HW122478   2.788   1.814   2.499
 7193SOL    HW222479   2.676   1.888   2.407
 7194SOL     OW22480   2.274   2.391   0.519
 7194SOL    HW122481   2.371   2.390   0.496
 7194SOL    HW222482   2.241   2.486   0.523
 7195SOL     OW22483   6.824   4.312   6.988
 7195SOL    HW122484   6.879   4.317   6.904
 7195SOL    HW222485   6.735   4.355   6.971
 7196SOL     OW22486   3.399   3.807   2.627
 7196SOL    HW122487   3.488   3.763   2.630
 7196SOL    HW222488   3.408   3.904   2.652
 7197SOL     OW22489   1.123   3.346   5.414
 7197SOL    HW122490   1.151   3.417   5.479
 7197SOL    HW222491   1.035   3.309   5.441
 7198SOL     OW22492   0.403   0.563   0.725
 7198SOL    HW122493   0.319   0.509   0.731
 7198SOL    HW222494   0.480   0.502   0.705
 7199SOL     OW22495   0.663   0.153   2.128
 7199SOL    HW122496   0.704   0.244   2.128
 7199SOL    HW222497   0.729   0.087   2.165
 7200SOL     OW22498   1.774   2.291   1.000
 7200SOL    HW122499   1.769   2.339   0.913
 7200SOL    HW222500   1.782   2.358   1.074
 7201SOL     OW22501   0.178   5.132   3.906
 7201SOL    HW122502   0.154   5.216   3.856
 7201SOL    HW222503   0.096   5.093   3.947
 7202SOL     OW22504   5.150   6.942   5.990
 7202SOL    HW122505   5.055   6.970   5.980
 7202SOL    HW222506   5.187   6.979   6.075
 7203SOL     OW22507   0.572   0.725   1.932
 7203SOL    HW122508   0.491   0.669   1.948
 7203SOL    HW222509   0.570   0.762   1.840
 7204SOL     OW22510   6.199   1.813   0.583
 7204SOL    HW122511   6.193   1.809   0.683
 7204SOL    HW222512   6.294   1.806   0.554
 7205SOL     OW22513   1.221   2.789   4.718
 7205SOL    HW122514   1.202   2.856   4.790
 7205SOL    HW222515   1.310   2.747   4.734
 7206SOL     OW22516   1.425   1.460   1.441
 7206SOL    HW122517   1.465   1.501   1.359
 7206SOL    HW222518   1.498   1.442   1.508
 7207SOL     OW22519   2.162   1.790   4.122
 7207SOL    HW122520   2.165   1.802   4.023
 7207SOL    HW222521   2.067   1.788   4.152
 7208SOL     OW22522   3.899   0.654   3.775
 7208SOL    HW122523   3.878   0.751   3.762
 7208SOL    HW222524   3.840   0.599   3.717
 7209SOL     OW22525   2.148   2.221   2.385
 7209SOL    HW122526   2.239   2.206   2.424
 7209SOL    HW222527   2.156   2.267   2.297
 7210SOL     OW22528   3.414   1.680   3.191
 7210SOL    HW122529   3.456   1.719   3.273
 7210SOL    HW222530   3.431   1.740   3.113
 7211SOL     OW22531   2.941   6.277   5.626
 7211SOL    HW122532   2.956   6.264   5.528
 7211SOL    HW222533   2.900   6.367   5.642
 7212SOL     OW22534   6.046   6.058   6.239
 7212SOL    HW122535   6.116   5.989   6.226
 7212SOL    HW222536   6.065   6.110   6.323
 7213SOL     OW22537   3.659   6.758   6.940
 7213SOL    HW122538   3.751   6.797   6.937
 7213SOL    HW222539   3.662   6.664   6.906
 7214SOL     OW22540   6.920   1.023   6.240
 7214SOL    HW122541   6.860   1.006   6.162
 7214SOL    HW222542   6.906   0.953   6.309
 7215SOL     OW22543   6.496   2.587   3.871
 7215SOL    HW122544   6.541   2.631   3.949
 7215SOL    HW222545   6.403   2.623   3.861
 7216SOL     OW22546   2.902   6.272   2.350
 7216SOL    HW122547   2.929   6.368   2.351
 7216SOL    HW222548   2.983   6.214   2.348
 7217SOL     OW22549   1.649   4.404   3.835
 7217SOL    HW122550   1.566   4.420   3.782
 7217SOL    HW222551   1.714   4.477   3.817
 7218SOL     OW22552   0.265   3.180   3.956
 7218SOL    HW122553   0.278   3.094   3.905
 7218SOL    HW222554   0.344   3.239   3.942
 7219SOL     OW22555   3.356   6.626   1.416
 7219SOL    HW122556   3.301   6.700   1.453
 7219SOL    HW222557   3.341   6.619   1.317
 7220SOL     OW22558   6.567   4.591   4.556
 7220SOL    HW122559   6.502   4.616   4.627
 7220SOL    HW222560   6.577   4.492   4.553
 7221SOL     OW22561   3.170   6.072   4.873
 7221SOL    HW122562   3.146   5.981   4.839
 7221SOL    HW222563   3.245   6.064   4.939
 7222SOL     OW22564   5.627   6.802   2.813
 7222SOL    HW122565   5.694   6.874   2.798
 7222SOL    HW222566   5.649   6.754   2.898
 7223SOL     OW22567   2.485   1.866   1.028
 7223SOL    HW122568   2.473   1.826   1.119
 7223SOL    HW222569   2.575   1.911   1.024
 7224SOL     OW22570   4.698   2.766   4.119
 7224SOL    HW122571   4.637   2.693   4.088
 7224SOL    HW222572   4.698   2.769   4.219
 7225SOL     OW22573   2.230   6.564   0.793
 7225SOL    HW122574   2.231   6.657   0.830
 7225SOL    HW222575   2.321   6.523   0.805
 7226SOL     OW22576   5.955   0.653   0.798
 7226SOL    HW122577   5.862   0.628   0.770
 7226SOL    HW222578   5.974   0.615   0.888
 7227SOL     OW22579   2.822   0.965   2.073
 7227SOL    HW122580   2.760   1.037   2.043
 7227SOL    HW222581   2.857   0.915   1.994
 7228SOL     OW22582   0.719   1.743   3.022
 7228SOL    HW122583   0.682   1.651   3.012
 7228SOL    HW222584   0.716   1.790   2.933
 7229SOL     OW22585   0.105   6.757   4.505
 7229SOL    HW122586   0.179   6.748   4.572
 7229SOL    HW222587   0.019   6.726   4.546
 7230SOL     OW22588   2.617   5.346   3.996
 7230SOL    HW122589   2.629   5.262   3.943
 7230SOL    HW222590   2.654   5.423   3.945
 7231SOL     OW22591   3.848   6.840   0.974
 7231SOL    HW122592   3.875   6.911   0.909
 7231SOL    HW222593   3.886   6.860   1.064
 7232SOL     OW22594   5.128   6.631   2.693
 7232SOL    HW122595   5.194   6.627   2.769
 7232SOL    HW222596   5.084   6.721   2.693
 7233SOL     OW22597   0.193   1.911   5.592
 7233SOL    HW122598   0.270   1.959   5.550
 7233SOL    HW222599   0.200   1.813   5.574
 7234SOL     OW22600   5.160   4.158   2.618
 7234SOL    HW122601   5.153   4.064   2.584
 7234SOL    HW222602   5.253   4.176   2.649
 7235SOL     OW22603   6.339   5.363   1.627
 7235SOL    HW122604   6.348   5.426   1.549
 7235SOL    HW222605   6.400   5.285   1.613
 7236SOL     OW22606   1.626   2.444   2.688
 7236SOL    HW122607   1.720   2.458   2.657
 7236SOL    HW222608   1.565   2.505   2.637
 7237SOL     OW22609   4.488   0.046   6.581
 7237SOL    HW122610   4.483   0.060   6.680
 7237SOL    HW222611   4.583   0.056   6.551
 7238SOL     OW22612   4.715   2.768   6.902
 7238SOL    HW122613   4.734   2.841   6.968
 7238SOL    HW222614   4.797   2.749   6.848
 7239SOL     OW22615   0.308   3.069   2.340
 7239SOL    HW122616   0.346   3.009   2.411
 7239SOL    HW222617   0.358   3.055   2.255
 7240SOL     OW22618   6.521   1.788   0.067
 7240SOL    HW122619   6.485   1.881   0.072
 7240SOL    HW222620   6.512   1.753   6.999
 7241SOL     OW22621   2.246   0.022   0.124
 7241SOL    HW122622   2.302   0.088   0.174
 7241SOL    HW222623   2.301   7.004   0.052
 7242SOL     OW22624   6.979   5.997   5.407
 7242SOL    HW122625   6.993   5.904   5.440
 7242SOL    HW222626   6.885   6.008   5.376
 7243SOL     OW22627   6.652   4.276   6.569
 7243SOL    HW122628   6.722   4.345   6.549
 7243SOL    HW222629   6.694   4.186   6.575
 7244SOL     OW22630   0.286   6.653   0.833
 7244SOL    HW122631   0.371   6.691   0.869
 7244SOL    HW222632   0.214   6.723   0.838
 7245SOL     OW22633   1.531   2.108   5.545
 7245SOL    HW122634   1.629   2.124   5.555
 7245SOL    HW222635   1.484   2.196   5.536
 7246SOL     OW22636   2.067   0.365   4.421
 7246SOL    HW122637   1.991   0.429   4.424
 7246SOL    HW222638   2.142   0.400   4.477
 7247SOL     OW22639   3.243   2.163   5.552
 7247SOL    HW122640   3.225   2.238   5.617
 7247SOL    HW222641   3.297   2.198   5.476
 7248SOL     OW22642   3.130   0.374   3.677
 7248SOL    HW122643   3.061   0.444   3.657
 7248SOL    HW222644   3.146   0.372   3.776
 7249SOL     OW22645   4.659   4.886   1.881
 7249SOL    HW122646   4.726   4.815   1.859
 7249SOL    HW222647   4.692   4.975   1.849
 7250SOL     OW22648   5.024   4.628   5.642
 7250SOL    HW122649   5.052   4.533   5.656
 7250SOL    HW222650   5.024   4.676   5.730
 7251SOL     OW22651   0.634   0.215   5.558
 7251SOL    HW122652   0.589   0.209   5.469
 7251SOL    HW222653   0.673   0.306   5.569
 7252SOL     OW22654   3.091   3.851   1.928
 7252SOL    HW122655   3.039   3.907   1.863
 7252SOL    HW222656   3.064   3.755   1.918
 7253SOL     OW22657   1.632   6.375   6.566
 7253SOL    HW122658   1.652   6.289   6.519
 7253SOL    HW222659   1.701   6.443   6.541
 7254SOL     OW22660   6.069   5.323   4.270
 7254SOL    HW122661   6.006   5.347   4.195
 7254SOL    HW222662   6.046   5.378   4.351
 7255SOL     OW22663   5.045   3.624   6.884
 7255SOL    HW122664   4.947   3.639   6.874
 7255SOL    HW222665   5.092   3.711   6.893
 7256SOL     OW22666   4.075   6.218   5.748
 7256SOL    HW122667   4.131   6.167   5.813
 7256SOL    HW222668   4.107   6.200   5.655
 7257SOL     OW22669   0.431   2.057   4.656
 7257SOL    HW122670   0.356   1.995   4.633
 7257SOL    HW222671   0.493   2.012   4.721
 7258SOL     OW22672   5.633   2.012   2.570
 7258SOL    HW122673   5.679   2.023   2.482
 7258SOL    HW222674   5.537   2.037   2.561
 7259SOL     OW22675   0.996   3.031   2.308
 7259SOL    HW122676   0.979   2.943   2.265
 7259SOL    HW222677   0.996   3.103   2.239
 7260SOL     OW22678   5.501   2.181   1.148
 7260SOL    HW122679   5.451   2.253   1.100
 7260SOL    HW222680   5.509   2.205   1.245
 7261SOL     OW22681   0.371   4.725   1.210
 7261SOL    HW122682   0.442   4.746   1.143
 7261SOL    HW222683   0.410   4.671   1.284
 7262SOL     OW22684   5.448   1.158   6.873
 7262SOL    HW122685   5.366   1.110   6.840
 7262SOL    HW222686   5.472   1.230   6.808
 7263SOL     OW22687   0.286   6.283   6.838
 7263SOL    HW122688   0.267   6.185   6.831
 7263SOL    HW222689   0.265   6.315   6.930
 7264SOL     OW22690   5.332   0.744   0.872
 7264SOL    HW122691   5.330   0.644   0.872
 7264SOL    HW222692   5.422   0.775   0.903
 7265SOL     OW22693   5.878   5.027   5.176
 7265SOL    HW122694   5.807   5.094   5.200
 7265SOL    HW222695   5.840   4.935   5.184
 7266SOL     OW22696   6.464   1.021   3.866
 7266SOL    HW122697   6.523   1.015   3.786
 7266SOL    HW222698   6.407   1.103   3.860
 7267SOL     OW22699   6.571   6.777   4.682
 7267SOL    HW122700   6.581   6.730   4.594
 7267SOL    HW222701   6.660   6.785   4.727
 7268SOL     OW22702   0.065   6.039   4.417
 7268SOL    HW122703   0.027   6.130   4.406
 7268SOL    HW222704   0.149   6.044   4.472
 7269SOL     OW22705   1.882   6.324   5.861
 7269SOL    HW122706   1.806   6.262   5.880
 7269SOL    HW222707   1.948   6.320   5.936
 7270SOL     OW22708   0.137   2.001   4.277
 7270SOL    HW122709   0.196   1.991   4.357
 7270SOL    HW222710   0.190   2.039   4.201
 7271SOL     OW22711   1.291   4.936   4.275
 7271SOL    HW122712   1.381   4.900   4.250
 7271SOL    HW222713   1.240   4.959   4.192
 7272SOL     OW22714   6.059   5.745   2.093
 7272SOL    HW122715   6.127   5.790   2.034
 7272SOL    HW222716   6.106   5.700   2.169
 7273SOL     OW22717   5.396   3.743   0.061
 7273SOL    HW122718   5.384   3.648   0.090
 7273SOL    HW222719   5.483   3.751   0.012
 7274SOL     OW22720   0.445   4.727   6.864
 7274SOL    HW122721   0.523   4.666   6.879
 7274SOL    HW222722   0.453   4.807   6.924
 7275SOL     OW22723   0.193   5.976   2.512
 7275SOL    HW122724   0.137   5.929   2.580
 7275SOL    HW222725   0.136   6.041   2.462
 7276SOL     OW22726   5.660   0.725   3.263
 7276SOL    HW122727   5.641   0.631   3.232
 7276SOL    HW222728   5.732   0.764   3.206
 7277SOL     OW22729   4.789   0.689   4.681
 7277SOL    HW122730   4.885   0.700   4.706
 7277SOL    HW222731   4.771   0.737   4.595
 7278SOL     OW22732   3.744   3.703   1.252
 7278SOL    HW122733   3.787   3.623   1.294
 7278SOL    HW222734   3.803   3.739   1.180
 7279SOL     OW22735   4.346   5.858   7.023
 7279SOL    HW122736   4.358   5.934   0.062
 7279SOL    HW222737   4.400   5.875   6.940
 7280SOL     OW22738   0.419   0.593   3.828
 7280SOL    HW122739   0.326   0.609   3.860
 7280SOL    HW222740   0.419   0.585   3.728
 7281SOL     OW22741   3.091   1.844   0.127
 7281SOL    HW122742   3.087   1.860   0.029
 7281SOL    HW222743   3.004   1.805   0.158
 7282SOL     OW22744   5.763   5.191   2.237
 7282SOL    HW122745   5.714   5.147   2.162
 7282SOL    HW222746   5.846   5.234   2.201
 7283SOL     OW22747   3.301   1.459   3.088
 7283SOL    HW122748   3.330   1.546   3.128
 7283SOL    HW222749   3.375   1.422   3.032
 7284SOL     OW22750   0.568   3.502   6.180
 7284SOL    HW122751   0.523   3.487   6.092
 7284SOL    HW222752   0.649   3.558   6.166
 7285SOL     OW22753   5.226   3.891   2.112
 7285SOL    HW122754   5.190   3.973   2.066
 7285SOL    HW222755   5.278   3.837   2.046
 7286SOL     OW22756   2.642   1.569   0.635
 7286SOL    HW122757   2.662   1.502   0.706
 7286SOL    HW222758   2.566   1.627   0.663
 7287SOL     OW22759   6.893   2.293   6.772
 7287SOL    HW122760   6.869   2.373   6.718
 7287SOL    HW222761   6.991   2.275   6.763
 7288SOL     OW22762   2.912   1.028   0.116
 7288SOL    HW122763   2.872   1.113   0.080
 7288SOL    HW222764   3.012   1.038   0.119
 7289SOL     OW22765   5.783   1.595   3.731
 7289SOL    HW122766   5.824   1.510   3.698
 7289SOL    HW222767   5.730   1.637   3.657
 7290SOL     OW22768   3.589   0.037   5.805
 7290SOL    HW122769   3.499   0.010   5.840
 7290SOL    HW222770   3.661   7.017   5.858
 7291SOL     OW22771   1.396   6.637   0.831
 7291SOL    HW122772   1.444   6.724   0.825
 7291SOL    HW222773   1.365   6.623   0.925
 7292SOL     OW22774   2.489   1.117   4.130
 7292SOL    HW122775   2.484   1.058   4.050
 7292SOL    HW222776   2.552   1.193   4.112
 7293SOL     OW22777   1.731   1.675   5.740
 7293SOL    HW122778   1.661   1.698   5.673
 7293SOL    HW222779   1.809   1.736   5.730
 7294SOL     OW22780   1.783   5.223   6.981
 7294SOL    HW122781   1.883   5.219   6.991
 7294SOL    HW222782   1.745   5.276   0.032
 7295SOL     OW22783   0.482   2.201   0.935
 7295SOL    HW122784   0.545   2.272   0.966
 7295SOL    HW222785   0.485   2.196   0.835
 7296SOL     OW22786   2.320   5.034   1.328
 7296SOL    HW122787   2.240   4.986   1.292
 7296SOL    HW222788   2.294   5.126   1.356
 7297SOL     OW22789   3.645   5.709   1.144
 7297SOL    HW122790   3.722   5.741   1.088
 7297SOL    HW222791   3.577   5.666   1.085
 7298SOL     OW22792   4.631   4.176   5.771
 7298SOL    HW122793   4.624   4.259   5.826
 7298SOL    HW222794   4.683   4.197   5.688
 7299SOL     OW22795   0.635   1.831   0.437
 7299SOL    HW122796   0.568   1.775   0.389
 7299SOL    HW222797   0.606   1.844   0.532
 7300SOL     OW22798   5.969   6.027   2.514
 7300SOL    HW122799   5.910   6.101   2.547
 7300SOL    HW222800   6.000   5.972   2.592
 7301SOL     OW22801   6.614   1.225   4.756
 7301SOL    HW122802   6.529   1.212   4.707
 7301SOL    HW222803   6.691   1.225   4.691
 7302SOL     OW22804   1.043   1.982   6.221
 7302SOL    HW122805   1.098   2.065   6.219
 7302SOL    HW222806   1.100   1.903   6.201
 7303SOL     OW22807   4.690   0.348   6.537
 7303SOL    HW122808   4.704   0.252   6.514
 7303SOL    HW222809   4.678   0.402   6.454
 7304SOL     OW22810   4.014   4.551   0.150
 7304SOL    HW122811   4.108   4.517   0.148
 7304SOL    HW222812   4.009   4.631   0.209
 7305SOL     OW22813   4.788   1.158   0.753
 7305SOL    HW122814   4.720   1.195   0.690
 7305SOL    HW222815   4.845   1.092   0.705
 7306SOL     OW22816   5.200   2.524   1.685
 7306SOL    HW122817   5.166   2.438   1.722
 7306SOL    HW222818   5.125   2.577   1.645
 7307SOL     OW22819   2.238   0.165   2.731
 7307SOL    HW122820   2.280   0.087   2.776
 7307SOL    HW222821   2.186   0.134   2.652
 7308SOL     OW22822   0.170   4.050   5.373
 7308SOL    HW122823   0.134   3.982   5.436
 7308SOL    HW222824   0.110   4.057   5.293
 7309SOL     OW22825   4.952   5.613   0.736
 7309SOL    HW122826   5.007   5.589   0.656
 7309SOL    HW222827   4.864   5.651   0.706
 7310SOL     OW22828   2.350   3.423   1.475
 7310SOL    HW122829   2.437   3.453   1.514
 7310SOL    HW222830   2.274   3.469   1.522
 7311SOL     OW22831   3.444   2.070   2.109
 7311SOL    HW122832   3.523   2.113   2.066
 7311SOL    HW222833   3.366   2.074   2.046
 7312SOL     OW22834   6.895   3.797   6.342
 7312SOL    HW122835   6.945   3.827   6.261
 7312SOL    HW222836   6.882   3.875   6.404
 7313SOL     OW22837   3.407   2.119   6.533
 7313SOL    HW122838   3.332   2.184   6.543
 7313SOL    HW222839   3.493   2.162   6.560
 7314SOL     OW22840   6.496   3.700   4.713
 7314SOL    HW122841   6.462   3.676   4.622
 7314SOL    HW222842   6.585   3.659   4.728
 7315SOL     OW22843   6.773   0.441   2.650
 7315SOL    HW122844   6.790   0.483   2.561
 7315SOL    HW222845   6.685   0.394   2.649
 7316SOL     OW22846   2.872   4.081   5.956
 7316SOL    HW122847   2.905   4.164   5.911
 7316SOL    HW222848   2.773   4.084   5.964
 7317SOL     OW22849   4.409   0.944   2.499
 7317SOL    HW122850   4.331   0.961   2.559
 7317SOL    HW222851   4.421   1.021   2.437
 7318SOL     OW22852   1.060   0.836   1.014
 7318SOL    HW122853   1.152   0.817   1.048
 7318SOL    HW222854   1.066   0.884   0.926
 7319SOL     OW22855   6.327   4.251   5.750
 7319SOL    HW122856   6.233   4.242   5.781
 7319SOL    HW222857   6.356   4.166   5.706
 7320SOL     OW22858   6.450   3.769   1.748
 7320SOL    HW122859   6.421   3.865   1.743
 7320SOL    HW222860   6.510   3.748   1.672
 7321SOL     OW22861   2.750   6.600   5.519
 7321SOL    HW122862   2.846   6.589   5.542
 7321SOL    HW222863   2.703   6.512   5.528
 7322SOL     OW22864   6.441   2.410   3.536
 7322SOL    HW122865   6.463   2.500   3.499
 7322SOL    HW222866   6.524   2.364   3.566
 7323SOL     OW22867   2.212   1.950   1.784
 7323SOL    HW122868   2.127   1.959   1.731
 7323SOL    HW222869   2.237   1.853   1.790
 7324SOL     OW22870   4.613   5.855   2.323
 7324SOL    HW122871   4.554   5.936   2.318
 7324SOL    HW222872   4.685   5.870   2.391
 7325SOL     OW22873   3.684   6.404   0.061
 7325SOL    HW122874   3.681   6.315   0.105
 7325SOL    HW222875   3.642   6.398   6.995
 7326SOL     OW22876   3.228   6.394   5.503
 7326SOL    HW122877   3.172   6.312   5.492
 7326SOL    HW222878   3.223   6.449   5.420
 7327SOL     OW22879   6.762   2.651   5.517
 7327SOL    HW122880   6.710   2.686   5.595
 7327SOL    HW222881   6.859   2.661   5.535
 7328SOL     OW22882   3.219   0.623   6.246
 7328SOL    HW122883   3.243   0.527   6.230
 7328SOL    HW222884   3.296   0.681   6.218
 7329SOL     OW22885   5.731   4.525   1.698
 7329SOL    HW122886   5.813   4.537   1.754
 7329SOL    HW222887   5.683   4.441   1.727
 7330SOL     OW22888   2.523   2.434   0.355
 7330SOL    HW122889   2.483   2.465   0.268
 7330SOL    HW222890   2.615   2.473   0.364
 7331SOL     OW22891   5.711   0.071   2.273
 7331SOL    HW122892   5.769   7.024   2.308
 7331SOL    HW222893   5.704   0.064   2.173
 7332SOL     OW22894   1.952   5.463   0.349
 7332SOL    HW122895   1.983   5.539   0.291
 7332SOL    HW222896   1.942   5.381   0.293
 7333SOL     OW22897   0.077   3.484   3.257
 7333SOL    HW122898   0.142   3.556   3.231
 7333SOL    HW222899   0.126   3.410   3.303
 7334SOL     OW22900   3.443   6.157   6.739
 7334SOL    HW122901   3.349   6.153   6.705
 7334SOL    HW222902   3.475   6.064   6.758
 7335SOL     OW22903   1.457   2.649   2.607
 7335SOL    HW122904   1.384   2.680   2.547
 7335SOL    HW222905   1.535   2.711   2.601
 7336SOL     OW22906   1.709   6.544   3.725
 7336SOL    HW122907   1.800   6.537   3.684
 7336SOL    HW222908   1.716   6.527   3.824
 7337SOL     OW22909   0.421   3.120   1.592
 7337SOL    HW122910   0.425   3.202   1.535
 7337SOL    HW222911   0.512   3.099   1.626
 7338SOL     OW22912   6.419   2.864   1.519
 7338SOL    HW122913   6.449   2.934   1.455
 7338SOL    HW222914   6.481   2.786   1.515
 7339SOL     OW22915   5.613   6.172   3.405
 7339SOL    HW122916   5.661   6.236   3.345
 7339SOL    HW222917   5.656   6.082   3.400
 7340SOL     OW22918   2.125   1.032   1.183
 7340SOL    HW122919   2.189   1.021   1.258
 7340SOL    HW222920   2.165   1.092   1.113
 7341SOL     OW22921   6.664   3.055   7.007
 7341SOL    HW122922   6.751   3.052   6.958
 7341SOL    HW222923   6.589   3.052   6.941
 7342SOL     OW22924   6.985   1.540   1.947
 7342SOL    HW122925   6.980   1.640   1.948
 7342SOL    HW222926   6.893   1.502   1.961
 7343SOL     OW22927   5.045   3.270   6.815
 7343SOL    HW122928   5.071   3.173   6.824
 7343SOL    HW222929   5.066   3.318   6.900
 7344SOL     OW22930   0.670   0.421   6.450
 7344SOL    HW122931   0.694   0.351   6.383
 7344SOL    HW222932   0.623   0.497   6.404
 7345SOL     OW22933   4.332   3.453   5.401
 7345SOL    HW122934   4.288   3.381   5.348
 7345SOL    HW222935   4.428   3.460   5.374
 7346SOL     OW22936   3.812   5.945   2.694
 7346SOL    HW122937   3.804   5.992   2.782
 7346SOL    HW222938   3.904   5.907   2.685
 7347SOL     OW22939   0.585   1.942   0.946
 7347SOL    HW122940   0.618   1.878   1.016
 7347SOL    HW222941   0.571   2.032   0.988
 7348SOL     OW22942   1.563   4.048   3.842
 7348SOL    HW122943   1.464   4.059   3.828
 7348SOL    HW222944   1.612   4.111   3.782
 7349SOL     OW22945   4.177   0.447   2.041
 7349SOL    HW122946   4.141   0.361   2.077
 7349SOL    HW222947   4.141   0.462   1.949
 7350SOL     OW22948   2.638   1.799   5.677
 7350SOL    HW122949   2.676   1.768   5.764
 7350SOL    HW222950   2.680   1.747   5.602
 7351SOL     OW22951   5.841   5.927   3.692
 7351SOL    HW122952   5.816   6.013   3.647
 7351SOL    HW222953   5.776   5.855   3.666
 7352SOL     OW22954   0.650   1.549   2.350
 7352SOL    HW122955   0.592   1.553   2.431
 7352SOL    HW222956   0.642   1.459   2.307
 7353SOL     OW22957   0.178   0.569   6.459
 7353SOL    HW122958   0.097   0.516   6.483
 7353SOL    HW222959   0.219   0.533   6.375
 7354SOL     OW22960   1.607   1.399   5.501
 7354SOL    HW122961   1.554   1.477   5.533
 7354SOL    HW222962   1.546   1.329   5.465
 7355SOL     OW22963   1.184   1.343   0.383
 7355SOL    HW122964   1.111   1.367   0.447
 7355SOL    HW222965   1.233   1.426   0.356
 7356SOL     OW22966   3.672   3.636   6.323
 7356SOL    HW122967   3.677   3.548   6.370
 7356SOL    HW222968   3.578   3.668   6.321
 7357SOL     OW22969   2.914   5.580   2.273
 7357SOL    HW122970   2.850   5.651   2.305
 7357SOL    HW222971   2.863   5.510   2.224
 7358SOL     OW22972   6.370   3.651   2.673
 7358SOL    HW122973   6.348   3.740   2.633
 7358SOL    HW222974   6.286   3.609   2.707
 7359SOL     OW22975   4.132   2.415   5.619
 7359SOL    HW122976   4.215   2.459   5.584
 7359SOL    HW222977   4.121   2.325   5.577
 7360SOL     OW22978   2.374   3.360   5.629
 7360SOL    HW122979   2.396   3.332   5.722
 7360SOL    HW222980   2.398   3.287   5.565
 7361SOL     OW22981   5.548   0.938   2.507
 7361SOL    HW122982   5.597   0.856   2.538
 7361SOL    HW222983   5.477   0.961   2.573
 7362SOL     OW22984   2.142   6.024   6.274
 7362SOL    HW122985   2.210   5.958   6.305
 7362SOL    HW222986   2.141   6.028   6.174
 7363SOL     OW22987   4.655   1.244   1.344
 7363SOL    HW122988   4.710   1.164   1.320
 7363SOL    HW222989   4.575   1.248   1.284
 7364SOL     OW22990   3.954   0.425   2.376
 7364SOL    HW122991   3.991   0.351   2.320
 7364SOL    HW222992   3.874   0.393   2.426
 7365SOL     OW22993   0.585   5.842   2.188
 7365SOL    HW122994   0.680   5.872   2.183
 7365SOL    HW222995   0.526   5.920   2.209
 7366SOL     OW22996   2.517   6.378   5.691
 7366SOL    HW122997   2.583   6.306   5.671
 7366SOL    HW222998   2.556   6.441   5.758
 7367SOL     OW22999   3.702   2.720   0.008
 7367SOL    HW123000   3.709   2.657   0.086
 7367SOL    HW223001   3.606   2.737   7.012
 7368SOL     OW23002   3.905   2.965   2.241
 7368SOL    HW123003   3.946   3.000   2.325
 7368SOL    HW223004   3.937   3.020   2.163
 7369SOL     OW23005   3.628   2.535   0.961
 7369SOL    HW123006   3.567   2.532   1.040
 7369SOL    HW223007   3.587   2.592   0.889
 7370SOL     OW23008   2.580   2.341   6.168
 7370SOL    HW123009   2.580   2.432   6.125
 7370SOL    HW223010   2.667   2.296   6.152
 7371SOL     OW23011   3.304   6.239   3.768
 7371SOL    HW123012   3.305   6.300   3.847
 7371SOL    HW223013   3.326   6.290   3.686
 7372SOL     OW23014   4.313   6.885   4.599
 7372SOL    HW123015   4.227   6.935   4.584
 7372SOL    HW223016   4.388   6.950   4.610
 7373SOL     OW23017   5.886   2.050   5.280
 7373SOL    HW123018   5.849   1.982   5.217
 7373SOL    HW223019   5.886   2.014   5.373
 7374SOL     OW23020   2.032   1.789   4.668
 7374SOL    HW123021   2.110   1.852   4.655
 7374SOL    HW223022   1.985   1.813   4.753
 7375SOL     OW23023   2.291   2.576   2.078
 7375SOL    HW123024   2.258   2.623   1.997
 7375SOL    HW223025   2.265   2.627   2.160
 7376SOL     OW23026   1.165   2.642   1.339
 7376SOL    HW123027   1.253   2.648   1.386
 7376SOL    HW223028   1.108   2.720   1.365
 7377SOL     OW23029   4.300   4.846   0.462
 7377SOL    HW123030   4.290   4.893   0.374
 7377SOL    HW223031   4.308   4.748   0.446
 7378SOL     OW23032   1.316   0.008   5.055
 7378SOL    HW123033   1.227   0.031   5.093
 7378SOL    HW223034   1.386   0.066   5.095
 7379SOL     OW23035   2.716   0.680   2.095
 7379SOL    HW123036   2.618   0.686   2.116
 7379SOL    HW223037   2.755   0.772   2.097
 7380SOL     OW23038   6.716   3.988   3.610
 7380SOL    HW123039   6.713   4.087   3.625
 7380SOL    HW223040   6.806   3.962   3.574
 7381SOL     OW23041   3.950   2.917   0.716
 7381SOL    HW123042   3.874   2.861   0.683
 7381SOL    HW223043   3.943   3.009   0.678
 7382SOL     OW23044   6.985   1.957   5.902
 7382SOL    HW123045   6.973   1.965   5.803
 7382SOL    HW223046   7.005   1.861   5.925
 7383SOL     OW23047   2.435   5.705   1.571
 7383SOL    HW123048   2.348   5.741   1.538
 7383SOL    HW223049   2.510   5.761   1.534
 7384SOL     OW23050   6.644   0.178   1.728
 7384SOL    HW123051   6.621   0.085   1.699
 7384SOL    HW223052   6.683   0.229   1.651
 7385SOL     OW23053   2.538   5.447   2.604
 7385SOL    HW123054   2.573   5.482   2.517
 7385SOL    HW223055   2.448   5.405   2.590
 7386SOL     OW23056   6.712   3.031   6.614
 7386SOL    HW123057   6.719   3.105   6.547
 7386SOL    HW223058   6.639   2.968   6.587
 7387SOL     OW23059   6.729   5.262   4.958
 7387SOL    HW123060   6.669   5.258   5.039
 7387SOL    HW223061   6.754   5.170   4.931
 7388SOL     OW23062   1.466   4.998   2.345
 7388SOL    HW123063   1.438   5.009   2.440
 7388SOL    HW223064   1.520   4.915   2.335
 7389SOL     OW23065   6.894   3.726   0.143
 7389SOL    HW123066   6.852   3.736   0.053
 7389SOL    HW223067   6.896   3.630   0.169
 7390SOL     OW23068   3.002   1.898   2.298
 7390SOL    HW123069   3.009   1.957   2.379
 7390SOL    HW223070   3.019   1.952   2.216
 7391SOL     OW23071   3.732   2.895   2.831
 7391SOL    HW123072   3.770   2.945   2.908
 7391SOL    HW223073   3.777   2.805   2.824
 7392SOL     OW23074   3.675   5.525   0.154
 7392SOL    HW123075   3.693   5.446   0.213
 7392SOL    HW223076   3.583   5.518   0.116
 7393SOL     OW23077   6.274   4.622   3.340
 7393SOL    HW123078   6.298   4.526   3.355
 7393SOL    HW223079   6.183   4.640   3.378
 7394SOL     OW23080   1.646   3.107   6.110
 7394SOL    HW123081   1.607   3.027   6.064
 7394SOL    HW223082   1.733   3.131   6.065
 7395SOL     OW23083   2.058   2.888   1.114
 7395SOL    HW123084   1.974   2.847   1.081
 7395SOL    HW223085   2.038   2.976   1.156
 7396SOL     OW23086   2.272   6.508   1.364
 7396SOL    HW123087   2.250   6.529   1.459
 7396SOL    HW223088   2.336   6.577   1.329
 7397SOL     OW23089   4.811   4.192   4.228
 7397SOL    HW123090   4.874   4.228   4.296
 7397SOL    HW223091   4.800   4.093   4.241
 7398SOL     OW23092   1.222   5.880   2.882
 7398SOL    HW123093   1.128   5.845   2.883
 7398SOL    HW223094   1.223   5.968   2.835
 7399SOL     OW23095   6.398   3.013   4.741
 7399SOL    HW123096   6.459   2.933   4.748
 7399SOL    HW223097   6.308   2.983   4.709
 7400SOL     OW23098   4.840   2.361   5.803
 7400SOL    HW123099   4.844   2.458   5.829
 7400SOL    HW223100   4.820   2.306   5.883
 7401SOL     OW23101   1.802   2.685   3.475
 7401SOL    HW123102   1.735   2.661   3.405
 7401SOL    HW223103   1.852   2.768   3.447
 7402SOL     OW23104   3.240   4.160   6.478
 7402SOL    HW123105   3.176   4.086   6.500
 7402SOL    HW223106   3.255   4.163   6.379
 7403SOL     OW23107   1.572   2.969   2.797
 7403SOL    HW123108   1.533   2.934   2.711
 7403SOL    HW223109   1.611   2.892   2.848
 7404SOL     OW23110   2.974   4.033   1.753
 7404SOL    HW123111   2.881   4.032   1.718
 7404SOL    HW223112   3.003   4.127   1.771
 7405SOL     OW23113   2.741   5.245   4.806
 7405SOL    HW123114   2.728   5.146   4.802
 7405SOL    HW223115   2.659   5.289   4.842
 7406SOL     OW23116   0.774   1.569   5.044
 7406SOL    HW123117   0.809   1.505   4.976
 7406SOL    HW223118   0.684   1.603   5.015
 7407SOL     OW23119   1.353   6.387   5.699
 7407SOL    HW123120   1.296   6.322   5.747
 7407SOL    HW223121   1.316   6.480   5.710
 7408SOL     OW23122   3.815   4.049   5.357
 7408SOL    HW123123   3.783   3.972   5.302
 7408SOL    HW223124   3.910   4.035   5.384
 7409SOL     OW23125   5.238   4.337   0.351
 7409SOL    HW123126   5.165   4.316   0.286
 7409SOL    HW223127   5.212   4.416   0.407
 7410SOL     OW23128   0.737   0.951   0.731
 7410SOL    HW123129   0.779   0.922   0.645
 7410SOL    HW223130   0.644   0.914   0.737
 7411SOL     OW23131   1.751   0.362   6.619
 7411SOL    HW123132   1.827   0.371   6.684
 7411SOL    HW223133   1.725   0.266   6.612
 7412SOL     OW23134   3.734   6.139   1.212
 7412SOL    HW123135   3.830   6.148   1.186
 7412SOL    HW223136   3.692   6.229   1.220
 7413SOL     OW23137   4.655   4.772   3.971
 7413SOL    HW123138   4.683   4.726   4.055
 7413SOL    HW223139   4.563   4.740   3.945
 7414SOL     OW23140   2.166   1.535   3.929
 7414SOL    HW123141   2.230   1.480   3.875
 7414SOL    HW223142   2.179   1.631   3.907
 7415SOL     OW23143   2.455   5.001   5.546
 7415SOL    HW123144   2.541   5.052   5.542
 7415SOL    HW223145   2.474   4.903   5.541
 7416SOL     OW23146   2.004   1.057   2.402
 7416SOL    HW123147   1.958   1.053   2.491
 7416SOL    HW223148   2.103   1.053   2.415
 7417SOL     OW23149   1.724   1.878   2.248
 7417SOL    HW123150   1.775   1.798   2.279
 7417SOL    HW223151   1.772   1.961   2.276
 7418SOL     OW23152   1.886   4.961   6.671
 7418SOL    HW123153   1.820   5.025   6.712
 7418SOL    HW223154   1.843   4.915   6.593
 7419SOL     OW23155   6.448   3.982   3.710
 7419SOL    HW123156   6.536   3.962   3.666
 7419SOL    HW223157   6.462   3.993   3.809
 7420SOL     OW23158   6.793   5.908   1.162
 7420SOL    HW123159   6.869   5.972   1.157
 7420SOL    HW223160   6.828   5.815   1.148
 7421SOL     OW23161   4.144   3.610   1.397
 7421SOL    HW123162   4.061   3.555   1.410
 7421SOL    HW223163   4.120   3.707   1.397
 7422SOL     OW23164   6.486   3.661   2.186
 7422SOL    HW123165   6.542   3.633   2.264
 7422SOL    HW223166   6.508   3.756   2.163
 7423SOL     OW23167   6.099   3.031   5.632
 7423SOL    HW123168   6.013   3.080   5.646
 7423SOL    HW223169   6.157   3.043   5.712
 7424SOL     OW23170   0.117   1.903   5.238
 7424SOL    HW123171   0.150   1.895   5.332
 7424SOL    HW223172   0.033   1.850   5.227
 7425SOL     OW23173   5.347   0.023   0.278
 7425SOL    HW123174   5.327   7.023   0.184
 7425SOL    HW223175   5.443   0.049   0.286
 7426SOL     OW23176   3.345   1.905   5.653
 7426SOL    HW123177   3.307   1.837   5.591
 7426SOL    HW223178   3.294   1.991   5.643
 7427SOL     OW23179   3.822   0.956   3.814
 7427SOL    HW123180   3.856   1.023   3.748
 7427SOL    HW223181   3.844   0.987   3.907
 7428SOL     OW23182   4.228   0.697   5.309
 7428SOL    HW123183   4.244   0.642   5.391
 7428SOL    HW223184   4.176   0.644   5.242
 7429SOL     OW23185   0.998   6.378   3.239
 7429SOL    HW123186   0.984   6.465   3.285
 7429SOL    HW223187   1.076   6.330   3.281
 7430SOL     OW23188   6.458   4.111   1.520
 7430SOL    HW123189   6.513   4.143   1.443
 7430SOL    HW223190   6.514   4.109   1.603
 7431SOL     OW23191   1.681   2.017   3.522
 7431SOL    HW123192   1.742   1.945   3.491
 7431SOL    HW223193   1.602   2.023   3.461
 7432SOL     OW23194   2.259   0.346   3.054
 7432SOL    HW123195   2.184   0.381   3.111
 7432SOL    HW223196   2.319   0.422   3.029
 7433SOL     OW23197   3.675   6.566   6.613
 7433SOL    HW123198   3.601   6.633   6.612
 7433SOL    HW223199   3.761   6.612   6.633
 7434SOL     OW23200   4.384   5.825   5.214
 7434SOL    HW123201   4.456   5.845   5.281
 7434SOL    HW223202   4.421   5.834   5.122
 7435SOL     OW23203   4.191   6.069   1.824
 7435SOL    HW123204   4.283   6.036   1.845
 7435SOL    HW223205   4.149   6.009   1.756
 7436SOL     OW23206   4.305   4.609   6.241
 7436SOL    HW123207   4.288   4.651   6.152
 7436SOL    HW223208   4.265   4.517   6.243
 7437SOL     OW23209   3.117   5.813   1.421
 7437SOL    HW123210   3.182   5.737   1.422
 7437SOL    HW223211   3.154   5.889   1.475
 7438SOL     OW23212   2.115   0.275   0.162
 7438SOL    HW123213   2.126   0.179   0.137
 7438SOL    HW223214   2.068   0.280   0.251
 7439SOL     OW23215   1.788   5.934   5.059
 7439SOL    HW123216   1.714   5.983   5.105
 7439SOL    HW223217   1.859   5.999   5.032
 7440SOL     OW23218   6.031   3.420   3.864
 7440SOL    HW123219   5.954   3.450   3.920
 7440SOL    HW223220   6.117   3.444   3.911
 7441SOL     OW23221   6.061   6.965   3.641
 7441SOL    HW123222   6.149   6.994   3.602
 7441SOL    HW223223   6.066   6.868   3.665
 7442SOL     OW23224   5.994   1.030   6.440
 7442SOL    HW123225   5.935   1.096   6.486
 7442SOL    HW223226   5.969   1.024   6.344
 7443SOL     OW23227   6.838   5.243   2.103
 7443SOL    HW123228   6.878   5.301   2.175
 7443SOL    HW223229   6.746   5.276   2.080
 7444SOL     OW23230   6.477   1.416   6.241
 7444SOL    HW123231   6.503   1.332   6.289
 7444SOL    HW223232   6.421   1.473   6.301
 7445SOL     OW23233   3.666   0.369   1.112
 7445SOL    HW123234   3.726   0.435   1.158
 7445SOL    HW223235   3.682   0.278   1.149
 7446SOL     OW23236   5.291   2.119   0.387
 7446SOL    HW123237   5.204   2.157   0.357
 7446SOL    HW223238   5.359   2.128   0.315
 7447SOL     OW23239   6.499   4.621   6.218
 7447SOL    HW123240   6.584   4.671   6.231
 7447SOL    HW223241   6.508   4.560   6.139
 7448SOL     OW23242   5.090   6.467   5.078
 7448SOL    HW123243   5.091   6.547   5.139
 7448SOL    HW223244   5.180   6.455   5.036
 7449SOL     OW23245   0.430   5.700   0.295
 7449SOL    HW123246   0.524   5.726   0.319
 7449SOL    HW223247   0.433   5.623   0.231
 7450SOL     OW23248   5.169   2.504   5.435
 7450SOL    HW123249   5.101   2.446   5.480
 7450SOL    HW223250   5.218   2.449   5.367
 7451SOL     OW23251   5.236   5.558   2.640
 7451SOL    HW123252   5.326   5.517   2.652
 7451SOL    HW223253   5.168   5.486   2.624
 7452SOL     OW23254   6.607   5.707   4.411
 7452SOL    HW123255   6.656   5.783   4.455
 7452SOL    HW223256   6.571   5.646   4.482
 7453SOL     OW23257   4.358   5.386   5.838
 7453SOL    HW123258   4.375   5.358   5.744
 7453SOL    HW223259   4.419   5.336   5.900
 7454SOL     OW23260   2.570   1.328   0.784
 7454SOL    HW123261   2.670   1.330   0.784
 7454SOL    HW223262   2.538   1.233   0.783
 7455SOL     OW23263   6.337   3.300   2.218
 7455SOL    HW123264   6.265   3.359   2.181
 7455SOL    HW223265   6.420   3.354   2.231
 7456SOL     OW23266   2.886   1.711   5.030
 7456SOL    HW123267   2.884   1.734   4.932
 7456SOL    HW223268   2.885   1.795   5.084
 7457SOL     OW23269   3.182   0.418   3.971
 7457SOL    HW123270   3.243   0.491   3.940
 7457SOL    HW223271   3.107   0.457   4.024
 7458SOL     OW23272   1.410   0.445   6.045
 7458SOL    HW123273   1.364   0.384   5.980
 7458SOL    HW223274   1.345   0.515   6.076
 7459SOL     OW23275   6.492   1.239   2.203
 7459SOL    HW123276   6.497   1.175   2.280
 7459SOL    HW223277   6.579   1.237   2.153
 7460SOL     OW23278   1.388   5.928   6.797
 7460SOL    HW123279   1.434   5.840   6.804
 7460SOL    HW223280   1.456   6.000   6.778
 7461SOL     OW23281   6.100   5.949   5.909
 7461SOL    HW123282   6.025   5.883   5.904
 7461SOL    HW223283   6.068   6.039   5.878
 7462SOL     OW23284   2.052   4.988   1.841
 7462SOL    HW123285   1.966   4.980   1.790
 7462SOL    HW223286   2.112   5.052   1.793
 7463SOL     OW23287   3.479   3.836   0.560
 7463SOL    HW123288   3.432   3.924   0.553
 7463SOL    HW223289   3.578   3.851   0.557
 7464SOL     OW23290   6.486   6.764   5.238
 7464SOL    HW123291   6.437   6.801   5.317
 7464SOL    HW223292   6.498   6.666   5.249
 7465SOL     OW23293   2.880   5.064   0.260
 7465SOL    HW123294   2.823   5.144   0.241
 7465SOL    HW223295   2.845   4.986   0.208
 7466SOL     OW23296   0.580   0.657   6.315
 7466SOL    HW123297   0.506   0.691   6.373
 7466SOL    HW223298   0.668   0.685   6.353
 7467SOL     OW23299   0.452   2.311   6.369
 7467SOL    HW123300   0.514   2.243   6.410
 7467SOL    HW223301   0.452   2.300   6.269
 7468SOL     OW23302   5.030   2.721   4.150
 7468SOL    HW123303   5.006   2.716   4.053
 7468SOL    HW223304   5.058   2.814   4.173
 7469SOL     OW23305   6.612   1.896   0.396
 7469SOL    HW123306   6.651   1.986   0.413
 7469SOL    HW223307   6.683   1.836   0.357
 7470SOL     OW23308   5.559   4.101   3.466
 7470SOL    HW123309   5.574   4.042   3.546
 7470SOL    HW223310   5.619   4.180   3.472
 7471SOL     OW23311   4.990   5.877   5.529
 7471SOL    HW123312   5.015   5.912   5.439
 7471SOL    HW223313   5.033   5.933   5.600
 7472SOL     OW23314   6.036   0.775   5.343
 7472SOL    HW123315   6.050   0.794   5.246
 7472SOL    HW223316   6.110   0.815   5.396
 7473SOL     OW23317   5.825   6.283   3.640
 7473SOL    HW123318   5.924   6.285   3.626
 7473SOL    HW223319   5.781   6.342   3.573
 7474SOL     OW23320   6.651   2.705   6.683
 7474SOL    HW123321   6.582   2.775   6.704
 7474SOL    HW223322   6.727   2.748   6.633
 7475SOL     OW23323   4.409   2.408   2.005
 7475SOL    HW123324   4.336   2.361   2.055
 7475SOL    HW223325   4.472   2.451   2.070
 7476SOL     OW23326   2.089   2.077   3.113
 7476SOL    HW123327   2.048   2.005   3.057
 7476SOL    HW223328   2.056   2.167   3.081
 7477SOL     OW23329   0.366   3.228   5.410
 7477SOL    HW123330   0.297   3.157   5.394
 7477SOL    HW223331   0.443   3.214   5.348
 7478SOL     OW23332   5.650   3.667   5.281
 7478SOL    HW123333   5.675   3.672   5.185
 7478SOL    HW223334   5.551   3.654   5.290
 7479SOL     OW23335   5.217   2.939   0.591
 7479SOL    HW123336   5.142   2.988   0.633
 7479SOL    HW223337   5.202   2.933   0.492
 7480SOL     OW23338   2.086   4.802   2.314
 7480SOL    HW123339   1.989   4.791   2.294
 7480SOL    HW223340   2.123   4.715   2.347
 7481SOL     OW23341   6.332   4.750   6.747
 7481SOL    HW123342   6.253   4.793   6.703
 7481SOL    HW223343   6.375   4.687   6.682
 7482SOL     OW23344   4.183   2.277   2.387
 7482SOL    HW123345   4.272   2.283   2.343
 7482SOL    HW223346   4.162   2.364   2.431
 7483SOL     OW23347   4.742   2.826   4.677
 7483SOL    HW123348   4.644   2.845   4.676
 7483SOL    HW223349   4.766   2.777   4.761
 7484SOL     OW23350   1.914   5.161   4.594
 7484SOL    HW123351   1.963   5.232   4.543
 7484SOL    HW223352   1.970   5.078   4.598
 7485SOL     OW23353   2.987   6.906   3.862
 7485SOL    HW123354   2.962   6.862   3.776
 7485SOL    HW223355   3.005   7.003   3.846
 7486SOL     OW23356   0.633   6.143   0.124
 7486SOL    HW123357   0.701   6.154   0.051
 7486SOL    HW223358   0.590   6.053   0.116
 7487SOL     OW23359   3.990   0.831   3.268
 7487SOL    HW123360   4.012   0.778   3.187
 7487SOL    HW223361   4.074   0.857   3.315
 7488SOL     OW23362   1.942   6.065   4.785
 7488SOL    HW123363   1.959   6.141   4.723
 7488SOL    HW223364   2.028   6.019   4.807
 7489SOL     OW23365   6.580   3.358   0.132
 7489SOL    HW123366   6.672   3.322   0.149
 7489SOL    HW223367   6.519   3.283   0.107
 7490SOL     OW23368   1.765   1.467   2.453
 7490SOL    HW123369   1.712   1.549   2.432
 7490SOL    HW223370   1.753   1.443   2.549
 7491SOL     OW23371   5.117   2.975   0.104
 7491SOL    HW123372   5.168   3.005   0.185
 7491SOL    HW223373   5.100   2.877   0.111
 7492SOL     OW23374   2.218   1.173   4.228
 7492SOL    HW123375   2.181   1.255   4.271
 7492SOL    HW223376   2.308   1.193   4.189
 7493SOL     OW23377   6.693   3.239   5.253
 7493SOL    HW123378   6.693   3.246   5.353
 7493SOL    HW223379   6.606   3.275   5.217
 7494SOL     OW23380   5.731   1.115   4.179
 7494SOL    HW123381   5.642   1.093   4.220
 7494SOL    HW223382   5.728   1.207   4.141
 7495SOL     OW23383   1.426   2.575   5.023
 7495SOL    HW123384   1.524   2.562   5.041
 7495SOL    HW223385   1.390   2.496   4.975
 7496SOL     OW23386   5.396   3.454   4.271
 7496SOL    HW123387   5.464   3.381   4.279
 7496SOL    HW223388   5.318   3.432   4.330
 7497SOL     OW23389   1.747   6.109   1.488
 7497SOL    HW123390   1.753   6.153   1.398
 7497SOL    HW223391   1.759   6.011   1.478
 7498SOL     OW23392   2.234   0.887   3.893
 7498SOL    HW123393   2.226   0.870   3.991
 7498SOL    HW223394   2.143   0.884   3.851
 7499SOL     OW23395   4.368   1.990   3.458
 7499SOL    HW123396   4.330   1.983   3.365
 7499SOL    HW223397   4.381   2.087   3.481
 7500SOL     OW23398   3.445   5.653   3.404
 7500SOL    HW123399   3.468   5.560   3.376
 7500SOL    HW223400   3.345   5.662   3.412
 7501SOL     OW23401   5.710   3.797   3.921
 7501SOL    HW123402   5.620   3.832   3.949
 7501SOL    HW223403   5.773   3.802   3.998
 7502SOL     OW23404   3.511   7.011   4.020
 7502SOL    HW123405   3.599   6.964   4.029
 7502SOL    HW223406   3.518   0.058   3.952
 7503SOL     OW23407   1.968   5.999   0.520
 7503SOL    HW123408   1.951   6.039   0.430
 7503SOL    HW223409   1.931   5.906   0.522
 7504SOL     OW23410   0.252   6.241   2.143
 7504SOL    HW123411   0.192   6.161   2.133
 7504SOL    HW223412   0.215   6.317   2.090
 7505SOL     OW23413   1.194   1.589   5.975
 7505SOL    HW123414   1.285   1.581   6.015
 7505SOL    HW223415   1.168   1.501   5.934
 7506SOL     OW23416   4.123   2.209   3.407
 7506SOL    HW123417   4.088   2.252   3.324
 7506SOL    HW223418   4.198   2.265   3.444
 7507SOL     OW23419   6.458   3.005   4.114
 7507SOL    HW123420   6.478   3.015   4.016
 7507SOL    HW223421   6.422   2.914   4.132
 7508SOL     OW23422   1.897   5.227   0.527
 7508SOL    HW123423   1.845   5.191   0.450
 7508SOL    HW223424   1.964   5.293   0.493
 7509SOL     OW23425   5.899   3.232   0.663
 7509SOL    HW123426   5.887   3.176   0.581
 7509SOL    HW223427   5.994   3.262   0.669
 7510SOL     OW23428   3.995   3.699   3.885
 7510SOL    HW123429   4.016   3.619   3.828
 7510SOL    HW223430   3.910   3.683   3.935
 7511SOL     OW23431   2.878   5.796   3.664
 7511SOL    HW123432   2.913   5.805   3.757
 7511SOL    HW223433   2.809   5.723   3.662
 7512SOL     OW23434   2.916   0.791   6.814
 7512SOL    HW123435   2.866   0.792   6.900
 7512SOL    HW223436   2.966   0.704   6.806
 7513SOL     OW23437   2.342   2.197   3.425
 7513SOL    HW123438   2.250   2.222   3.454
 7513SOL    HW223439   2.338   2.118   3.363
 7514SOL     OW23440   1.839   5.120   3.805
 7514SOL    HW123441   1.751   5.091   3.845
 7514SOL    HW223442   1.822   5.179   3.726
 7515SOL     OW23443   6.703   4.423   4.838
 7515SOL    HW123444   6.643   4.360   4.788
 7515SOL    HW223445   6.795   4.385   4.842
 7516SOL     OW23446   0.878   5.437   5.979
 7516SOL    HW123447   0.844   5.525   6.012
 7516SOL    HW223448   0.855   5.426   5.882
 7517SOL     OW23449   1.423   2.353   0.009
 7517SOL    HW123450   1.455   2.319   6.946
 7517SOL    HW223451   1.458   2.294   0.082
 7518SOL     OW23452   4.933   3.210   3.687
 7518SOL    HW123453   4.907   3.114   3.685
 7518SOL    HW223454   4.919   3.250   3.596
 7519SOL     OW23455   5.547   6.950   3.941
 7519SOL    HW123456   5.615   6.882   3.915
 7519SOL    HW223457   5.566   0.011   3.894
 7520SOL     OW23458   1.395   1.328   2.359
 7520SOL    HW123459   1.387   1.406   2.421
 7520SOL    HW223460   1.478   1.337   2.304
 7521SOL     OW23461   4.532   2.049   4.735
 7521SOL    HW123462   4.607   2.112   4.716
 7521SOL    HW223463   4.568   1.960   4.763
 7522SOL     OW23464   1.566   0.378   5.149
 7522SOL    HW123465   1.544   0.474   5.168
 7522SOL    HW223466   1.628   0.373   5.070
 7523SOL     OW23467   5.063   0.833   5.959
 7523SOL    HW123468   5.121   0.820   5.879
 7523SOL    HW223469   5.120   0.854   6.039
 7524SOL     OW23470   6.937   3.164   5.001
 7524SOL    HW123471   0.007   3.134   4.994
 7524SOL    HW223472   6.928   3.230   5.075
 7525SOL     OW23473   4.184   6.620   6.636
 7525SOL    HW123474   4.210   6.674   6.556
 7525SOL    HW223475   4.204   6.524   6.620
 7526SOL     OW23476   2.632   2.659   1.507
 7526SOL    HW123477   2.657   2.603   1.585
 7526SOL    HW223478   2.539   2.636   1.477
 7527SOL     OW23479   3.439   5.421   3.965
 7527SOL    HW123480   3.460   5.489   4.036
 7527SOL    HW223481   3.520   5.408   3.908
 7528SOL     OW23482   5.580   2.256   6.745
 7528SOL    HW123483   5.659   2.298   6.701
 7528SOL    HW223484   5.603   2.234   6.840
 7529SOL     OW23485   5.054   1.908   3.856
 7529SOL    HW123486   5.089   1.976   3.920
 7529SOL    HW223487   4.995   1.844   3.906
 7530SOL     OW23488   6.461   1.532   2.091
 7530SOL    HW123489   6.421   1.447   2.127
 7530SOL    HW223490   6.396   1.607   2.105
 7531SOL     OW23491   4.979   3.113   3.181
 7531SOL    HW123492   4.924   3.143   3.103
 7531SOL    HW223493   5.070   3.086   3.149
 7532SOL     OW23494   5.086   6.282   5.947
 7532SOL    HW123495   5.148   6.204   5.957
 7532SOL    HW223496   5.009   6.255   5.890
 7533SOL     OW23497   4.622   2.619   1.590
 7533SOL    HW123498   4.688   2.615   1.515
 7533SOL    HW223499   4.532   2.644   1.553
 7534SOL     OW23500   4.437   5.647   4.615
 7534SOL    HW123501   4.409   5.624   4.523
 7534SOL    HW223502   4.387   5.728   4.646
 7535SOL     OW23503   1.614   6.393   4.712
 7535SOL    HW123504   1.649   6.369   4.803
 7535SOL    HW223505   1.541   6.329   4.687
 7536SOL     OW23506   5.678   6.111   3.905
 7536SOL    HW123507   5.655   6.016   3.925
 7536SOL    HW223508   5.623   6.144   3.828
 7537SOL     OW23509   1.855   5.000   2.198
 7537SOL    HW123510   1.925   5.035   2.135
 7537SOL    HW223511   1.796   4.936   2.149
 7538SOL     OW23512   1.614   2.683   1.691
 7538SOL    HW123513   1.623   2.630   1.776
 7538SOL    HW223514   1.675   2.763   1.696
 7539SOL     OW23515   1.369   5.126   3.282
 7539SOL    HW123516   1.271   5.109   3.295
 7539SOL    HW223517   1.415   5.039   3.264
 7540SOL     OW23518   4.505   6.106   4.439
 7540SOL    HW123519   4.487   6.202   4.421
 7540SOL    HW223520   4.601   6.095   4.465
 7541SOL     OW23521   0.532   4.558   6.118
 7541SOL    HW123522   0.577   4.645   6.098
 7541SOL    HW223523   0.510   4.553   6.216
 7542SOL     OW23524   6.828   5.835   5.643
 7542SOL    HW123525   6.729   5.836   5.658
 7542SOL    HW223526   6.866   5.924   5.670
 7543SOL     OW23527   2.987   0.466   4.917
 7543SOL    HW123528   3.014   0.380   4.873
 7543SOL    HW223529   2.947   0.528   4.850
 7544SOL     OW23530   0.610   2.695   4.595
 7544SOL    HW123531   0.591   2.687   4.497
 7544SOL    HW223532   0.524   2.706   4.645
 7545SOL     OW23533   0.414   6.379   5.827
 7545SOL    HW123534   0.353   6.301   5.845
 7545SOL    HW223535   0.473   6.359   5.749
 7546SOL     OW23536   5.045   2.374   1.452
 7546SOL    HW123537   5.079   2.468   1.449
 7546SOL    HW223538   5.020   2.344   1.360
 7547SOL     OW23539   4.610   0.405   0.850
 7547SOL    HW123540   4.631   0.312   0.819
 7547SOL    HW223541   4.666   0.428   0.929
 7548SOL     OW23542   4.331   2.502   6.940
 7548SOL    HW123543   4.234   2.501   6.916
 7548SOL    HW223544   4.356   2.593   6.974
 7549SOL     OW23545   3.525   2.602   6.740
 7549SOL    HW123546   3.480   2.535   6.799
 7549SOL    HW223547   3.462   2.630   6.668
 7550SOL     OW23548   1.992   4.294   3.582
 7550SOL    HW123549   2.012   4.368   3.647
 7550SOL    HW223550   1.900   4.260   3.598
 7551SOL     OW23551   5.584   2.967   5.289
 7551SOL    HW123552   5.576   2.975   5.189
 7551SOL    HW223553   5.587   2.871   5.315
 7552SOL     OW23554   1.445   6.088   4.430
 7552SOL    HW123555   1.500   6.172   4.432
 7552SOL    HW223556   1.466   6.036   4.347
 7553SOL     OW23557   5.619   6.384   5.565
 7553SOL    HW123558   5.535   6.405   5.614
 7553SOL    HW223559   5.667   6.309   5.611
 7554SOL     OW23560   5.016   0.763   0.544
 7554SOL    HW123561   4.996   0.687   0.482
 7554SOL    HW223562   5.113   0.786   0.538
 7555SOL     OW23563   3.206   5.983   6.278
 7555SOL    HW123564   3.224   5.889   6.306
 7555SOL    HW223565   3.150   6.029   6.347
 7556SOL     OW23566   1.553   1.663   0.697
 7556SOL    HW123567   1.538   1.761   0.699
 7556SOL    HW223568   1.466   1.615   0.706
 7557SOL     OW23569   4.252   0.215   6.974
 7557SOL    HW123570   4.329   0.201   6.913
 7557SOL    HW223571   4.280   0.272   0.026
 7558SOL     OW23572   1.644   2.954   3.355
 7558SOL    HW123573   1.590   2.938   3.438
 7558SOL    HW223574   1.659   3.053   3.344
 7559SOL     OW23575   3.851   2.325   5.366
 7559SOL    HW123576   3.837   2.346   5.270
 7559SOL    HW223577   3.874   2.408   5.416
 7560SOL     OW23578   6.418   0.162   6.995
 7560SOL    HW123579   6.378   0.149   0.060
 7560SOL    HW223580   6.378   0.242   6.951
 7561SOL     OW23581   5.991   3.436   5.438
 7561SOL    HW123582   5.999   3.419   5.340
 7561SOL    HW223583   5.949   3.525   5.453
 7562SOL     OW23584   1.071   4.605   4.861
 7562SOL    HW123585   1.115   4.607   4.950
 7562SOL    HW223586   1.139   4.583   4.791
 7563SOL     OW23587   2.470   5.840   2.682
 7563SOL    HW123588   2.525   5.774   2.733
 7563SOL    HW223589   2.385   5.858   2.732
 7564SOL     OW23590   3.539   0.703   4.875
 7564SOL    HW123591   3.608   0.697   4.803
 7564SOL    HW223592   3.449   0.679   4.838
 7565SOL     OW23593   6.058   4.578   5.687
 7565SOL    HW123594   6.065   4.618   5.778
 7565SOL    HW223595   6.147   4.540   5.660
 7566SOL     OW23596   5.269   4.859   2.381
 7566SOL    HW123597   5.274   4.761   2.401
 7566SOL    HW223598   5.359   4.900   2.394
 7567SOL     OW23599   1.182   1.222   4.674
 7567SOL    HW123600   1.160   1.319   4.659
 7567SOL    HW223601   1.109   1.166   4.635
 7568SOL     OW23602   5.565   5.385   1.888
 7568SOL    HW123603   5.577   5.358   1.984
 7568SOL    HW223604   5.653   5.412   1.850
 7569SOL     OW23605   4.321   4.224   6.787
 7569SOL    HW123606   4.251   4.213   6.717
 7569SOL    HW223607   4.375   4.140   6.795
 7570SOL     OW23608   0.044   2.656   4.058
 7570SOL    HW123609   0.010   2.739   4.015
 7570SOL    HW223610   0.032   2.662   4.157
 7571SOL     OW23611   5.209   3.748   3.115
 7571SOL    HW123612   5.239   3.793   3.031
 7571SOL    HW223613   5.254   3.659   3.123
 7572SOL     OW23614   5.281   6.599   2.926
 7572SOL    HW123615   5.203   6.603   2.988
 7572SOL    HW223616   5.355   6.656   2.961
 7573SOL     OW23617   5.952   0.618   5.713
 7573SOL    HW123618   5.961   0.678   5.792
 7573SOL    HW223619   5.892   0.542   5.737
 7574SOL     OW23620   5.626   1.704   4.554
 7574SOL    HW123621   5.543   1.713   4.499
 7574SOL    HW223622   5.691   1.645   4.506
 7575SOL     OW23623   6.184   6.369   0.292
 7575SOL    HW123624   6.091   6.378   0.256
 7575SOL    HW223625   6.231   6.457   0.286
 7576SOL     OW23626   5.500   2.572   0.160
 7576SOL    HW123627   5.583   2.563   0.105
 7576SOL    HW223628   5.441   2.493   0.145
 7577SOL     OW23629   6.979   6.358   6.981
 7577SOL    HW123630   6.975   6.453   6.950
 7577SOL    HW223631   0.041   6.341   0.001
 7578SOL     OW23632   1.420   5.284   2.301
 7578SOL    HW123633   1.344   5.272   2.237
 7578SOL    HW223634   1.458   5.194   2.324
 7579SOL     OW23635   6.669   1.613   1.215
 7579SOL    HW123636   6.644   1.586   1.122
 7579SOL    HW223637   6.691   1.710   1.218
 7580SOL     OW23638   1.494   4.884   3.277
 7580SOL    HW123639   1.457   4.803   3.322
 7580SOL    HW223640   1.553   4.857   3.201
 7581SOL     OW23641   0.727   1.175   1.149
 7581SOL    HW123642   0.746   1.081   1.120
 7581SOL    HW223643   0.764   1.189   1.241
 7582SOL     OW23644   4.035   1.435   3.692
 7582SOL    HW123645   3.937   1.445   3.675
 7582SOL    HW223646   4.085   1.504   3.638
 7583SOL     OW23647   5.301   3.917   2.932
 7583SOL    HW123648   5.362   3.985   2.974
 7583SOL    HW223649   5.345   3.879   2.850
 7584SOL     OW23650   1.196   6.635   2.651
 7584SOL    HW123651   1.261   6.693   2.700
 7584SOL    HW223652   1.203   6.541   2.685
 7585SOL     OW23653   0.862   2.361   6.824
 7585SOL    HW123654   0.780   2.316   6.859
 7585SOL    HW223655   0.935   2.293   6.814
 7586SOL     OW23656   1.904   0.127   2.349
 7586SOL    HW123657   1.879   0.141   2.445
 7586SOL    HW223658   1.880   0.208   2.296
 7587SOL     OW23659   2.984   1.375   0.566
 7587SOL    HW123660   3.082   1.353   0.567
 7587SOL    HW223661   2.942   1.344   0.651
 7588SOL     OW23662   1.514   2.560   3.996
 7588SOL    HW123663   1.540   2.503   3.918
 7588SOL    HW223664   1.526   2.509   4.081
 7589SOL     OW23665   6.929   1.186   3.176
 7589SOL    HW123666   6.993   1.124   3.222
 7589SOL    HW223667   6.970   1.219   3.091
 7590SOL     OW23668   6.575   1.458   6.826
 7590SOL    HW123669   6.531   1.548   6.827
 7590SOL    HW223670   6.518   1.394   6.774
 7591SOL     OW23671   4.736   3.084   6.387
 7591SOL    HW123672   4.795   3.007   6.362
 7591SOL    HW223673   4.642   3.065   6.359
 7592SOL     OW23674   6.467   4.888   4.729
 7592SOL    HW123675   6.388   4.950   4.730
 7592SOL    HW223676   6.440   4.800   4.767
 7593SOL     OW23677   6.964   2.748   6.230
 7593SOL    HW123678   6.898   2.691   6.181
 7593SOL    HW223679   6.915   2.807   6.295
 7594SOL     OW23680   0.884   4.323   1.865
 7594SOL    HW123681   0.939   4.405   1.879
 7594SOL    HW223682   0.895   4.291   1.771
 7595SOL     OW23683   6.444   3.805   6.392
 7595SOL    HW123684   6.511   3.798   6.318
 7595SOL    HW223685   6.352   3.798   6.354
 7596SOL     OW23686   3.251   6.970   5.269
 7596SOL    HW123687   3.152   6.984   5.265
 7596SOL    HW223688   3.296   0.034   5.281
 7597SOL     OW23689   1.934   6.440   2.914
 7597SOL    HW123690   1.930   6.423   3.012
 7597SOL    HW223691   2.029   6.452   2.885
 7598SOL     OW23692   6.195   0.659   3.124
 7598SOL    HW123693   6.136   0.681   3.202
 7598SOL    HW223694   6.214   0.742   3.072
 7599SOL     OW23695   5.193   3.060   1.122
 7599SOL    HW123696   5.182   3.094   1.215
 7599SOL    HW223697   5.161   2.966   1.116
 7600SOL     OW23698   1.450   1.067   3.774
 7600SOL    HW123699   1.532   1.026   3.734
 7600SOL    HW223700   1.438   1.032   3.868
 7601SOL     OW23701   3.012   5.076   2.351
 7601SOL    HW123702   2.962   5.070   2.264
 7601SOL    HW223703   3.053   5.166   2.359
 7602SOL     OW23704   0.454   2.841   0.315
 7602SOL    HW123705   0.354   2.842   0.303
 7602SOL    HW223706   0.490   2.932   0.295
 7603SOL     OW23707   2.272   6.749   5.913
 7603SOL    HW123708   2.268   6.675   5.846
 7603SOL    HW223709   2.262   6.837   5.866
 7604SOL     OW23710   1.723   1.850   5.070
 7604SOL    HW123711   1.674   1.936   5.055
 7604SOL    HW223712   1.780   1.830   4.990
 7605SOL     OW23713   0.837   0.537   0.535
 7605SOL    HW123714   0.891   0.588   0.468
 7605SOL    HW223715   0.826   0.591   0.618
 7606SOL     OW23716   5.863   2.915   5.066
 7606SOL    HW123717   5.927   2.982   5.102
 7606SOL    HW223718   5.771   2.954   5.064
 7607SOL     OW23719   3.897   5.630   0.703
 7607SOL    HW123720   3.855   5.639   0.612
 7607SOL    HW223721   3.848   5.561   0.756
 7608SOL     OW23722   5.383   2.331   6.283
 7608SOL    HW123723   5.356   2.425   6.303
 7608SOL    HW223724   5.423   2.326   6.191
 7609SOL     OW23725   0.555   3.734   3.918
 7609SOL    HW123726   0.470   3.760   3.965
 7609SOL    HW223727   0.599   3.660   3.968
 7610SOL     OW23728   3.598   4.843   6.124
 7610SOL    HW123729   3.681   4.834   6.179
 7610SOL    HW223730   3.554   4.754   6.114
 7611SOL     OW23731   5.239   3.617   1.430
 7611SOL    HW123732   5.276   3.599   1.522
 7611SOL    HW223733   5.162   3.680   1.437
 7612SOL     OW23734   4.173   2.142   3.024
 7612SOL    HW123735   4.087   2.193   3.028
 7612SOL    HW223736   4.236   2.188   2.961
 7613SOL     OW23737   0.800   2.099   2.035
 7613SOL    HW123738   0.882   2.105   2.091
 7613SOL    HW223739   0.723   2.068   2.091
 7614SOL     OW23740   5.077   3.225   0.907
 7614SOL    HW123741   5.118   3.158   0.968
 7614SOL    HW223742   5.058   3.309   0.957
 7615SOL     OW23743   5.332   4.041   5.680
 7615SOL    HW123744   5.352   4.134   5.708
 7615SOL    HW223745   5.354   4.030   5.583
 7616SOL     OW23746   6.354   0.488   3.239
 7616SOL    HW123747   6.423   0.447   3.180
 7616SOL    HW223748   6.300   0.555   3.187
 7617SOL     OW23749   5.347   5.079   3.135
 7617SOL    HW123750   5.374   5.160   3.084
 7617SOL    HW223751   5.281   5.106   3.206
 7618SOL     OW23752   1.545   2.200   0.203
 7618SOL    HW123753   1.591   2.255   0.272
 7618SOL    HW223754   1.607   2.129   0.169
 7619SOL     OW23755   0.155   2.998   4.266
 7619SOL    HW123756   0.123   2.951   4.348
 7619SOL    HW223757   0.219   3.070   4.291
 7620SOL     OW23758   3.608   4.354   0.408
 7620SOL    HW123759   3.517   4.332   0.444
 7620SOL    HW223760   3.638   4.280   0.347
 7621SOL     OW23761   0.345   6.266   0.925
 7621SOL    HW123762   0.289   6.215   0.859
 7621SOL    HW223763   0.293   6.343   0.960
 7622SOL     OW23764   4.475   4.535   0.178
 7622SOL    HW123765   4.530   4.467   0.129
 7622SOL    HW223766   4.529   4.575   0.253
 7623SOL     OW23767   4.107   4.555   0.434
 7623SOL    HW123768   4.161   4.543   0.517
 7623SOL    HW223769   4.145   4.498   0.361
 7624SOL     OW23770   0.227   2.703   3.021
 7624SOL    HW123771   0.163   2.712   3.098
 7624SOL    HW223772   0.204   2.621   2.969
 7625SOL     OW23773   5.525   2.167   0.209
 7625SOL    HW123774   5.471   2.092   0.168
 7625SOL    HW223775   5.583   2.208   0.139
 7626SOL     OW23776   6.390   1.123   6.081
 7626SOL    HW123777   6.468   1.184   6.072
 7626SOL    HW223778   6.379   1.071   5.996
 7627SOL     OW23779   3.062   1.917   0.774
 7627SOL    HW123780   3.003   1.874   0.843
 7627SOL    HW223781   3.008   1.942   0.694
 7628SOL     OW23782   4.022   2.976   1.104
 7628SOL    HW123783   4.076   2.893   1.087
 7628SOL    HW223784   4.048   3.014   1.193
 7629SOL     OW23785   6.280   4.011   4.018
 7629SOL    HW123786   6.233   3.923   4.013
 7629SOL    HW223787   6.373   3.998   4.053
 7630SOL     OW23788   1.309   0.352   5.595
 7630SOL    HW123789   1.344   0.440   5.628
 7630SOL    HW223790   1.364   0.322   5.517
 7631SOL     OW23791   1.464   0.572   5.667
 7631SOL    HW123792   1.412   0.646   5.624
 7631SOL    HW223793   1.554   0.565   5.624
 7632SOL     OW23794   4.481   4.863   1.029
 7632SOL    HW123795   4.417   4.787   1.040
 7632SOL    HW223796   4.526   4.883   1.116
 7633SOL     OW23797   6.101   0.499   1.464
 7633SOL    HW123798   6.143   0.413   1.494
 7633SOL    HW223799   6.002   0.493   1.478
 7634SOL     OW23800   1.115   1.185   1.649
 7634SOL    HW123801   1.089   1.277   1.620
 7634SOL    HW223802   1.077   1.167   1.740
 7635SOL     OW23803   2.548   5.082   4.638
 7635SOL    HW123804   2.552   5.168   4.588
 7635SOL    HW223805   2.458   5.072   4.680
 7636SOL     OW23806   0.403   4.191   4.067
 7636SOL    HW123807   0.413   4.272   4.125
 7636SOL    HW223808   0.425   4.215   3.972
 7637SOL     OW23809   0.741   6.318   3.389
 7637SOL    HW123810   0.696   6.236   3.355
 7637SOL    HW223811   0.832   6.326   3.349
 7638SOL     OW23812   1.229   5.281   1.413
 7638SOL    HW123813   1.172   5.362   1.418
 7638SOL    HW223814   1.316   5.304   1.369
 7639SOL     OW23815   0.169   0.757   0.290
 7639SOL    HW123816   0.110   0.808   0.227
 7639SOL    HW223817   0.114   0.724   0.367
 7640SOL     OW23818   3.226   2.106   6.897
 7640SOL    HW123819   3.223   2.205   6.911
 7640SOL    HW223820   3.294   2.066   6.959
 7641SOL     OW23821   0.310   3.965   2.760
 7641SOL    HW123822   0.386   4.017   2.721
 7641SOL    HW223823   0.225   3.990   2.714
 7642SOL     OW23824   6.145   1.109   2.516
 7642SOL    HW123825   6.088   1.101   2.599
 7642SOL    HW223826   6.086   1.111   2.436
 7643SOL     OW23827   5.293   1.764   2.947
 7643SOL    HW123828   5.303   1.774   2.848
 7643SOL    HW223829   5.210   1.811   2.977
 7644SOL     OW23830   4.899   3.010   2.228
 7644SOL    HW123831   4.997   2.996   2.215
 7644SOL    HW223832   4.851   2.997   2.141
 7645SOL     OW23833   4.234   3.303   5.184
 7645SOL    HW123834   4.177   3.264   5.111
 7645SOL    HW223835   4.224   3.402   5.185
 7646SOL     OW23836   0.601   3.083   3.091
 7646SOL    HW123837   0.670   3.062   3.022
 7646SOL    HW223838   0.546   3.001   3.109
 7647SOL     OW23839   0.832   2.863   4.586
 7647SOL    HW123840   0.915   2.824   4.546
 7647SOL    HW223841   0.757   2.798   4.578
 7648SOL     OW23842   2.380   1.437   2.175
 7648SOL    HW123843   2.300   1.451   2.117
 7648SOL    HW223844   2.463   1.442   2.119
 7649SOL     OW23845   1.111   1.492   4.645
 7649SOL    HW123846   1.070   1.583   4.638
 7649SOL    HW223847   1.192   1.487   4.587
 7650SOL     OW23848   5.203   1.176   0.990
 7650SOL    HW123849   5.211   1.197   1.087
 7650SOL    HW223850   5.135   1.237   0.948
 7651SOL     OW23851   2.171   5.046   4.469
 7651SOL    HW123852   2.211   5.052   4.561
 7651SOL    HW223853   2.243   5.024   4.403
 7652SOL     OW23854   5.973   2.658   5.168
 7652SOL    HW123855   5.940   2.600   5.242
 7652SOL    HW223856   5.924   2.745   5.167
 7653SOL     OW23857   1.343   1.591   0.323
 7653SOL    HW123858   1.312   1.656   0.253
 7653SOL    HW223859   1.427   1.546   0.292
 7654SOL     OW23860   5.621   2.990   4.974
 7654SOL    HW123861   5.571   2.926   4.916
 7654SOL    HW223862   5.647   3.070   4.922
 7655SOL     OW23863   3.446   0.269   3.599
 7655SOL    HW123864   3.445   0.249   3.501
 7655SOL    HW223865   3.357   0.305   3.627
 7656SOL     OW23866   6.075   3.134   6.025
 7656SOL    HW123867   6.040   3.049   5.986
 7656SOL    HW223868   6.021   3.211   5.993
 7657SOL     OW23869   1.839   3.277   4.226
 7657SOL    HW123870   1.800   3.228   4.148
 7657SOL    HW223871   1.927   3.237   4.250
 7658SOL     OW23872   3.020   0.313   0.982
 7658SOL    HW123873   3.118   0.297   0.987
 7658SOL    HW223874   2.975   0.234   0.938
 7659SOL     OW23875   4.728   4.177   6.481
 7659SOL    HW123876   4.784   4.169   6.399
 7659SOL    HW223877   4.671   4.260   6.475
 7660SOL     OW23878   6.551   5.497   4.891
 7660SOL    HW123879   6.550   5.405   4.852
 7660SOL    HW223880   6.643   5.535   4.884
 7661SOL     OW23881   4.415   2.415   6.090
 7661SOL    HW123882   4.398   2.334   6.034
 7661SOL    HW223883   4.382   2.496   6.043
 7662SOL     OW23884   0.718   2.260   2.966
 7662SOL    HW123885   0.754   2.354   2.963
 7662SOL    HW223886   0.682   2.241   3.057
 7663SOL     OW23887   5.132   5.959   6.357
 7663SOL    HW123888   5.230   5.943   6.373
 7663SOL    HW223889   5.106   5.919   6.269
 7664SOL     OW23890   4.187   1.247   3.162
 7664SOL    HW123891   4.090   1.235   3.181
 7664SOL    HW223892   4.236   1.164   3.187
 7665SOL     OW23893   5.759   1.990   3.963
 7665SOL    HW123894   5.815   1.912   3.989
 7665SOL    HW223895   5.785   2.020   3.871
 7666SOL     OW23896   6.324   5.779   4.444
 7666SOL    HW123897   6.414   5.736   4.458
 7666SOL    HW223898   6.336   5.878   4.440
 7667SOL     OW23899   4.504   0.391   2.141
 7667SOL    HW123900   4.478   0.322   2.209
 7667SOL    HW223901   4.438   0.467   2.144
 7668SOL     OW23902   2.863   4.810   0.877
 7668SOL    HW123903   2.786   4.830   0.815
 7668SOL    HW223904   2.867   4.712   0.894
 7669SOL     OW23905   4.234   0.942   5.989
 7669SOL    HW123906   4.270   1.029   5.956
 7669SOL    HW223907   4.306   0.893   6.039
 7670SOL     OW23908   1.002   6.673   0.581
 7670SOL    HW123909   1.022   6.626   0.668
 7670SOL    HW223910   1.087   6.691   0.532
 7671SOL     OW23911   5.601   0.068   2.724
 7671SOL    HW123912   5.542   0.137   2.767
 7671SOL    HW223913   5.577   0.059   2.628
 7672SOL     OW23914   6.969   4.931   3.036
 7672SOL    HW123915   0.030   4.972   3.009
 7672SOL    HW223916   6.985   4.864   3.109
 7673SOL     OW23917   1.394   6.084   2.339
 7673SOL    HW123918   1.310   6.138   2.332
 7673SOL    HW223919   1.471   6.137   2.303
 7674SOL     OW23920   4.173   0.620   3.808
 7674SOL    HW123921   4.198   0.715   3.786
 7674SOL    HW223922   4.078   0.604   3.784
 7675SOL     OW23923   3.931   6.402   3.514
 7675SOL    HW123924   3.967   6.456   3.590
 7675SOL    HW223925   3.971   6.434   3.428
 7676SOL     OW23926   2.885   2.149   5.750
 7676SOL    HW123927   2.897   2.107   5.660
 7676SOL    HW223928   2.797   2.196   5.753
 7677SOL     OW23929   0.178   4.647   1.493
 7677SOL    HW123930   0.271   4.675   1.515
 7677SOL    HW223931   0.169   4.634   1.394
 7678SOL     OW23932   1.706   2.267   5.280
 7678SOL    HW123933   1.617   2.274   5.324
 7678SOL    HW223934   1.773   2.232   5.346
 7679SOL     OW23935   2.141   5.359   5.364
 7679SOL    HW123936   2.082   5.422   5.314
 7679SOL    HW223937   2.228   5.348   5.314
 7680SOL     OW23938   1.609   0.517   5.871
 7680SOL    HW123939   1.550   0.501   5.950
 7680SOL    HW223940   1.552   0.538   5.791
 7681SOL     OW23941   2.887   1.940   6.463
 7681SOL    HW123942   2.831   1.864   6.496
 7681SOL    HW223943   2.979   1.907   6.442
 7682SOL     OW23944   3.526   1.560   2.716
 7682SOL    HW123945   3.522   1.505   2.800
 7682SOL    HW223946   3.610   1.613   2.716
 7683SOL     OW23947   0.845   1.540   4.494
 7683SOL    HW123948   0.876   1.450   4.526
 7683SOL    HW223949   0.841   1.540   4.394
 7684SOL     OW23950   4.330   2.096   1.888
 7684SOL    HW123951   4.319   1.997   1.886
 7684SOL    HW223952   4.308   2.130   1.979
 7685SOL     OW23953   3.846   1.657   6.905
 7685SOL    HW123954   3.878   1.562   6.914
 7685SOL    HW223955   3.868   1.707   6.989
 7686SOL     OW23956   5.318   6.940   3.692
 7686SOL    HW123957   5.242   6.991   3.732
 7686SOL    HW223958   5.367   6.890   3.763
 7687SOL     OW23959   4.898   5.248   4.554
 7687SOL    HW123960   4.944   5.194   4.625
 7687SOL    HW223961   4.919   5.345   4.568
 7688SOL     OW23962   6.992   5.552   5.391
 7688SOL    HW123963   6.971   5.597   5.304
 7688SOL    HW223964   0.047   5.593   5.432
 7689SOL     OW23965   4.622   0.057   1.796
 7689SOL    HW123966   4.685   7.005   1.808
 7689SOL    HW223967   4.656   0.135   1.847
 7690SOL     OW23968   5.653   5.115   0.083
 7690SOL    HW123969   5.669   5.206   0.119
 7690SOL    HW223970   5.586   5.119   0.009
 7691SOL     OW23971   4.665   4.675   2.092
 7691SOL    HW123972   4.654   4.607   2.164
 7691SOL    HW223973   4.693   4.630   2.007
 7692SOL     OW23974   0.958   6.013   1.290
 7692SOL    HW123975   1.016   6.048   1.364
 7692SOL    HW223976   0.876   6.070   1.284
 7693SOL     OW23977   3.058   0.811   1.328
 7693SOL    HW123978   3.020   0.835   1.238
 7693SOL    HW223979   3.058   0.711   1.338
 7694SOL     OW23980   5.504   2.726   4.423
 7694SOL    HW123981   5.470   2.675   4.344
 7694SOL    HW223982   5.494   2.671   4.506
 7695SOL     OW23983   5.406   0.569   1.922
 7695SOL    HW123984   5.340   0.630   1.967
 7695SOL    HW223985   5.360   0.484   1.897
 7696SOL     OW23986   0.560   1.709   5.938
 7696SOL    HW123987   0.601   1.717   5.847
 7696SOL    HW223988   0.581   1.620   5.977
 7697SOL     OW23989   3.291   0.475   2.412
 7697SOL    HW123990   3.343   0.425   2.482
 7697SOL    HW223991   3.193   0.468   2.433
 7698SOL     OW23992   6.386   2.506   6.127
 7698SOL    HW123993   6.424   2.591   6.162
 7698SOL    HW223994   6.412   2.431   6.188
 7699SOL     OW23995   2.110   5.300   6.750
 7699SOL    HW123996   2.209   5.309   6.752
 7699SOL    HW223997   2.084   5.241   6.673
 7700SOL     OW23998   4.304   6.360   3.102
 7700SOL    HW123999   4.301   6.353   3.002
 7700SOL    HW224000   4.341   6.276   3.140
 7701SOL     OW24001   0.035   1.433   6.095
 7701SOL    HW124002   7.000   1.482   6.158
 7701SOL    HW224003   0.117   1.488   6.078
 7702SOL     OW24004   4.163   6.643   5.687
 7702SOL    HW124005   4.250   6.605   5.718
 7702SOL    HW224006   4.087   6.592   5.728
 7703SOL     OW24007   6.572   0.141   5.200
 7703SOL    HW124008   6.535   0.075   5.133
 7703SOL    HW224009   6.658   0.178   5.165
 7704SOL     OW24010   6.284   1.960   3.980
 7704SOL    HW124011   6.245   1.977   4.070
 7704SOL    HW224012   6.383   1.949   3.988
 7705SOL     OW24013   2.497   4.884   0.815
 7705SOL    HW124014   2.441   4.800   0.815
 7705SOL    HW224015   2.544   4.892   0.728
 7706SOL     OW24016   3.318   2.980   2.892
 7706SOL    HW124017   3.333   3.073   2.926
 7706SOL    HW224018   3.261   2.983   2.810
 7707SOL     OW24019   0.157   5.108   6.283
 7707SOL    HW124020   0.110   5.031   6.327
 7707SOL    HW224021   0.117   5.194   6.313
 7708SOL     OW24022   1.063   6.867   3.946
 7708SOL    HW124023   1.060   6.869   3.846
 7708SOL    HW224024   1.142   6.918   3.978
 7709SOL     OW24025   6.192   5.471   1.232
 7709SOL    HW124026   6.169   5.460   1.135
 7709SOL    HW224027   6.152   5.397   1.284
 7710SOL     OW24028   2.116   2.486   0.877
 7710SOL    HW124029   2.167   2.517   0.957
 7710SOL    HW224030   2.149   2.396   0.848
 7711SOL     OW24031   6.734   6.038   5.911
 7711SOL    HW124032   6.732   5.975   5.988
 7711SOL    HW224033   6.812   6.017   5.852
 7712SOL     OW24034   6.414   4.630   6.503
 7712SOL    HW124035   6.331   4.577   6.517
 7712SOL    HW224036   6.395   4.707   6.442
 7713SOL     OW24037   1.849   4.180   0.479
 7713SOL    HW124038   1.776   4.240   0.446
 7713SOL    HW224039   1.810   4.112   0.542
 7714SOL     OW24040   0.033   6.793   5.100
 7714SOL    HW124041   0.006   6.864   5.165
 7714SOL    HW224042   0.067   6.835   5.016
 7715SOL     OW24043   2.892   2.163   6.306
 7715SOL    HW124044   2.858   2.072   6.331
 7715SOL    HW224045   2.992   2.162   6.305
 7716SOL     OW24046   0.043   4.892   6.393
 7716SOL    HW124047   0.032   4.856   6.486
 7716SOL    HW224048   0.101   4.830   6.340
 7717SOL     OW24049   1.447   1.715   5.165
 7717SOL    HW124050   1.524   1.659   5.134
 7717SOL    HW224051   1.481   1.795   5.213
 7718SOL     OW24052   0.333   3.557   3.090
 7718SOL    HW124053   0.350   3.458   3.081
 7718SOL    HW224054   0.355   3.602   3.004
 7719SOL     OW24055   1.615   4.058   4.525
 7719SOL    HW124056   1.655   3.989   4.585
 7719SOL    HW224057   1.610   4.146   4.574
 7720SOL     OW24058   6.161   2.306   6.387
 7720SOL    HW124059   6.237   2.268   6.438
 7720SOL    HW224060   6.154   2.404   6.405
 7721SOL     OW24061   1.109   0.629   2.548
 7721SOL    HW124062   1.174   0.604   2.620
 7721SOL    HW224063   1.128   0.723   2.518
 7722SOL     OW24064   1.882   5.496   4.225
 7722SOL    HW124065   1.968   5.535   4.192
 7722SOL    HW224066   1.855   5.420   4.167
 7723SOL     OW24067   4.993   3.219   6.329
 7723SOL    HW124068   4.899   3.194   6.349
 7723SOL    HW224069   5.028   3.278   6.402
 7724SOL     OW24070   3.369   4.100   0.547
 7724SOL    HW124071   3.363   4.159   0.467
 7724SOL    HW224072   3.411   4.150   0.623
 7725SOL     OW24073   5.869   2.555   2.682
 7725SOL    HW124074   5.800   2.594   2.742
 7725SOL    HW224075   5.910   2.475   2.726
 7726SOL     OW24076   1.237   3.189   5.903
 7726SOL    HW124077   1.281   3.103   5.877
 7726SOL    HW224078   1.176   3.219   5.829
 7727SOL     OW24079   6.152   2.673   1.742
 7727SOL    HW124080   6.214   2.639   1.812
 7727SOL    HW224081   6.097   2.598   1.707
 7728SOL     OW24082   2.251   2.589   5.552
 7728SOL    HW124083   2.268   2.542   5.466
 7728SOL    HW224084   2.167   2.554   5.594
 7729SOL     OW24085   6.296   1.963   1.882
 7729SOL    HW124086   6.371   1.898   1.872
 7729SOL    HW224087   6.211   1.923   1.848
 7730SOL     OW24088   5.727   4.773   5.116
 7730SOL    HW124089   5.799   4.705   5.106
 7730SOL    HW224090   5.657   4.758   5.046
 7731SOL     OW24091   6.003   0.089   0.732
 7731SOL    HW124092   6.048   0.176   0.752
 7731SOL    HW224093   5.930   0.104   0.666
 7732SOL     OW24094   3.938   0.552   0.235
 7732SOL    HW124095   3.887   0.632   0.204
 7732SOL    HW224096   3.989   0.575   0.318
 7733SOL     OW24097   5.889   5.644   2.442
 7733SOL    HW124098   5.841   5.633   2.529
 7733SOL    HW224099   5.903   5.742   2.425
 7734SOL     OW24100   2.481   4.462   5.173
 7734SOL    HW124101   2.499   4.544   5.119
 7734SOL    HW224102   2.566   4.433   5.218
 7735SOL     OW24103   6.495   5.619   7.021
 7735SOL    HW124104   6.519   5.677   6.943
 7735SOL    HW224105   6.550   5.536   7.019
 7736SOL     OW24106   2.798   3.104   0.643
 7736SOL    HW124107   2.731   3.040   0.680
 7736SOL    HW224108   2.874   3.114   0.707
 7737SOL     OW24109   3.538   4.902   1.672
 7737SOL    HW124110   3.578   4.830   1.730
 7737SOL    HW224111   3.440   4.884   1.660
 7738SOL     OW24112   2.045   6.016   6.962
 7738SOL    HW124113   2.091   6.083   6.904
 7738SOL    HW224114   2.001   5.947   6.905
 7739SOL     OW24115   1.024   1.974   2.130
 7739SOL    HW124116   1.071   2.033   2.065
 7739SOL    HW224117   1.089   1.938   2.196
 7740SOL     OW24118   1.880   1.121   2.655
 7740SOL    HW124119   1.814   1.196   2.655
 7740SOL    HW224120   1.944   1.133   2.730
 7741SOL     OW24121   1.658   4.491   5.345
 7741SOL    HW124122   1.697   4.400   5.335
 7741SOL    HW224123   1.593   4.509   5.270
 7742SOL     OW24124   3.713   1.257   3.907
 7742SOL    HW124125   3.622   1.216   3.912
 7742SOL    HW224126   3.743   1.258   3.812
 7743SOL     OW24127   4.855   1.257   6.779
 7743SOL    HW124128   4.829   1.290   6.870
 7743SOL    HW224129   4.773   1.226   6.730
 7744SOL     OW24130   0.670   5.912   4.100
 7744SOL    HW124131   0.664   5.813   4.100
 7744SOL    HW224132   0.673   5.945   4.005
 7745SOL     OW24133   2.207   6.537   0.471
 7745SOL    HW124134   2.301   6.547   0.437
 7745SOL    HW224135   2.207   6.544   0.570
 7746SOL     OW24136   1.569   6.288   0.849
 7746SOL    HW124137   1.536   6.355   0.783
 7746SOL    HW224138   1.646   6.238   0.811
 7747SOL     OW24139   0.161   6.172   0.722
 7747SOL    HW124140   0.132   6.261   0.759
 7747SOL    HW224141   0.172   6.180   0.623
 7748SOL     OW24142   3.598   2.969   5.118
 7748SOL    HW124143   3.550   2.890   5.155
 7748SOL    HW224144   3.618   2.954   5.021
 7749SOL     OW24145   3.195   4.038   3.261
 7749SOL    HW124146   3.224   4.040   3.166
 7749SOL    HW224147   3.123   3.969   3.273
 7750SOL     OW24148   5.279   5.430   5.624
 7750SOL    HW124149   5.251   5.511   5.677
 7750SOL    HW224150   5.287   5.455   5.527
 7751SOL     OW24151   0.263   1.406   3.645
 7751SOL    HW124152   0.215   1.494   3.643
 7751SOL    HW224153   0.251   1.364   3.735
 7752SOL     OW24154   5.640   5.445   5.563
 7752SOL    HW124155   5.587   5.362   5.547
 7752SOL    HW224156   5.714   5.425   5.627
 7753SOL     OW24157   2.618   0.550   4.827
 7753SOL    HW124158   2.610   0.564   4.925
 7753SOL    HW224159   2.706   0.586   4.795
 7754SOL     OW24160   5.380   0.454   1.289
 7754SOL    HW124161   5.305   0.518   1.276
 7754SOL    HW224162   5.429   0.443   1.202
 7755SOL     OW24163   0.710   6.830   5.301
 7755SOL    HW124164   0.658   6.753   5.264
 7755SOL    HW224165   0.658   6.872   5.376
 7756SOL     OW24166   2.117   5.636   2.554
 7756SOL    HW124167   2.060   5.561   2.519
 7756SOL    HW224168   2.074   5.723   2.530
 7757SOL     OW24169   4.557   5.862   4.855
 7757SOL    HW124170   4.590   5.768   4.861
 7757SOL    HW224171   4.584   5.902   4.768
 7758SOL     OW24172   1.809   2.472   6.669
 7758SOL    HW124173   1.877   2.458   6.741
 7758SOL    HW224174   1.814   2.567   6.637
 7759SOL     OW24175   2.410   0.852   4.956
 7759SOL    HW124176   2.415   0.771   5.014
 7759SOL    HW224177   2.499   0.869   4.914
 7760SOL     OW24178   5.844   3.036   2.235
 7760SOL    HW124179   5.911   2.983   2.184
 7760SOL    HW224180   5.843   3.006   2.331
 7761SOL     OW24181   3.065   0.166   6.042
 7761SOL    HW124182   3.021   0.216   6.117
 7761SOL    HW224183   3.111   0.231   5.981
 7762SOL     OW24184   4.136   1.210   5.926
 7762SOL    HW124185   4.108   1.228   6.020
 7762SOL    HW224186   4.173   1.293   5.885
 7763SOL     OW24187   1.328   1.812   1.322
 7763SOL    HW124188   1.313   1.763   1.236
 7763SOL    HW224189   1.425   1.804   1.348
 7764SOL     OW24190   3.921   3.096   2.719
 7764SOL    HW124191   3.992   3.079   2.787
 7764SOL    HW224192   3.838   3.046   2.745
 7765SOL     OW24193   6.446   3.495   4.502
 7765SOL    HW124194   6.527   3.549   4.479
 7765SOL    HW224195   6.472   3.400   4.515
 7766SOL     OW24196   5.319   2.181   6.849
 7766SOL    HW124197   5.250   2.241   6.809
 7766SOL    HW224198   5.410   2.214   6.824
 7767SOL     OW24199   3.765   6.206   3.652
 7767SOL    HW124200   3.806   6.235   3.566
 7767SOL    HW224201   3.713   6.281   3.692
 7768SOL     OW24202   3.923   4.834   2.782
 7768SOL    HW124203   3.957   4.834   2.688
 7768SOL    HW224204   3.979   4.896   2.838
 7769SOL     OW24205   5.025   1.727   1.862
 7769SOL    HW124206   5.007   1.654   1.796
 7769SOL    HW224207   4.955   1.723   1.934
 7770SOL     OW24208   2.342   4.459   2.137
 7770SOL    HW124209   2.434   4.497   2.130
 7770SOL    HW224210   2.311   4.429   2.047
 7771SOL     OW24211   2.677   2.468   5.095
 7771SOL    HW124212   2.597   2.528   5.097
 7771SOL    HW224213   2.666   2.401   5.022
 7772SOL     OW24214   4.804   1.277   3.817
 7772SOL    HW124215   4.896   1.317   3.820
 7772SOL    HW224216   4.772   1.259   3.910
 7773SOL     OW24217   3.280   4.964   5.593
 7773SOL    HW124218   3.188   4.924   5.593
 7773SOL    HW224219   3.303   4.996   5.684
 7774SOL     OW24220   5.649   2.062   6.113
 7774SOL    HW124221   5.577   2.021   6.169
 7774SOL    HW224222   5.730   2.077   6.170
 7775SOL     OW24223   3.755   6.862   3.160
 7775SOL    HW124224   3.761   6.819   3.250
 7775SOL    HW224225   3.806   6.808   3.093
 7776SOL     OW24226   3.166   2.957   5.782
 7776SOL    HW124227   3.196   3.048   5.753
 7776SOL    HW224228   3.245   2.905   5.817
 7777SOL     OW24229   2.362   1.630   5.443
 7777SOL    HW124230   2.390   1.726   5.442
 7777SOL    HW224231   2.358   1.595   5.349
 7778SOL     OW24232   5.013   6.886   6.835
 7778SOL    HW124233   5.071   6.825   6.780
 7778SOL    HW224234   5.058   6.974   6.845
 7779SOL     OW24235   3.894   3.014   0.319
 7779SOL    HW124236   3.908   2.919   0.348
 7779SOL    HW224237   3.856   3.015   0.227
 7780SOL     OW24238   1.962   5.376   4.791
 7780SOL    HW124239   1.921   5.286   4.779
 7780SOL    HW224240   1.927   5.438   4.720
 7781SOL     OW24241   0.936   3.761   6.040
 7781SOL    HW124242   0.888   3.678   6.011
 7781SOL    HW224243   0.981   3.802   5.961
 7782SOL     OW24244   1.881   3.615   5.331
 7782SOL    HW124245   1.802   3.626   5.391
 7782SOL    HW224246   1.923   3.526   5.347
 7783SOL     OW24247   3.150   6.625   6.061
 7783SOL    HW124248   3.132   6.719   6.033
 7783SOL    HW224249   3.185   6.573   5.983
 7784SOL     OW24250   1.874   2.457   0.115
 7784SOL    HW124251   1.797   2.488   0.059
 7784SOL    HW224252   1.855   2.476   0.211
 7785SOL     OW24253   1.767   6.605   4.014
 7785SOL    HW124254   1.716   6.664   4.076
 7785SOL    HW224255   1.849   6.653   3.983
 7786SOL     OW24256   3.249   5.008   5.858
 7786SOL    HW124257   3.162   4.972   5.892
 7786SOL    HW224258   3.320   4.939   5.871
 7787SOL     OW24259   1.947   2.248   5.419
 7787SOL    HW124260   1.959   2.347   5.409
 7787SOL    HW224261   2.028   2.201   5.384
 7788SOL     OW24262   1.457   1.003   1.918
 7788SOL    HW124263   1.446   1.100   1.895
 7788SOL    HW224264   1.554   0.980   1.917
 7789SOL     OW24265   2.749   0.124   0.953
 7789SOL    HW124266   2.750   0.039   0.900
 7789SOL    HW224267   2.761   0.103   1.050
 7790SOL     OW24268   6.526   4.861   2.990
 7790SOL    HW124269   6.449   4.840   3.049
 7790SOL    HW224270   6.598   4.792   3.001
 7791SOL     OW24271   2.765   6.483   3.849
 7791SOL    HW124272   2.694   6.429   3.894
 7791SOL    HW224273   2.847   6.427   3.838
 7792SOL     OW24274   1.136   5.415   5.824
 7792SOL    HW124275   1.058   5.403   5.884
 7792SOL    HW224276   1.135   5.343   5.754
 7793SOL     OW24277   2.250   0.804   5.907
 7793SOL    HW124278   2.259   0.824   6.005
 7793SOL    HW224279   2.235   0.889   5.857
 7794SOL     OW24280   5.358   5.238   4.372
 7794SOL    HW124281   5.349   5.255   4.470
 7794SOL    HW224282   5.332   5.143   4.352
 7795SOL     OW24283   2.305   4.268   5.230
 7795SOL    HW124284   2.374   4.335   5.205
 7795SOL    HW224285   2.322   4.182   5.181
 7796SOL     OW24286   3.380   4.185   3.831
 7796SOL    HW124287   3.460   4.188   3.890
 7796SOL    HW224288   3.346   4.277   3.816
 7797SOL     OW24289   0.714   5.829   2.951
 7797SOL    HW124290   0.663   5.886   3.015
 7797SOL    HW224291   0.679   5.843   2.858
 7798SOL     OW24292   1.719   4.923   6.440
 7798SOL    HW124293   1.643   4.888   6.387
 7798SOL    HW224294   1.805   4.886   6.404
 7799SOL     OW24295   6.756   6.057   1.873
 7799SOL    HW124296   6.822   6.122   1.835
 7799SOL    HW224297   6.776   6.043   1.970
 7800SOL     OW24298   0.859   4.460   1.440
 7800SOL    HW124299   0.822   4.423   1.355
 7800SOL    HW224300   0.882   4.385   1.502
 7801SOL     OW24301   2.601   1.756   1.708
 7801SOL    HW124302   2.649   1.687   1.763
 7801SOL    HW224303   2.652   1.842   1.711
 7802SOL     OW24304   6.017   2.732   1.082
 7802SOL    HW124305   5.927   2.743   1.124
 7802SOL    HW224306   6.053   2.822   1.058
 7803SOL     OW24307   4.353   3.634   5.588
 7803SOL    HW124308   4.432   3.622   5.648
 7803SOL    HW224309   4.351   3.560   5.521
 7804SOL     OW24310   5.999   1.306   4.267
 7804SOL    HW124311   5.913   1.355   4.256
 7804SOL    HW224312   6.028   1.269   4.178
 7805SOL     OW24313   5.261   1.625   1.475
 7805SOL    HW124314   5.306   1.652   1.390
 7805SOL    HW224315   5.187   1.689   1.495
 7806SOL     OW24316   6.265   3.069   5.831
 7806SOL    HW124317   6.358   3.103   5.837
 7806SOL    HW224318   6.210   3.109   5.905
 7807SOL     OW24319   0.155   4.815   6.059
 7807SOL    HW124320   0.077   4.827   5.998
 7807SOL    HW224321   0.156   4.889   6.127
 7808SOL     OW24322   0.129   3.325   4.629
 7808SOL    HW124323   0.125   3.301   4.726
 7808SOL    HW224324   0.159   3.420   4.620
 7809SOL     OW24325   2.562   6.128   4.789
 7809SOL    HW124326   2.583   6.041   4.834
 7809SOL    HW224327   2.525   6.110   4.698
 7810SOL     OW24328   3.557   0.464   5.703
 7810SOL    HW124329   3.623   0.413   5.648
 7810SOL    HW224330   3.595   0.553   5.728
 7811SOL     OW24331   6.754   4.119   3.984
 7811SOL    HW124332   6.679   4.123   4.050
 7811SOL    HW224333   6.794   4.211   3.973
 7812SOL     OW24334   1.225   1.929   3.725
 7812SOL    HW124335   1.177   2.011   3.693
 7812SOL    HW224336   1.310   1.955   3.770
 7813SOL     OW24337   4.668   2.456   6.148
 7813SOL    HW124338   4.568   2.445   6.149
 7813SOL    HW224339   4.711   2.368   6.131
 7814SOL     OW24340   6.712   2.518   3.434
 7814SOL    HW124341   6.689   2.588   3.502
 7814SOL    HW224342   6.812   2.512   3.425
 7815SOL     OW24343   4.948   1.359   6.442
 7815SOL    HW124344   4.990   1.423   6.506
 7815SOL    HW224345   4.849   1.357   6.456
 7816SOL     OW24346   1.937   2.841   6.055
 7816SOL    HW124347   1.923   2.931   6.014
 7816SOL    HW224348   1.891   2.837   6.143
 7817SOL     OW24349   6.301   3.460   3.921
 7817SOL    HW124350   6.356   3.434   3.842
 7817SOL    HW224351   6.360   3.503   3.990
 7818SOL     OW24352   4.619   0.533   2.518
 7818SOL    HW124353   4.543   0.598   2.524
 7818SOL    HW224354   4.688   0.567   2.455
 7819SOL     OW24355   0.169   3.016   1.578
 7819SOL    HW124356   0.107   3.073   1.631
 7819SOL    HW224357   0.263   3.047   1.593
 7820SOL     OW24358   1.902   1.905   4.440
 7820SOL    HW124359   1.964   1.852   4.499
 7820SOL    HW224360   1.924   2.002   4.448
 7821SOL     OW24361   4.584   5.482   1.262
 7821SOL    HW124362   4.612   5.497   1.167
 7821SOL    HW224363   4.561   5.570   1.304
 7822SOL     OW24364   0.298   0.854   5.085
 7822SOL    HW124365   0.225   0.786   5.098
 7822SOL    HW224366   0.352   0.862   5.169
 7823SOL     OW24367   2.202   3.880   4.811
 7823SOL    HW124368   2.204   3.903   4.714
 7823SOL    HW224369   2.248   3.952   4.863
 7824SOL     OW24370   6.691   2.242   4.870
 7824SOL    HW124371   6.670   2.340   4.869
 7824SOL    HW224372   6.606   2.190   4.871
 7825SOL     OW24373   2.449   2.927   0.073
 7825SOL    HW124374   2.460   2.939   0.172
 7825SOL    HW224375   2.532   2.959   0.027
 7826SOL     OW24376   6.692   1.058   0.836
 7826SOL    HW124377   6.712   0.993   0.763
 7826SOL    HW224378   6.596   1.085   0.831
 7827SOL     OW24379   1.384   5.601   1.533
 7827SOL    HW124380   1.285   5.585   1.532
 7827SOL    HW224381   1.429   5.531   1.477
 7828SOL     OW24382   6.236   4.712   6.991
 7828SOL    HW124383   6.139   4.733   7.001
 7828SOL    HW224384   6.267   4.741   6.900
 7829SOL     OW24385   3.096   3.178   1.414
 7829SOL    HW124386   3.144   3.099   1.452
 7829SOL    HW224387   3.054   3.230   1.488
 7830SOL     OW24388   3.317   5.388   5.549
 7830SOL    HW124389   3.289   5.484   5.547
 7830SOL    HW224390   3.350   5.364   5.640
 7831SOL     OW24391   2.185   0.478   2.169
 7831SOL    HW124392   2.124   0.483   2.089
 7831SOL    HW224393   2.133   0.501   2.251
 7832SOL     OW24394   5.973   0.320   4.383
 7832SOL    HW124395   5.887   0.270   4.392
 7832SOL    HW224396   6.041   0.281   4.444
 7833SOL     OW24397   1.568   1.129   4.516
 7833SOL    HW124398   1.487   1.173   4.477
 7833SOL    HW224399   1.650   1.174   4.480
 7834SOL     OW24400   0.249   1.772   3.392
 7834SOL    HW124401   0.275   1.821   3.309
 7834SOL    HW224402   0.262   1.674   3.379
 7835SOL     OW24403   3.803   1.804   4.529
 7835SOL    HW124404   3.752   1.739   4.473
 7835SOL    HW224405   3.742   1.877   4.559
 7836SOL     OW24406   3.377   4.295   5.719
 7836SOL    HW124407   3.314   4.372   5.717
 7836SOL    HW224408   3.454   4.315   5.779
 7837SOL     OW24409   5.238   6.262   0.085
 7837SOL    HW124410   5.257   6.324   0.161
 7837SOL    HW224411   5.321   6.253   0.028
 7838SOL     OW24412   4.550   5.725   1.391
 7838SOL    HW124413   4.605   5.802   1.359
 7838SOL    HW224414   4.456   5.755   1.406
 7839SOL     OW24415   5.715   4.218   4.759
 7839SOL    HW124416   5.699   4.153   4.685
 7839SOL    HW224417   5.700   4.174   4.847
 7840SOL     OW24418   0.568   4.100   4.698
 7840SOL    HW124419   0.510   4.129   4.621
 7840SOL    HW224420   0.591   4.180   4.753
 7841SOL     OW24421   4.462   1.928   6.670
 7841SOL    HW124422   4.536   1.899   6.731
 7841SOL    HW224423   4.434   2.022   6.694
 7842SOL     OW24424   2.079   1.459   2.317
 7842SOL    HW124425   1.990   1.429   2.351
 7842SOL    HW224426   2.082   1.450   2.218
 7843SOL     OW24427   7.008   6.317   4.363
 7843SOL    HW124428   0.078   6.306   4.333
 7843SOL    HW224429   6.950   6.339   4.285
 7844SOL     OW24430   3.735   0.301   2.446
 7844SOL    HW124431   3.701   0.373   2.507
 7844SOL    HW224432   3.732   0.213   2.494
 7845SOL     OW24433   5.427   1.952   1.433
 7845SOL    HW124434   5.381   1.904   1.508
 7845SOL    HW224435   5.362   1.965   1.358
 7846SOL     OW24436   1.360   2.295   0.502
 7846SOL    HW124437   1.294   2.354   0.454
 7846SOL    HW224438   1.449   2.303   0.458
 7847SOL     OW24439   6.233   1.627   3.822
 7847SOL    HW124440   6.262   1.669   3.907
 7847SOL    HW224441   6.152   1.674   3.787
 7848SOL     OW24442   3.111   4.255   0.788
 7848SOL    HW124443   3.034   4.217   0.738
 7848SOL    HW224444   3.120   4.353   0.766
 7849SOL     OW24445   5.930   3.700   4.981
 7849SOL    HW124446   5.982   3.720   4.897
 7849SOL    HW224447   5.934   3.602   4.999
 7850SOL     OW24448   0.073   2.241   3.955
 7850SOL    HW124449   0.130   2.266   4.033
 7850SOL    HW224450   0.112   2.161   3.909
 7851SOL     OW24451   0.707   2.883   1.771
 7851SOL    HW124452   0.614   2.860   1.800
 7851SOL    HW224453   0.764   2.801   1.776
 7852SOL     OW24454   2.827   0.850   0.357
 7852SOL    HW124455   2.820   0.901   0.442
 7852SOL    HW224456   2.838   0.914   0.281
 7853SOL     OW24457   4.608   3.042   1.502
 7853SOL    HW124458   4.589   2.978   1.576
 7853SOL    HW224459   4.704   3.070   1.507
 7854SOL     OW24460   4.057   2.436   6.436
 7854SOL    HW124461   3.979   2.383   6.469
 7854SOL    HW224462   4.043   2.532   6.459
 7855SOL     OW24463   4.669   5.792   4.424
 7855SOL    HW124464   4.625   5.798   4.335
 7855SOL    HW224465   4.632   5.715   4.476
 7856SOL     OW24466   1.092   5.063   5.356
 7856SOL    HW124467   1.001   5.061   5.398
 7856SOL    HW224468   1.084   5.044   5.258
 7857SOL     OW24469   4.858   3.718   0.405
 7857SOL    HW124470   4.807   3.802   0.387
 7857SOL    HW224471   4.795   3.649   0.443
 7858SOL     OW24472   6.753   6.112   4.696
 7858SOL    HW124473   6.769   6.079   4.789
 7858SOL    HW224474   6.673   6.171   4.694
 7859SOL     OW24475   4.723   3.181   6.874
 7859SOL    HW124476   4.753   3.109   6.811
 7859SOL    HW224477   4.744   3.271   6.834
 7860SOL     OW24478   3.690   1.479   4.048
 7860SOL    HW124479   3.692   1.406   3.980
 7860SOL    HW224480   3.751   1.553   4.018
 7861SOL     OW24481   2.793   5.345   2.155
 7861SOL    HW124482   2.816   5.248   2.149
 7861SOL    HW224483   2.780   5.382   2.063
 7862SOL     OW24484   2.724   5.861   1.955
 7862SOL    HW124485   2.798   5.843   1.890
 7862SOL    HW224486   2.637   5.869   1.906
 7863SOL     OW24487   0.617   4.606   3.525
 7863SOL    HW124488   0.560   4.599   3.607
 7863SOL    HW224489   0.559   4.603   3.444
 7864SOL     OW24490   1.602   5.625   6.438
 7864SOL    HW124491   1.697   5.645   6.416
 7864SOL    HW224492   1.596   5.590   6.531
 7865SOL     OW24493   6.156   5.862   4.090
 7865SOL    HW124494   6.101   5.916   4.026
 7865SOL    HW224495   6.176   5.773   4.049
 7866SOL     OW24496   2.305   0.484   5.198
 7866SOL    HW124497   2.231   0.549   5.183
 7866SOL    HW224498   2.318   0.429   5.115
 7867SOL     OW24499   5.810   6.791   3.052
 7867SOL    HW124500   5.727   6.762   3.099
 7867SOL    HW224501   5.870   6.712   3.040
 7868SOL     OW24502   3.584   5.784   0.775
 7868SOL    HW124503   3.676   5.796   0.812
 7868SOL    HW224504   3.590   5.761   0.678
 7869SOL     OW24505   5.022   4.785   5.384
 7869SOL    HW124506   5.039   4.761   5.480
 7869SOL    HW224507   4.930   4.823   5.375
 7870SOL     OW24508   4.767   0.066   4.643
 7870SOL    HW124509   4.846   0.016   4.609
 7870SOL    HW224510   4.797   0.136   4.708
 7871SOL     OW24511   5.868   1.741   1.884
 7871SOL    HW124512   5.888   1.650   1.849
 7871SOL    HW224513   5.871   1.807   1.809
 7872SOL     OW24514   1.725   4.925   2.596
 7872SOL    HW124515   1.808   4.893   2.642
 7872SOL    HW224516   1.741   5.015   2.557
 7873SOL     OW24517   6.211   1.101   0.289
 7873SOL    HW124518   6.264   1.124   0.370
 7873SOL    HW224519   6.157   1.180   0.261
 7874SOL     OW24520   5.211   2.837   1.363
 7874SOL    HW124521   5.213   2.818   1.461
 7874SOL    HW224522   5.305   2.843   1.329
 7875SOL     OW24523   3.973   3.563   0.344
 7875SOL    HW124524   4.050   3.573   0.408
 7875SOL    HW224525   3.894   3.527   0.392
 7876SOL     OW24526   1.088   0.043   3.515
 7876SOL    HW124527   0.996   0.082   3.523
 7876SOL    HW224528   1.155   0.117   3.515
 7877SOL     OW24529   6.662   2.060   2.989
 7877SOL    HW124530   6.583   2.108   2.949
 7877SOL    HW224531   6.657   1.963   2.965
 7878SOL     OW24532   4.813   4.129   3.148
 7878SOL    HW124533   4.836   4.084   3.235
 7878SOL    HW224534   4.889   4.187   3.119
 7879SOL     OW24535   3.209   4.970   3.060
 7879SOL    HW124536   3.252   4.938   2.975
 7879SOL    HW224537   3.127   5.022   3.038
 7880SOL     OW24538   2.324   3.787   0.980
 7880SOL    HW124539   2.321   3.687   0.978
 7880SOL    HW224540   2.354   3.821   0.890
 7881SOL     OW24541   5.073   4.489   4.546
 7881SOL    HW124542   5.079   4.584   4.517
 7881SOL    HW224543   5.056   4.431   4.466
 7882SOL     OW24544   2.640   3.738   1.609
 7882SOL    HW124545   2.620   3.780   1.521
 7882SOL    HW224546   2.688   3.804   1.667
 7883SOL     OW24547   1.037   0.392   5.783
 7883SOL    HW124548   1.049   0.437   5.694
 7883SOL    HW224549   1.048   0.460   5.855
 7884SOL     OW24550   0.684   4.378   4.213
 7884SOL    HW124551   0.658   4.374   4.117
 7884SOL    HW224552   0.688   4.285   4.250
 7885SOL     OW24553   6.280   5.536   0.810
 7885SOL    HW124554   6.355   5.600   0.791
 7885SOL    HW224555   6.316   5.458   0.862
 7886SOL     OW24556   4.283   5.842   0.462
 7886SOL    HW124557   4.215   5.860   0.533
 7886SOL    HW224558   4.342   5.922   0.450
 7887SOL     OW24559   3.388   2.208   0.082
 7887SOL    HW124560   3.357   2.302   0.074
 7887SOL    HW224561   3.333   2.160   0.151
 7888SOL     OW24562   4.926   0.683   3.858
 7888SOL    HW124563   5.021   0.711   3.841
 7888SOL    HW224564   4.904   0.604   3.802
 7889SOL     OW24565   1.504   5.394   1.346
 7889SOL    HW124566   1.573   5.455   1.308
 7889SOL    HW224567   1.538   5.300   1.344
 7890SOL     OW24568   2.109   3.867   2.267
 7890SOL    HW124569   2.094   3.775   2.230
 7890SOL    HW224570   2.034   3.892   2.328
 7891SOL     OW24571   2.391   5.005   2.656
 7891SOL    HW124572   2.448   5.052   2.588
 7891SOL    HW224573   2.297   4.999   2.622
 7892SOL     OW24574   2.178   2.239   4.828
 7892SOL    HW124575   2.246   2.166   4.830
 7892SOL    HW224576   2.103   2.216   4.890
 7893SOL     OW24577   6.010   6.725   1.668
 7893SOL    HW124578   6.039   6.792   1.600
 7893SOL    HW224579   6.071   6.729   1.747
 7894SOL     OW24580   2.493   6.040   2.367
 7894SOL    HW124581   2.546   6.074   2.445
 7894SOL    HW224582   2.396   6.062   2.380
 7895SOL     OW24583   6.445   1.554   5.470
 7895SOL    HW124584   6.355   1.595   5.476
 7895SOL    HW224585   6.445   1.467   5.519
 7896SOL     OW24586   4.754   4.059   5.987
 7896SOL    HW124587   4.719   4.113   5.910
 7896SOL    HW224588   4.833   4.006   5.957
 7897SOL     OW24589   2.597   3.839   6.136
 7897SOL    HW124590   2.651   3.779   6.077
 7897SOL    HW224591   2.504   3.802   6.145
 7898SOL     OW24592   4.672   2.127   3.672
 7898SOL    HW124593   4.586   2.167   3.704
 7898SOL    HW224594   4.745   2.151   3.736
 7899SOL     OW24595   6.729   1.862   1.314
 7899SOL    HW124596   6.654   1.879   1.378
 7899SOL    HW224597   6.749   1.946   1.262
 7900SOL     OW24598   1.144   4.908   1.210
 7900SOL    HW124599   1.216   4.904   1.279
 7900SOL    HW224600   1.159   4.986   1.150
 7901SOL     OW24601   5.303   0.189   5.849
 7901SOL    HW124602   5.386   0.228   5.891
 7901SOL    HW224603   5.242   0.263   5.821
 7902SOL     OW24604   5.133   5.104   1.665
 7902SOL    HW124605   5.149   5.006   1.670
 7902SOL    HW224606   5.067   5.124   1.592
 7903SOL     OW24607   5.940   2.107   0.281
 7903SOL    HW124608   5.852   2.070   0.311
 7903SOL    HW224609   5.943   2.205   0.300
 7904SOL     OW24610   6.467   1.161   2.729
 7904SOL    HW124611   6.464   1.153   2.629
 7904SOL    HW224612   6.512   1.081   2.767
 7905SOL     OW24613   4.946   1.556   0.790
 7905SOL    HW124614   4.928   1.609   0.706
 7905SOL    HW224615   4.870   1.568   0.853
 7906SOL     OW24616   6.744   6.022   6.763
 7906SOL    HW124617   6.683   6.041   6.841
 7906SOL    HW224618   6.829   6.073   6.775
 7907SOL     OW24619   6.175   2.492   4.695
 7907SOL    HW124620   6.101   2.463   4.633
 7907SOL    HW224621   6.212   2.579   4.664
 7908SOL     OW24622   1.363   0.934   4.004
 7908SOL    HW124623   1.391   0.838   4.001
 7908SOL    HW224624   1.359   0.965   4.099
 7909SOL     OW24625   4.914   3.804   4.861
 7909SOL    HW124626   4.882   3.735   4.925
 7909SOL    HW224627   4.930   3.761   4.772
 7910SOL     OW24628   3.866   2.981   5.192
 7910SOL    HW124629   3.888   2.969   5.096
 7910SOL    HW224630   3.768   2.971   5.206
 7911SOL     OW24631   0.196   4.716   0.603
 7911SOL    HW124632   0.219   4.671   0.689
 7911SOL    HW224633   0.097   4.712   0.588
 7912SOL     OW24634   6.820   5.447   6.736
 7912SOL    HW124635   6.796   5.368   6.793
 7912SOL    HW224636   6.765   5.445   6.652
 7913SOL     OW24637   0.472   5.575   6.377
 7913SOL    HW124638   0.501   5.576   6.281
 7913SOL    HW224639   0.430   5.487   6.399
 7914SOL     OW24640   6.813   4.937   0.121
 7914SOL    HW124641   6.735   4.999   0.126
 7914SOL    HW224642   6.781   4.844   0.106
 7915SOL     OW24643   5.006   2.436   2.771
 7915SOL    HW124644   4.950   2.508   2.812
 7915SOL    HW224645   4.951   2.386   2.703
 7916SOL     OW24646   5.554   3.964   5.257
 7916SOL    HW124647   5.651   3.960   5.281
 7916SOL    HW224648   5.530   3.884   5.203
 7917SOL     OW24649   3.739   2.917   3.766
 7917SOL    HW124650   3.742   2.849   3.692
 7917SOL    HW224651   3.816   2.979   3.758
 7918SOL     OW24652   5.987   1.423   1.546
 7918SOL    HW124653   5.922   1.487   1.504
 7918SOL    HW224654   6.069   1.473   1.575
 7919SOL     OW24655   6.700   4.241   3.128
 7919SOL    HW124656   6.682   4.340   3.127
 7919SOL    HW224657   6.615   4.192   3.145
 7920SOL     OW24658   6.688   5.068   1.103
 7920SOL    HW124659   6.698   5.167   1.098
 7920SOL    HW224660   6.661   5.032   1.014
 7921SOL     OW24661   3.384   6.434   1.167
 7921SOL    HW124662   3.462   6.389   1.123
 7921SOL    HW224663   3.327   6.364   1.210
 7922SOL     OW24664   6.830   5.626   0.006
 7922SOL    HW124665   6.778   5.647   6.948
 7922SOL    HW224666   6.775   5.649   0.086
 7923SOL     OW24667   1.739   1.134   3.190
 7923SOL    HW124668   1.644   1.112   3.214
 7923SOL    HW224669   1.793   1.050   3.189
 7924SOL     OW24670   3.376   6.450   3.597
 7924SOL    HW124671   3.433   6.454   3.515
 7924SOL    HW224672   3.295   6.508   3.584
 7925SOL     OW24673   6.915   1.752   6.499
 7925SOL    HW124674   6.907   1.753   6.599
 7925SOL    HW224675   6.857   1.680   6.462
 7926SOL     OW24676   3.433   0.626   3.758
 7926SOL    HW124677   3.458   0.541   3.805
 7926SOL    HW224678   3.481   0.702   3.802
 7927SOL     OW24679   3.908   5.558   4.578
 7927SOL    HW124680   3.940   5.469   4.545
 7927SOL    HW224681   3.915   5.626   4.505
 7928SOL     OW24682   1.289   4.281   3.402
 7928SOL    HW124683   1.219   4.273   3.474
 7928SOL    HW224684   1.319   4.376   3.396
 7929SOL     OW24685   4.106   3.768   4.783
 7929SOL    HW124686   4.094   3.674   4.814
 7929SOL    HW224687   4.185   3.808   4.828
 7930SOL     OW24688   5.211   5.803   3.417
 7930SOL    HW124689   5.114   5.822   3.433
 7930SOL    HW224690   5.239   5.846   3.332
 7931SOL     OW24691   1.987   2.457   6.868
 7931SOL    HW124692   1.990   2.358   6.856
 7931SOL    HW224693   1.981   2.479   6.965
 7932SOL     OW24694   2.476   0.201   6.985
 7932SOL    HW124695   2.488   0.187   0.059
 7932SOL    HW224696   2.564   0.223   6.944
 7933SOL     OW24697   0.650   6.810   0.047
 7933SOL    HW124698   0.736   6.778   0.009
 7933SOL    HW224699   0.668   6.862   0.130
 7934SOL     OW24700   2.523   3.455   0.126
 7934SOL    HW124701   2.588   3.508   0.072
 7934SOL    HW224702   2.466   3.517   0.180
 7935SOL     OW24703   4.944   5.759   6.754
 7935SOL    HW124704   5.023   5.698   6.750
 7935SOL    HW224705   4.963   5.834   6.817
 7936SOL     OW24706   3.485   5.836   3.186
 7936SOL    HW124707   3.477   5.763   3.254
 7936SOL    HW224708   3.460   5.802   3.096
 7937SOL     OW24709   5.263   0.083   4.549
 7937SOL    HW124710   5.223   0.168   4.514
 7937SOL    HW224711   5.325   0.046   4.480
 7938SOL     OW24712   4.814   4.716   5.127
 7938SOL    HW124713   4.755   4.736   5.049
 7938SOL    HW224714   4.901   4.764   5.117
 7939SOL     OW24715   0.778   1.624   6.154
 7939SOL    HW124716   0.833   1.653   6.076
 7939SOL    HW224717   0.706   1.561   6.123
 7940SOL     OW24718   2.642   5.014   2.065
 7940SOL    HW124719   2.678   4.943   2.005
 7940SOL    HW224720   2.548   4.992   2.090
 7941SOL     OW24721   6.923   0.157   0.829
 7941SOL    HW124722   6.854   0.099   0.874
 7941SOL    HW224723   6.887   0.250   0.820
 7942SOL     OW24724   0.172   6.499   2.416
 7942SOL    HW124725   0.269   6.500   2.394
 7942SOL    HW224726   0.121   6.454   2.343
 7943SOL     OW24727   6.113   2.323   1.151
 7943SOL    HW124728   6.180   2.258   1.117
 7943SOL    HW224729   6.057   2.356   1.075
 7944SOL     OW24730   0.162   3.423   1.003
 7944SOL    HW124731   0.070   3.462   1.001
 7944SOL    HW224732   0.160   3.331   0.962
 7945SOL     OW24733   5.200   0.289   2.921
 7945SOL    HW124734   5.185   0.324   3.014
 7945SOL    HW224735   5.117   0.303   2.867
 7946SOL     OW24736   1.747   2.042   5.909
 7946SOL    HW124737   1.767   1.945   5.893
 7946SOL    HW224738   1.832   2.094   5.912
 7947SOL     OW24739   3.843   3.024   6.706
 7947SOL    HW124740   3.926   3.021   6.649
 7947SOL    HW224741   3.774   2.964   6.666
 7948SOL     OW24742   6.747   6.664   0.952
 7948SOL    HW124743   6.753   6.763   0.965
 7948SOL    HW224744   6.826   6.631   0.900
 7949SOL     OW24745   5.255   4.974   4.301
 7949SOL    HW124746   5.261   4.909   4.376
 7949SOL    HW224747   5.168   4.963   4.253
 7950SOL     OW24748   4.565   4.938   3.648
 7950SOL    HW124749   4.615   4.851   3.650
 7950SOL    HW224750   4.475   4.925   3.608
 7951SOL     OW24751   2.916   3.436   1.048
 7951SOL    HW124752   2.869   3.349   1.032
 7951SOL    HW224753   2.863   3.511   1.008
 7952SOL     OW24754   6.918   3.145   6.804
 7952SOL    HW124755   6.943   3.233   6.765
 7952SOL    HW224756   6.883   3.085   6.731
 7953SOL     OW24757   2.252   2.591   3.308
 7953SOL    HW124758   2.170   2.534   3.311
 7953SOL    HW224759   2.314   2.557   3.238
 7954SOL     OW24760   4.444   5.213   4.532
 7954SOL    HW124761   4.384   5.148   4.485
 7954SOL    HW224762   4.523   5.233   4.474
 7955SOL     OW24763   0.174   6.672   6.620
 7955SOL    HW124764   0.226   6.736   6.677
 7955SOL    HW224765   0.206   6.579   6.635
 7956SOL     OW24766   0.538   6.012   3.068
 7956SOL    HW124767   0.568   6.038   3.160
 7956SOL    HW224768   0.484   6.086   3.029
 7957SOL     OW24769   1.753   2.053   0.685
 7957SOL    HW124770   1.812   1.991   0.634
 7957SOL    HW224771   1.657   2.032   0.666
 7958SOL     OW24772   3.479   5.642   4.471
 7958SOL    HW124773   3.432   5.641   4.383
 7958SOL    HW224774   3.566   5.690   4.462
 7959SOL     OW24775   4.615   5.067   0.404
 7959SOL    HW124776   4.546   5.016   0.353
 7959SOL    HW224777   4.623   5.159   0.365
 7960SOL     OW24778   3.308   1.805   1.558
 7960SOL    HW124779   3.368   1.885   1.571
 7960SOL    HW224780   3.328   1.763   1.470
 7961SOL     OW24781   2.097   6.245   6.452
 7961SOL    HW124782   2.146   6.324   6.415
 7961SOL    HW224783   2.140   6.160   6.419
 7962SOL     OW24784   2.250   0.492   1.085
 7962SOL    HW124785   2.209   0.564   1.028
 7962SOL    HW224786   2.178   0.429   1.115
 7963SOL     OW24787   0.098   1.550   4.819
 7963SOL    HW124788   0.003   1.522   4.804
 7963SOL    HW224789   0.144   1.560   4.730
 7964SOL     OW24790   5.689   5.203   3.867
 7964SOL    HW124791   5.636   5.145   3.805
 7964SOL    HW224792   5.680   5.169   3.960
 7965SOL     OW24793   4.335   2.778   6.971
 7965SOL    HW124794   4.412   2.791   0.008
 7965SOL    HW224795   4.277   2.860   6.973
 7966SOL     OW24796   0.770   3.679   4.800
 7966SOL    HW124797   0.841   3.632   4.852
 7966SOL    HW224798   0.686   3.624   4.801
 7967SOL     OW24799   3.018   6.041   3.680
 7967SOL    HW124800   3.096   5.992   3.718
 7967SOL    HW224801   2.938   5.980   3.678
 7968SOL     OW24802   2.286   2.689   3.554
 7968SOL    HW124803   2.291   2.636   3.469
 7968SOL    HW224804   2.375   2.689   3.599
 7969SOL     OW24805   3.754   6.786   2.138
 7969SOL    HW124806   3.737   6.826   2.048
 7969SOL    HW224807   3.742   6.687   2.133
 7970SOL     OW24808   0.142   3.580   2.843
 7970SOL    HW124809   0.112   3.562   2.937
 7970SOL    HW224810   0.065   3.567   2.780
 7971SOL     OW24811   3.141   1.085   1.929
 7971SOL    HW124812   3.169   1.051   2.019
 7971SOL    HW224813   3.062   1.145   1.940
 7972SOL     OW24814   6.742   4.395   1.188
 7972SOL    HW124815   6.795   4.377   1.105
 7972SOL    HW224816   6.734   4.493   1.202
 7973SOL     OW24817   5.252   3.467   3.827
 7973SOL    HW124818   5.340   3.501   3.794
 7973SOL    HW224819   5.231   3.380   3.783
 7974SOL     OW24820   6.180   0.198   4.538
 7974SOL    HW124821   6.172   0.250   4.623
 7974SOL    HW224822   6.227   0.254   4.470
 7975SOL     OW24823   5.259   0.357   4.204
 7975SOL    HW124824   5.261   0.456   4.189
 7975SOL    HW224825   5.170   0.320   4.177
 7976SOL     OW24826   0.773   6.365   5.268
 7976SOL    HW124827   0.700   6.393   5.205
 7976SOL    HW224828   0.761   6.269   5.292
 7977SOL     OW24829   4.365   5.804   2.506
 7977SOL    HW124830   4.391   5.789   2.602
 7977SOL    HW224831   4.390   5.897   2.479
 7978SOL     OW24832   5.000   4.066   6.395
 7978SOL    HW124833   5.040   3.980   6.363
 7978SOL    HW224834   5.034   4.141   6.339
 7979SOL     OW24835   3.255   0.050   4.990
 7979SOL    HW124836   3.240   7.024   5.075
 7979SOL    HW224837   3.347   0.089   4.991
 7980SOL     OW24838   4.094   5.789   0.272
 7980SOL    HW124839   4.015   5.759   0.325
 7980SOL    HW224840   4.175   5.787   0.330
 7981SOL     OW24841   0.901   5.271   1.395
 7981SOL    HW124842   0.959   5.190   1.388
 7981SOL    HW224843   0.899   5.302   1.490
 7982SOL     OW24844   0.151   2.527   0.945
 7982SOL    HW124845   0.194   2.450   0.897
 7982SOL    HW224846   0.215   2.604   0.949
 7983SOL     OW24847   5.337   1.985   3.368
 7983SOL    HW124848   5.328   1.959   3.464
 7983SOL    HW224849   5.366   1.906   3.314
 7984SOL     OW24850   0.847   1.802   1.983
 7984SOL    HW124851   0.932   1.832   2.026
 7984SOL    HW224852   0.832   1.705   2.002
 7985SOL     OW24853   1.490   0.418   2.568
 7985SOL    HW124854   1.445   0.499   2.530
 7985SOL    HW224855   1.470   0.339   2.511
 7986SOL     OW24856   3.568   1.406   6.952
 7986SOL    HW124857   3.637   1.334   6.949
 7986SOL    HW224858   3.587   1.474   6.881
 7987SOL     OW24859   0.320   3.587   5.989
 7987SOL    HW124860   0.366   3.509   5.947
 7987SOL    HW224861   0.223   3.566   6.001
 7988SOL     OW24862   2.760   2.202   4.369
 7988SOL    HW124863   2.728   2.292   4.339
 7988SOL    HW224864   2.683   2.138   4.371
 7989SOL     OW24865   3.536   2.753   5.259
 7989SOL    HW124866   3.600   2.712   5.324
 7989SOL    HW224867   3.445   2.716   5.274
 7990SOL     OW24868   1.497   3.781   3.184
 7990SOL    HW124869   1.517   3.826   3.271
 7990SOL    HW224870   1.411   3.816   3.148
 7991SOL     OW24871   6.791   2.566   6.112
 7991SOL    HW124872   6.835   2.480   6.138
 7991SOL    HW224873   6.795   2.578   6.013
 7992SOL     OW24874   1.218   5.844   1.142
 7992SOL    HW124875   1.208   5.754   1.100
 7992SOL    HW224876   1.128   5.879   1.169
 7993SOL     OW24877   2.101   5.719   6.622
 7993SOL    HW124878   2.145   5.717   6.712
 7993SOL    HW224879   2.165   5.689   6.552
 7994SOL     OW24880   4.605   0.339   3.737
 7994SOL    HW124881   4.681   0.399   3.713
 7994SOL    HW224882   4.596   0.335   3.837
 7995SOL     OW24883   3.591   5.229   3.745
 7995SOL    HW124884   3.664   5.177   3.700
 7995SOL    HW224885   3.502   5.196   3.713
 7996SOL     OW24886   3.539   6.367   4.193
 7996SOL    HW124887   3.506   6.350   4.285
 7996SOL    HW224888   3.490   6.446   4.154
 7997SOL     OW24889   6.389   1.630   1.308
 7997SOL    HW124890   6.437   1.569   1.370
 7997SOL    HW224891   6.424   1.617   1.215
 7998SOL     OW24892   4.441   4.947   0.234
 7998SOL    HW124893   4.385   5.002   0.172
 7998SOL    HW224894   4.478   4.869   0.184
 7999SOL     OW24895   1.076   0.133   5.586
 7999SOL    HW124896   1.136   0.186   5.646
 7999SOL    HW224897   0.987   0.122   5.631
 8000SOL     OW24898   5.537   0.534   6.215
 8000SOL    HW124899   5.579   0.447   6.190
 8000SOL    HW224900   5.524   0.538   6.314
 8001SOL     OW24901   2.997   6.194   2.077
 8001SOL    HW124902   2.943   6.114   2.102
 8001SOL    HW224903   2.943   6.277   2.091
 8002SOL     OW24904   0.050   3.518   5.925
 8002SOL    HW124905   6.980   3.508   5.895
 8002SOL    HW224906   0.109   3.526   5.845
 8003SOL     OW24907   2.631   4.657   2.646
 8003SOL    HW124908   2.712   4.711   2.621
 8003SOL    HW224909   2.576   4.640   2.564
 8004SOL     OW24910   1.654   4.939   3.482
 8004SOL    HW124911   1.587   4.986   3.540
 8004SOL    HW224912   1.611   4.914   3.395
 8005SOL     OW24913   3.493   1.266   2.216
 8005SOL    HW124914   3.583   1.240   2.182
 8005SOL    HW224915   3.504   1.314   2.304
 8006SOL     OW24916   2.663   6.027   0.554
 8006SOL    HW124917   2.588   6.066   0.499
 8006SOL    HW224918   2.742   6.010   0.495
 8007SOL     OW24919   0.935   0.524   3.854
 8007SOL    HW124920   0.925   0.491   3.760
 8007SOL    HW224921   0.967   0.449   3.912
 8008SOL     OW24922   5.254   6.604   6.208
 8008SOL    HW124923   5.235   6.687   6.259
 8008SOL    HW224924   5.172   6.576   6.157
 8009SOL     OW24925   6.501   0.507   2.828
 8009SOL    HW124926   6.484   0.464   2.739
 8009SOL    HW224927   6.511   0.606   2.815
 8010SOL     OW24928   2.080   1.520   0.078
 8010SOL    HW124929   2.062   1.476   7.015
 8010SOL    HW224930   2.126   1.456   0.139
 8011SOL     OW24931   1.829   2.295   1.517
 8011SOL    HW124932   1.897   2.290   1.590
 8011SOL    HW224933   1.799   2.389   1.506
 8012SOL     OW24934   1.704   6.260   1.217
 8012SOL    HW124935   1.765   6.334   1.191
 8012SOL    HW224936   1.610   6.284   1.195
 8013SOL     OW24937   6.871   5.251   4.551
 8013SOL    HW124938   6.843   5.155   4.550
 8013SOL    HW224939   6.877   5.282   4.646
 8014SOL     OW24940   1.450   6.181   5.973
 8014SOL    HW124941   1.422   6.103   6.030
 8014SOL    HW224942   1.379   6.200   5.905
 8015SOL     OW24943   2.917   2.242   0.552
 8015SOL    HW124944   2.843   2.175   0.548
 8015SOL    HW224945   2.908   2.296   0.636
 8016SOL     OW24946   4.545   6.974   0.179
 8016SOL    HW124947   4.566   6.983   0.277
 8016SOL    HW224948   4.607   0.008   0.127
 8017SOL     OW24949   0.494   4.650   5.729
 8017SOL    HW124950   0.461   4.627   5.820
 8017SOL    HW224951   0.550   4.733   5.733
 8018SOL     OW24952   4.841   1.909   5.840
 8018SOL    HW124953   4.793   1.897   5.753
 8018SOL    HW224954   4.776   1.940   5.909
 8019SOL     OW24955   1.889   3.943   0.056
 8019SOL    HW124956   1.833   4.021   0.084
 8019SOL    HW224957   1.961   3.974   7.019
 8020SOL     OW24958   5.501   6.446   6.695
 8020SOL    HW124959   5.436   6.458   6.620
 8020SOL    HW224960   5.594   6.465   6.662
 8021SOL     OW24961   0.705   1.030   1.720
 8021SOL    HW124962   0.738   0.981   1.801
 8021SOL    HW224963   0.708   1.129   1.738
 8022SOL     OW24964   3.902   1.130   2.964
 8022SOL    HW124965   3.879   1.224   2.987
 8022SOL    HW224966   3.980   1.129   2.901
 8023SOL     OW24967   6.292   6.264   3.112
 8023SOL    HW124968   6.247   6.342   3.157
 8023SOL    HW224969   6.245   6.244   3.026
 8024SOL     OW24970   3.287   5.443   6.774
 8024SOL    HW124971   3.202   5.482   6.809
 8024SOL    HW224972   3.363   5.474   6.830
 8025SOL     OW24973   3.586   6.008   5.915
 8025SOL    HW124974   3.590   5.908   5.920
 8025SOL    HW224975   3.674   6.043   5.883
 8026SOL     OW24976   0.368   4.111   0.105
 8026SOL    HW124977   0.365   4.013   0.084
 8026SOL    HW224978   0.329   4.127   0.195
 8027SOL     OW24979   4.402   2.204   5.318
 8027SOL    HW124980   4.425   2.128   5.257
 8027SOL    HW224981   4.486   2.246   5.352
 8028SOL     OW24982   3.772   4.829   5.615
 8028SOL    HW124983   3.831   4.790   5.686
 8028SOL    HW224984   3.755   4.761   5.545
 8029SOL     OW24985   5.354   4.028   6.462
 8029SOL    HW124986   5.329   4.096   6.394
 8029SOL    HW224987   5.359   3.938   6.419
 8030SOL     OW24988   5.615   4.378   5.973
 8030SOL    HW124989   5.524   4.388   5.932
 8030SOL    HW224990   5.684   4.405   5.906
 8031SOL     OW24991   4.902   5.625   2.499
 8031SOL    HW124992   4.987   5.658   2.457
 8031SOL    HW224993   4.873   5.540   2.454
 8032SOL     OW24994   5.930   4.123   4.972
 8032SOL    HW124995   6.012   4.073   4.998
 8032SOL    HW224996   5.947   4.173   4.887
 8033SOL     OW24997   5.463   2.883   0.187
 8033SOL    HW124998   5.389   2.829   0.148
 8033SOL    HW224999   5.523   2.916   0.114
 8034SOL     OW25000   6.587   0.881   5.244
 8034SOL    HW125001   6.490   0.865   5.221
 8034SOL    HW225002   6.627   0.944   5.178
 8035SOL     OW25003   5.650   0.040   5.280
 8035SOL    HW125004   5.569   0.012   5.331
 8035SOL    HW225005   5.728   7.010   5.309
 8036SOL     OW25006   1.261   3.661   1.653
 8036SOL    HW125007   1.214   3.717   1.585
 8036SOL    HW225008   1.353   3.698   1.668
 8037SOL     OW25009   1.740   3.398   1.489
 8037SOL    HW125010   1.707   3.306   1.510
 8037SOL    HW225011   1.686   3.466   1.538
 8038SOL     OW25012   5.524   1.984   2.986
 8038SOL    HW125013   5.475   1.900   3.011
 8038SOL    HW225014   5.465   2.040   2.927
 8039SOL     OW25015   1.929   6.980   3.576
 8039SOL    HW125016   1.835   6.989   3.609
 8039SOL    HW225017   1.989   0.013   3.631
 8040SOL     OW25018   0.394   5.284   0.933
 8040SOL    HW125019   0.449   5.241   1.005
 8040SOL    HW225020   0.306   5.237   0.926
 8041SOL     OW25021   3.618   1.648   1.301
 8041SOL    HW125022   3.619   1.560   1.254
 8041SOL    HW225023   3.661   1.718   1.243
 8042SOL     OW25024   3.484   2.770   1.846
 8042SOL    HW125025   3.455   2.813   1.760
 8042SOL    HW225026   3.524   2.839   1.906
 8043SOL     OW25027   2.977   0.148   0.484
 8043SOL    HW125028   2.954   0.205   0.563
 8043SOL    HW225029   3.007   0.207   0.408
 8044SOL     OW25030   3.214   3.120   1.153
 8044SOL    HW125031   3.205   3.160   1.244
 8044SOL    HW225032   3.169   3.030   1.152
 8045SOL     OW25033   5.622   1.072   2.112
 8045SOL    HW125034   5.656   0.988   2.154
 8045SOL    HW225035   5.698   1.120   2.068
 8046SOL     OW25036   6.114   4.911   5.874
 8046SOL    HW125037   6.114   4.940   5.778
 8046SOL    HW225038   6.079   4.818   5.881
 8047SOL     OW25039   3.299   4.947   4.896
 8047SOL    HW125040   3.297   4.914   4.991
 8047SOL    HW225041   3.225   4.904   4.845
 8048SOL     OW25042   5.342   1.232   5.473
 8048SOL    HW125043   5.284   1.313   5.484
 8048SOL    HW225044   5.310   1.160   5.534
 8049SOL     OW25045   0.688   6.542   1.570
 8049SOL    HW125046   0.666   6.551   1.473
 8049SOL    HW225047   0.604   6.546   1.625
 8050SOL     OW25048   0.971   3.656   1.685
 8050SOL    HW125049   0.942   3.633   1.593
 8050SOL    HW225050   1.071   3.663   1.688
 8051SOL     OW25051   5.192   0.047   3.458
 8051SOL    HW125052   5.223   7.004   3.524
 8051SOL    HW225053   5.093   0.054   3.462
 8052SOL     OW25054   3.445   1.715   2.420
 8052SOL    HW125055   3.366   1.656   2.441
 8052SOL    HW225056   3.416   1.810   2.420
 8053SOL     OW25057   3.869   3.731   2.708
 8053SOL    HW125058   3.884   3.665   2.781
 8053SOL    HW225059   3.894   3.690   2.620
 8054SOL     OW25060   4.431   6.634   4.565
 8054SOL    HW125061   4.411   6.732   4.560
 8054SOL    HW225062   4.449   6.609   4.660
 8055SOL     OW25063   0.496   0.486   5.867
 8055SOL    HW125064   0.447   0.410   5.823
 8055SOL    HW225065   0.595   0.471   5.858
 8056SOL     OW25066   4.467   1.333   3.281
 8056SOL    HW125067   4.544   1.270   3.286
 8056SOL    HW225068   4.403   1.303   3.210
 8057SOL     OW25069   3.036   0.426   2.490
 8057SOL    HW125070   3.002   0.367   2.563
 8057SOL    HW225071   2.994   0.516   2.498
 8058SOL     OW25072   3.274   6.719   2.736
 8058SOL    HW125073   3.370   6.745   2.728
 8058SOL    HW225074   3.222   6.795   2.776
 8059SOL     OW25075   3.785   2.023   4.724
 8059SOL    HW125076   3.756   2.110   4.685
 8059SOL    HW225077   3.884   2.024   4.737
 8060SOL     OW25078   0.894   1.412   4.838
 8060SOL    HW125079   0.841   1.331   4.814
 8060SOL    HW225080   0.952   1.439   4.761
 8061SOL     OW25081   6.789   5.754   1.908
 8061SOL    HW125082   6.885   5.733   1.892
 8061SOL    HW225083   6.782   5.845   1.950
 8062SOL     OW25084   2.082   4.331   4.208
 8062SOL    HW125085   2.106   4.306   4.302
 8062SOL    HW225086   1.985   4.354   4.203
 8063SOL     OW25087   2.398   3.749   6.903
 8063SOL    HW125088   2.344   3.833   6.910
 8063SOL    HW225089   2.402   3.720   6.808
 8064SOL     OW25090   0.509   4.449   0.358
 8064SOL    HW125091   0.507   4.468   0.260
 8064SOL    HW225092   0.416   4.430   0.391
 8065SOL     OW25093   4.113   0.183   4.382
 8065SOL    HW125094   4.164   0.269   4.375
 8065SOL    HW225095   4.143   0.121   4.310
 8066SOL     OW25096   1.703   0.836   6.936
 8066SOL    HW125097   1.799   0.861   6.934
 8066SOL    HW225098   1.676   0.797   6.848
 8067SOL     OW25099   4.071   3.345   1.639
 8067SOL    HW125100   3.983   3.369   1.680
 8067SOL    HW225101   4.071   3.372   1.543
 8068SOL     OW25102   6.207   6.260   5.295
 8068SOL    HW125103   6.215   6.353   5.332
 8068SOL    HW225104   6.110   6.238   5.285
 8069SOL     OW25105   2.828   6.029   1.585
 8069SOL    HW125106   2.790   6.093   1.652
 8069SOL    HW225107   2.911   6.068   1.545
 8070SOL     OW25108   3.021   5.273   1.207
 8070SOL    HW125109   3.071   5.188   1.223
 8070SOL    HW225110   3.021   5.328   1.290
 8071SOL     OW25111   4.220   6.833   4.847
 8071SOL    HW125112   4.266   6.838   4.935
 8071SOL    HW225113   4.282   6.862   4.775
 8072SOL     OW25114   3.828   1.438   0.481
 8072SOL    HW125115   3.790   1.438   0.388
 8072SOL    HW225116   3.888   1.359   0.492
 8073SOL     OW25117   4.936   0.433   6.685
 8073SOL    HW125118   4.870   0.375   6.638
 8073SOL    HW225119   4.892   0.479   6.762
 8074SOL     OW25120   3.194   3.257   0.399
 8074SOL    HW125121   3.163   3.334   0.454
 8074SOL    HW225122   3.203   3.176   0.457
 8075SOL     OW25123   6.782   1.290   1.487
 8075SOL    HW125124   6.819   1.326   1.573
 8075SOL    HW225125   6.855   1.245   1.436
 8076SOL     OW25126   4.968   2.330   5.550
 8076SOL    HW125127   4.933   2.325   5.644
 8076SOL    HW225128   4.924   2.259   5.494
 8077SOL     OW25129   0.365   6.620   1.439
 8077SOL    HW125130   0.433   6.580   1.377
 8077SOL    HW225131   0.374   6.719   1.439
 8078SOL     OW25132   6.157   2.071   0.478
 8078SOL    HW125133   6.067   2.031   0.458
 8078SOL    HW225134   6.207   2.011   0.540
 8079SOL     OW25135   6.096   2.000   3.016
 8079SOL    HW125136   6.166   2.035   2.954
 8079SOL    HW225137   6.045   2.076   3.055
 8080SOL     OW25138   2.327   3.512   0.595
 8080SOL    HW125139   2.270   3.559   0.662
 8080SOL    HW225140   2.285   3.426   0.569
 8081SOL     OW25141   5.514   0.940   5.315
 8081SOL    HW125142   5.541   1.032   5.345
 8081SOL    HW225143   5.495   0.883   5.395
 8082SOL     OW25144   5.538   2.470   3.101
 8082SOL    HW125145   5.569   2.381   3.134
 8082SOL    HW225146   5.586   2.493   3.016
 8083SOL     OW25147   4.955   3.358   2.020
 8083SOL    HW125148   4.934   3.352   2.117
 8083SOL    HW225149   4.993   3.271   1.989
 8084SOL     OW25150   6.582   6.016   1.047
 8084SOL    HW125151   6.532   6.079   1.106
 8084SOL    HW225152   6.680   6.020   1.069
 8085SOL     OW25153   5.977   6.889   1.428
 8085SOL    HW125154   6.052   6.949   1.402
 8085SOL    HW225155   5.898   6.944   1.453
 8086SOL     OW25156   3.872   0.178   4.055
 8086SOL    HW125157   3.906   0.084   4.052
 8086SOL    HW225158   3.906   0.228   3.976
 8087SOL     OW25159   2.717   2.028   1.016
 8087SOL    HW125160   2.772   1.966   1.071
 8087SOL    HW225161   2.672   2.095   1.077
 8088SOL     OW25162   6.480   1.496   1.671
 8088SOL    HW125163   6.520   1.507   1.580
 8088SOL    HW225164   6.527   1.421   1.719
 8089SOL     OW25165   5.453   2.482   6.588
 8089SOL    HW125166   5.369   2.430   6.572
 8089SOL    HW225167   5.523   2.421   6.625
 8090SOL     OW25168   5.031   2.112   6.504
 8090SOL    HW125169   5.045   2.033   6.445
 8090SOL    HW225170   4.939   2.149   6.490
 8091SOL     OW25171   3.406   4.270   0.119
 8091SOL    HW125172   3.328   4.294   0.061
 8091SOL    HW225173   3.475   4.342   0.113
 8092SOL     OW25174   1.533   1.403   4.667
 8092SOL    HW125175   1.558   1.307   4.680
 8092SOL    HW225176   1.590   1.461   4.726
 8093SOL     OW25177   6.419   5.890   1.404
 8093SOL    HW125178   6.416   5.970   1.343
 8093SOL    HW225179   6.482   5.909   1.480
 8094SOL     OW25180   2.086   4.193   6.012
 8094SOL    HW125181   2.033   4.255   5.954
 8094SOL    HW225182   2.040   4.180   6.099
 8095SOL     OW25183   6.112   3.735   3.926
 8095SOL    HW125184   6.104   3.671   4.003
 8095SOL    HW225185   6.206   3.735   3.893
 8096SOL     OW25186   2.709   5.647   3.333
 8096SOL    HW125187   2.738   5.594   3.414
 8096SOL    HW225188   2.751   5.737   3.336
 8097SOL     OW25189   4.760   0.197   3.500
 8097SOL    HW125190   4.750   0.278   3.441
 8097SOL    HW225191   4.670   0.169   3.534
 8098SOL     OW25192   2.267   6.264   4.324
 8098SOL    HW125193   2.249   6.181   4.270
 8098SOL    HW225194   2.300   6.336   4.263
 8099SOL     OW25195   6.656   0.783   4.187
 8099SOL    HW125196   6.672   0.725   4.107
 8099SOL    HW225197   6.663   0.879   4.161
 8100SOL     OW25198   0.503   6.537   0.317
 8100SOL    HW125199   0.476   6.445   0.290
 8100SOL    HW225200   0.580   6.566   0.260
 8101SOL     OW25201   1.464   0.062   4.816
 8101SOL    HW125202   1.397   0.027   4.881
 8101SOL    HW225203   1.553   0.022   4.834
 8102SOL     OW25204   0.939   5.384   6.226
 8102SOL    HW125205   0.909   5.478   6.241
 8102SOL    HW225206   0.940   5.365   6.127
 8103SOL     OW25207   4.210   0.778   1.563
 8103SOL    HW125208   4.172   0.865   1.598
 8103SOL    HW225209   4.233   0.719   1.640
 8104SOL     OW25210   4.093   6.967   5.845
 8104SOL    HW125211   4.109   6.941   5.749
 8104SOL    HW225212   3.996   6.959   5.865
 8105SOL     OW25213   2.740   2.426   3.554
 8105SOL    HW125214   2.804   2.361   3.593
 8105SOL    HW225215   2.718   2.399   3.460
 8106SOL     OW25216   1.407   5.051   3.552
 8106SOL    HW125217   1.324   5.075   3.602
 8106SOL    HW225218   1.409   5.099   3.465
 8107SOL     OW25219   2.250   6.443   5.798
 8107SOL    HW125220   2.191   6.364   5.781
 8107SOL    HW225221   2.342   6.423   5.765
 8108SOL     OW25222   6.641   2.998   4.587
 8108SOL    HW125223   6.548   3.010   4.622
 8108SOL    HW225224   6.643   3.024   4.490
 8109SOL     OW25225   2.043   4.420   4.838
 8109SOL    HW125226   2.105   4.374   4.775
 8109SOL    HW225227   2.033   4.366   4.921
 8110SOL     OW25228   2.761   6.352   0.584
 8110SOL    HW125229   2.823   6.289   0.631
 8110SOL    HW225230   2.815   6.414   0.526
 8111SOL     OW25231   3.002   6.544   5.252
 8111SOL    HW125232   3.076   6.611   5.249
 8111SOL    HW225233   3.030   6.466   5.308
 8112SOL     OW25234   2.666   0.733   5.536
 8112SOL    HW125235   2.586   0.748   5.595
 8112SOL    HW225236   2.689   0.636   5.534
 8113SOL     OW25237   2.793   2.697   0.488
 8113SOL    HW125238   2.866   2.746   0.535
 8113SOL    HW225239   2.747   2.758   0.423
 8114SOL     OW25240   2.155   2.845   2.050
 8114SOL    HW125241   2.144   2.866   2.147
 8114SOL    HW225242   2.200   2.921   2.004
 8115SOL     OW25243   4.004   1.102   1.522
 8115SOL    HW125244   3.960   1.187   1.553
 8115SOL    HW225245   3.954   1.023   1.560
 8116SOL     OW25246   5.563   0.316   5.281
 8116SOL    HW125247   5.587   0.229   5.324
 8116SOL    HW225248   5.608   0.390   5.330
 8117SOL     OW25249   1.669   1.922   4.071
 8117SOL    HW125250   1.704   2.000   4.019
 8117SOL    HW225251   1.746   1.872   4.111
 8118SOL     OW25252   0.961   3.914   5.645
 8118SOL    HW125253   0.994   3.942   5.735
 8118SOL    HW225254   0.861   3.918   5.644
 8119SOL     OW25255   0.371   5.538   4.069
 8119SOL    HW125256   0.331   5.447   4.078
 8119SOL    HW225257   0.468   5.534   4.094
 8120SOL     OW25258   4.254   4.409   0.269
 8120SOL    HW125259   4.278   4.314   0.287
 8120SOL    HW225260   4.336   4.459   0.241
 8121SOL     OW25261   0.370   6.536   3.095
 8121SOL    HW125262   0.330   6.598   3.026
 8121SOL    HW225263   0.430   6.588   3.155
 8122SOL     OW25264   0.761   4.614   2.056
 8122SOL    HW125265   0.664   4.590   2.051
 8122SOL    HW225266   0.804   4.594   1.967
 8123SOL     OW25267   0.720   0.277   6.231
 8123SOL    HW125268   0.808   0.325   6.226
 8123SOL    HW225269   0.713   0.213   6.155
 8124SOL     OW25270   1.431   6.200   1.068
 8124SOL    HW125271   1.361   6.137   1.034
 8124SOL    HW225272   1.495   6.223   0.994
 8125SOL     OW25273   5.878   4.906   3.001
 8125SOL    HW125274   5.805   4.878   2.939
 8125SOL    HW225275   5.966   4.893   2.955
 8126SOL     OW25276   6.149   4.886   2.882
 8126SOL    HW125277   6.197   4.841   2.957
 8126SOL    HW225278   6.197   4.970   2.858
 8127SOL     OW25279   2.391   5.135   0.647
 8127SOL    HW125280   2.387   5.225   0.602
 8127SOL    HW225281   2.358   5.065   0.583
 8128SOL     OW25282   3.280   2.652   6.605
 8128SOL    HW125283   3.219   2.650   6.684
 8128SOL    HW225284   3.226   2.644   6.521
 8129SOL     OW25285   5.316   0.891   6.493
 8129SOL    HW125286   5.287   0.834   6.570
 8129SOL    HW225287   5.254   0.969   6.483
 8130SOL     OW25288   1.117   5.658   6.015
 8130SOL    HW125289   1.192   5.704   5.967
 8130SOL    HW225290   1.155   5.591   6.078
 8131SOL     OW25291   3.243   1.196   0.524
 8131SOL    HW125292   3.270   1.237   0.437
 8131SOL    HW225293   3.272   1.255   0.600
 8132SOL     OW25294   5.659   5.615   5.353
 8132SOL    HW125295   5.660   5.560   5.437
 8132SOL    HW225296   5.744   5.668   5.348
 8133SOL     OW25297   3.494   4.882   3.410
 8133SOL    HW125298   3.526   4.891   3.504
 8133SOL    HW225299   3.572   4.872   3.348
 8134SOL     OW25300   1.867   1.760   4.201
 8134SOL    HW125301   1.906   1.819   4.271
 8134SOL    HW225302   1.833   1.676   4.244
 8135SOL     OW25303   3.139   4.875   2.237
 8135SOL    HW125304   3.075   4.840   2.168
 8135SOL    HW225305   3.091   4.940   2.297
 8136SOL     OW25306   4.077   5.234   2.401
 8136SOL    HW125307   4.039   5.229   2.308
 8136SOL    HW225308   4.175   5.218   2.398
 8137SOL     OW25309   1.775   2.868   4.442
 8137SOL    HW125310   1.825   2.799   4.494
 8137SOL    HW225311   1.820   2.957   4.453
 8138SOL     OW25312   5.922   1.968   2.096
 8138SOL    HW125313   5.954   1.877   2.069
 8138SOL    HW225314   5.876   1.962   2.185
 8139SOL     OW25315   0.892   3.315   3.618
 8139SOL    HW125316   0.958   3.360   3.678
 8139SOL    HW225317   0.849   3.383   3.559
 8140SOL     OW25318   4.186   7.000   6.697
 8140SOL    HW125319   4.165   6.979   6.602
 8140SOL    HW225320   4.264   6.945   6.727
 8141SOL     OW25321   4.937   1.002   5.647
 8141SOL    HW125322   4.857   1.042   5.602
 8141SOL    HW225323   4.935   1.026   5.744
 8142SOL     OW25324   2.607   5.247   0.267
 8142SOL    HW125325   2.532   5.230   0.205
 8142SOL    HW225326   2.614   5.345   0.285
 8143SOL     OW25327   5.492   4.839   1.371
 8143SOL    HW125328   5.450   4.918   1.326
 8143SOL    HW225329   5.590   4.840   1.355
 8144SOL     OW25330   0.158   5.742   5.488
 8144SOL    HW125331   0.158   5.773   5.583
 8144SOL    HW225332   0.172   5.820   5.428
 8145SOL     OW25333   4.919   5.676   0.256
 8145SOL    HW125334   4.837   5.625   0.229
 8145SOL    HW225335   4.901   5.774   0.246
 8146SOL     OW25336   6.391   0.375   4.793
 8146SOL    HW125337   6.451   0.402   4.718
 8146SOL    HW225338   6.298   0.406   4.775
 8147SOL     OW25339   0.493   0.638   6.987
 8147SOL    HW125340   0.509   0.680   0.051
 8147SOL    HW225341   0.502   0.708   6.916
 8148SOL     OW25342   4.350   3.930   0.169
 8148SOL    HW125343   4.435   3.886   0.141
 8148SOL    HW225344   4.370   4.018   0.212
 8149SOL     OW25345   1.558   6.640   4.460
 8149SOL    HW125346   1.466   6.601   4.464
 8149SOL    HW225347   1.575   6.692   4.544
 8150SOL     OW25348   1.090   3.410   1.052
 8150SOL    HW125349   1.008   3.430   0.998
 8150SOL    HW225350   1.064   3.362   1.135
 8151SOL     OW25351   5.971   5.149   3.715
 8151SOL    HW125352   5.913   5.134   3.635
 8151SOL    HW225353   5.963   5.244   3.745
 8152SOL     OW25354   4.516   1.964   2.941
 8152SOL    HW125355   4.430   1.937   2.899
 8152SOL    HW225356   4.581   1.889   2.935
 8153SOL     OW25357   1.031   0.443   3.381
 8153SOL    HW125358   1.101   0.395   3.328
 8153SOL    HW225359   0.973   0.495   3.320
 8154SOL     OW25360   3.024   1.744   3.438
 8154SOL    HW125361   3.098   1.771   3.376
 8154SOL    HW225362   3.061   1.683   3.508
 8155SOL     OW25363   1.646   4.271   2.159
 8155SOL    HW125364   1.547   4.282   2.150
 8155SOL    HW225365   1.680   4.212   2.086
 8156SOL     OW25366   5.824   5.857   1.147
 8156SOL    HW125367   5.862   5.793   1.215
 8156SOL    HW225368   5.859   5.834   1.057
 8157SOL     OW25369   6.087   3.530   5.866
 8157SOL    HW125370   6.081   3.630   5.861
 8157SOL    HW225371   6.009   3.490   5.818
 8158SOL     OW25372   5.287   5.001   5.942
 8158SOL    HW125373   5.242   4.967   5.859
 8158SOL    HW225374   5.351   4.932   5.976
 8159SOL     OW25375   4.014   6.583   6.002
 8159SOL    HW125376   4.111   6.568   5.981
 8159SOL    HW225377   4.006   6.651   6.075
 8160SOL     OW25378   4.854   1.484   3.547
 8160SOL    HW125379   4.814   1.549   3.481
 8160SOL    HW225380   4.934   1.525   3.590
 8161SOL     OW25381   5.300   3.285   0.418
 8161SOL    HW125382   5.201   3.294   0.405
 8161SOL    HW225383   5.323   3.308   0.512
 8162SOL     OW25384   0.386   5.034   6.902
 8162SOL    HW125385   0.323   5.025   6.825
 8162SOL    HW225386   0.388   5.129   6.933
 8163SOL     OW25387   4.111   5.104   5.591
 8163SOL    HW125388   4.020   5.126   5.625
 8163SOL    HW225389   4.128   5.006   5.602
 8164SOL     OW25390   4.454   1.022   0.102
 8164SOL    HW125391   4.415   1.102   0.056
 8164SOL    HW225392   4.531   1.051   0.158
 8165SOL     OW25393   6.457   3.319   6.607
 8165SOL    HW125394   6.438   3.290   6.513
 8165SOL    HW225395   6.442   3.418   6.614
 8166SOL     OW25396   1.913   1.926   3.779
 8166SOL    HW125397   1.858   1.877   3.712
 8166SOL    HW225398   1.860   2.001   3.818
 8167SOL     OW25399   6.689   1.423   3.826
 8167SOL    HW125400   6.631   1.494   3.786
 8167SOL    HW225401   6.756   1.391   3.759
 8168SOL     OW25402   2.197   0.483   1.437
 8168SOL    HW125403   2.268   0.428   1.392
 8168SOL    HW225404   2.142   0.530   1.368
 8169SOL     OW25405   4.451   1.777   0.456
 8169SOL    HW125406   4.458   1.709   0.529
 8169SOL    HW225407   4.502   1.859   0.482
 8170SOL     OW25408   6.909   3.825   2.228
 8170SOL    HW125409   6.910   3.865   2.320
 8170SOL    HW225410   6.969   3.744   2.227
 8171SOL     OW25411   1.908   0.913   0.201
 8171SOL    HW125412   1.825   0.858   0.194
 8171SOL    HW225413   1.938   0.941   0.110
 8172SOL     OW25414   0.509   1.663   1.747
 8172SOL    HW125415   0.514   1.633   1.842
 8172SOL    HW225416   0.600   1.691   1.716
 8173SOL     OW25417   6.062   1.977   2.500
 8173SOL    HW125418   6.047   1.915   2.577
 8173SOL    HW225419   6.049   1.927   2.414
 8174SOL     OW25420   1.361   6.409   2.401
 8174SOL    HW125421   1.355   6.387   2.303
 8174SOL    HW225422   1.441   6.466   2.417
 8175SOL     OW25423   0.729   2.505   3.984
 8175SOL    HW125424   0.720   2.460   4.072
 8175SOL    HW225425   0.682   2.593   3.987
 8176SOL     OW25426   1.600   4.367   1.530
 8176SOL    HW125427   1.687   4.372   1.480
 8176SOL    HW225428   1.586   4.452   1.581
 8177SOL     OW25429   3.584   0.863   3.077
 8177SOL    HW125430   3.498   0.908   3.053
 8177SOL    HW225431   3.646   0.929   3.120
 8178SOL     OW25432   3.133   6.394   0.801
 8178SOL    HW125433   3.188   6.477   0.789
 8178SOL    HW225434   3.187   6.314   0.774
 8179SOL     OW25435   5.840   0.558   4.050
 8179SOL    HW125436   5.744   0.571   4.027
 8179SOL    HW225437   5.852   0.569   4.149
 8180SOL     OW25438   5.886   0.001   6.690
 8180SOL    HW125439   5.858   0.073   6.754
 8180SOL    HW225440   5.952   6.966   6.736
 8181SOL     OW25441   0.809   0.891   1.138
 8181SOL    HW125442   0.901   0.884   1.098
 8181SOL    HW225443   0.816   0.884   1.237
 8182SOL     OW25444   3.745   3.498   4.553
 8182SOL    HW125445   3.768   3.439   4.631
 8182SOL    HW225446   3.682   3.570   4.583
 8183SOL     OW25447   6.765   1.075   5.096
 8183SOL    HW125448   6.713   1.159   5.081
 8183SOL    HW225449   6.829   1.061   5.021
 8184SOL     OW25450   1.099   6.873   0.244
 8184SOL    HW125451   1.009   6.914   0.234
 8184SOL    HW225452   1.169   6.938   0.213
 8185SOL     OW25453   1.908   0.689   1.320
 8185SOL    HW125454   1.917   0.614   1.385
 8185SOL    HW225455   1.818   0.732   1.331
 8186SOL     OW25456   1.710   4.517   6.370
 8186SOL    HW125457   1.637   4.460   6.408
 8186SOL    HW225458   1.789   4.515   6.430
 8187SOL     OW25459   2.348   1.810   5.196
 8187SOL    HW125460   2.251   1.831   5.201
 8187SOL    HW225461   2.396   1.884   5.148
 8188SOL     OW25462   4.221   2.125   3.763
 8188SOL    HW125463   4.282   2.201   3.784
 8188SOL    HW225464   4.127   2.157   3.756
 8189SOL     OW25465   5.354   4.744   3.610
 8189SOL    HW125466   5.435   4.688   3.624
 8189SOL    HW225467   5.334   4.795   3.693
 8190SOL     OW25468   5.221   3.918   3.367
 8190SOL    HW125469   5.224   3.836   3.424
 8190SOL    HW225470   5.226   3.891   3.271
 8191SOL     OW25471   4.392   5.082   2.096
 8191SOL    HW125472   4.377   5.112   2.002
 8191SOL    HW225473   4.490   5.087   2.117
 8192SOL     OW25474   1.711   5.349   2.279
 8192SOL    HW125475   1.748   5.341   2.186
 8192SOL    HW225476   1.615   5.379   2.274
 8193SOL     OW25477   6.859   5.632   4.548
 8193SOL    HW125478   6.945   5.590   4.519
 8193SOL    HW225479   6.858   5.728   4.520
 8194SOL     OW25480   4.336   0.160   0.806
 8194SOL    HW125481   4.291   0.203   0.727
 8194SOL    HW225482   4.435   0.162   0.793
 8195SOL     OW25483   6.288   6.745   4.337
 8195SOL    HW125484   6.202   6.739   4.388
 8195SOL    HW225485   6.276   6.705   4.246
 8196SOL     OW25486   4.367   0.588   6.782
 8196SOL    HW125487   4.342   0.521   6.712
 8196SOL    HW225488   4.387   0.676   6.739
 8197SOL     OW25489   4.639   1.656   1.631
 8197SOL    HW125490   4.647   1.557   1.638
 8197SOL    HW225491   4.656   1.685   1.537
 8198SOL     OW25492   2.701   0.406   2.090
 8198SOL    HW125493   2.719   0.353   2.173
 8198SOL    HW225494   2.712   0.503   2.110
 8199SOL     OW25495   4.552   3.150   5.925
 8199SOL    HW125496   4.586   3.229   5.976
 8199SOL    HW225497   4.532   3.075   5.988
 8200SOL     OW25498   5.919   4.292   2.062
 8200SOL    HW125499   5.879   4.206   2.030
 8200SOL    HW225500   5.944   4.348   1.983
 8201SOL     OW25501   0.324   1.477   5.206
 8201SOL    HW125502   0.235   1.489   5.163
 8201SOL    HW225503   0.369   1.396   5.169
 8202SOL     OW25504   0.209   6.566   2.686
 8202SOL    HW125505   0.206   6.530   2.593
 8202SOL    HW225506   0.304   6.574   2.716
 8203SOL     OW25507   2.056   2.268   0.225
 8203SOL    HW125508   2.031   2.284   0.320
 8203SOL    HW225509   2.001   2.327   0.165
 8204SOL     OW25510   4.105   3.806   0.839
 8204SOL    HW125511   4.178   3.738   0.852
 8204SOL    HW225512   4.146   3.894   0.816
 8205SOL     OW25513   0.431   2.763   6.870
 8205SOL    HW125514   0.359   2.819   6.829
 8205SOL    HW225515   0.509   2.758   6.808
 8206SOL     OW25516   4.957   1.154   0.337
 8206SOL    HW125517   5.053   1.172   0.356
 8206SOL    HW225518   4.949   1.086   0.264
 8207SOL     OW25519   3.073   3.994   4.247
 8207SOL    HW125520   3.115   4.036   4.167
 8207SOL    HW225521   3.103   4.043   4.329
 8208SOL     OW25522   0.800   1.256   0.558
 8208SOL    HW125523   0.808   1.162   0.525
 8208SOL    HW225524   0.719   1.264   0.616
 8209SOL     OW25525   0.665   1.146   5.287
 8209SOL    HW125526   0.628   1.201   5.363
 8209SOL    HW225527   0.678   1.052   5.318
 8210SOL     OW25528   2.166   2.654   0.517
 8210SOL    HW125529   2.157   2.686   0.611
 8210SOL    HW225530   2.100   2.701   0.459
 8211SOL     OW25531   3.587   4.135   1.290
 8211SOL    HW125532   3.518   4.082   1.339
 8211SOL    HW225533   3.678   4.100   1.314
 8212SOL     OW25534   1.317   2.356   2.869
 8212SOL    HW125535   1.317   2.323   2.775
 8212SOL    HW225536   1.285   2.451   2.871
 8213SOL     OW25537   6.771   4.418   1.984
 8213SOL    HW125538   6.817   4.498   2.023
 8213SOL    HW225539   6.672   4.429   1.993
 8214SOL     OW25540   5.696   4.880   3.568
 8214SOL    HW125541   5.713   4.789   3.606
 8214SOL    HW225542   5.781   4.917   3.532
 8215SOL     OW25543   3.277   6.128   5.458
 8215SOL    HW125544   3.314   6.218   5.480
 8215SOL    HW225545   3.351   6.068   5.426
 8216SOL     OW25546   5.336   6.180   4.496
 8216SOL    HW125547   5.241   6.157   4.520
 8216SOL    HW225548   5.342   6.201   4.399
 8217SOL     OW25549   2.281   4.882   6.964
 8217SOL    HW125550   2.188   4.845   6.976
 8217SOL    HW225551   2.324   4.837   6.886
 8218SOL     OW25552   0.834   1.521   6.728
 8218SOL    HW125553   0.918   1.468   6.719
 8218SOL    HW225554   0.841   1.581   6.809
 8219SOL     OW25555   4.860   1.559   0.488
 8219SOL    HW125556   4.938   1.513   0.446
 8219SOL    HW225557   4.823   1.627   0.424
 8220SOL     OW25558   3.296   3.275   2.778
 8220SOL    HW125559   3.305   3.353   2.840
 8220SOL    HW225560   3.385   3.254   2.738
 8221SOL     OW25561   4.892   6.124   4.241
 8221SOL    HW125562   4.832   6.108   4.320
 8221SOL    HW225563   4.964   6.189   4.267
 8222SOL     OW25564   5.422   1.804   2.235
 8222SOL    HW125565   5.366   1.809   2.318
 8222SOL    HW225566   5.382   1.864   2.165
 8223SOL     OW25567   1.692   3.853   5.734
 8223SOL    HW125568   1.662   3.794   5.659
 8223SOL    HW225569   1.772   3.906   5.705
 8224SOL     OW25570   0.731   2.592   2.748
 8224SOL    HW125571   0.773   2.585   2.657
 8224SOL    HW225572   0.793   2.553   2.816
 8225SOL     OW25573   3.696   1.010   0.625
 8225SOL    HW125574   3.756   0.946   0.578
 8225SOL    HW225575   3.644   1.063   0.557
 8226SOL     OW25576   5.047   0.450   2.460
 8226SOL    HW125577   5.141   0.421   2.478
 8226SOL    HW225578   4.995   0.374   2.423
 8227SOL     OW25579   0.377   2.707   3.826
 8227SOL    HW125580   0.425   2.770   3.765
 8227SOL    HW225581   0.389   2.736   3.920
 8228SOL     OW25582   0.502   2.725   6.216
 8228SOL    HW125583   0.429   2.782   6.253
 8228SOL    HW225584   0.528   2.759   6.126
 8229SOL     OW25585   3.696   4.149   0.251
 8229SOL    HW125586   3.743   4.201   0.179
 8229SOL    HW225587   3.704   4.051   0.232
 8230SOL     OW25588   5.671   0.177   5.652
 8230SOL    HW125589   5.745   0.142   5.593
 8230SOL    HW225590   5.589   0.121   5.639
 8231SOL     OW25591   4.040   5.651   1.436
 8231SOL    HW125592   3.972   5.654   1.510
 8231SOL    HW225593   4.131   5.635   1.475
 8232SOL     OW25594   5.583   1.223   0.745
 8232SOL    HW125595   5.555   1.212   0.840
 8232SOL    HW225596   5.577   1.319   0.720
 8233SOL     OW25597   0.944   5.850   6.005
 8233SOL    HW125598   0.970   5.912   6.079
 8233SOL    HW225599   1.010   5.776   5.997
 8234SOL     OW25600   2.771   3.480   6.798
 8234SOL    HW125601   2.849   3.542   6.799
 8234SOL    HW225602   2.696   3.519   6.852
 8235SOL     OW25603   2.080   3.395   0.815
 8235SOL    HW125604   2.145   3.321   0.831
 8235SOL    HW225605   2.002   3.359   0.763
 8236SOL     OW25606   6.548   3.645   0.196
 8236SOL    HW125607   6.467   3.694   0.162
 8236SOL    HW225608   6.554   3.556   0.149
 8237SOL     OW25609   4.815   6.551   4.869
 8237SOL    HW125610   4.907   6.520   4.893
 8237SOL    HW225611   4.821   6.635   4.815
 8238SOL     OW25612   1.401   4.325   0.214
 8238SOL    HW125613   1.435   4.418   0.223
 8238SOL    HW225614   1.457   4.276   0.147
 8239SOL     OW25615   6.738   1.268   5.617
 8239SOL    HW125616   6.775   1.186   5.572
 8239SOL    HW225617   6.805   1.341   5.613
 8240SOL     OW25618   3.613   3.652   2.628
 8240SOL    HW125619   3.689   3.716   2.624
 8240SOL    HW225620   3.634   3.579   2.694
 8241SOL     OW25621   3.677   6.584   0.306
 8241SOL    HW125622   3.592   6.545   0.270
 8241SOL    HW225623   3.755   6.542   0.259
 8242SOL     OW25624   1.270   4.180   6.042
 8242SOL    HW125625   1.342   4.214   5.982
 8242SOL    HW225626   1.277   4.080   6.050
 8243SOL     OW25627   0.921   3.034   6.501
 8243SOL    HW125628   0.857   3.083   6.560
 8243SOL    HW225629   1.014   3.066   6.520
 8244SOL     OW25630   0.267   6.928   3.128
 8244SOL    HW125631   0.362   6.958   3.138
 8244SOL    HW225632   0.256   6.883   3.039
 8245SOL     OW25633   3.408   0.916   2.613
 8245SOL    HW125634   3.374   0.964   2.533
 8245SOL    HW225635   3.500   0.881   2.594
 8246SOL     OW25636   6.670   3.530   5.542
 8246SOL    HW125637   6.660   3.441   5.586
 8246SOL    HW225638   6.648   3.602   5.607
 8247SOL     OW25639   1.047   0.136   2.181
 8247SOL    HW125640   1.073   0.170   2.271
 8247SOL    HW225641   0.999   0.208   2.130
 8248SOL     OW25642   5.548   4.907   2.935
 8248SOL    HW125643   5.548   4.898   2.836
 8248SOL    HW225644   5.508   4.995   2.961
 8249SOL     OW25645   2.190   3.394   5.053
 8249SOL    HW125646   2.248   3.414   5.133
 8249SOL    HW225647   2.193   3.471   4.990
 8250SOL     OW25648   3.048   3.934   2.370
 8250SOL    HW125649   3.045   3.958   2.467
 8250SOL    HW225650   2.959   3.949   2.328
 8251SOL     OW25651   6.049   2.847   4.474
 8251SOL    HW125652   6.103   2.774   4.517
 8251SOL    HW225653   6.065   2.846   4.375
 8252SOL     OW25654   3.255   3.171   6.905
 8252SOL    HW125655   3.234   3.224   6.986
 8252SOL    HW225656   3.351   3.183   6.879
 8253SOL     OW25657   4.093   3.815   5.140
 8253SOL    HW125658   4.026   3.744   5.161
 8253SOL    HW225659   4.059   3.871   5.064
 8254SOL     OW25660   4.533   4.654   4.605
 8254SOL    HW125661   4.550   4.752   4.607
 8254SOL    HW225662   4.510   4.626   4.512
 8255SOL     OW25663   3.322   6.113   5.105
 8255SOL    HW125664   3.326   6.211   5.123
 8255SOL    HW225665   3.378   6.065   5.173
 8256SOL     OW25666   6.454   0.695   1.960
 8256SOL    HW125667   6.359   0.697   1.931
 8256SOL    HW225668   6.481   0.786   1.993
 8257SOL     OW25669   6.607   3.887   3.317
 8257SOL    HW125670   6.536   3.890   3.388
 8257SOL    HW225671   6.668   3.966   3.328
 8258SOL     OW25672   5.436   1.030   0.555
 8258SOL    HW125673   5.472   1.069   0.639
 8258SOL    HW225674   5.495   1.057   0.478
 8259SOL     OW25675   4.182   1.631   3.587
 8259SOL    HW125676   4.266   1.635   3.641
 8259SOL    HW225677   4.149   1.724   3.568
 8260SOL     OW25678   2.844   0.557   1.832
 8260SOL    HW125679   2.803   0.554   1.924
 8260SOL    HW225680   2.890   0.645   1.819
 8261SOL     OW25681   6.351   1.258   1.344
 8261SOL    HW125682   6.419   1.328   1.367
 8261SOL    HW225683   6.381   1.169   1.377
 8262SOL     OW25684   0.913   2.929   1.086
 8262SOL    HW125685   0.864   2.956   1.003
 8262SOL    HW225686   0.964   3.007   1.122
 8263SOL     OW25687   0.532   2.254   0.383
 8263SOL    HW125688   0.485   2.285   0.300
 8263SOL    HW225689   0.616   2.307   0.395
 8264SOL     OW25690   1.882   6.369   2.189
 8264SOL    HW125691   1.845   6.462   2.189
 8264SOL    HW225692   1.932   6.353   2.103
 8265SOL     OW25693   0.942   6.807   1.378
 8265SOL    HW125694   0.892   6.798   1.464
 8265SOL    HW225695   0.880   6.837   1.306
 8266SOL     OW25696   2.079   0.797   3.305
 8266SOL    HW125697   2.172   0.784   3.271
 8266SOL    HW225698   2.032   0.709   3.306
 8267SOL     OW25699   1.667   3.111   0.773
 8267SOL    HW125700   1.760   3.074   0.776
 8267SOL    HW225701   1.602   3.039   0.795
 8268SOL     OW25702   2.299   6.476   6.053
 8268SOL    HW125703   2.291   6.467   5.954
 8268SOL    HW225704   2.360   6.552   6.075
 8269SOL     OW25705   5.779   1.590   1.455
 8269SOL    HW125706   5.729   1.566   1.372
 8269SOL    HW225707   5.818   1.681   1.445
 8270SOL     OW25708   2.685   6.617   4.943
 8270SOL    HW125709   2.640   6.607   5.032
 8270SOL    HW225710   2.677   6.532   4.892
 8271SOL     OW25711   0.112   1.124   2.584
 8271SOL    HW125712   0.204   1.136   2.621
 8271SOL    HW225713   0.118   1.094   2.488
 8272SOL     OW25714   5.113   1.358   1.195
 8272SOL    HW125715   5.209   1.365   1.222
 8272SOL    HW225716   5.057   1.416   1.253
 8273SOL     OW25717   2.178   6.062   0.989
 8273SOL    HW125718   2.239   5.983   0.979
 8273SOL    HW225719   2.137   6.061   1.080
 8274SOL     OW25720   4.825   4.579   3.060
 8274SOL    HW125721   4.804   4.630   3.144
 8274SOL    HW225722   4.825   4.642   2.982
 8275SOL     OW25723   4.395   1.554   5.908
 8275SOL    HW125724   4.351   1.495   5.840
 8275SOL    HW225725   4.486   1.519   5.928
 8276SOL     OW25726   1.399   2.284   3.941
 8276SOL    HW125727   1.408   2.194   3.984
 8276SOL    HW225728   1.472   2.297   3.874
 8277SOL     OW25729   0.002   1.127   7.020
 8277SOL    HW125730   0.055   1.147   0.077
 8277SOL    HW225731   6.930   1.140   0.013
 8278SOL     OW25732   2.714   1.822   5.986
 8278SOL    HW125733   2.780   1.897   5.996
 8278SOL    HW225734   2.698   1.779   6.075
 8279SOL     OW25735   1.588   0.529   4.511
 8279SOL    HW125736   1.566   0.545   4.607
 8279SOL    HW225737   1.532   0.588   4.453
 8280SOL     OW25738   2.377   3.116   0.313
 8280SOL    HW125739   2.342   3.187   0.375
 8280SOL    HW225740   2.430   3.050   0.365
 8281SOL     OW25741   1.802   4.839   1.309
 8281SOL    HW125742   1.782   4.858   1.213
 8281SOL    HW225743   1.728   4.784   1.348
 8282SOL     OW25744   5.695   3.921   6.787
 8282SOL    HW125745   5.691   3.834   6.837
 8282SOL    HW225746   5.716   3.903   6.691
 8283SOL     OW25747   1.487   4.392   6.493
 8283SOL    HW125748   1.399   4.426   6.528
 8283SOL    HW225749   1.476   4.300   6.457
 8284SOL     OW25750   0.683   3.743   0.771
 8284SOL    HW125751   0.675   3.752   0.672
 8284SOL    HW225752   0.774   3.706   0.793
 8285SOL     OW25753   3.397   2.883   4.891
 8285SOL    HW125754   3.341   2.966   4.886
 8285SOL    HW225755   3.351   2.815   4.949
 8286SOL     OW25756   5.380   3.359   6.672
 8286SOL    HW125757   5.416   3.277   6.717
 8286SOL    HW225758   5.418   3.440   6.717
 8287SOL     OW25759   2.116   5.308   4.397
 8287SOL    HW125760   2.131   5.211   4.376
 8287SOL    HW225761   2.045   5.344   4.337
 8288SOL     OW25762   2.975   1.772   1.755
 8288SOL    HW125763   2.943   1.867   1.753
 8288SOL    HW225764   2.974   1.735   1.662
 8289SOL     OW25765   0.457   5.867   1.663
 8289SOL    HW125766   0.508   5.946   1.631
 8289SOL    HW225767   0.464   5.861   1.762
 8290SOL     OW25768   5.877   0.904   0.859
 8290SOL    HW125769   5.829   0.949   0.784
 8290SOL    HW225770   5.898   0.809   0.833
 8291SOL     OW25771   4.455   5.866   6.219
 8291SOL    HW125772   4.369   5.835   6.180
 8291SOL    HW225773   4.446   5.873   6.318
 8292SOL     OW25774   2.618   6.363   6.927
 8292SOL    HW125775   2.623   6.281   6.985
 8292SOL    HW225776   2.528   6.404   6.936
 8293SOL     OW25777   3.405   6.864   0.055
 8293SOL    HW125778   3.319   6.863   0.004
 8293SOL    HW225779   3.473   6.810   0.006
 8294SOL     OW25780   5.853   4.875   4.637
 8294SOL    HW125781   5.853   4.890   4.538
 8294SOL    HW225782   5.761   4.890   4.673
 8295SOL     OW25783   5.393   5.459   1.708
 8295SOL    HW125784   5.413   5.435   1.613
 8295SOL    HW225785   5.461   5.416   1.768
 8296SOL     OW25786   2.685   6.498   6.565
 8296SOL    HW125787   2.612   6.435   6.591
 8296SOL    HW225788   2.699   6.494   6.466
 8297SOL     OW25789   6.802   2.720   2.495
 8297SOL    HW125790   6.897   2.699   2.474
 8297SOL    HW225791   6.797   2.806   2.547
 8298SOL     OW25792   6.041   2.520   1.345
 8298SOL    HW125793   6.057   2.458   1.269
 8298SOL    HW225794   6.099   2.601   1.335
 8299SOL     OW25795   0.045   2.252   1.912
 8299SOL    HW125796   0.060   2.349   1.929
 8299SOL    HW225797   0.092   2.225   1.828
 8300SOL     OW25798   0.815   6.123   5.354
 8300SOL    HW125799   0.798   6.046   5.416
 8300SOL    HW225800   0.889   6.099   5.291
 8301SOL     OW25801   4.169   1.709   1.729
 8301SOL    HW125802   4.161   1.775   1.654
 8301SOL    HW225803   4.182   1.617   1.692
 8302SOL     OW25804   5.264   6.025   5.955
 8302SOL    HW125805   5.328   6.060   6.024
 8302SOL    HW225806   5.288   5.931   5.932
 8303SOL     OW25807   6.891   1.181   4.067
 8303SOL    HW125808   6.809   1.124   4.076
 8303SOL    HW225809   6.901   1.238   4.148
 8304SOL     OW25810   1.134   3.020   0.461
 8304SOL    HW125811   1.176   3.024   0.370
 8304SOL    HW225812   1.103   3.111   0.487
 8305SOL     OW25813   3.799   4.895   4.326
 8305SOL    HW125814   3.844   4.978   4.293
 8305SOL    HW225815   3.864   4.842   4.380
 8306SOL     OW25816   0.211   2.976   5.368
 8306SOL    HW125817   0.238   2.983   5.272
 8306SOL    HW225818   0.256   2.897   5.409
 8307SOL     OW25819   4.319   5.004   1.557
 8307SOL    HW125820   4.281   5.089   1.522
 8307SOL    HW225821   4.284   4.927   1.504
 8308SOL     OW25822   4.325   5.810   1.527
 8308SOL    HW125823   4.262   5.873   1.572
 8308SOL    HW225824   4.411   5.807   1.578
 8309SOL     OW25825   6.395   5.490   3.486
 8309SOL    HW125826   6.451   5.427   3.540
 8309SOL    HW225827   6.446   5.575   3.472
 8310SOL     OW25828   1.144   4.128   0.487
 8310SOL    HW125829   1.056   4.099   0.524
 8310SOL    HW225830   1.212   4.132   0.559
 8311SOL     OW25831   0.514   1.301   4.858
 8311SOL    HW125832   0.563   1.218   4.832
 8311SOL    HW225833   0.416   1.286   4.849
 8312SOL     OW25834   4.361   5.888   1.066
 8312SOL    HW125835   4.458   5.890   1.042
 8312SOL    HW225836   4.339   5.967   1.123
 8313SOL     OW25837   5.123   1.170   2.385
 8313SOL    HW125838   5.026   1.177   2.360
 8313SOL    HW225839   5.131   1.164   2.484
 8314SOL     OW25840   4.761   6.794   1.237
 8314SOL    HW125841   4.666   6.765   1.252
 8314SOL    HW225842   4.822   6.737   1.292
 8315SOL     OW25843   4.175   3.478   1.089
 8315SOL    HW125844   4.203   3.384   1.110
 8315SOL    HW225845   4.161   3.528   1.174
 8316SOL     OW25846   0.992   2.249   1.866
 8316SOL    HW125847   0.903   2.212   1.891
 8316SOL    HW225848   1.003   2.246   1.767
 8317SOL     OW25849   2.459   2.576   2.415
 8317SOL    HW125850   2.509   2.590   2.330
 8317SOL    HW225851   2.368   2.616   2.407
 8318SOL     OW25852   4.094   1.332   4.349
 8318SOL    HW125853   4.064   1.304   4.258
 8318SOL    HW225854   4.023   1.388   4.391
 8319SOL     OW25855   3.131   1.825   6.357
 8319SOL    HW125856   3.180   1.739   6.344
 8319SOL    HW225857   3.125   1.873   6.270
 8320SOL     OW25858   3.490   3.776   1.328
 8320SOL    HW125859   3.585   3.749   1.315
 8320SOL    HW225860   3.479   3.816   1.419
 8321SOL     OW25861   0.543   1.228   0.163
 8321SOL    HW125862   0.507   1.146   0.118
 8321SOL    HW225863   0.469   1.294   0.175
 8322SOL     OW25864   0.227   0.295   0.573
 8322SOL    HW125865   0.155   0.250   0.521
 8322SOL    HW225866   0.307   0.310   0.514
 8323SOL     OW25867   6.353   6.601   2.962
 8323SOL    HW125868   6.440   6.620   3.008
 8323SOL    HW225869   6.290   6.559   3.027
 8324SOL     OW25870   6.109   0.824   1.701
 8324SOL    HW125871   6.182   0.891   1.685
 8324SOL    HW225872   6.113   0.794   1.797
 8325SOL     OW25873   3.235   3.351   5.247
 8325SOL    HW125874   3.272   3.314   5.162
 8325SOL    HW225875   3.146   3.308   5.266
 8326SOL     OW25876   4.701   3.026   5.257
 8326SOL    HW125877   4.692   3.115   5.300
 8326SOL    HW225878   4.646   2.959   5.308
 8327SOL     OW25879   5.655   2.566   6.269
 8327SOL    HW125880   5.590   2.620   6.321
 8327SOL    HW225881   5.634   2.574   6.171
 8328SOL     OW25882   2.915   4.223   6.427
 8328SOL    HW125883   2.862   4.285   6.370
 8328SOL    HW225884   2.927   4.136   6.380
 8329SOL     OW25885   6.944   4.079   6.241
 8329SOL    HW125886   6.929   4.140   6.163
 8329SOL    HW225887   0.016   4.059   6.250
 8330SOL     OW25888   2.491   7.008   0.730
 8330SOL    HW125889   2.587   6.984   0.745
 8330SOL    HW225890   2.433   6.930   0.756
 8331SOL     OW25891   2.496   0.923   1.571
 8331SOL    HW125892   2.494   0.891   1.665
 8331SOL    HW225893   2.556   0.865   1.517
 8332SOL     OW25894   4.819   5.318   2.483
 8332SOL    HW125895   4.724   5.337   2.508
 8332SOL    HW225896   4.822   5.243   2.417
 8333SOL     OW25897   0.709   6.499   6.829
 8333SOL    HW125898   0.753   6.443   6.760
 8333SOL    HW225899   0.625   6.454   6.861
 8334SOL     OW25900   4.429   1.493   4.137
 8334SOL    HW125901   4.365   1.567   4.153
 8334SOL    HW225902   4.500   1.494   4.208
 8335SOL     OW25903   6.399   5.575   6.150
 8335SOL    HW125904   6.349   5.508   6.096
 8335SOL    HW225905   6.472   5.616   6.095
 8336SOL     OW25906   0.120   0.155   2.195
 8336SOL    HW125907   0.064   0.219   2.247
 8336SOL    HW225908   0.204   0.135   2.247
 8337SOL     OW25909   0.820   6.654   3.033
 8337SOL    HW125910   0.756   6.578   3.041
 8337SOL    HW225911   0.869   6.667   3.119
 8338SOL     OW25912   1.547   5.117   2.069
 8338SOL    HW125913   1.642   5.148   2.074
 8338SOL    HW225914   1.528   5.056   2.146
 8339SOL     OW25915   6.079   0.657   1.246
 8339SOL    HW125916   5.983   0.681   1.262
 8339SOL    HW225917   6.110   0.597   1.320
 8340SOL     OW25918   5.380   4.188   1.210
 8340SOL    HW125919   5.419   4.227   1.126
 8340SOL    HW225920   5.289   4.227   1.226
 8341SOL     OW25921   2.792   6.546   7.022
 8341SOL    HW125922   2.728   6.488   6.972
 8341SOL    HW225923   2.874   6.494   0.020
 8342SOL     OW25924   3.746   0.246   1.460
 8342SOL    HW125925   3.698   0.308   1.522
 8342SOL    HW225926   3.708   0.154   1.469
 8343SOL     OW25927   1.078   4.845   6.032
 8343SOL    HW125928   1.064   4.746   6.030
 8343SOL    HW225929   1.104   4.878   5.941
 8344SOL     OW25930   4.705   0.328   5.303
 8344SOL    HW125931   4.708   0.296   5.208
 8344SOL    HW225932   4.760   0.412   5.311
 8345SOL     OW25933   5.390   1.806   3.855
 8345SOL    HW125934   5.432   1.891   3.888
 8345SOL    HW225935   5.333   1.826   3.776
 8346SOL     OW25936   3.213   4.543   0.412
 8346SOL    HW125937   3.122   4.585   0.405
 8346SOL    HW225938   3.280   4.612   0.440
 8347SOL     OW25939   3.407   6.501   4.913
 8347SOL    HW125940   3.428   6.543   4.824
 8347SOL    HW225941   3.486   6.448   4.944
 8348SOL     OW25942   0.814   6.611   1.807
 8348SOL    HW125943   0.790   6.591   1.712
 8348SOL    HW225944   0.913   6.615   1.817
 8349SOL     OW25945   6.055   5.761   1.397
 8349SOL    HW125946   6.087   5.675   1.436
 8349SOL    HW225947   6.109   5.783   1.316
 8350SOL     OW25948   4.990   1.271   4.669
 8350SOL    HW125949   5.006   1.172   4.679
 8350SOL    HW225950   4.997   1.315   4.759
 8351SOL     OW25951   4.680   5.304   4.364
 8351SOL    HW125952   4.730   5.352   4.291
 8351SOL    HW225953   4.746   5.260   4.425
 8352SOL     OW25954   0.000   6.683   2.498
 8352SOL    HW125955   6.981   6.598   2.528
 8352SOL    HW225956   0.097   6.664   2.479
 8353SOL     OW25957   5.963   3.943   2.023
 8353SOL    HW125958   6.053   3.981   2.046
 8353SOL    HW225959   5.973   3.881   1.945
 8354SOL     OW25960   3.233   0.734   6.828
 8354SOL    HW125961   3.273   0.643   6.820
 8354SOL    HW225962   3.198   0.764   6.740
 8355SOL     OW25963   3.003   0.465   0.034
 8355SOL    HW125964   2.994   0.489   6.962
 8355SOL    HW225965   2.981   0.545   0.090
 8356SOL     OW25966   1.616   6.119   0.506
 8356SOL    HW125967   1.587   6.214   0.508
 8356SOL    HW225968   1.686   6.104   0.576
 8357SOL     OW25969   3.841   6.922   5.933
 8357SOL    HW125970   3.840   6.831   5.892
 8357SOL    HW225971   3.875   6.916   6.027
 8358SOL     OW25972   1.552   2.988   5.362
 8358SOL    HW125973   1.507   3.071   5.329
 8358SOL    HW225974   1.651   2.999   5.356
 8359SOL     OW25975   3.117   6.247   4.281
 8359SOL    HW125976   3.098   6.202   4.369
 8359SOL    HW225977   3.150   6.339   4.297
 8360SOL     OW25978   3.502   6.086   1.820
 8360SOL    HW125979   3.466   6.029   1.746
 8360SOL    HW225980   3.507   6.181   1.789
 8361SOL     OW25981   2.079   0.451   2.431
 8361SOL    HW125982   2.118   0.375   2.484
 8361SOL    HW225983   2.112   0.537   2.468
 8362SOL     OW25984   2.624   2.172   0.803
 8362SOL    HW125985   2.647   2.122   0.719
 8362SOL    HW225986   2.650   2.116   0.883
 8363SOL     OW25987   0.193   2.356   6.974
 8363SOL    HW125988   0.158   2.424   6.909
 8363SOL    HW225989   0.252   2.291   6.927
 8364SOL     OW25990   6.289   3.404   2.948
 8364SOL    HW125991   6.293   3.404   2.848
 8364SOL    HW225992   6.328   3.319   2.983
 8365SOL     OW25993   1.241   4.356   1.550
 8365SOL    HW125994   1.168   4.333   1.615
 8365SOL    HW225995   1.262   4.276   1.493
 8366SOL     OW25996   3.667   5.180   2.294
 8366SOL    HW125997   3.573   5.174   2.327
 8366SOL    HW225998   3.705   5.088   2.285
 8367SOL     OW25999   3.902   6.004   3.757
 8367SOL    HW126000   3.865   6.087   3.718
 8367SOL    HW226001   3.888   5.928   3.693
 8368SOL     OW26002   2.477   6.282   6.114
 8368SOL    HW126003   2.423   6.357   6.076
 8368SOL    HW226004   2.522   6.232   6.040
 8369SOL     OW26005   2.083   0.083   6.749
 8369SOL    HW126006   2.010   0.098   6.682
 8369SOL    HW226007   2.133   0.168   6.763
 8370SOL     OW26008   2.562   2.028   5.847
 8370SOL    HW126009   2.633   2.085   5.806
 8370SOL    HW226010   2.557   1.941   5.797
 8371SOL     OW26011   1.607   4.110   0.876
 8371SOL    HW126012   1.669   4.098   0.953
 8371SOL    HW226013   1.653   4.081   0.792
 8372SOL     OW26014   0.407   6.209   2.920
 8372SOL    HW126015   0.345   6.272   2.967
 8372SOL    HW226016   0.494   6.255   2.902
 8373SOL     OW26017   0.975   0.376   4.696
 8373SOL    HW126018   1.050   0.317   4.665
 8373SOL    HW226019   0.895   0.320   4.717
 8374SOL     OW26020   6.692   0.470   6.360
 8374SOL    HW126021   6.632   0.461   6.440
 8374SOL    HW226022   6.663   0.549   6.306
 8375SOL     OW26023   3.430   6.617   5.697
 8375SOL    HW126024   3.516   6.572   5.719
 8375SOL    HW226025   3.444   6.684   5.625
 8376SOL     OW26026   2.193   0.181   4.042
 8376SOL    HW126027   2.114   0.221   4.090
 8376SOL    HW226028   2.238   0.115   4.101
 8377SOL     OW26029   5.585   5.756   1.240
 8377SOL    HW126030   5.675   5.791   1.214
 8377SOL    HW226031   5.514   5.813   1.199
 8378SOL     OW26032   4.571   4.533   2.929
 8378SOL    HW126033   4.589   4.439   2.958
 8378SOL    HW226034   4.610   4.596   2.996
 8379SOL     OW26035   6.651   2.680   1.029
 8379SOL    HW126036   6.662   2.663   1.127
 8379SOL    HW226037   6.730   2.643   0.980
 8380SOL     OW26038   6.704   1.407   2.693
 8380SOL    HW126039   6.746   1.427   2.781
 8380SOL    HW226040   6.607   1.386   2.707
 8381SOL     OW26041   0.203   4.127   4.924
 8381SOL    HW126042   0.192   4.038   4.880
 8381SOL    HW226043   0.240   4.192   4.857
 8382SOL     OW26044   1.297   1.382   2.071
 8382SOL    HW126045   1.273   1.475   2.042
 8382SOL    HW226046   1.356   1.387   2.151
 8383SOL     OW26047   2.377   0.749   6.292
 8383SOL    HW126048   2.438   0.821   6.258
 8383SOL    HW226049   2.431   0.679   6.339
 8384SOL     OW26050   0.596   0.123   0.138
 8384SOL    HW126051   0.664   0.128   0.211
 8384SOL    HW226052   0.523   0.061   0.165
 8385SOL     OW26053   5.969   2.832   1.584
 8385SOL    HW126054   6.048   2.854   1.526
 8385SOL    HW226055   6.000   2.789   1.668
 8386SOL     OW26056   0.926   4.135   2.595
 8386SOL    HW126057   0.993   4.080   2.545
 8386SOL    HW226058   0.846   4.151   2.538
 8387SOL     OW26059   0.885   1.203   1.370
 8387SOL    HW126060   0.867   1.300   1.385
 8387SOL    HW226061   0.968   1.192   1.315
 8388SOL     OW26062   1.871   5.747   0.487
 8388SOL    HW126063   1.791   5.698   0.523
 8388SOL    HW226064   1.949   5.685   0.481
 8389SOL     OW26065   6.168   3.956   2.356
 8389SOL    HW126066   6.246   3.933   2.413
 8389SOL    HW226067   6.162   3.892   2.279
 8390SOL     OW26068   3.626   1.641   6.365
 8390SOL    HW126069   3.636   1.707   6.291
 8390SOL    HW226070   3.700   1.653   6.430
 8391SOL     OW26071   5.940   5.951   0.487
 8391SOL    HW126072   6.003   6.014   0.442
 8391SOL    HW226073   5.993   5.885   0.541
 8392SOL     OW26074   6.200   3.588   3.640
 8392SOL    HW126075   6.120   3.638   3.606
 8392SOL    HW226076   6.171   3.526   3.713
 8393SOL     OW26077   6.015   0.770   2.825
 8393SOL    HW126078   6.111   0.778   2.853
 8393SOL    HW226079   5.997   0.830   2.748
 8394SOL     OW26080   5.629   3.101   2.098
 8394SOL    HW126081   5.708   3.073   2.151
 8394SOL    HW226082   5.566   3.024   2.087
 8395SOL     OW26083   3.020   6.907   5.994
 8395SOL    HW126084   3.052   6.990   6.038
 8395SOL    HW226085   3.007   6.923   5.896
 8396SOL     OW26086   4.665   4.410   3.248
 8396SOL    HW126087   4.664   4.385   3.151
 8396SOL    HW226088   4.717   4.494   3.260
 8397SOL     OW26089   0.562   1.181   3.514
 8397SOL    HW126090   0.599   1.145   3.600
 8397SOL    HW226091   0.567   1.281   3.514
 8398SOL     OW26092   5.140   2.743   6.182
 8398SOL    HW126093   5.092   2.662   6.148
 8398SOL    HW226094   5.225   2.756   6.132
 8399SOL     OW26095   6.092   6.435   6.822
 8399SOL    HW126096   6.149   6.435   6.904
 8399SOL    HW226097   6.148   6.406   6.744
 8400SOL     OW26098   1.888   2.332   3.957
 8400SOL    HW126099   1.860   2.424   3.986
 8400SOL    HW226100   1.979   2.337   3.917
 8401SOL     OW26101   2.233   1.187   5.556
 8401SOL    HW126102   2.310   1.243   5.587
 8401SOL    HW226103   2.197   1.225   5.471
 8402SOL     OW26104   5.477   1.879   6.214
 8402SOL    HW126105   5.427   1.919   6.291
 8402SOL    HW226106   5.432   1.795   6.185
 8403SOL     OW26107   0.569   3.353   4.727
 8403SOL    HW126108   0.609   3.287   4.790
 8403SOL    HW226109   0.614   3.345   4.638
 8404SOL     OW26110   4.014   0.338   5.716
 8404SOL    HW126111   4.029   0.342   5.815
 8404SOL    HW226112   4.010   0.243   5.687
 8405SOL     OW26113   3.409   1.936   6.246
 8405SOL    HW126114   3.334   1.936   6.180
 8405SOL    HW226115   3.372   1.926   6.339
 8406SOL     OW26116   4.279   6.949   0.467
 8406SOL    HW126117   4.191   6.910   0.440
 8406SOL    HW226118   4.306   7.020   0.402
 8407SOL     OW26119   4.235   6.368   3.379
 8407SOL    HW126120   4.266   6.373   3.284
 8407SOL    HW226121   4.243   6.458   3.422
 8408SOL     OW26122   5.327   5.222   0.227
 8408SOL    HW126123   5.271   5.262   0.299
 8408SOL    HW226124   5.380   5.294   0.182
 8409SOL     OW26125   4.743   2.342   1.994
 8409SOL    HW126126   4.703   2.357   1.904
 8409SOL    HW226127   4.692   2.271   2.042
 8410SOL     OW26128   6.365   2.227   1.939
 8410SOL    HW126129   6.339   2.234   2.035
 8410SOL    HW226130   6.341   2.137   1.904
 8411SOL     OW26131   0.338   5.927   0.994
 8411SOL    HW126132   0.407   5.856   1.006
 8411SOL    HW226133   0.377   6.016   1.016
 8412SOL     OW26134   3.933   2.193   1.225
 8412SOL    HW126135   3.923   2.171   1.128
 8412SOL    HW226136   3.958   2.290   1.235
 8413SOL     OW26137   4.211   5.500   6.091
 8413SOL    HW126138   4.208   5.451   6.178
 8413SOL    HW226139   4.252   5.441   6.021
 8414SOL     OW26140   2.588   1.049   2.780
 8414SOL    HW126141   2.525   1.125   2.763
 8414SOL    HW226142   2.538   0.963   2.772
 8415SOL     OW26143   2.152   6.644   4.268
 8415SOL    HW126144   2.125   6.740   4.272
 8415SOL    HW226145   2.251   6.637   4.255
 8416SOL     OW26146   6.176   1.729   4.703
 8416SOL    HW126147   6.196   1.766   4.612
 8416SOL    HW226148   6.221   1.640   4.713
 8417SOL     OW26149   2.093   2.945   5.399
 8417SOL    HW126150   2.084   2.862   5.344
 8417SOL    HW226151   2.108   3.023   5.339
 8418SOL     OW26152   0.267   5.583   2.015
 8418SOL    HW126153   0.243   5.487   2.035
 8418SOL    HW226154   0.218   5.613   1.933
 8419SOL     OW26155   5.925   1.437   2.812
 8419SOL    HW126156   5.992   1.487   2.867
 8419SOL    HW226157   5.947   1.448   2.715
 8420SOL     OW26158   3.105   6.547   2.217
 8420SOL    HW126159   3.186   6.493   2.193
 8420SOL    HW226160   3.100   6.628   2.160
 8421SOL     OW26161   3.364   5.208   0.153
 8421SOL    HW126162   3.464   5.207   0.156
 8421SOL    HW226163   3.333   5.190   0.060
 8422SOL     OW26164   3.641   1.903   2.579
 8422SOL    HW126165   3.710   1.841   2.540
 8422SOL    HW226166   3.606   1.963   2.507
 8423SOL     OW26167   4.408   4.189   5.605
 8423SOL    HW126168   4.427   4.231   5.517
 8423SOL    HW226169   4.494   4.162   5.649
 8424SOL     OW26170   2.193   1.873   3.536
 8424SOL    HW126171   2.206   1.890   3.439
 8424SOL    HW226172   2.278   1.891   3.585
 8425SOL     OW26173   4.145   3.455   4.316
 8425SOL    HW126174   4.058   3.505   4.318
 8425SOL    HW226175   4.209   3.498   4.379
 8426SOL     OW26176   3.558   3.259   2.659
 8426SOL    HW126177   3.611   3.189   2.612
 8426SOL    HW226178   3.505   3.311   2.592
 8427SOL     OW26179   3.217   3.626   3.263
 8427SOL    HW126180   3.174   3.536   3.261
 8427SOL    HW226181   3.147   3.696   3.275
 8428SOL     OW26182   6.670   6.339   1.583
 8428SOL    HW126183   6.692   6.250   1.545
 8428SOL    HW226184   6.610   6.388   1.520
 8429SOL     OW26185   1.633   5.314   5.812
 8429SOL    HW126186   1.708   5.354   5.865
 8429SOL    HW226187   1.547   5.358   5.838
 8430SOL     OW26188   3.974   5.093   4.230
 8430SOL    HW126189   3.920   5.117   4.149
 8430SOL    HW226190   4.070   5.116   4.215
 8431SOL     OW26191   3.511   3.643   6.918
 8431SOL    HW126192   3.536   3.700   6.996
 8431SOL    HW226193   3.586   3.643   6.851
 8432SOL     OW26194   6.773   5.503   5.235
 8432SOL    HW126195   6.835   5.484   5.311
 8432SOL    HW226196   6.678   5.493   5.265
 8433SOL     OW26197   4.247   2.569   0.651
 8433SOL    HW126198   4.211   2.603   0.738
 8433SOL    HW226199   4.330   2.516   0.667
 8434SOL     OW26200   2.404   6.442   4.481
 8434SOL    HW126201   2.390   6.535   4.445
 8434SOL    HW226202   2.338   6.380   4.438
 8435SOL     OW26203   5.349   0.622   3.178
 8435SOL    HW126204   5.364   0.688   3.251
 8435SOL    HW226205   5.435   0.575   3.157
 8436SOL     OW26206   3.239   6.446   3.987
 8436SOL    HW126207   3.328   6.489   3.995
 8436SOL    HW226208   3.179   6.502   3.929
 8437SOL     OW26209   2.219   2.673   2.316
 8437SOL    HW126210   2.146   2.615   2.354
 8437SOL    HW226211   2.198   2.769   2.334
 8438SOL     OW26212   2.168   4.472   2.740
 8438SOL    HW126213   2.227   4.550   2.760
 8438SOL    HW226214   2.219   4.403   2.688
 8439SOL     OW26215   6.550   5.123   3.132
 8439SOL    HW126216   6.588   5.042   3.088
 8439SOL    HW226217   6.517   5.099   3.223
 8440SOL     OW26218   2.531   2.108   3.615
 8440SOL    HW126219   2.585   2.175   3.665
 8440SOL    HW226220   2.464   2.155   3.557
 8441SOL     OW26221   5.169   6.010   5.689
 8441SOL    HW126222   5.136   6.044   5.776
 8441SOL    HW226223   5.255   5.960   5.703
 8442SOL     OW26224   3.856   1.016   5.368
 8442SOL    HW126225   3.819   1.095   5.320
 8442SOL    HW226226   3.782   0.959   5.401
 8443SOL     OW26227   2.272   4.778   3.763
 8443SOL    HW126228   2.231   4.715   3.697
 8443SOL    HW226229   2.265   4.872   3.729
 8444SOL     OW26230   3.232   6.724   3.505
 8444SOL    HW126231   3.194   6.772   3.426
 8444SOL    HW226232   3.158   6.679   3.556
 8445SOL     OW26233   2.716   0.524   0.738
 8445SOL    HW126234   2.728   0.623   0.744
 8445SOL    HW226235   2.636   0.496   0.791
 8446SOL     OW26236   6.707   6.018   5.359
 8446SOL    HW126237   6.672   5.928   5.382
 8446SOL    HW226238   6.667   6.049   5.273
 8447SOL     OW26239   3.858   1.381   1.524
 8447SOL    HW126240   3.765   1.355   1.497
 8447SOL    HW226241   3.856   1.427   1.612
 8448SOL     OW26242   4.696   6.416   3.457
 8448SOL    HW126243   4.714   6.392   3.553
 8448SOL    HW226244   4.783   6.424   3.408
 8449SOL     OW26245   0.458   3.364   3.916
 8449SOL    HW126246   0.510   3.313   3.847
 8449SOL    HW226247   0.391   3.422   3.870
 8450SOL     OW26248   0.301   0.965   1.091
 8450SOL    HW126249   0.222   0.910   1.064
 8450SOL    HW226250   0.294   0.989   1.188
 8451SOL     OW26251   3.301   0.929   0.472
 8451SOL    HW126252   3.280   1.024   0.497
 8451SOL    HW226253   3.373   0.894   0.532
 8452SOL     OW26254   5.237   2.487   4.548
 8452SOL    HW126255   5.183   2.565   4.516
 8452SOL    HW226256   5.319   2.520   4.594
 8453SOL     OW26257   0.197   5.288   0.017
 8453SOL    HW126258   0.128   5.360   0.024
 8453SOL    HW226259   0.153   5.199   0.015
 8454SOL     OW26260   0.182   5.178   0.328
 8454SOL    HW126261   0.204   5.198   0.233
 8454SOL    HW226262   0.161   5.263   0.376
 8455SOL     OW26263   6.971   2.218   3.113
 8455SOL    HW126264   6.929   2.308   3.124
 8455SOL    HW226265   6.910   2.160   3.059
 8456SOL     OW26266   4.845   0.733   3.544
 8456SOL    HW126267   4.911   0.807   3.531
 8456SOL    HW226268   4.752   0.770   3.545
 8457SOL     OW26269   6.612   6.098   5.135
 8457SOL    HW126270   6.524   6.140   5.155
 8457SOL    HW226271   6.665   6.157   5.074
 8458SOL     OW26272   1.242   0.306   0.922
 8458SOL    HW126273   1.194   0.375   0.978
 8458SOL    HW226274   1.185   0.225   0.913
 8459SOL     OW26275   1.913   5.757   3.439
 8459SOL    HW126276   1.915   5.664   3.402
 8459SOL    HW226277   1.905   5.822   3.364
 8460SOL     OW26278   4.340   3.949   5.362
 8460SOL    HW126279   4.353   3.850   5.358
 8460SOL    HW226280   4.421   3.994   5.325
 8461SOL     OW26281   0.964   2.119   5.104
 8461SOL    HW126282   0.906   2.201   5.106
 8461SOL    HW226283   0.911   2.040   5.135
 8462SOL     OW26284   3.410   1.507   0.501
 8462SOL    HW126285   3.417   1.605   0.518
 8462SOL    HW226286   3.494   1.462   0.529
 8463SOL     OW26287   6.384   0.120   1.988
 8463SOL    HW126288   6.293   0.159   1.974
 8463SOL    HW226289   6.453   0.183   1.953
 8464SOL     OW26290   5.745   4.236   4.310
 8464SOL    HW126291   5.794   4.323   4.300
 8464SOL    HW226292   5.648   4.250   4.295
 8465SOL     OW26293   1.779   2.340   0.672
 8465SOL    HW126294   1.783   2.246   0.706
 8465SOL    HW226295   1.849   2.353   0.603
 8466SOL     OW26296   1.130   6.140   3.817
 8466SOL    HW126297   1.186   6.066   3.781
 8466SOL    HW226298   1.161   6.164   3.909
 8467SOL     OW26299   2.927   5.814   0.700
 8467SOL    HW126300   2.994   5.744   0.722
 8467SOL    HW226301   2.904   5.865   0.783
 8468SOL     OW26302   3.496   1.720   0.898
 8468SOL    HW126303   3.590   1.708   0.927
 8468SOL    HW226304   3.470   1.817   0.908
 8469SOL     OW26305   3.227   3.017   6.598
 8469SOL    HW126306   3.319   2.987   6.620
 8469SOL    HW226307   3.199   2.978   6.510
 8470SOL     OW26308   2.498   3.039   1.557
 8470SOL    HW126309   2.571   3.104   1.583
 8470SOL    HW226310   2.413   3.065   1.603
 8471SOL     OW26311   2.527   0.580   3.264
 8471SOL    HW126312   2.559   0.551   3.174
 8471SOL    HW226313   2.577   0.663   3.292
 8472SOL     OW26314   0.261   0.134   4.490
 8472SOL    HW126315   0.348   0.097   4.458
 8472SOL    HW226316   0.248   0.225   4.451
 8473SOL     OW26317   0.109   5.546   6.777
 8473SOL    HW126318   0.068   5.544   6.867
 8473SOL    HW226319   0.056   5.489   6.714
 8474SOL     OW26320   3.110   3.047   1.905
 8474SOL    HW126321   3.133   3.058   2.001
 8474SOL    HW226322   3.181   3.088   1.848
 8475SOL     OW26323   6.346   1.923   2.512
 8475SOL    HW126324   6.352   1.944   2.415
 8475SOL    HW226325   6.249   1.922   2.540
 8476SOL     OW26326   6.142   0.435   2.068
 8476SOL    HW126327   6.232   0.464   2.102
 8476SOL    HW226328   6.154   0.363   2.000
 8477SOL     OW26329   2.898   6.328   1.209
 8477SOL    HW126330   2.910   6.381   1.125
 8477SOL    HW226331   2.835   6.376   1.270
 8478SOL     OW26332   1.547   0.633   5.245
 8478SOL    HW126333   1.604   0.677   5.314
 8478SOL    HW226334   1.455   0.672   5.246
 8479SOL     OW26335   5.836   1.133   0.041
 8479SOL    HW126336   5.754   1.174   0.081
 8479SOL    HW226337   5.909   1.201   0.035
 8480SOL     OW26338   3.370   1.255   1.325
 8480SOL    HW126339   3.360   1.161   1.294
 8480SOL    HW226340   3.294   1.310   1.290
 8481SOL     OW26341   3.394   1.460   4.113
 8481SOL    HW126342   3.326   1.388   4.123
 8481SOL    HW226343   3.484   1.420   4.099
 8482SOL     OW26344   2.269   6.982   2.311
 8482SOL    HW126345   2.337   6.913   2.290
 8482SOL    HW226346   2.194   6.977   2.244
 8483SOL     OW26347   3.222   5.414   2.720
 8483SOL    HW126348   3.284   5.409   2.642
 8483SOL    HW226349   3.268   5.377   2.801
 8484SOL     OW26350   0.252   4.637   2.854
 8484SOL    HW126351   0.270   4.706   2.924
 8484SOL    HW226352   0.175   4.666   2.797
 8485SOL     OW26353   1.687   3.722   6.992
 8485SOL    HW126354   1.719   3.787   0.035
 8485SOL    HW226355   1.721   3.631   7.014
 8486SOL     OW26356   5.559   1.295   2.282
 8486SOL    HW126357   5.515   1.355   2.214
 8486SOL    HW226358   5.534   1.200   2.263
 8487SOL     OW26359   5.092   0.292   0.582
 8487SOL    HW126360   5.183   0.255   0.597
 8487SOL    HW226361   5.061   0.339   0.664
 8488SOL     OW26362   5.345   5.560   5.018
 8488SOL    HW126363   5.421   5.615   5.052
 8488SOL    HW226364   5.306   5.604   4.937
 8489SOL     OW26365   5.757   6.102   1.463
 8489SOL    HW126366   5.718   6.178   1.515
 8489SOL    HW226367   5.775   6.130   1.369
 8490SOL     OW26368   4.614   6.005   3.670
 8490SOL    HW126369   4.709   6.034   3.652
 8490SOL    HW226370   4.554   6.048   3.603
 8491SOL     OW26371   2.398   0.558   1.726
 8491SOL    HW126372   2.337   0.480   1.713
 8491SOL    HW226373   2.353   0.626   1.783
 8492SOL     OW26374   4.617   3.818   5.535
 8492SOL    HW126375   4.556   3.782   5.465
 8492SOL    HW226376   4.610   3.762   5.618
 8493SOL     OW26377   3.254   2.058   0.271
 8493SOL    HW126378   3.203   1.985   0.226
 8493SOL    HW226379   3.332   2.020   0.320
 8494SOL     OW26380   1.960   4.828   6.363
 8494SOL    HW126381   2.049   4.824   6.408
 8494SOL    HW226382   1.922   4.736   6.355
 8495SOL     OW26383   0.151   3.187   0.900
 8495SOL    HW126384   0.206   3.113   0.862
 8495SOL    HW226385   0.080   3.148   0.959
 8496SOL     OW26386   0.469   2.105   3.217
 8496SOL    HW126387   0.456   2.165   3.138
 8496SOL    HW226388   0.470   2.160   3.300
 8497SOL     OW26389   5.521   6.360   3.984
 8497SOL    HW126390   5.435   6.321   4.016
 8497SOL    HW226391   5.588   6.286   3.971
 8498SOL     OW26392   0.127   6.538   1.584
 8498SOL    HW126393   0.126   6.633   1.615
 8498SOL    HW226394   0.216   6.517   1.543
 8499SOL     OW26395   2.305   5.586   6.453
 8499SOL    HW126396   2.256   5.509   6.414
 8499SOL    HW226397   2.403   5.571   6.446
 8500SOL     OW26398   2.266   0.377   5.675
 8500SOL    HW126399   2.227   0.407   5.589
 8500SOL    HW226400   2.320   0.294   5.660
 8501SOL     OW26401   1.686   2.552   6.969
 8501SOL    HW126402   1.625   2.489   6.922
 8501SOL    HW226403   1.643   2.642   6.975
 8502SOL     OW26404   1.107   5.513   1.504
 8502SOL    HW126405   1.038   5.478   1.568
 8502SOL    HW226406   1.070   5.590   1.452
 8503SOL     OW26407   1.122   5.235   2.845
 8503SOL    HW126408   1.074   5.211   2.761
 8503SOL    HW226409   1.076   5.313   2.888
 8504SOL     OW26410   1.872   5.872   3.800
 8504SOL    HW126411   1.841   5.799   3.861
 8504SOL    HW226412   1.915   5.832   3.719
 8505SOL     OW26413   5.199   4.104   3.130
 8505SOL    HW126414   5.190   4.033   3.060
 8505SOL    HW226415   5.134   4.178   3.111
 8506SOL     OW26416   0.698   6.902   0.310
 8506SOL    HW126417   0.729   6.808   0.319
 8506SOL    HW226418   0.672   6.938   0.399
 8507SOL     OW26419   2.565   0.829   5.304
 8507SOL    HW126420   2.631   0.798   5.373
 8507SOL    HW226421   2.488   0.874   5.350
 8508SOL     OW26422   6.641   2.948   4.864
 8508SOL    HW126423   6.634   2.946   4.964
 8508SOL    HW226424   6.680   2.862   4.831
 8509SOL     OW26425   5.892   1.383   5.093
 8509SOL    HW126426   5.818   1.374   5.159
 8509SOL    HW226427   5.869   1.455   5.027
 8510SOL     OW26428   6.746   5.271   3.274
 8510SOL    HW126429   6.672   5.212   3.243
 8510SOL    HW226430   6.833   5.221   3.269
 8511SOL     OW26431   5.606   4.272   1.730
 8511SOL    HW126432   5.512   4.244   1.712
 8511SOL    HW226433   5.657   4.196   1.770
 8512SOL     OW26434   4.230   1.841   0.331
 8512SOL    HW126435   4.258   1.933   0.302
 8512SOL    HW226436   4.309   1.791   0.365
 8513SOL     OW26437   5.010   3.781   1.238
 8513SOL    HW126438   5.031   3.824   1.150
 8513SOL    HW226439   5.044   3.840   1.312
 8514SOL     OW26440   2.556   2.601   3.643
 8514SOL    HW126441   2.610   2.519   3.625
 8514SOL    HW226442   2.604   2.681   3.606
 8515SOL     OW26443   0.560   1.314   6.839
 8515SOL    HW126444   0.648   1.310   6.886
 8515SOL    HW226445   0.563   1.257   6.756
 8516SOL     OW26446   5.970   3.293   2.215
 8516SOL    HW126447   5.956   3.194   2.218
 8516SOL    HW226448   5.929   3.334   2.297
 8517SOL     OW26449   2.222   2.778   6.031
 8517SOL    HW126450   2.238   2.684   6.060
 8517SOL    HW226451   2.124   2.795   6.024
 8518SOL     OW26452   5.324   4.218   6.300
 8518SOL    HW126453   5.318   4.317   6.293
 8518SOL    HW226454   5.336   4.179   6.209
 8519SOL     OW26455   0.543   4.584   0.952
 8519SOL    HW126456   0.539   4.680   0.980
 8519SOL    HW226457   0.592   4.576   0.865
 8520SOL     OW26458   3.171   3.406   5.502
 8520SOL    HW126459   3.171   3.499   5.539
 8520SOL    HW226460   3.213   3.406   5.412
 8521SOL     OW26461   2.001   6.529   5.707
 8521SOL    HW126462   1.926   6.485   5.757
 8521SOL    HW226463   2.085   6.520   5.760
 8522SOL     OW26464   0.433   6.930   1.261
 8522SOL    HW126465   0.411   7.022   1.229
 8522SOL    HW226466   0.378   6.908   1.341
 8523SOL     OW26467   3.164   6.859   6.917
 8523SOL    HW126468   3.132   6.774   6.875
 8523SOL    HW226469   3.185   6.926   6.846
 8524SOL     OW26470   1.469   4.004   5.097
 8524SOL    HW126471   1.378   4.039   5.075
 8524SOL    HW226472   1.535   4.079   5.100
 8525SOL     OW26473   5.644   5.486   1.138
 8525SOL    HW126474   5.618   5.515   1.230
 8525SOL    HW226475   5.736   5.519   1.118
 8526SOL     OW26476   3.457   6.574   0.699
 8526SOL    HW126477   3.389   6.611   0.762
 8526SOL    HW226478   3.413   6.517   0.631
 8527SOL     OW26479   3.616   0.586   0.210
 8527SOL    HW126480   3.640   0.490   0.225
 8527SOL    HW226481   3.564   0.620   0.289
 8528SOL     OW26482   3.977   1.210   0.582
 8528SOL    HW126483   4.031   1.133   0.616
 8528SOL    HW226484   3.891   1.216   0.632
 8529SOL     OW26485   1.278   6.480   0.412
 8529SOL    HW126486   1.234   6.563   0.447
 8529SOL    HW226487   1.298   6.490   0.315
 8530SOL     OW26488   3.775   3.652   4.846
 8530SOL    HW126489   3.693   3.636   4.791
 8530SOL    HW226490   3.855   3.650   4.786
 8531SOL     OW26491   6.928   5.693   2.892
 8531SOL    HW126492   6.866   5.619   2.865
 8531SOL    HW226493   6.933   5.696   2.992
 8532SOL     OW26494   3.895   6.381   4.491
 8532SOL    HW126495   3.981   6.332   4.484
 8532SOL    HW226496   3.862   6.404   4.399
 8533SOL     OW26497   1.675   5.898   0.013
 8533SOL    HW126498   1.681   5.937   0.105
 8533SOL    HW226499   1.598   5.834   0.008
 8534SOL     OW26500   4.588   2.606   3.734
 8534SOL    HW126501   4.624   2.694   3.766
 8534SOL    HW226502   4.616   2.590   3.640
 8535SOL     OW26503   5.567   1.338   4.385
 8535SOL    HW126504   5.639   1.369   4.323
 8535SOL    HW226505   5.606   1.276   4.454
 8536SOL     OW26506   1.003   1.737   4.938
 8536SOL    HW126507   0.945   1.814   4.965
 8536SOL    HW226508   1.080   1.729   5.001
 8537SOL     OW26509   5.588   1.743   3.590
 8537SOL    HW126510   5.573   1.830   3.637
 8537SOL    HW226511   5.536   1.742   3.504
 8538SOL     OW26512   2.306   1.943   6.946
 8538SOL    HW126513   2.286   1.983   0.010
 8538SOL    HW226514   2.388   1.887   6.952
 8539SOL     OW26515   6.852   1.845   2.178
 8539SOL    HW126516   6.813   1.936   2.192
 8539SOL    HW226517   6.834   1.814   2.084
 8540SOL     OW26518   5.561   0.300   6.484
 8540SOL    HW126519   5.462   0.316   6.478
 8540SOL    HW226520   5.603   0.369   6.544
 8541SOL     OW26521   3.541   1.776   3.459
 8541SOL    HW126522   3.575   1.682   3.457
 8541SOL    HW226523   3.550   1.813   3.551
 8542SOL     OW26524   3.799   4.245   6.343
 8542SOL    HW126525   3.802   4.217   6.247
 8542SOL    HW226526   3.836   4.171   6.400
 8543SOL     OW26527   1.862   1.457   1.301
 8543SOL    HW126528   1.864   1.557   1.307
 8543SOL    HW226529   1.892   1.429   1.210
 8544SOL     OW26530   5.569   3.021   4.454
 8544SOL    HW126531   5.658   3.023   4.498
 8544SOL    HW226532   5.533   2.928   4.455
 8545SOL     OW26533   4.629   6.980   5.692
 8545SOL    HW126534   4.599   6.990   5.787
 8545SOL    HW226535   4.698   6.908   5.686
 8546SOL     OW26536   5.669   2.470   3.958
 8546SOL    HW126537   5.707   2.542   4.017
 8546SOL    HW226538   5.686   2.381   3.999
 8547SOL     OW26539   0.784   6.310   6.042
 8547SOL    HW126540   0.764   6.331   5.946
 8547SOL    HW226541   0.703   6.273   6.086
 8548SOL     OW26542   6.060   2.423   4.937
 8548SOL    HW126543   6.070   2.504   4.994
 8548SOL    HW226544   6.124   2.427   4.860
 8549SOL     OW26545   0.397   3.739   4.218
 8549SOL    HW126546   0.444   3.651   4.220
 8549SOL    HW226547   0.305   3.727   4.180
 8550SOL     OW26548   1.842   4.593   6.812
 8550SOL    HW126549   1.826   4.525   6.884
 8550SOL    HW226550   1.760   4.650   6.802
 8551SOL     OW26551   3.727   4.470   6.536
 8551SOL    HW126552   3.735   4.439   6.442
 8551SOL    HW226553   3.818   4.480   6.576
 8552SOL     OW26554   2.956   6.237   4.044
 8552SOL    HW126555   3.001   6.149   4.059
 8552SOL    HW226556   3.008   6.310   4.088
 8553SOL     OW26557   5.400   5.678   6.627
 8553SOL    HW126558   5.398   5.777   6.636
 8553SOL    HW226559   5.321   5.648   6.573
 8554SOL     OW26560   0.377   4.975   0.516
 8554SOL    HW126561   0.319   4.901   0.550
 8554SOL    HW226562   0.328   5.026   0.446
 8555SOL     OW26563   0.843   0.571   3.201
 8555SOL    HW126564   0.754   0.616   3.210
 8555SOL    HW226565   0.909   0.633   3.159
 8556SOL     OW26566   0.527   6.963   3.224
 8556SOL    HW126567   0.554   0.020   3.274
 8556SOL    HW226568   0.583   6.954   3.142
 8557SOL     OW26569   6.760   1.586   2.271
 8557SOL    HW126570   6.795   1.672   2.234
 8557SOL    HW226571   6.665   1.574   2.242
 8558SOL     OW26572   2.494   5.346   2.970
 8558SOL    HW126573   2.540   5.304   2.892
 8558SOL    HW226574   2.423   5.284   3.003
 8559SOL     OW26575   6.705   0.752   2.306
 8559SOL    HW126576   6.647   0.799   2.240
 8559SOL    HW226577   6.648   0.695   2.365
 8560SOL     OW26578   6.831   0.330   1.090
 8560SOL    HW126579   6.858   0.375   1.004
 8560SOL    HW226580   6.805   0.399   1.157
 8561SOL     OW26581   3.799   5.866   2.453
 8561SOL    HW126582   3.796   5.914   2.541
 8561SOL    HW226583   3.715   5.884   2.403
 8562SOL     OW26584   5.210   0.039   4.820
 8562SOL    HW126585   5.229   0.090   4.736
 8562SOL    HW226586   5.231   0.096   4.899
 8563SOL     OW26587   2.682   2.973   6.652
 8563SOL    HW126588   2.648   3.039   6.719
 8563SOL    HW226589   2.625   2.891   6.656
 8564SOL     OW26590   2.065   0.442   3.228
 8564SOL    HW126591   2.014   0.517   3.270
 8564SOL    HW226592   2.082   0.371   3.296
 8565SOL     OW26593   4.329   6.827   1.930
 8565SOL    HW126594   4.241   6.805   1.890
 8565SOL    HW226595   4.356   6.920   1.902
 8566SOL     OW26596   1.298   1.174   2.570
 8566SOL    HW126597   1.306   1.243   2.498
 8566SOL    HW226598   1.224   1.198   2.632
 8567SOL     OW26599   6.576   1.466   1.428
 8567SOL    HW126600   6.644   1.397   1.453
 8567SOL    HW226601   6.622   1.542   1.382
 8568SOL     OW26602   4.999   1.578   0.092
 8568SOL    HW126603   4.943   1.507   0.050
 8568SOL    HW226604   5.020   1.552   0.187
 8569SOL     OW26605   4.824   1.625   5.490
 8569SOL    HW126606   4.791   1.570   5.568
 8569SOL    HW226607   4.895   1.688   5.522
 8570SOL     OW26608   1.154   3.077   6.164
 8570SOL    HW126609   1.084   3.009   6.140
 8570SOL    HW226610   1.154   3.150   6.096
 8571SOL     OW26611   0.211   5.151   5.533
 8571SOL    HW126612   0.132   5.145   5.471
 8571SOL    HW226613   0.258   5.238   5.517
 8572SOL     OW26614   2.151   5.265   5.793
 8572SOL    HW126615   2.250   5.251   5.789
 8572SOL    HW226616   2.109   5.227   5.711
 8573SOL     OW26617   3.824   6.226   6.510
 8573SOL    HW126618   3.833   6.135   6.551
 8573SOL    HW226619   3.747   6.226   6.447
 8574SOL     OW26620   0.689   4.827   5.777
 8574SOL    HW126621   0.657   4.908   5.728
 8574SOL    HW226622   0.731   4.764   5.712
 8575SOL     OW26623   2.665   2.438   0.039
 8575SOL    HW126624   2.666   2.339   0.053
 8575SOL    HW226625   2.571   2.472   0.047
 8576SOL     OW26626   0.692   6.479   1.064
 8576SOL    HW126627   0.788   6.459   1.085
 8576SOL    HW226628   0.659   6.417   0.992
 8577SOL     OW26629   6.136   5.342   4.821
 8577SOL    HW126630   6.177   5.408   4.884
 8577SOL    HW226631   6.060   5.296   4.867
 8578SOL     OW26632   4.695   0.139   4.242
 8578SOL    HW126633   4.651   0.193   4.314
 8578SOL    HW226634   4.684   0.186   4.154
 8579SOL     OW26635   1.270   5.784   3.483
 8579SOL    HW126636   1.313   5.846   3.417
 8579SOL    HW226637   1.291   5.690   3.459
 8580SOL     OW26638   2.397   6.824   1.828
 8580SOL    HW126639   2.308   6.861   1.856
 8580SOL    HW226640   2.468   6.859   1.889
 8581SOL     OW26641   3.654   2.557   1.703
 8581SOL    HW126642   3.590   2.607   1.761
 8581SOL    HW226643   3.675   2.468   1.744
 8582SOL     OW26644   4.744   4.688   2.461
 8582SOL    HW126645   4.647   4.683   2.483
 8582SOL    HW226646   4.795   4.625   2.520
 8583SOL     OW26647   5.853   0.768   6.446
 8583SOL    HW126648   5.788   0.818   6.503
 8583SOL    HW226649   5.946   0.798   6.468
 8584SOL     OW26650   0.269   4.458   0.453
 8584SOL    HW126651   0.229   4.534   0.505
 8584SOL    HW226652   0.199   4.389   0.435
 8585SOL     OW26653   0.069   6.941   0.456
 8585SOL    HW126654   7.017   6.956   0.518
 8585SOL    HW226655   0.064   6.848   0.419
 8586SOL     OW26656   2.482   6.102   3.107
 8586SOL    HW126657   2.519   6.091   3.199
 8586SOL    HW226658   2.470   6.012   3.065
 8587SOL     OW26659   0.595   0.662   2.805
 8587SOL    HW126660   0.669   0.720   2.772
 8587SOL    HW226661   0.572   0.594   2.735
 8588SOL     OW26662   3.252   1.334   0.275
 8588SOL    HW126663   3.268   1.410   0.337
 8588SOL    HW226664   3.184   1.360   0.206
 8589SOL     OW26665   4.155   1.598   4.187
 8589SOL    HW126666   4.220   1.621   4.259
 8589SOL    HW226667   4.062   1.601   4.224
 8590SOL     OW26668   6.730   5.695   4.119
 8590SOL    HW126669   6.684   5.694   4.208
 8590SOL    HW226670   6.806   5.630   4.120
 8591SOL     OW26671   0.205   4.301   6.679
 8591SOL    HW126672   0.108   4.286   6.701
 8591SOL    HW226673   0.211   4.361   6.599
 8592SOL     OW26674   0.026   4.284   0.353
 8592SOL    HW126675   6.987   4.307   0.280
 8592SOL    HW226676   7.003   4.278   0.440
 8593SOL     OW26677   0.599   6.661   1.944
 8593SOL    HW126678   0.693   6.686   1.923
 8593SOL    HW226679   0.582   6.567   1.916
 8594SOL     OW26680   3.324   3.874   4.931
 8594SOL    HW126681   3.382   3.796   4.953
 8594SOL    HW226682   3.248   3.844   4.873
 8595SOL     OW26683   2.090   1.759   2.592
 8595SOL    HW126684   2.081   1.817   2.511
 8595SOL    HW226685   2.146   1.679   2.570
 8596SOL     OW26686   5.804   5.564   2.191
 8596SOL    HW126687   5.837   5.596   2.279
 8596SOL    HW226688   5.875   5.509   2.146
 8597SOL     OW26689   3.733   1.832   1.150
 8597SOL    HW126690   3.684   1.903   1.200
 8597SOL    HW226691   3.763   1.867   1.062
 8598SOL     OW26692   0.107   5.556   1.342
 8598SOL    HW126693   0.164   5.474   1.335
 8598SOL    HW226694   0.157   5.628   1.391
 8599SOL     OW26695   1.253   3.091   3.687
 8599SOL    HW126696   1.217   3.070   3.778
 8599SOL    HW226697   1.302   3.011   3.652
 8600SOL     OW26698   5.616   4.997   6.463
 8600SOL    HW126699   5.669   4.998   6.548
 8600SOL    HW226700   5.653   5.066   6.400
 8601SOL     OW26701   0.537   1.181   4.490
 8601SOL    HW126702   0.492   1.110   4.544
 8601SOL    HW226703   0.564   1.143   4.402
 8602SOL     OW26704   2.648   6.700   2.636
 8602SOL    HW126705   2.561   6.746   2.616
 8602SOL    HW226706   2.724   6.764   2.625
 8603SOL     OW26707   3.835   3.817   6.958
 8603SOL    HW126708   3.916   3.869   6.987
 8603SOL    HW226709   3.837   3.726   7.000
 8604SOL     OW26710   5.816   3.158   3.872
 8604SOL    HW126711   5.750   3.084   3.857
 8604SOL    HW226712   5.871   3.171   3.790
 8605SOL     OW26713   3.284   5.106   4.406
 8605SOL    HW126714   3.357   5.040   4.422
 8605SOL    HW226715   3.199   5.071   4.447
 8606SOL     OW26716   2.133   3.924   6.020
 8606SOL    HW126717   2.109   4.021   6.007
 8606SOL    HW226718   2.050   3.869   6.014
 8607SOL     OW26719   3.215   4.969   1.063
 8607SOL    HW126720   3.283   4.935   1.127
 8607SOL    HW226721   3.125   4.932   1.086
 8608SOL     OW26722   4.695   5.075   2.974
 8608SOL    HW126723   4.738   5.136   2.908
 8608SOL    HW226724   4.705   5.114   3.066
 8609SOL     OW26725   3.833   0.553   4.027
 8609SOL    HW126726   3.864   0.589   3.939
 8609SOL    HW226727   3.897   0.581   4.099
 8610SOL     OW26728   1.261   0.115   3.102
 8610SOL    HW126729   1.275   0.042   3.168
 8610SOL    HW226730   1.204   0.081   3.027
 8611SOL     OW26731   1.724   2.224   4.422
 8611SOL    HW126732   1.674   2.201   4.338
 8611SOL    HW226733   1.822   2.227   4.402
 8612SOL     OW26734   3.303   3.275   6.383
 8612SOL    HW126735   3.214   3.253   6.424
 8612SOL    HW226736   3.374   3.219   6.425
 8613SOL     OW26737   2.325   1.295   1.552
 8613SOL    HW126738   2.401   1.282   1.615
 8613SOL    HW226739   2.322   1.219   1.487
 8614SOL     OW26740   1.184   3.808   3.029
 8614SOL    HW126741   1.204   3.904   3.049
 8614SOL    HW226742   1.161   3.760   3.114
 8615SOL     OW26743   4.478   1.817   4.917
 8615SOL    HW126744   4.517   1.888   4.975
 8615SOL    HW226745   4.459   1.736   4.972
 8616SOL     OW26746   0.634   4.880   0.536
 8616SOL    HW126747   0.539   4.905   0.515
 8616SOL    HW226748   0.635   4.813   0.610
 8617SOL     OW26749   6.407   1.675   0.415
 8617SOL    HW126750   6.482   1.739   0.394
 8617SOL    HW226751   6.423   1.634   0.505
 8618SOL     OW26752   4.814   6.880   1.853
 8618SOL    HW126753   4.803   6.857   1.756
 8618SOL    HW226754   4.891   6.830   1.891
 8619SOL     OW26755   3.771   4.841   0.240
 8619SOL    HW126756   3.870   4.835   0.226
 8619SOL    HW226757   3.734   4.751   0.264
 8620SOL     OW26758   6.478   6.804   2.805
 8620SOL    HW126759   6.502   6.785   2.710
 8620SOL    HW226760   6.412   6.737   2.838
 8621SOL     OW26761   6.388   1.348   3.555
 8621SOL    HW126762   6.372   1.446   3.541
 8621SOL    HW226763   6.361   1.298   3.473
 8622SOL     OW26764   4.618   4.230   0.427
 8622SOL    HW126765   4.563   4.277   0.495
 8622SOL    HW226766   4.700   4.284   0.407
 8623SOL     OW26767   0.665   4.223   3.164
 8623SOL    HW126768   0.615   4.221   3.078
 8623SOL    HW226769   0.616   4.279   3.231
 8624SOL     OW26770   1.402   4.755   3.564
 8624SOL    HW126771   1.447   4.837   3.597
 8624SOL    HW226772   1.371   4.700   3.642
 8625SOL     OW26773   4.395   0.579   3.970
 8625SOL    HW126774   4.325   0.588   3.899
 8625SOL    HW226775   4.482   0.613   3.935
 8626SOL     OW26776   3.804   3.299   4.342
 8626SOL    HW126777   3.743   3.349   4.280
 8626SOL    HW226778   3.805   3.343   4.431
 8627SOL     OW26779   1.070   0.179   2.486
 8627SOL    HW126780   1.160   0.146   2.459
 8627SOL    HW226781   1.050   0.150   2.580
 8628SOL     OW26782   6.317   6.673   0.601
 8628SOL    HW126783   6.378   6.685   0.679
 8628SOL    HW226784   6.261   6.591   0.615
 8629SOL     OW26785   1.768   5.030   4.327
 8629SOL    HW126786   1.818   4.951   4.292
 8629SOL    HW226787   1.796   5.047   4.422
 8630SOL     OW26788   6.006   4.228   4.708
 8630SOL    HW126789   6.056   4.206   4.624
 8630SOL    HW226790   5.909   4.242   4.686
 8631SOL     OW26791   3.954   6.438   6.296
 8631SOL    HW126792   4.037   6.400   6.256
 8631SOL    HW226793   3.904   6.365   6.343
 8632SOL     OW26794   3.488   6.533   3.932
 8632SOL    HW126795   3.527   6.495   3.848
 8632SOL    HW226796   3.480   6.632   3.922
 8633SOL     OW26797   5.201   1.328   4.265
 8633SOL    HW126798   5.101   1.328   4.257
 8633SOL    HW226799   5.226   1.321   4.361
 8634SOL     OW26800   6.524   3.071   0.881
 8634SOL    HW126801   6.527   3.169   0.864
 8634SOL    HW226802   6.430   3.038   0.871
 8635SOL     OW26803   6.026   3.818   6.062
 8635SOL    HW126804   5.941   3.825   6.114
 8635SOL    HW226805   6.010   3.849   5.968
 8636SOL     OW26806   6.013   5.119   6.566
 8636SOL    HW126807   5.956   5.170   6.630
 8636SOL    HW226808   6.053   5.182   6.499
 8637SOL     OW26809   1.351   0.438   0.568
 8637SOL    HW126810   1.391   0.493   0.495
 8637SOL    HW226811   1.328   0.347   0.532
 8638SOL     OW26812   1.943   3.516   0.083
 8638SOL    HW126813   1.982   3.503   0.174
 8638SOL    HW226814   2.017   3.524   0.016
 8639SOL     OW26815   5.796   2.372   1.713
 8639SOL    HW126816   5.825   2.276   1.709
 8639SOL    HW226817   5.877   2.431   1.709
 8640SOL     OW26818   5.275   3.698   0.469
 8640SOL    HW126819   5.347   3.648   0.421
 8640SOL    HW226820   5.233   3.764   0.407
 8641SOL     OW26821   7.000   3.904   4.135
 8641SOL    HW126822   6.955   3.932   4.051
 8641SOL    HW226823   0.034   3.978   4.168
 8642SOL     OW26824   4.365   0.223   2.290
 8642SOL    HW126825   4.274   0.263   2.300
 8642SOL    HW226826   4.358   0.125   2.276
 8643SOL     OW26827   4.299   6.619   6.870
 8643SOL    HW126828   4.246   6.549   6.919
 8643SOL    HW226829   4.246   6.650   6.791
 8644SOL     OW26830   5.320   2.604   5.681
 8644SOL    HW126831   5.324   2.527   5.745
 8644SOL    HW226832   5.247   2.589   5.615
 8645SOL     OW26833   5.896   4.966   1.876
 8645SOL    HW126834   5.819   4.903   1.885
 8645SOL    HW226835   5.953   4.961   1.958
 8646SOL     OW26836   6.059   1.005   1.009
 8646SOL    HW126837   6.128   1.026   0.939
 8646SOL    HW226838   5.973   0.980   0.964
 8647SOL     OW26839   3.774   4.841   6.345
 8647SOL    HW126840   3.752   4.939   6.343
 8647SOL    HW226841   3.861   4.827   6.392
 8648SOL     OW26842   5.669   1.361   5.237
 8648SOL    HW126843   5.582   1.409   5.228
 8648SOL    HW226844   5.661   1.290   5.307
 8649SOL     OW26845   5.619   4.832   5.902
 8649SOL    HW126846   5.560   4.860   5.978
 8649SOL    HW226847   5.571   4.766   5.845
 8650SOL     OW26848   1.709   4.816   4.585
 8650SOL    HW126849   1.751   4.742   4.532
 8650SOL    HW226850   1.612   4.823   4.560
 8651SOL     OW26851   4.299   0.521   0.469
 8651SOL    HW126852   4.207   0.486   0.452
 8651SOL    HW226853   4.364   0.445   0.465
 8652SOL     OW26854   1.416   4.600   3.090
 8652SOL    HW126855   1.462   4.529   3.143
 8652SOL    HW226856   1.475   4.681   3.084
 8653SOL     OW26857   6.433   2.891   6.690
 8653SOL    HW126858   6.354   2.904   6.630
 8653SOL    HW226859   6.434   2.962   6.760
 8654SOL     OW26860   0.467   6.404   1.843
 8654SOL    HW126861   0.387   6.414   1.902
 8654SOL    HW226862   0.544   6.371   1.896
 8655SOL     OW26863   5.784   0.580   3.695
 8655SOL    HW126864   5.697   0.556   3.738
 8655SOL    HW226865   5.849   0.504   3.707
 8656SOL     OW26866   6.413   1.069   0.787
 8656SOL    HW126867   6.396   1.124   0.869
 8656SOL    HW226868   6.336   1.079   0.724
 8657SOL     OW26869   4.239   5.401   6.360
 8657SOL    HW126870   4.339   5.399   6.361
 8657SOL    HW226871   4.204   5.309   6.377
 8658SOL     OW26872   4.690   5.512   0.172
 8658SOL    HW126873   4.682   5.441   0.101
 8658SOL    HW226874   4.642   5.594   0.142
 8659SOL     OW26875   4.597   1.274   2.906
 8659SOL    HW126876   4.602   1.370   2.933
 8659SOL    HW226877   4.574   1.268   2.809
 8660SOL     OW26878   5.248   3.831   0.764
 8660SOL    HW126879   5.238   3.799   0.669
 8660SOL    HW226880   5.293   3.920   0.765
 8661SOL     OW26881   5.781   4.089   1.849
 8661SOL    HW126882   5.845   4.060   1.921
 8661SOL    HW226883   5.819   4.065   1.760
 8662SOL     OW26884   5.202   6.587   1.798
 8662SOL    HW126885   5.131   6.645   1.838
 8662SOL    HW226886   5.278   6.579   1.862
 8663SOL     OW26887   2.536   5.785   0.691
 8663SOL    HW126888   2.459   5.786   0.627
 8663SOL    HW226889   2.597   5.862   0.671
 8664SOL     OW26890   3.878   5.049   0.649
 8664SOL    HW126891   3.973   5.022   0.632
 8664SOL    HW226892   3.817   4.977   0.616
 8665SOL     OW26893   5.115   5.470   5.242
 8665SOL    HW126894   5.175   5.485   5.321
 8665SOL    HW226895   5.085   5.558   5.205
 8666SOL     OW26896   5.230   2.601   5.034
 8666SOL    HW126897   5.178   2.687   5.032
 8666SOL    HW226898   5.292   2.602   5.112
 8667SOL     OW26899   4.988   2.205   2.949
 8667SOL    HW126900   4.916   2.273   2.960
 8667SOL    HW226901   5.042   2.226   2.867
 8668SOL     OW26902   4.940   2.631   3.894
 8668SOL    HW126903   4.884   2.561   3.939
 8668SOL    HW226904   5.018   2.587   3.850
 8669SOL     OW26905   3.294   0.464   6.791
 8669SOL    HW126906   3.342   0.399   6.731
 8669SOL    HW226907   3.308   0.439   6.886
 8670SOL     OW26908   3.286   4.891   5.184
 8670SOL    HW126909   3.287   4.972   5.243
 8670SOL    HW226910   3.199   4.843   5.194
 8671SOL     OW26911   5.539   0.690   3.969
 8671SOL    HW126912   5.515   0.751   4.044
 8671SOL    HW226913   5.544   0.742   3.883
 8672SOL     OW26914   2.728   6.016   4.349
 8672SOL    HW126915   2.680   6.037   4.434
 8672SOL    HW226916   2.782   6.096   4.321
 8673SOL     OW26917   0.421   1.024   0.049
 8673SOL    HW126918   0.373   0.982   6.998
 8673SOL    HW226919   0.393   0.981   0.135
 8674SOL     OW26920   6.515   5.940   1.669
 8674SOL    HW126921   6.564   5.995   1.736
 8674SOL    HW226922   6.527   5.843   1.690
 8675SOL     OW26923   3.356   2.149   3.976
 8675SOL    HW126924   3.448   2.119   3.948
 8675SOL    HW226925   3.352   2.153   4.076
 8676SOL     OW26926   3.411   6.751   3.262
 8676SOL    HW126927   3.411   6.698   3.347
 8676SOL    HW226928   3.317   6.772   3.235
 8677SOL     OW26929   1.891   5.378   6.440
 8677SOL    HW126930   1.961   5.319   6.481
 8677SOL    HW226931   1.848   5.433   6.511
 8678SOL     OW26932   0.156   7.017   0.055
 8678SOL    HW126933   0.210   7.022   0.139
 8678SOL    HW226934   0.155   0.082   0.011
 8679SOL     OW26935   5.866   2.827   4.794
 8679SOL    HW126936   5.860   2.888   4.872
 8679SOL    HW226937   5.853   2.732   4.824
 8680SOL     OW26938   0.538   3.797   1.000
 8680SOL    HW126939   0.460   3.734   0.995
 8680SOL    HW226940   0.606   3.771   0.931
 8681SOL     OW26941   4.829   4.429   0.368
 8681SOL    HW126942   4.892   4.469   0.301
 8681SOL    HW226943   4.746   4.484   0.372
 8682SOL     OW26944   3.807   6.556   2.761
 8682SOL    HW126945   3.902   6.566   2.731
 8682SOL    HW226946   3.774   6.464   2.739
 8683SOL     OW26947   1.650   2.269   2.032
 8683SOL    HW126948   1.581   2.206   2.069
 8683SOL    HW226949   1.666   2.247   1.936
 8684SOL     OW26950   0.173   3.089   4.938
 8684SOL    HW126951   0.236   3.046   5.003
 8684SOL    HW226952   0.178   3.040   4.851
 8685SOL     OW26953   1.021   2.271   5.752
 8685SOL    HW126954   0.959   2.265   5.830
 8685SOL    HW226955   1.063   2.182   5.735
 8686SOL     OW26956   6.531   1.762   1.772
 8686SOL    HW126957   6.531   1.808   1.683
 8686SOL    HW226958   6.517   1.664   1.759
 8687SOL     OW26959   3.526   6.017   2.722
 8687SOL    HW126960   3.614   5.988   2.684
 8687SOL    HW226961   3.455   6.010   2.652
 8688SOL     OW26962   3.053   6.309   6.864
 8688SOL    HW126963   2.960   6.321   6.829
 8688SOL    HW226964   3.097   6.234   6.816
 8689SOL     OW26965   3.195   5.697   0.114
 8689SOL    HW126966   3.283   5.685   0.067
 8689SOL    HW226967   3.125   5.644   0.067
 8690SOL     OW26968   1.655   2.363   3.780
 8690SOL    HW126969   1.735   2.384   3.836
 8690SOL    HW226970   1.681   2.358   3.684
 8691SOL     OW26971   4.496   2.911   6.108
 8691SOL    HW126972   4.498   2.818   6.146
 8691SOL    HW226973   4.494   2.977   6.183
 8692SOL     OW26974   3.363   2.054   2.643
 8692SOL    HW126975   3.268   2.060   2.671
 8692SOL    HW226976   3.368   2.033   2.545
 8693SOL     OW26977   5.769   1.924   0.764
 8693SOL    HW126978   5.798   1.850   0.825
 8693SOL    HW226979   5.696   1.977   0.808
 8694SOL     OW26980   4.432   1.119   6.775
 8694SOL    HW126981   4.427   1.166   6.863
 8694SOL    HW226982   4.342   1.119   6.732
 8695SOL     OW26983   4.649   2.827   5.906
 8695SOL    HW126984   4.611   2.886   5.977
 8695SOL    HW226985   4.580   2.760   5.878
 8696SOL     OW26986   3.279   5.885   1.112
 8696SOL    HW126987   3.344   5.959   1.096
 8696SOL    HW226988   3.186   5.919   1.096
 8697SOL     OW26989   6.384   3.986   0.541
 8697SOL    HW126990   6.430   3.989   0.452
 8697SOL    HW226991   6.311   3.918   0.539
 8698SOL     OW26992   6.039   6.001   3.874
 8698SOL    HW126993   6.121   5.980   3.821
 8698SOL    HW226994   5.959   5.999   3.814
 8699SOL     OW26995   1.201   2.368   5.532
 8699SOL    HW126996   1.193   2.291   5.468
 8699SOL    HW226997   1.201   2.333   5.626
 8700SOL     OW26998   2.419   0.784   4.637
 8700SOL    HW126999   2.355   0.844   4.590
 8700SOL    HW227000   2.374   0.745   4.717
 8701SOL     OW27001   1.678   0.811   0.187
 8701SOL    HW127002   1.675   0.800   0.088
 8701SOL    HW227003   1.591   0.847   0.219
 8702SOL     OW27004   5.660   4.847   0.221
 8702SOL    HW127005   5.617   4.789   0.152
 8702SOL    HW227006   5.661   4.942   0.189
 8703SOL     OW27007   2.722   5.228   1.187
 8703SOL    HW127008   2.688   5.219   1.280
 8703SOL    HW227009   2.821   5.214   1.186
 8704SOL     OW27010   5.797   3.685   2.710
 8704SOL    HW127011   5.859   3.607   2.720
 8704SOL    HW227012   5.849   3.770   2.713
 8705SOL     OW27013   5.200   1.006   0.045
 8705SOL    HW127014   5.206   0.988   6.972
 8705SOL    HW227015   5.117   0.964   0.082
 8706SOL     OW27016   4.564   2.420   5.725
 8706SOL    HW127017   4.515   2.335   5.746
 8706SOL    HW227018   4.662   2.402   5.720
 8707SOL     OW27019   5.004   2.382   0.066
 8707SOL    HW127020   4.954   2.457   0.110
 8707SOL    HW227021   4.942   2.307   0.044
 8708SOL     OW27022   4.197   2.239   2.097
 8708SOL    HW127023   4.116   2.195   2.057
 8708SOL    HW227024   4.181   2.257   2.194
 8709SOL     OW27025   6.689   5.725   6.351
 8709SOL    HW127026   6.608   5.695   6.401
 8709SOL    HW227027   6.735   5.797   6.403
 8710SOL     OW27028   1.967   2.868   3.042
 8710SOL    HW127029   2.062   2.898   3.039
 8710SOL    HW227030   1.964   2.768   3.051
 8711SOL     OW27031   6.842   5.884   2.294
 8711SOL    HW127032   6.756   5.854   2.253
 8711SOL    HW227033   6.840   5.867   2.392
 8712SOL     OW27034   4.115   2.201   4.043
 8712SOL    HW127035   4.129   2.149   4.127
 8712SOL    HW227036   4.176   2.280   4.043
 8713SOL     OW27037   0.480   4.022   3.309
 8713SOL    HW127038   0.430   3.984   3.232
 8713SOL    HW227039   0.546   4.089   3.277
 8714SOL     OW27040   0.384   0.913   6.020
 8714SOL    HW127041   0.385   1.008   6.053
 8714SOL    HW227042   0.323   0.858   6.077
 8715SOL     OW27043   5.008   0.448   1.162
 8715SOL    HW127044   4.932   0.439   1.226
 8715SOL    HW227045   5.052   0.537   1.174
 8716SOL     OW27046   0.565   0.797   1.431
 8716SOL    HW127047   0.649   0.851   1.425
 8716SOL    HW227048   0.487   0.853   1.403
 8717SOL     OW27049   4.137   3.530   2.724
 8717SOL    HW127050   4.226   3.487   2.737
 8717SOL    HW227051   4.076   3.504   2.799
 8718SOL     OW27052   1.157   2.965   5.522
 8718SOL    HW127053   1.223   2.894   5.494
 8718SOL    HW227054   1.207   3.043   5.559
 8719SOL     OW27055   2.024   0.177   6.489
 8719SOL    HW127056   2.026   0.260   6.433
 8719SOL    HW227057   1.932   0.138   6.486
 8720SOL     OW27058   6.525   5.196   5.731
 8720SOL    HW127059   6.576   5.281   5.720
 8720SOL    HW227060   6.442   5.200   5.675
 8721SOL     OW27061   5.754   2.234   4.072
 8721SOL    HW127062   5.757   2.144   4.030
 8721SOL    HW227063   5.694   2.232   4.152
 8722SOL     OW27064   3.786   0.393   0.614
 8722SOL    HW127065   3.743   0.304   0.601
 8722SOL    HW227066   3.809   0.405   0.711
 8723SOL     OW27067   5.628   6.268   1.635
 8723SOL    HW127068   5.561   6.199   1.661
 8723SOL    HW227069   5.692   6.283   1.710
 8724SOL     OW27070   6.064   6.514   4.673
 8724SOL    HW127071   6.032   6.607   4.691
 8724SOL    HW227072   6.028   6.451   4.742
 8725SOL     OW27073   2.794   6.811   7.002
 8725SOL    HW127074   2.784   6.846   6.909
 8725SOL    HW227075   2.818   6.714   6.999
 8726SOL     OW27076   6.373   0.787   0.843
 8726SOL    HW127077   6.355   0.771   0.940
 8726SOL    HW227078   6.394   0.884   0.829
 8727SOL     OW27079   6.372   6.541   2.142
 8727SOL    HW127080   6.433   6.503   2.212
 8727SOL    HW227081   6.333   6.627   2.175
 8728SOL     OW27082   4.080   0.026   4.594
 8728SOL    HW127083   4.106   0.078   4.513
 8728SOL    HW227084   4.117   0.070   4.676
 8729SOL     OW27085   4.751   6.169   3.265
 8729SOL    HW127086   4.818   6.238   3.292
 8729SOL    HW227087   4.681   6.161   3.336
 8730SOL     OW27088   6.721   5.503   2.726
 8730SOL    HW127089   6.713   5.419   2.779
 8730SOL    HW227090   6.660   5.572   2.764
 8731SOL     OW27091   2.195   1.942   2.760
 8731SOL    HW127092   2.167   1.898   2.846
 8731SOL    HW227093   2.151   1.896   2.683
 8732SOL     OW27094   4.862   4.702   1.778
 8732SOL    HW127095   4.943   4.690   1.836
 8732SOL    HW227096   4.792   4.636   1.805
 8733SOL     OW27097   1.499   5.804   3.129
 8733SOL    HW127098   1.511   5.714   3.088
 8733SOL    HW227099   1.551   5.872   3.077
 8734SOL     OW27100   1.024   4.557   1.838
 8734SOL    HW127101   1.101   4.575   1.899
 8734SOL    HW227102   1.009   4.635   1.778
 8735SOL     OW27103   0.935   1.448   0.029
 8735SOL    HW127104   1.028   1.435   7.019
 8735SOL    HW227105   0.878   1.371   0.001
 8736SOL     OW27106   1.046   6.556   0.173
 8736SOL    HW127107   1.144   6.570   0.181
 8736SOL    HW227108   1.012   6.603   0.092
 8737SOL     OW27109   3.233   6.963   6.315
 8737SOL    HW127110   3.298   6.888   6.302
 8737SOL    HW227111   3.148   6.927   6.354
 8738SOL     OW27112   2.180   3.858   4.226
 8738SOL    HW127113   2.205   3.948   4.190
 8738SOL    HW227114   2.082   3.854   4.243
 8739SOL     OW27115   6.563   5.475   5.873
 8739SOL    HW127116   6.478   5.438   5.911
 8739SOL    HW227117   6.579   5.566   5.909
 8740SOL     OW27118   4.052   1.396   5.463
 8740SOL    HW127119   4.057   1.302   5.498
 8740SOL    HW227120   4.102   1.402   5.377
 8741SOL     OW27121   1.954   1.191   2.160
 8741SOL    HW127122   1.941   1.160   2.254
 8741SOL    HW227123   2.001   1.120   2.108
 8742SOL     OW27124   5.133   5.915   1.817
 8742SOL    HW127125   5.122   6.004   1.772
 8742SOL    HW227126   5.200   5.860   1.768
 8743SOL     OW27127   2.317   6.671   2.824
 8743SOL    HW127128   2.310   6.748   2.888
 8743SOL    HW227129   2.330   6.705   2.731
 8744SOL     OW27130   3.804   2.703   6.329
 8744SOL    HW127131   3.884   2.648   6.301
 8744SOL    HW227132   3.723   2.644   6.331
 8745SOL     OW27133   6.569   2.672   5.709
 8745SOL    HW127134   6.514   2.746   5.671
 8745SOL    HW227135   6.508   2.604   5.751
 8746SOL     OW27136   4.397   4.316   5.361
 8746SOL    HW127137   4.457   4.253   5.312
 8746SOL    HW227138   4.356   4.380   5.297
 8747SOL     OW27139   0.735   2.887   3.384
 8747SOL    HW127140   0.750   2.794   3.418
 8747SOL    HW227141   0.767   2.953   3.451
 8748SOL     OW27142   0.529   1.117   6.642
 8748SOL    HW127143   0.483   1.183   6.582
 8748SOL    HW227144   0.461   1.059   6.686
 8749SOL     OW27145   2.830   0.115   4.790
 8749SOL    HW127146   2.739   0.142   4.759
 8749SOL    HW227147   2.835   0.015   4.793
 8750SOL     OW27148   2.489   3.197   5.377
 8750SOL    HW127149   2.513   3.153   5.463
 8750SOL    HW227150   2.505   3.133   5.301
 8751SOL     OW27151   6.377   6.953   2.176
 8751SOL    HW127152   6.457   6.893   2.169
 8751SOL    HW227153   6.375   7.014   2.097
 8752SOL     OW27154   2.740   4.138   6.986
 8752SOL    HW127155   2.642   4.125   7.002
 8752SOL    HW227156   2.778   4.055   6.945
 8753SOL     OW27157   5.195   1.779   4.706
 8753SOL    HW127158   5.260   1.844   4.746
 8753SOL    HW227159   5.102   1.804   4.732
 8754SOL     OW27160   0.826   2.252   5.965
 8754SOL    HW127161   0.791   2.205   6.047
 8754SOL    HW227162   0.751   2.301   5.920
 8755SOL     OW27163   2.765   1.483   6.668
 8755SOL    HW127164   2.840   1.417   6.664
 8755SOL    HW227165   2.723   1.480   6.758
 8756SOL     OW27166   2.159   3.296   3.283
 8756SOL    HW127167   2.166   3.388   3.245
 8756SOL    HW227168   2.144   3.301   3.382
 8757SOL     OW27169   5.416   6.375   5.765
 8757SOL    HW127170   5.328   6.420   5.782
 8757SOL    HW227171   5.463   6.361   5.852
 8758SOL     OW27172   5.035   5.968   2.364
 8758SOL    HW127173   5.130   5.940   2.374
 8758SOL    HW227174   5.031   6.061   2.326
 8759SOL     OW27175   4.286   1.808   6.260
 8759SOL    HW127176   4.263   1.831   6.355
 8759SOL    HW227177   4.235   1.727   6.232
 8760SOL     OW27178   2.084   1.928   4.928
 8760SOL    HW127179   2.036   2.015   4.940
 8760SOL    HW227180   2.086   1.879   5.015
 8761SOL     OW27181   4.272   0.158   1.313
 8761SOL    HW127182   4.359   0.206   1.306
 8761SOL    HW227183   4.288   0.060   1.328
 8762SOL     OW27184   1.432   3.088   2.532
 8762SOL    HW127185   1.491   3.167   2.517
 8762SOL    HW227186   1.337   3.118   2.537
 8763SOL     OW27187   6.107   6.135   4.543
 8763SOL    HW127188   6.074   6.040   4.540
 8763SOL    HW227189   6.202   6.137   4.512
 8764SOL     OW27190   4.903   1.054   4.023
 8764SOL    HW127191   4.814   1.040   3.980
 8764SOL    HW227192   4.938   0.966   4.058
 8765SOL     OW27193   6.240   6.287   4.842
 8765SOL    HW127194   6.193   6.207   4.804
 8765SOL    HW227195   6.172   6.350   4.880
 8766SOL     OW27196   4.165   4.798   3.123
 8766SOL    HW127197   4.229   4.845   3.184
 8766SOL    HW227198   4.210   4.722   3.078
 8767SOL     OW27199   4.556   0.516   3.064
 8767SOL    HW127200   4.504   0.435   3.092
 8767SOL    HW227201   4.561   0.580   3.141
 8768SOL     OW27202   2.219   3.176   0.112
 8768SOL    HW127203   2.132   3.209   0.149
 8768SOL    HW227204   2.279   3.148   0.187
 8769SOL     OW27205   0.701   0.573   5.234
 8769SOL    HW127206   0.740   0.487   5.203
 8769SOL    HW227207   0.690   0.635   5.157
 8770SOL     OW27208   5.111   4.093   1.970
 8770SOL    HW127209   5.159   4.178   1.992
 8770SOL    HW227210   5.013   4.113   1.958
 8771SOL     OW27211   2.133   0.191   6.196
 8771SOL    HW127212   2.200   0.264   6.210
 8771SOL    HW227213   2.060   0.224   6.137
 8772SOL     OW27214   5.823   0.068   0.077
 8772SOL    HW127215   5.903   0.013   0.101
 8772SOL    HW227216   5.777   0.027   7.023
 8773SOL     OW27217   4.560   1.845   3.602
 8773SOL    HW127218   4.501   1.891   3.536
 8773SOL    HW227219   4.616   1.913   3.650
 8774SOL     OW27220   1.624   1.198   0.846
 8774SOL    HW127221   1.694   1.156   0.904
 8774SOL    HW227222   1.667   1.238   0.765
 8775SOL     OW27223   5.905   0.261   4.107
 8775SOL    HW127224   5.838   0.336   4.099
 8775SOL    HW227225   5.941   0.259   4.200
 8776SOL     OW27226   3.252   3.099   4.884
 8776SOL    HW127227   3.184   3.104   4.811
 8776SOL    HW227228   3.293   3.189   4.897
 8777SOL     OW27229   6.697   4.194   1.376
 8777SOL    HW127230   6.726   4.254   1.301
 8777SOL    HW227231   6.770   4.189   1.445
 8778SOL     OW27232   0.198   2.603   4.487
 8778SOL    HW127233   0.148   2.525   4.525
 8778SOL    HW227234   0.268   2.570   4.423
 8779SOL     OW27235   2.179   5.244   1.737
 8779SOL    HW127236   2.092   5.292   1.724
 8779SOL    HW227237   2.217   5.218   1.648
 8780SOL     OW27238   1.396   5.958   3.330
 8780SOL    HW127239   1.445   5.880   3.290
 8780SOL    HW227240   1.442   6.043   3.303
 8781SOL     OW27241   6.783   1.841   3.765
 8781SOL    HW127242   6.714   1.877   3.827
 8781SOL    HW227243   6.751   1.848   3.671
 8782SOL     OW27244   5.673   0.974   1.324
 8782SOL    HW127245   5.602   0.916   1.284
 8782SOL    HW227246   5.631   1.050   1.373
 8783SOL     OW27247   5.970   3.963   3.801
 8783SOL    HW127248   5.953   3.880   3.852
 8783SOL    HW227249   5.908   4.036   3.833
 8784SOL     OW27250   4.799   4.466   5.225
 8784SOL    HW127251   4.780   4.407   5.146
 8784SOL    HW227252   4.804   4.561   5.196
 8785SOL     OW27253   5.746   3.500   0.072
 8785SOL    HW127254   5.759   3.494   0.171
 8785SOL    HW227255   5.750   3.408   0.033
 8786SOL     OW27256   2.366   6.474   6.960
 8786SOL    HW127257   2.352   6.520   6.873
 8786SOL    HW227258   2.343   6.536   0.010
 8787SOL     OW27259   1.580   2.530   1.984
 8787SOL    HW127260   1.577   2.599   2.057
 8787SOL    HW227261   1.618   2.445   2.020
 8788SOL     OW27262   6.585   2.200   5.498
 8788SOL    HW127263   6.503   2.186   5.444
 8788SOL    HW227264   6.561   2.203   5.595
 8789SOL     OW27265   5.831   0.313   6.015
 8789SOL    HW127266   5.922   0.339   6.050
 8789SOL    HW227267   5.764   0.321   6.088
 8790SOL     OW27268   6.601   1.268   0.387
 8790SOL    HW127269   6.649   1.203   0.328
 8790SOL    HW227270   6.662   1.346   0.406
 8791SOL     OW27271   5.002   0.241   5.641
 8791SOL    HW127272   4.985   0.339   5.651
 8791SOL    HW227273   4.922   0.198   5.600
 8792SOL     OW27274   4.037   6.763   3.290
 8792SOL    HW127275   4.098   6.791   3.365
 8792SOL    HW227276   3.943   6.786   3.313
 8793SOL     OW27277   1.995   5.832   4.379
 8793SOL    HW127278   1.984   5.762   4.308
 8793SOL    HW227279   1.907   5.846   4.425
 8794SOL     OW27280   3.099   5.989   2.615
 8794SOL    HW127281   3.117   6.081   2.650
 8794SOL    HW227282   3.003   5.966   2.631
 8795SOL     OW27283   1.456   6.601   5.068
 8795SOL    HW127284   1.366   6.592   5.025
 8795SOL    HW227285   1.527   6.601   4.998
 8796SOL     OW27286   3.765   1.458   5.420
 8796SOL    HW127287   3.744   1.530   5.354
 8796SOL    HW227288   3.865   1.451   5.429
 8797SOL     OW27289   1.695   6.589   5.951
 8797SOL    HW127290   1.685   6.514   5.885
 8797SOL    HW227291   1.760   6.561   6.022
 8798SOL     OW27292   5.613   4.362   5.203
 8798SOL    HW127293   5.709   4.386   5.186
 8798SOL    HW227294   5.557   4.445   5.200
 8799SOL     OW27295   2.420   4.557   3.337
 8799SOL    HW127296   2.432   4.647   3.295
 8799SOL    HW227297   2.399   4.489   3.266
 8800SOL     OW27298   5.415   3.545   5.406
 8800SOL    HW127299   5.400   3.447   5.423
 8800SOL    HW227300   5.344   3.597   5.454
 8801SOL     OW27301   2.169   0.912   4.162
 8801SOL    HW127302   2.221   0.849   4.221
 8801SOL    HW227303   2.200   1.006   4.179
 8802SOL     OW27304   1.059   0.244   1.326
 8802SOL    HW127305   1.152   0.250   1.363
 8802SOL    HW227306   1.006   0.178   1.380
 8803SOL     OW27307   1.497   4.677   6.045
 8803SOL    HW127308   1.525   4.587   6.076
 8803SOL    HW227309   1.478   4.674   5.947
 8804SOL     OW27310   3.979   0.578   1.459
 8804SOL    HW127311   4.045   0.652   1.474
 8804SOL    HW227312   3.950   0.579   1.363
 8805SOL     OW27313   2.437   0.013   3.570
 8805SOL    HW127314   2.453   0.011   3.669
 8805SOL    HW227315   2.357   6.981   3.548
 8806SOL     OW27316   2.201   5.252   1.450
 8806SOL    HW127317   2.245   5.327   1.401
 8806SOL    HW227318   2.104   5.249   1.428
 8807SOL     OW27319   6.558   6.138   6.261
 8807SOL    HW127320   6.644   6.186   6.273
 8807SOL    HW227321   6.497   6.192   6.202
 8808SOL     OW27322   5.407   1.850   0.887
 8808SOL    HW127323   5.472   1.800   0.944
 8808SOL    HW227324   5.409   1.814   0.794
 8809SOL     OW27325   5.483   3.799   1.898
 8809SOL    HW127326   5.473   3.731   1.971
 8809SOL    HW227327   5.511   3.886   1.938
 8810SOL     OW27328   5.750   1.560   5.500
 8810SOL    HW127329   5.780   1.546   5.406
 8810SOL    HW227330   5.700   1.646   5.506
 8811SOL     OW27331   2.405   1.734   4.164
 8811SOL    HW127332   2.440   1.779   4.245
 8811SOL    HW227333   2.309   1.759   4.151
 8812SOL     OW27334   0.891   0.628   0.780
 8812SOL    HW127335   0.827   0.576   0.836
 8812SOL    HW227336   0.897   0.722   0.814
 8813SOL     OW27337   1.062   4.993   1.825
 8813SOL    HW127338   0.969   5.029   1.827
 8813SOL    HW227339   1.113   5.036   1.750
 8814SOL     OW27340   6.892   0.852   0.282
 8814SOL    HW127341   6.793   0.843   0.286
 8814SOL    HW227342   6.917   0.949   0.283
 8815SOL     OW27343   6.535   5.955   0.602
 8815SOL    HW127344   6.582   6.023   0.658
 8815SOL    HW227345   6.523   5.871   0.655
 8816SOL     OW27346   1.111   0.051   0.953
 8816SOL    HW127347   1.133   6.988   0.913
 8816SOL    HW227348   1.146   0.055   1.047
 8817SOL     OW27349   0.327   5.593   5.626
 8817SOL    HW127350   0.395   5.658   5.658
 8817SOL    HW227351   0.267   5.637   5.559
 8818SOL     OW27352   0.407   3.544   3.355
 8818SOL    HW127353   0.396   3.547   3.256
 8818SOL    HW227354   0.369   3.458   3.390
 8819SOL     OW27355   4.639   6.403   3.915
 8819SOL    HW127356   4.541   6.398   3.897
 8819SOL    HW227357   4.656   6.463   3.994
 8820SOL     OW27358   2.488   2.327   4.109
 8820SOL    HW127359   2.506   2.374   4.023
 8820SOL    HW227360   2.430   2.247   4.092
 8821SOL     OW27361   1.519   6.492   6.803
 8821SOL    HW127362   1.528   6.452   6.711
 8821SOL    HW227363   1.452   6.567   6.800
 8822SOL     OW27364   0.844   0.283   3.109
 8822SOL    HW127365   0.782   0.297   3.032
 8822SOL    HW227366   0.868   0.372   3.149
 8823SOL     OW27367   2.067   0.321   1.188
 8823SOL    HW127368   2.027   0.231   1.202
 8823SOL    HW227369   1.994   0.386   1.163
 8824SOL     OW27370   2.595   3.612   0.677
 8824SOL    HW127371   2.670   3.608   0.611
 8824SOL    HW227372   2.511   3.580   0.634
 8825SOL     OW27373   1.807   0.370   3.528
 8825SOL    HW127374   1.899   0.337   3.507
 8825SOL    HW227375   1.739   0.311   3.484
 8826SOL     OW27376   6.407   2.303   0.420
 8826SOL    HW127377   6.317   2.317   0.461
 8826SOL    HW227378   6.402   2.230   0.352
 8827SOL     OW27379   3.042   1.409   3.015
 8827SOL    HW127380   3.132   1.424   3.056
 8827SOL    HW227381   2.972   1.412   3.087
 8828SOL     OW27382   4.143   5.495   3.939
 8828SOL    HW127383   4.076   5.481   4.012
 8828SOL    HW227384   4.097   5.536   3.860
 8829SOL     OW27385   0.058   3.206   0.180
 8829SOL    HW127386   7.008   3.183   0.118
 8829SOL    HW227387   0.140   3.157   0.152
 8830SOL     OW27388   0.036   1.503   0.150
 8830SOL    HW127389   0.084   1.582   0.111
 8830SOL    HW227390   6.963   1.519   0.146
 8831SOL     OW27391   5.326   1.317   3.485
 8831SOL    HW127392   5.234   1.302   3.449
 8831SOL    HW227393   5.393   1.270   3.427
 8832SOL     OW27394   6.951   6.388   2.275
 8832SOL    HW127395   6.918   6.440   2.354
 8832SOL    HW227396   6.896   6.412   2.195
 8833SOL     OW27397   2.134   6.314   5.219
 8833SOL    HW127398   2.099   6.233   5.171
 8833SOL    HW227399   2.146   6.388   5.153
 8834SOL     OW27400   5.558   3.640   4.370
 8834SOL    HW127401   5.489   3.569   4.355
 8834SOL    HW227402   5.515   3.730   4.365
 8835SOL     OW27403   6.210   0.673   5.656
 8835SOL    HW127404   6.255   0.690   5.569
 8835SOL    HW227405   6.112   0.664   5.642
 8836SOL     OW27406   4.296   1.155   0.418
 8836SOL    HW127407   4.342   1.088   0.360
 8836SOL    HW227408   4.200   1.128   0.430
 8837SOL     OW27409   0.743   0.244   2.477
 8837SOL    HW127410   0.730   0.261   2.574
 8837SOL    HW227411   0.786   0.324   2.435
 8838SOL     OW27412   2.929   5.108   3.122
 8838SOL    HW127413   2.856   5.078   3.060
 8838SOL    HW227414   2.932   5.046   3.201
 8839SOL     OW27415   5.614   5.982   3.069
 8839SOL    HW127416   5.668   6.036   3.005
 8839SOL    HW227417   5.674   5.946   3.141
 8840SOL     OW27418   6.490   2.240   2.236
 8840SOL    HW127419   6.473   2.143   2.255
 8840SOL    HW227420   6.581   2.265   2.269
 8841SOL     OW27421   1.480   0.973   5.150
 8841SOL    HW127422   1.466   1.039   5.075
 8841SOL    HW227423   1.570   0.989   5.191
 8842SOL     OW27424   3.425   2.766   0.324
 8842SOL    HW127425   3.517   2.728   0.332
 8842SOL    HW227426   3.431   2.863   0.303
 8843SOL     OW27427   1.487   2.383   5.448
 8843SOL    HW127428   1.406   2.424   5.406
 8843SOL    HW227429   1.551   2.456   5.473
 8844SOL     OW27430   5.617   1.211   6.363
 8844SOL    HW127431   5.672   1.211   6.446
 8844SOL    HW227432   5.520   1.220   6.386
 8845SOL     OW27433   4.074   3.544   0.105
 8845SOL    HW127434   4.045   3.539   0.201
 8845SOL    HW227435   4.174   3.532   0.100
 8846SOL     OW27436   2.266   6.026   4.170
 8846SOL    HW127437   2.293   5.959   4.101
 8846SOL    HW227438   2.266   5.983   4.260
 8847SOL     OW27439   3.134   0.763   2.759
 8847SOL    HW127440   3.117   0.857   2.788
 8847SOL    HW227441   3.101   0.751   2.665
 8848SOL     OW27442   2.406   0.861   1.194
 8848SOL    HW127443   2.357   0.910   1.265
 8848SOL    HW227444   2.416   0.765   1.221
 8849SOL     OW27445   2.661   5.923   3.249
 8849SOL    HW127446   2.660   5.863   3.170
 8849SOL    HW227447   2.750   5.916   3.295
 8850SOL     OW27448   1.970   1.802   0.012
 8850SOL    HW127449   1.882   1.762   0.036
 8850SOL    HW227450   2.026   1.734   6.990
 8851SOL     OW27451   1.953   4.823   2.687
 8851SOL    HW127452   2.004   4.819   2.773
 8851SOL    HW227453   1.955   4.734   2.642
 8852SOL     OW27454   1.265   1.812   5.646
 8852SOL    HW127455   1.289   1.719   5.676
 8852SOL    HW227456   1.225   1.808   5.555
 8853SOL     OW27457   3.111   1.398   1.713
 8853SOL    HW127458   3.135   1.307   1.680
 8853SOL    HW227459   3.120   1.465   1.639
 8854SOL     OW27460   1.902   3.324   4.905
 8854SOL    HW127461   1.924   3.390   4.977
 8854SOL    HW227462   1.960   3.243   4.915
 8855SOL     OW27463   6.482   5.128   1.608
 8855SOL    HW127464   6.527   5.095   1.525
 8855SOL    HW227465   6.550   5.167   1.671
 8856SOL     OW27466   6.252   5.794   6.495
 8856SOL    HW127467   6.257   5.862   6.422
 8856SOL    HW227468   6.310   5.822   6.572
 8857SOL     OW27469   6.665   1.928   5.117
 8857SOL    HW127470   6.740   1.987   5.086
 8857SOL    HW227471   6.647   1.945   5.213
 8858SOL     OW27472   0.245   4.914   5.047
 8858SOL    HW127473   0.314   4.878   5.109
 8858SOL    HW227474   0.154   4.903   5.088
 8859SOL     OW27475   1.118   1.039   3.902
 8859SOL    HW127476   1.204   0.989   3.907
 8859SOL    HW227477   1.070   1.031   3.990
 8860SOL     OW27478   6.972   3.322   1.525
 8860SOL    HW127479   6.925   3.247   1.477
 8860SOL    HW227480   0.026   3.351   1.471
 8861SOL     OW27481   4.147   0.885   0.584
 8861SOL    HW127482   4.053   0.875   0.551
 8861SOL    HW227483   4.169   0.811   0.648
 8862SOL     OW27484   4.801   5.781   4.143
 8862SOL    HW127485   4.807   5.869   4.191
 8862SOL    HW227486   4.713   5.774   4.097
 8863SOL     OW27487   2.024   4.759   3.339
 8863SOL    HW127488   2.056   4.724   3.251
 8863SOL    HW227489   1.933   4.800   3.328
 8864SOL     OW27490   4.804   3.563   6.359
 8864SOL    HW127491   4.746   3.483   6.372
 8864SOL    HW227492   4.782   3.606   6.272
 8865SOL     OW27493   2.640   1.382   5.862
 8865SOL    HW127494   2.601   1.473   5.874
 8865SOL    HW227495   2.680   1.375   5.771
 8866SOL     OW27496   5.591   6.560   2.574
 8866SOL    HW127497   5.611   6.521   2.484
 8866SOL    HW227498   5.510   6.618   2.567
 8867SOL     OW27499   6.200   3.708   3.219
 8867SOL    HW127500   6.191   3.772   3.295
 8867SOL    HW227501   6.131   3.730   3.150
 8868SOL     OW27502   6.960   3.186   2.206
 8868SOL    HW127503   6.997   3.243   2.132
 8868SOL    HW227504   6.910   3.244   2.270
 8869SOL     OW27505   4.221   5.206   4.156
 8869SOL    HW127506   4.246   5.254   4.072
 8869SOL    HW227507   4.284   5.130   4.171
 8870SOL     OW27508   2.159   6.506   1.669
 8870SOL    HW127509   2.084   6.440   1.675
 8870SOL    HW227510   2.222   6.492   1.746
 8871SOL     OW27511   1.352   1.230   3.110
 8871SOL    HW127512   1.393   1.241   3.020
 8871SOL    HW227513   1.253   1.242   3.104
 8872SOL     OW27514   1.051   4.529   6.268
 8872SOL    HW127515   1.124   4.490   6.211
 8872SOL    HW227516   0.989   4.456   6.297
 8873SOL     OW27517   1.696   0.363   1.778
 8873SOL    HW127518   1.619   0.386   1.718
 8873SOL    HW227519   1.683   0.271   1.814
 8874SOL     OW27520   1.112   5.113   1.590
 8874SOL    HW127521   1.055   5.053   1.534
 8874SOL    HW227522   1.152   5.185   1.533
 8875SOL     OW27523   6.969   3.244   4.162
 8875SOL    HW127524   7.002   3.179   4.093
 8875SOL    HW227525   6.984   3.206   4.253
 8876SOL     OW27526   2.848   0.560   6.441
 8876SOL    HW127527   2.855   0.652   6.479
 8876SOL    HW227528   2.837   0.565   6.342
 8877SOL     OW27529   1.152   3.601   1.966
 8877SOL    HW127530   1.075   3.538   1.952
 8877SOL    HW227531   1.208   3.569   2.042
 8878SOL     OW27532   3.555   4.241   0.712
 8878SOL    HW127533   3.618   4.165   0.692
 8878SOL    HW227534   3.602   4.328   0.696
 8879SOL     OW27535   6.852   4.631   2.751
 8879SOL    HW127536   6.830   4.641   2.654
 8879SOL    HW227537   6.943   4.667   2.769
 8880SOL     OW27538   4.082   6.468   4.026
 8880SOL    HW127539   4.016   6.426   3.964
 8880SOL    HW227540   4.050   6.558   4.054
 8881SOL     OW27541   5.372   4.712   4.079
 8881SOL    HW127542   5.428   4.630   4.085
 8881SOL    HW227543   5.334   4.733   4.169
 8882SOL     OW27544   3.891   0.817   0.474
 8882SOL    HW127545   3.923   0.814   0.379
 8882SOL    HW227546   3.828   0.742   0.491
 8883SOL     OW27547   0.140   6.851   6.103
 8883SOL    HW127548   0.226   6.808   6.131
 8883SOL    HW227549   0.137   6.944   6.140
 8884SOL     OW27550   5.491   4.595   5.209
 8884SOL    HW127551   5.401   4.626   5.240
 8884SOL    HW227552   5.508   4.629   5.116
 8885SOL     OW27553   5.530   5.184   6.874
 8885SOL    HW127554   5.450   5.131   6.846
 8885SOL    HW227555   5.527   5.274   6.831
 8886SOL     OW27556   3.728   5.457   6.399
 8886SOL    HW127557   3.718   5.436   6.496
 8886SOL    HW227558   3.799   5.527   6.387
 8887SOL     OW27559   4.399   0.557   0.741
 8887SOL    HW127560   4.482   0.512   0.777
 8887SOL    HW227561   4.418   0.592   0.649
 8888SOL     OW27562   1.537   1.543   3.455
 8888SOL    HW127563   1.454   1.557   3.508
 8888SOL    HW227564   1.617   1.544   3.516
 8889SOL     OW27565   6.728   6.544   6.434
 8889SOL    HW127566   6.827   6.536   6.446
 8889SOL    HW227567   6.682   6.501   6.512
 8890SOL     OW27568   0.596   6.020   6.840
 8890SOL    HW127569   0.596   5.934   6.789
 8890SOL    HW227570   0.561   6.004   6.932
 8891SOL     OW27571   5.025   4.438   6.698
 8891SOL    HW127572   5.034   4.344   6.664
 8891SOL    HW227573   5.115   4.482   6.698
 8892SOL     OW27574   3.873   4.860   3.806
 8892SOL    HW127575   3.967   4.828   3.811
 8892SOL    HW227576   3.865   4.932   3.737
 8893SOL     OW27577   1.286   5.090   5.048
 8893SOL    HW127578   1.186   5.081   5.042
 8893SOL    HW227579   1.324   5.094   4.956
 8894SOL     OW27580   4.934   1.847   0.672
 8894SOL    HW127581   4.970   1.899   0.749
 8894SOL    HW227582   4.834   1.840   0.680
 8895SOL     OW27583   0.952   3.167   0.651
 8895SOL    HW127584   0.958   3.261   0.683
 8895SOL    HW227585   1.002   3.107   0.714
 8896SOL     OW27586   1.565   2.608   5.260
 8896SOL    HW127587   1.622   2.648   5.187
 8896SOL    HW227588   1.481   2.571   5.219
 8897SOL     OW27589   2.044   3.918   3.494
 8897SOL    HW127590   1.949   3.935   3.521
 8897SOL    HW227591   2.105   3.952   3.565
 8898SOL     OW27592   5.655   3.960   2.556
 8898SOL    HW127593   5.584   3.919   2.498
 8898SOL    HW227594   5.744   3.948   2.512
 8899SOL     OW27595   6.549   5.177   6.080
 8899SOL    HW127596   6.595   5.152   6.165
 8899SOL    HW227597   6.616   5.184   6.007
 8900SOL     OW27598   5.429   2.394   3.398
 8900SOL    HW127599   5.385   2.369   3.311
 8900SOL    HW227600   5.525   2.417   3.380
 8901SOL     OW27601   0.914   2.261   3.432
 8901SOL    HW127602   0.975   2.224   3.362
 8901SOL    HW227603   0.891   2.189   3.497
 8902SOL     OW27604   1.351   5.068   0.184
 8902SOL    HW127605   1.450   5.059   0.180
 8902SOL    HW227606   1.312   4.985   0.224
 8903SOL     OW27607   1.478   1.207   5.316
 8903SOL    HW127608   1.558   1.154   5.343
 8903SOL    HW227609   1.475   1.214   5.216
 8904SOL     OW27610   0.628   1.489   2.995
 8904SOL    HW127611   0.648   1.477   3.093
 8904SOL    HW227612   0.630   1.399   2.950
 8905SOL     OW27613   1.677   2.802   2.573
 8905SOL    HW127614   1.650   2.840   2.485
 8905SOL    HW227615   1.752   2.857   2.611
 8906SOL     OW27616   0.527   6.668   0.591
 8906SOL    HW127617   0.503   6.614   0.510
 8906SOL    HW227618   0.580   6.612   0.655
 8907SOL     OW27619   3.264   2.669   5.268
 8907SOL    HW127620   3.243   2.580   5.228
 8907SOL    HW227621   3.185   2.730   5.256
 8908SOL     OW27622   1.225   4.865   0.351
 8908SOL    HW127623   1.175   4.780   0.363
 8908SOL    HW227624   1.199   4.930   0.423
 8909SOL     OW27625   2.543   0.925   6.131
 8909SOL    HW127626   2.640   0.902   6.121
 8909SOL    HW227627   2.522   1.008   6.079
 8910SOL     OW27628   0.747   2.441   5.375
 8910SOL    HW127629   0.803   2.403   5.450
 8910SOL    HW227630   0.712   2.530   5.402
 8911SOL     OW27631   4.997   1.758   4.483
 8911SOL    HW127632   5.046   1.804   4.557
 8911SOL    HW227633   4.947   1.679   4.520
 8912SOL     OW27634   3.873   3.141   5.486
 8912SOL    HW127635   3.901   3.137   5.390
 8912SOL    HW227636   3.848   3.235   5.510
 8913SOL     OW27637   5.268   5.082   6.947
 8913SOL    HW127638   5.292   5.044   0.011
 8913SOL    HW227639   5.215   5.015   6.896
 8914SOL     OW27640   4.979   6.949   4.827
 8914SOL    HW127641   5.067   6.997   4.825
 8914SOL    HW227642   4.919   6.994   4.893
 8915SOL     OW27643   1.015   1.368   3.982
 8915SOL    HW127644   1.101   1.331   4.017
 8915SOL    HW227645   0.943   1.356   4.051
 8916SOL     OW27646   5.351   1.941   6.654
 8916SOL    HW127647   5.366   1.860   6.711
 8916SOL    HW227648   5.343   2.022   6.712
 8917SOL     OW27649   5.953   1.722   0.469
 8917SOL    HW127650   6.030   1.754   0.524
 8917SOL    HW227651   5.880   1.791   0.471
 8918SOL     OW27652   1.574   5.463   0.943
 8918SOL    HW127653   1.630   5.380   0.946
 8918SOL    HW227654   1.626   5.539   0.984
 8919SOL     OW27655   4.888   4.779   6.718
 8919SOL    HW127656   4.954   4.747   6.785
 8919SOL    HW227657   4.804   4.725   6.725
 8920SOL     OW27658   0.605   1.400   0.370
 8920SOL    HW127659   0.604   1.318   0.313
 8920SOL    HW227660   0.642   1.378   0.460
 8921SOL     OW27661   1.122   2.759   0.901
 8921SOL    HW127662   1.217   2.732   0.892
 8921SOL    HW227663   1.115   2.841   0.958
 8922SOL     OW27664   3.320   6.658   2.482
 8922SOL    HW127665   3.308   6.671   2.580
 8922SOL    HW227666   3.385   6.583   2.466
 8923SOL     OW27667   1.227   2.081   5.717
 8923SOL    HW127668   1.237   1.988   5.682
 8923SOL    HW227669   1.300   2.099   5.783
 8924SOL     OW27670   5.177   5.801   4.790
 8924SOL    HW127671   5.097   5.791   4.849
 8924SOL    HW227672   5.149   5.831   4.699
 8925SOL     OW27673   0.300   0.731   2.494
 8925SOL    HW127674   0.298   0.675   2.411
 8925SOL    HW227675   0.224   0.706   2.553
 8926SOL     OW27676   6.561   3.514   5.286
 8926SOL    HW127677   6.502   3.591   5.263
 8926SOL    HW227678   6.601   3.527   5.377
 8927SOL     OW27679   6.850   2.309   5.503
 8927SOL    HW127680   6.859   2.342   5.409
 8927SOL    HW227681   6.754   2.284   5.520
 8928SOL     OW27682   2.150   0.364   5.932
 8928SOL    HW127683   2.195   0.364   5.843
 8928SOL    HW227684   2.063   0.315   5.926
 8929SOL     OW27685   6.128   2.179   4.990
 8929SOL    HW127686   6.092   2.268   5.020
 8929SOL    HW227687   6.053   2.114   4.981
 8930SOL     OW27688   0.757   3.412   2.957
 8930SOL    HW127689   0.801   3.346   3.017
 8930SOL    HW227690   0.795   3.503   2.974
 8931SOL     OW27691   3.034   2.784   1.624
 8931SOL    HW127692   3.105   2.791   1.554
 8931SOL    HW227693   3.076   2.792   1.714
 8932SOL     OW27694   0.297   1.892   3.138
 8932SOL    HW127695   0.340   1.804   3.123
 8932SOL    HW227696   0.367   1.961   3.158
 8933SOL     OW27697   2.968   2.405   6.567
 8933SOL    HW127698   2.997   2.491   6.610
 8933SOL    HW227699   2.927   2.424   6.478
 8934SOL     OW27700   3.217   5.366   5.063
 8934SOL    HW127701   3.250   5.312   4.985
 8934SOL    HW227702   3.290   5.424   5.097
 8935SOL     OW27703   0.539   4.838   0.962
 8935SOL    HW127704   0.617   4.866   1.018
 8935SOL    HW227705   0.516   4.910   0.898
 8936SOL     OW27706   1.948   3.722   0.514
 8936SOL    HW127707   1.985   3.752   0.426
 8936SOL    HW227708   2.021   3.720   0.582
 8937SOL     OW27709   0.149   6.879   5.536
 8937SOL    HW127710   0.066   6.822   5.535
 8937SOL    HW227711   0.123   6.975   5.539
 8938SOL     OW27712   0.390   5.544   0.886
 8938SOL    HW127713   0.304   5.547   0.834
 8938SOL    HW227714   0.391   5.462   0.943
 8939SOL     OW27715   4.760   2.245   4.603
 8939SOL    HW127716   4.703   2.254   4.521
 8939SOL    HW227717   4.738   2.318   4.667
 8940SOL     OW27718   0.410   1.036   3.912
 8940SOL    HW127719   0.416   1.062   4.008
 8940SOL    HW227720   0.496   1.058   3.866
 8941SOL     OW27721   5.661   2.089   5.850
 8941SOL    HW127722   5.616   2.002   5.828
 8941SOL    HW227723   5.678   2.093   5.949
 8942SOL     OW27724   0.515   3.443   5.881
 8942SOL    HW127725   0.545   3.521   5.825
 8942SOL    HW227726   0.448   3.390   5.830
 8943SOL     OW27727   4.843   3.895   0.722
 8943SOL    HW127728   4.814   3.824   0.786
 8943SOL    HW227729   4.774   3.967   0.719
 8944SOL     OW27730   4.923   5.379   5.413
 8944SOL    HW127731   4.877   5.457   5.455
 8944SOL    HW227732   4.995   5.411   5.352
 8945SOL     OW27733   2.049   0.741   4.488
 8945SOL    HW127734   2.136   0.740   4.438
 8945SOL    HW227735   1.991   0.667   4.455
 8946SOL     OW27736   3.064   2.066   4.933
 8946SOL    HW127737   3.120   2.068   4.850
 8946SOL    HW227738   3.063   2.157   4.974
 8947SOL     OW27739   1.441   3.264   5.145
 8947SOL    HW127740   1.511   3.235   5.079
 8947SOL    HW227741   1.351   3.232   5.115
 8948SOL     OW27742   5.947   5.629   3.885
 8948SOL    HW127743   5.921   5.542   3.845
 8948SOL    HW227744   6.042   5.650   3.860
 8949SOL     OW27745   1.715   7.011   0.815
 8949SOL    HW127746   1.694   0.083   0.828
 8949SOL    HW227747   1.701   6.987   0.719
 8950SOL     OW27748   4.640   3.302   5.579
 8950SOL    HW127749   4.651   3.214   5.624
 8950SOL    HW227750   4.728   3.349   5.576
 8951SOL     OW27751   1.978   2.152   5.018
 8951SOL    HW127752   1.892   2.193   5.048
 8951SOL    HW227753   2.048   2.167   5.089
 8952SOL     OW27754   0.780   0.771   2.400
 8952SOL    HW127755   0.859   0.735   2.350
 8952SOL    HW227756   0.746   0.853   2.354
 8953SOL     OW27757   0.931   3.799   6.671
 8953SOL    HW127758   0.937   3.832   6.577
 8953SOL    HW227759   0.938   3.700   6.672
 8954SOL     OW27760   0.354   5.991   5.421
 8954SOL    HW127761   0.375   5.930   5.498
 8954SOL    HW227762   0.429   6.056   5.409
 8955SOL     OW27763   0.089   3.972   2.605
 8955SOL    HW127764   0.124   3.922   2.525
 8955SOL    HW227765   7.015   3.980   2.599
 8956SOL     OW27766   0.286   1.540   6.696
 8956SOL    HW127767   0.283   1.636   6.726
 8956SOL    HW227768   0.202   1.494   6.724
 8957SOL     OW27769   3.306   4.075   1.432
 8957SOL    HW127770   3.249   4.008   1.385
 8957SOL    HW227771   3.285   4.074   1.530
 8958SOL     OW27772   0.904   0.657   4.115
 8958SOL    HW127773   0.814   0.629   4.147
 8958SOL    HW227774   0.923   0.614   4.026
 8959SOL     OW27775   1.236   4.282   0.816
 8959SOL    HW127776   1.302   4.222   0.770
 8959SOL    HW227777   1.252   4.377   0.787
 8960SOL     OW27778   4.698   5.464   2.805
 8960SOL    HW127779   4.646   5.502   2.881
 8960SOL    HW227780   4.791   5.502   2.805
 8961SOL     OW27781   1.459   2.274   4.500
 8961SOL    HW127782   1.534   2.233   4.447
 8961SOL    HW227783   1.482   2.369   4.521
 8962SOL     OW27784   6.038   6.877   1.966
 8962SOL    HW127785   6.130   6.914   1.977
 8962SOL    HW227786   5.985   6.936   1.906
 8963SOL     OW27787   4.767   6.580   4.097
 8963SOL    HW127788   4.846   6.640   4.082
 8963SOL    HW227789   4.716   6.612   4.177
 8964SOL     OW27790   6.178   4.148   2.622
 8964SOL    HW127791   6.175   4.140   2.722
 8964SOL    HW227792   6.246   4.217   2.596
 8965SOL     OW27793   1.667   4.817   1.039
 8965SOL    HW127794   1.635   4.728   1.007
 8965SOL    HW227795   1.667   4.882   0.963
 8966SOL     OW27796   1.817   3.449   5.622
 8966SOL    HW127797   1.915   3.434   5.616
 8966SOL    HW227798   1.799   3.547   5.633
 8967SOL     OW27799   3.164   6.020   1.602
 8967SOL    HW127800   3.111   6.073   1.535
 8967SOL    HW227801   3.155   6.062   1.692
 8968SOL     OW27802   4.582   5.419   2.556
 8968SOL    HW127803   4.610   5.450   2.647
 8968SOL    HW227804   4.500   5.363   2.563
 8969SOL     OW27805   6.342   0.819   3.970
 8969SOL    HW127806   6.250   0.815   3.931
 8969SOL    HW227807   6.395   0.891   3.925
 8970SOL     OW27808   3.278   2.635   0.498
 8970SOL    HW127809   3.204   2.696   0.527
 8970SOL    HW227810   3.326   2.675   0.421
 8971SOL     OW27811   3.546   5.620   2.426
 8971SOL    HW127812   3.484   5.565   2.370
 8971SOL    HW227813   3.493   5.688   2.476
 8972SOL     OW27814   4.696   5.911   6.547
 8972SOL    HW127815   4.603   5.924   6.512
 8972SOL    HW227816   4.705   5.819   6.584
 8973SOL     OW27817   0.429   3.429   2.145
 8973SOL    HW127818   0.350   3.478   2.110
 8973SOL    HW227819   0.513   3.471   2.108
 8974SOL     OW27820   1.501   4.232   5.897
 8974SOL    HW127821   1.451   4.232   5.811
 8974SOL    HW227822   1.566   4.156   5.898
 8975SOL     OW27823   2.711   0.860   0.003
 8975SOL    HW127824   2.676   0.941   6.981
 8975SOL    HW227825   2.792   0.885   0.057
 8976SOL     OW27826   0.972   5.004   5.082
 8976SOL    HW127827   0.931   4.913   5.082
 8976SOL    HW227828   0.903   5.073   5.059
 8977SOL     OW27829   5.587   1.440   6.885
 8977SOL    HW127830   5.687   1.446   6.880
 8977SOL    HW227831   5.553   1.394   6.803
 8978SOL     OW27832   6.107   6.220   6.432
 8978SOL    HW127833   6.139   6.311   6.457
 8978SOL    HW227834   6.079   6.170   6.515
 8979SOL     OW27835   1.379   3.223   4.063
 8979SOL    HW127836   1.404   3.232   4.159
 8979SOL    HW227837   1.359   3.314   4.025
 8980SOL     OW27838   2.443   2.791   5.579
 8980SOL    HW127839   2.371   2.722   5.581
 8980SOL    HW227840   2.416   2.870   5.634
 8981SOL     OW27841   3.941   1.867   5.014
 8981SOL    HW127842   3.913   1.960   5.039
 8981SOL    HW227843   3.914   1.848   4.920
 8982SOL     OW27844   1.361   2.576   0.118
 8982SOL    HW127845   1.401   2.507   0.058
 8982SOL    HW227846   1.313   2.531   0.193
 8983SOL     OW27847   2.679   6.076   6.939
 8983SOL    HW127848   2.766   6.114   6.909
 8983SOL    HW227849   2.678   5.978   6.923
 8984SOL     OW27850   1.274   7.022   4.020
 8984SOL    HW127851   1.212   0.056   4.072
 8984SOL    HW227852   1.325   0.053   3.954
 8985SOL     OW27853   3.878   2.181   0.949
 8985SOL    HW127854   3.792   2.212   0.908
 8985SOL    HW227855   3.888   2.083   0.932
 8986SOL     OW27856   4.342   5.323   2.959
 8986SOL    HW127857   4.353   5.225   2.943
 8986SOL    HW227858   4.324   5.369   2.872
 8987SOL     OW27859   3.563   6.625   2.279
 8987SOL    HW127860   3.514   6.664   2.201
 8987SOL    HW227861   3.569   6.526   2.270
 8988SOL     OW27862   1.563   4.880   4.173
 8988SOL    HW127863   1.587   4.869   4.077
 8988SOL    HW227864   1.645   4.901   4.226
 8989SOL     OW27865   4.670   3.345   6.527
 8989SOL    HW127866   4.692   3.259   6.482
 8989SOL    HW227867   4.736   3.363   6.600
 8990SOL     OW27868   1.070   5.072   4.429
 8990SOL    HW127869   1.157   5.037   4.393
 8990SOL    HW227870   1.026   5.000   4.483
 8991SOL     OW27871   1.702   3.259   4.693
 8991SOL    HW127872   1.785   3.265   4.748
 8991SOL    HW227873   1.656   3.348   4.691
 8992SOL     OW27874   4.654   1.872   0.739
 8992SOL    HW127875   4.574   1.894   0.794
 8992SOL    HW227876   4.660   1.935   0.662
 8993SOL     OW27877   3.724   2.774   0.679
 8993SOL    HW127878   3.693   2.706   0.745
 8993SOL    HW227879   3.667   2.856   0.687
 8994SOL     OW27880   1.453   4.291   5.630
 8994SOL    HW127881   1.363   4.292   5.674
 8994SOL    HW227882   1.445   4.326   5.536
 8995SOL     OW27883   0.555   1.860   0.072
 8995SOL    HW127884   0.601   1.804   0.004
 8995SOL    HW227885   0.544   1.808   0.157
 8996SOL     OW27886   5.594   4.119   6.593
 8996SOL    HW127887   5.630   4.048   6.654
 8996SOL    HW227888   5.507   4.089   6.555
 8997SOL     OW27889   4.652   1.426   5.928
 8997SOL    HW127890   4.736   1.426   5.982
 8997SOL    HW227891   4.597   1.346   5.952
 8998SOL     OW27892   5.810   3.573   4.293
 8998SOL    HW127893   5.719   3.596   4.326
 8998SOL    HW227894   5.801   3.517   4.210
 8999SOL     OW27895   4.507   6.473   6.463
 8999SOL    HW127896   4.593   6.468   6.412
 8999SOL    HW227897   4.488   6.568   6.487
 9000SOL     OW27898   1.859   3.156   2.268
 9000SOL    HW127899   1.766   3.157   2.232
 9000SOL    HW227900   1.917   3.216   2.213
 9001SOL     OW27901   1.126   4.911   2.070
 9001SOL    HW127902   1.040   4.906   2.121
 9001SOL    HW227903   1.108   4.952   1.980
 9002SOL     OW27904   2.101   5.265   5.024
 9002SOL    HW127905   2.038   5.306   4.959
 9002SOL    HW227906   2.099   5.165   5.014
 9003SOL     OW27907   5.614   4.038   1.265
 9003SOL    HW127908   5.525   4.076   1.241
 9003SOL    HW227909   5.686   4.104   1.244
 9004SOL     OW27910   4.436   5.277   1.041
 9004SOL    HW127911   4.348   5.234   1.065
 9004SOL    HW227912   4.447   5.361   1.093
 9005SOL     OW27913   6.610   1.943   5.407
 9005SOL    HW127914   6.513   1.920   5.401
 9005SOL    HW227915   6.621   2.039   5.431
 9006SOL     OW27916   2.558   5.913   1.240
 9006SOL    HW127917   2.591   5.833   1.190
 9006SOL    HW227918   2.569   5.995   1.183
 9007SOL     OW27919   3.252   0.929   3.089
 9007SOL    HW127920   3.163   0.974   3.101
 9007SOL    HW227921   3.300   0.970   3.011
 9008SOL     OW27922   0.402   5.280   2.656
 9008SOL    HW127923   0.401   5.356   2.721
 9008SOL    HW227924   0.497   5.260   2.630
 9009SOL     OW27925   3.804   4.779   0.892
 9009SOL    HW127926   3.811   4.865   0.943
 9009SOL    HW227927   3.812   4.702   0.956
 9010SOL     OW27928   2.030   6.417   4.134
 9010SOL    HW127929   2.103   6.479   4.163
 9010SOL    HW227930   1.946   6.438   4.185
 9011SOL     OW27931   4.493   0.751   1.138
 9011SOL    HW127932   4.452   0.662   1.115
 9011SOL    HW227933   4.561   0.738   1.210
 9012SOL     OW27934   2.070   5.144   6.999
 9012SOL    HW127935   2.113   5.179   6.916
 9012SOL    HW227936   2.080   5.044   7.002
 9013SOL     OW27937   1.308   0.974   6.249
 9013SOL    HW127938   1.248   0.903   6.285
 9013SOL    HW227939   1.307   0.970   6.149
 9014SOL     OW27940   6.931   2.079   0.875
 9014SOL    HW127941   7.012   2.125   0.838
 9014SOL    HW227942   6.894   2.016   0.807
 9015SOL     OW27943   4.659   2.369   1.712
 9015SOL    HW127944   4.733   2.323   1.664
 9015SOL    HW227945   4.645   2.460   1.673
 9016SOL     OW27946   6.452   5.909   6.647
 9016SOL    HW127947   6.485   6.003   6.642
 9016SOL    HW227948   6.519   5.853   6.697
 9017SOL     OW27949   4.671   1.441   4.031
 9017SOL    HW127950   4.695   1.497   4.110
 9017SOL    HW227951   4.571   1.435   4.025
 9018SOL     OW27952   2.546   3.635   5.640
 9018SOL    HW127953   2.545   3.536   5.651
 9018SOL    HW227954   2.490   3.661   5.561
 9019SOL     OW27955   1.270   5.239   2.569
 9019SOL    HW127956   1.270   5.265   2.665
 9019SOL    HW227957   1.190   5.182   2.549
 9020SOL     OW27958   6.932   4.280   1.020
 9020SOL    HW127959   7.014   4.305   0.969
 9020SOL    HW227960   6.955   4.263   1.115
 9021SOL     OW27961   6.855   1.418   3.323
 9021SOL    HW127962   6.758   1.422   3.345
 9021SOL    HW227963   6.877   1.329   3.283
 9022SOL     OW27964   3.522   1.372   0.203
 9022SOL    HW127965   3.540   1.398   0.108
 9022SOL    HW227966   3.424   1.352   0.214
 9023SOL     OW27967   3.970   3.731   1.761
 9023SOL    HW127968   4.034   3.679   1.817
 9023SOL    HW227969   3.886   3.680   1.748
 9024SOL     OW27970   1.403   4.066   5.396
 9024SOL    HW127971   1.342   3.999   5.352
 9024SOL    HW227972   1.495   4.029   5.400
 9025SOL     OW27973   0.491   5.047   0.783
 9025SOL    HW127974   0.442   5.119   0.833
 9025SOL    HW227975   0.457   5.043   0.689
 9026SOL     OW27976   3.603   2.021   1.308
 9026SOL    HW127977   3.581   2.114   1.338
 9026SOL    HW227978   3.632   1.967   1.387
 9027SOL     OW27979   0.387   3.269   3.053
 9027SOL    HW127980   0.335   3.207   3.111
 9027SOL    HW227981   0.480   3.235   3.042
 9028SOL     OW27982   3.382   3.011   5.324
 9028SOL    HW127983   3.438   3.080   5.370
 9028SOL    HW227984   3.425   2.985   5.238
 9029SOL     OW27985   4.007   6.431   4.965
 9029SOL    HW127986   3.937   6.464   4.902
 9029SOL    HW227987   4.097   6.439   4.922
 9030SOL     OW27988   2.411   1.876   3.681
 9030SOL    HW127989   2.460   1.963   3.670
 9030SOL    HW227990   2.475   1.800   3.675
 9031SOL     OW27991   4.030   6.850   4.354
 9031SOL    HW127992   4.059   6.764   4.395
 9031SOL    HW227993   3.994   6.910   4.425
 9032SOL     OW27994   4.704   4.342   0.834
 9032SOL    HW127995   4.745   4.427   0.799
 9032SOL    HW227996   4.724   4.334   0.932
 9033SOL     OW27997   0.680   4.729   2.677
 9033SOL    HW127998   0.749   4.729   2.604
 9033SOL    HW227999   0.691   4.646   2.733
 9034SOL     OW28000   3.159   5.820   4.752
 9034SOL    HW128001   3.231   5.750   4.746
 9034SOL    HW228002   3.121   5.836   4.661
 9035SOL     OW28003   2.339   4.941   0.457
 9035SOL    HW128004   2.412   4.872   0.449
 9035SOL    HW228005   2.330   4.989   0.370
 9036SOL     OW28006   2.075   3.187   5.761
 9036SOL    HW128007   2.068   3.270   5.706
 9036SOL    HW228008   2.160   3.188   5.812
 9037SOL     OW28009   1.414   3.645   3.556
 9037SOL    HW128010   1.429   3.674   3.651
 9037SOL    HW228011   1.319   3.617   3.544
 9038SOL     OW28012   4.588   2.522   6.862
 9038SOL    HW128013   4.637   2.608   6.876
 9038SOL    HW228014   4.490   2.538   6.862
 9039SOL     OW28015   2.485   4.651   6.495
 9039SOL    HW128016   2.502   4.733   6.441
 9039SOL    HW228017   2.541   4.576   6.459
 9040SOL     OW28018   2.629   2.298   2.428
 9040SOL    HW128019   2.541   2.336   2.455
 9040SOL    HW228020   2.690   2.294   2.507
 9041SOL     OW28021   1.046   2.221   0.790
 9041SOL    HW128022   0.987   2.217   0.709
 9041SOL    HW228023   0.990   2.238   0.871
 9042SOL     OW28024   3.879   0.348   4.266
 9042SOL    HW128025   3.874   0.293   4.183
 9042SOL    HW228026   3.961   0.325   4.317
 9043SOL     OW28027   2.635   1.087   6.444
 9043SOL    HW128028   2.727   1.106   6.410
 9043SOL    HW228029   2.569   1.142   6.393
 9044SOL     OW28030   6.900   0.835   0.639
 9044SOL    HW128031   6.978   0.895   0.619
 9044SOL    HW228032   6.914   0.746   0.594
 9045SOL     OW28033   3.659   0.785   2.499
 9045SOL    HW128034   3.659   0.747   2.591
 9045SOL    HW228035   3.694   0.717   2.434
 9046SOL     OW28036   3.671   4.143   2.895
 9046SOL    HW128037   3.755   4.089   2.888
 9046SOL    HW228038   3.619   4.112   2.975
 9047SOL     OW28039   1.516   3.482   4.686
 9047SOL    HW128040   1.459   3.534   4.622
 9047SOL    HW228041   1.467   3.400   4.714
 9048SOL     OW28042   6.584   2.930   6.150
 9048SOL    HW128043   6.653   2.927   6.077
 9048SOL    HW228044   6.551   2.838   6.168
 9049SOL     OW28045   4.612   6.306   5.634
 9049SOL    HW128046   4.647   6.299   5.541
 9049SOL    HW228047   4.566   6.220   5.658
 9050SOL     OW28048   0.299   3.718   1.319
 9050SOL    HW128049   0.251   3.786   1.264
 9050SOL    HW228050   0.329   3.642   1.261
 9051SOL     OW28051   2.294   0.115   1.497
 9051SOL    HW128052   2.240   0.038   1.463
 9051SOL    HW228053   2.342   0.088   1.581
 9052SOL     OW28054   2.279   2.937   4.032
 9052SOL    HW128055   2.319   2.996   3.962
 9052SOL    HW228056   2.313   2.844   4.020
 9053SOL     OW28057   2.105   0.998   2.016
 9053SOL    HW128058   2.047   0.923   2.047
 9053SOL    HW228059   2.125   0.986   1.919
 9054SOL     OW28060   2.627   5.808   4.958
 9054SOL    HW128061   2.704   5.746   4.967
 9054SOL    HW228062   2.544   5.756   4.937
 9055SOL     OW28063   6.209   2.592   3.625
 9055SOL    HW128064   6.201   2.612   3.723
 9055SOL    HW228065   6.262   2.509   3.612
 9056SOL     OW28066   0.061   1.963   1.623
 9056SOL    HW128067   0.120   1.927   1.695
 9056SOL    HW228068   0.110   1.960   1.535
 9057SOL     OW28069   4.493   2.440   5.195
 9057SOL    HW128070   4.573   2.381   5.206
 9057SOL    HW228071   4.512   2.508   5.124
 9058SOL     OW28072   1.617   1.393   1.627
 9058SOL    HW128073   1.698   1.350   1.587
 9058SOL    HW228074   1.560   1.322   1.670
 9059SOL     OW28075   1.356   2.237   3.194
 9059SOL    HW128076   1.432   2.266   3.252
 9059SOL    HW228077   1.361   2.285   3.106
 9060SOL     OW28078   5.838   2.978   4.550
 9060SOL    HW128079   5.828   2.968   4.649
 9060SOL    HW228080   5.914   2.921   4.518
 9061SOL     OW28081   3.110   5.391   2.438
 9061SOL    HW128082   3.074   5.372   2.529
 9061SOL    HW228083   3.056   5.465   2.396
 9062SOL     OW28084   1.094   6.220   1.454
 9062SOL    HW128085   1.150   6.226   1.371
 9062SOL    HW228086   1.153   6.229   1.534
 9063SOL     OW28087   2.867   0.150   3.745
 9063SOL    HW128088   2.936   0.122   3.679
 9063SOL    HW228089   2.837   0.243   3.726
 9064SOL     OW28090   6.347   3.508   6.276
 9064SOL    HW128091   6.339   3.509   6.376
 9064SOL    HW228092   6.306   3.591   6.238
 9065SOL     OW28093   3.770   0.337   0.234
 9065SOL    HW128094   3.799   0.253   0.281
 9065SOL    HW228095   3.848   0.399   0.228
 9066SOL     OW28096   5.051   0.031   0.097
 9066SOL    HW128097   5.063   0.114   0.151
 9066SOL    HW228098   5.020   6.982   0.156
 9067SOL     OW28099   1.461   0.700   3.639
 9067SOL    HW128100   1.371   0.708   3.595
 9067SOL    HW228101   1.506   0.789   3.639
 9068SOL     OW28102   1.470   6.731   4.734
 9068SOL    HW128103   1.554   6.724   4.789
 9068SOL    HW228104   1.405   6.661   4.764
 9069SOL     OW28105   1.268   3.060   0.210
 9069SOL    HW128106   1.327   3.131   0.170
 9069SOL    HW228107   1.269   2.979   0.151
 9070SOL     OW28108   1.933   3.542   5.049
 9070SOL    HW128109   1.915   3.581   5.140
 9070SOL    HW228110   2.027   3.564   5.022
 9071SOL     OW28111   6.530   6.400   0.697
 9071SOL    HW128112   6.584   6.455   0.634
 9071SOL    HW228113   6.585   6.322   0.728
 9072SOL     OW28114   0.004   3.026   1.073
 9072SOL    HW128115   6.937   3.005   1.039
 9072SOL    HW228116   0.003   3.030   1.172
 9073SOL     OW28117   2.108   6.812   2.097
 9073SOL    HW128118   2.065   6.762   2.022
 9073SOL    HW228119   2.075   6.776   2.185
 9074SOL     OW28120   1.287   0.592   2.749
 9074SOL    HW128121   1.327   0.592   2.658
 9074SOL    HW228122   1.343   0.538   2.811
 9075SOL     OW28123   6.856   1.245   2.549
 9075SOL    HW128124   6.809   1.317   2.601
 9075SOL    HW228125   6.911   1.190   2.612
 9076SOL     OW28126   0.796   1.055   6.657
 9076SOL    HW128127   0.697   1.061   6.663
 9076SOL    HW228128   0.827   1.088   6.568
 9077SOL     OW28129   4.509   6.200   1.646
 9077SOL    HW128130   4.601   6.179   1.615
 9077SOL    HW228131   4.509   6.213   1.745
 9078SOL     OW28132   3.364   2.935   4.625
 9078SOL    HW128133   3.382   2.886   4.710
 9078SOL    HW228134   3.282   2.991   4.635
 9079SOL     OW28135   2.745   0.435   4.508
 9079SOL    HW128136   2.805   0.366   4.468
 9079SOL    HW228137   2.798   0.493   4.570
 9080SOL     OW28138   5.228   2.928   6.393
 9080SOL    HW128139   5.199   2.863   6.322
 9080SOL    HW228140   5.305   2.982   6.359
 9081SOL     OW28141   5.055   6.241   2.901
 9081SOL    HW128142   5.141   6.277   2.867
 9081SOL    HW228143   5.058   6.141   2.902
 9082SOL     OW28144   1.427   0.115   4.521
 9082SOL    HW128145   1.466   0.105   4.612
 9082SOL    HW228146   1.407   0.024   4.483
 9083SOL     OW28147   4.890   4.593   6.144
 9083SOL    HW128148   4.926   4.593   6.051
 9083SOL    HW228149   4.812   4.656   6.149
 9084SOL     OW28150   3.884   3.606   2.976
 9084SOL    HW128151   3.819   3.671   3.015
 9084SOL    HW228152   3.918   3.546   3.049
 9085SOL     OW28153   2.346   0.793   0.790
 9085SOL    HW128154   2.353   0.891   0.812
 9085SOL    HW228155   2.272   0.753   0.844
 9086SOL     OW28156   0.557   4.447   0.647
 9086SOL    HW128157   0.645   4.402   0.666
 9086SOL    HW228158   0.542   4.449   0.548
 9087SOL     OW28159   5.071   2.792   2.421
 9087SOL    HW128160   5.144   2.763   2.359
 9087SOL    HW228161   5.109   2.854   2.490
 9088SOL     OW28162   6.120   0.342   0.433
 9088SOL    HW128163   6.215   0.353   0.402
 9088SOL    HW228164   6.115   0.358   0.531
 9089SOL     OW28165   4.991   6.362   5.459
 9089SOL    HW128166   4.969   6.459   5.463
 9089SOL    HW228167   5.073   6.349   5.402
 9090SOL     OW28168   6.107   0.903   5.099
 9090SOL    HW128169   6.121   0.851   5.014
 9090SOL    HW228170   6.060   0.989   5.077
 9091SOL     OW28171   3.011   3.229   6.421
 9091SOL    HW128172   2.989   3.316   6.376
 9091SOL    HW228173   3.026   3.246   6.518
 9092SOL     OW28174   6.742   1.080   0.034
 9092SOL    HW128175   6.684   1.010   7.018
 9092SOL    HW228176   6.691   1.166   0.039
 9093SOL     OW28177   1.759   5.950   5.478
 9093SOL    HW128178   1.776   5.971   5.575
 9093SOL    HW228179   1.718   5.859   5.471
 9094SOL     OW28180   0.465   3.875   3.050
 9094SOL    HW128181   0.560   3.869   3.081
 9094SOL    HW228182   0.454   3.826   2.964
 9095SOL     OW28183   4.541   4.632   5.550
 9095SOL    HW128184   4.488   4.551   5.576
 9095SOL    HW228185   4.636   4.605   5.532
 9096SOL     OW28186   6.754   4.816   3.374
 9096SOL    HW128187   6.665   4.770   3.374
 9096SOL    HW228188   6.741   4.913   3.398
 9097SOL     OW28189   1.517   2.571   6.488
 9097SOL    HW128190   1.602   2.528   6.517
 9097SOL    HW228191   1.443   2.503   6.491
 9098SOL     OW28192   2.165   2.165   5.243
 9098SOL    HW128193   2.250   2.121   5.214
 9098SOL    HW228194   2.166   2.261   5.218
 9099SOL     OW28195   2.574   2.821   6.428
 9099SOL    HW128196   2.565   2.807   6.329
 9099SOL    HW228197   2.504   2.885   6.459
 9100SOL     OW28198   0.731   3.603   2.465
 9100SOL    HW128199   0.764   3.622   2.557
 9100SOL    HW228200   0.773   3.519   2.431
 9101SOL     OW28201   2.876   1.476   2.625
 9101SOL    HW128202   2.790   1.474   2.573
 9101SOL    HW228203   2.871   1.548   2.694
 9102SOL     OW28204   4.414   6.646   2.149
 9102SOL    HW128205   4.331   6.699   2.133
 9102SOL    HW228206   4.489   6.708   2.171
 9103SOL     OW28207   5.848   1.433   6.779
 9103SOL    HW128208   5.904   1.365   6.826
 9103SOL    HW228209   5.892   1.523   6.786
 9104SOL     OW28210   6.736   0.867   1.623
 9104SOL    HW128211   6.815   0.833   1.672
 9104SOL    HW228212   6.711   0.802   1.551
 9105SOL     OW28213   1.029   6.930   5.414
 9105SOL    HW128214   0.933   6.909   5.432
 9105SOL    HW228215   1.064   6.989   5.488
 9106SOL     OW28216   0.621   4.223   0.192
 9106SOL    HW128217   0.598   4.234   0.288
 9106SOL    HW228218   0.550   4.169   0.147
 9107SOL     OW28219   2.492   0.187   6.303
 9107SOL    HW128220   2.443   0.170   6.388
 9107SOL    HW228221   2.465   0.276   6.267
 9108SOL     OW28222   5.305   5.094   5.397
 9108SOL    HW128223   5.317   5.180   5.348
 9108SOL    HW228224   5.394   5.049   5.408
 9109SOL     OW28225   4.926   3.337   2.327
 9109SOL    HW128226   5.025   3.331   2.312
 9109SOL    HW228227   4.885   3.247   2.316
 9110SOL     OW28228   0.777   5.814   4.660
 9110SOL    HW128229   0.871   5.836   4.688
 9110SOL    HW228230   0.739   5.891   4.609
 9111SOL     OW28231   4.653   3.055   5.697
 9111SOL    HW128232   4.649   2.955   5.707
 9111SOL    HW228233   4.612   3.098   5.777
 9112SOL     OW28234   1.933   5.230   2.897
 9112SOL    HW128235   1.973   5.144   2.930
 9112SOL    HW228236   2.006   5.296   2.880
 9113SOL     OW28237   5.331   2.590   3.631
 9113SOL    HW128238   5.403   2.655   3.607
 9113SOL    HW228239   5.349   2.502   3.586
 9114SOL     OW28240   1.385   5.935   4.199
 9114SOL    HW128241   1.463   5.939   4.137
 9114SOL    HW228242   1.318   6.006   4.173
 9115SOL     OW28243   5.553   4.600   3.343
 9115SOL    HW128244   5.531   4.612   3.247
 9115SOL    HW228245   5.582   4.688   3.382
 9116SOL     OW28246   0.287   6.843   3.436
 9116SOL    HW128247   0.301   6.930   3.481
 9116SOL    HW228248   0.339   6.841   3.350
 9117SOL     OW28249   4.210   1.442   6.951
 9117SOL    HW128250   4.116   1.413   6.939
 9117SOL    HW228251   4.217   1.500   0.008
 9118SOL     OW28252   6.058   3.642   0.662
 9118SOL    HW128253   6.138   3.699   0.647
 9118SOL    HW228254   6.086   3.547   0.674
 9119SOL     OW28255   3.643   6.362   1.061
 9119SOL    HW128256   3.700   6.346   0.980
 9119SOL    HW228257   3.644   6.459   1.084
 9120SOL     OW28258   6.572   2.673   6.246
 9120SOL    HW128259   6.650   2.618   6.216
 9120SOL    HW228260   6.557   2.658   6.344
 9121SOL     OW28261   3.990   0.615   5.568
 9121SOL    HW128262   4.006   0.522   5.602
 9121SOL    HW228263   3.963   0.610   5.471
 9122SOL     OW28264   2.212   4.010   1.822
 9122SOL    HW128265   2.119   4.044   1.841
 9122SOL    HW228266   2.217   3.913   1.844
 9123SOL     OW28267   1.699   0.061   3.440
 9123SOL    HW128268   1.635   7.025   3.487
 9123SOL    HW228269   1.787   0.015   3.428
 9124SOL     OW28270   3.775   4.848   1.519
 9124SOL    HW128271   3.792   4.751   1.536
 9124SOL    HW228272   3.684   4.872   1.553
 9125SOL     OW28273   3.534   5.958   7.015
 9125SOL    HW128274   3.518   5.929   6.920
 9125SOL    HW228275   3.459   6.017   0.019
 9126SOL     OW28276   4.572   4.540   1.064
 9126SOL    HW128277   4.659   4.581   1.036
 9126SOL    HW228278   4.589   4.450   1.105
 9127SOL     OW28279   6.884   3.914   4.916
 9127SOL    HW128280   6.933   3.977   4.976
 9127SOL    HW228281   6.950   3.851   4.874
 9128SOL     OW28282   6.016   3.296   4.785
 9128SOL    HW128283   6.042   3.204   4.756
 9128SOL    HW228284   6.070   3.363   4.734
 9129SOL     OW28285   2.211   1.833   0.991
 9129SOL    HW128286   2.147   1.890   0.941
 9129SOL    HW228287   2.304   1.864   0.973
 9130SOL     OW28288   3.084   4.372   5.597
 9130SOL    HW128289   3.124   4.440   5.658
 9130SOL    HW228290   2.991   4.400   5.571
 9131SOL     OW28291   6.407   2.799   1.082
 9131SOL    HW128292   6.501   2.765   1.078
 9131SOL    HW228293   6.344   2.728   1.052
 9132SOL     OW28294   1.019   4.587   3.658
 9132SOL    HW128295   1.106   4.565   3.613
 9132SOL    HW228296   0.957   4.510   3.649
 9133SOL     OW28297   4.119   0.625   0.710
 9133SOL    HW128298   4.098   0.618   0.807
 9133SOL    HW228299   4.216   0.604   0.695
 9134SOL     OW28300   4.647   5.101   0.975
 9134SOL    HW128301   4.720   5.154   0.932
 9134SOL    HW228302   4.568   5.160   0.991
 9135SOL     OW28303   1.436   5.992   1.592
 9135SOL    HW128304   1.366   5.927   1.563
 9135SOL    HW228305   1.393   6.077   1.623
 9136SOL     OW28306   5.332   5.169   6.177
 9136SOL    HW128307   5.312   5.148   6.081
 9136SOL    HW228308   5.280   5.106   6.236
 9137SOL     OW28309   4.821   6.063   6.363
 9137SOL    HW128310   4.799   5.991   6.429
 9137SOL    HW228311   4.818   6.152   6.409
 9138SOL     OW28312   2.712   2.863   0.266
 9138SOL    HW128313   2.631   2.845   0.321
 9138SOL    HW228314   2.686   2.904   0.179
 9139SOL     OW28315   0.002   0.164   1.202
 9139SOL    HW128316   6.965   0.231   1.161
 9139SOL    HW228317   0.076   0.144   1.137
 9140SOL     OW28318   0.724   4.182   2.422
 9140SOL    HW128319   0.755   4.202   2.330
 9140SOL    HW228320   0.664   4.101   2.420
 9141SOL     OW28321   0.126   5.598   6.026
 9141SOL    HW128322   0.047   5.625   5.971
 9141SOL    HW228323   0.128   5.498   6.034
 9142SOL     OW28324   1.139   3.752   2.759
 9142SOL    HW128325   1.195   3.670   2.748
 9142SOL    HW228326   1.170   3.803   2.838
 9143SOL     OW28327   0.355   3.733   2.842
 9143SOL    HW128328   0.267   3.686   2.828
 9143SOL    HW228329   0.348   3.827   2.808
 9144SOL     OW28330   2.742   5.028   5.009
 9144SOL    HW128331   2.754   5.123   5.038
 9144SOL    HW228332   2.671   4.985   5.065
 9145SOL     OW28333   0.922   6.920   6.664
 9145SOL    HW128334   0.922   6.960   6.756
 9145SOL    HW228335   0.832   6.933   6.623
 9146SOL     OW28336   5.666   3.184   3.251
 9146SOL    HW128337   5.745   3.217   3.304
 9146SOL    HW228338   5.655   3.240   3.169
 9147SOL     OW28339   5.687   6.722   3.797
 9147SOL    HW128340   5.728   6.775   3.723
 9147SOL    HW228341   5.754   6.656   3.832
 9148SOL     OW28342   6.667   0.135   1.136
 9148SOL    HW128343   6.571   0.162   1.126
 9148SOL    HW228344   6.725   0.209   1.102
 9149SOL     OW28345   6.161   3.755   0.993
 9149SOL    HW128346   6.159   3.816   0.914
 9149SOL    HW228347   6.236   3.782   1.054
 9150SOL     OW28348   2.695   4.398   6.919
 9150SOL    HW128349   2.716   4.305   6.949
 9150SOL    HW228350   2.710   4.405   6.820
 9151SOL     OW28351   1.649   3.784   3.937
 9151SOL    HW128352   1.624   3.865   3.885
 9151SOL    HW228353   1.748   3.784   3.952
 9152SOL     OW28354   2.029   4.173   3.890
 9152SOL    HW128355   2.010   4.075   3.890
 9152SOL    HW228356   1.980   4.217   3.965
 9153SOL     OW28357   0.161   2.149   6.623
 9153SOL    HW128358   0.156   2.240   6.583
 9153SOL    HW228359   0.257   2.123   6.637
 9154SOL     OW28360   5.857   5.098   3.467
 9154SOL    HW128361   5.911   5.177   3.437
 9154SOL    HW228362   5.832   5.043   3.387
 9155SOL     OW28363   0.981   5.982   2.447
 9155SOL    HW128364   1.031   5.979   2.360
 9155SOL    HW228365   0.899   6.038   2.437
 9156SOL     OW28366   7.022   3.899   0.297
 9156SOL    HW128367   6.989   3.845   0.220
 9156SOL    HW228368   0.040   3.983   0.263
 9157SOL     OW28369   3.389   4.297   6.690
 9157SOL    HW128370   3.483   4.282   6.721
 9157SOL    HW228371   3.369   4.236   6.614
 9158SOL     OW28372   0.183   3.790   3.687
 9158SOL    HW128373   0.262   3.778   3.626
 9158SOL    HW228374   0.204   3.862   3.754
 9159SOL     OW28375   3.440   7.021   3.287
 9159SOL    HW128376   3.461   6.933   3.245
 9159SOL    HW228377   3.363   0.038   3.239
 9160SOL     OW28378   0.623   4.979   6.729
 9160SOL    HW128379   0.538   5.008   6.773
 9160SOL    HW228380   0.620   4.881   6.711
 9161SOL     OW28381   5.624   3.896   1.493
 9161SOL    HW128382   5.637   3.798   1.474
 9161SOL    HW228383   5.605   3.944   1.408
 9162SOL     OW28384   4.946   2.260   2.326
 9162SOL    HW128385   4.914   2.166   2.309
 9162SOL    HW228386   4.867   2.318   2.348
 9163SOL     OW28387   1.765   1.995   3.156
 9163SOL    HW128388   1.688   2.046   3.117
 9163SOL    HW228389   1.809   2.051   3.227
 9164SOL     OW28390   2.748   0.353   6.990
 9164SOL    HW128391   2.692   0.434   6.972
 9164SOL    HW228392   2.811   0.372   0.040
 9165SOL     OW28393   4.753   2.522   5.311
 9165SOL    HW128394   4.697   2.561   5.237
 9165SOL    HW228395   4.732   2.570   5.396
 9166SOL     OW28396   4.839   5.615   1.835
 9166SOL    HW128397   4.815   5.526   1.874
 9166SOL    HW228398   4.810   5.687   1.897
 9167SOL     OW28399   1.244   1.027   5.891
 9167SOL    HW128400   1.242   1.006   5.793
 9167SOL    HW228401   1.153   1.056   5.921
 9168SOL     OW28402   6.489   5.591   4.622
 9168SOL    HW128403   6.399   5.551   4.604
 9168SOL    HW228404   6.521   5.560   4.711
 9169SOL     OW28405   6.251   6.170   0.037
 9169SOL    HW128406   6.228   6.178   0.135
 9169SOL    HW228407   6.236   6.076   0.007
 9170SOL     OW28408   1.304   1.409   6.503
 9170SOL    HW128409   1.352   1.480   6.555
 9170SOL    HW228410   1.252   1.451   6.428
 9171SOL     OW28411   3.626   4.834   0.663
 9171SOL    HW128412   3.554   4.895   0.695
 9171SOL    HW228413   3.682   4.804   0.740
 9172SOL     OW28414   5.260   1.540   4.631
 9172SOL    HW128415   5.288   1.499   4.718
 9172SOL    HW228416   5.221   1.630   4.647
 9173SOL     OW28417   6.196   2.502   4.108
 9173SOL    HW128418   6.123   2.436   4.095
 9173SOL    HW228419   6.244   2.484   4.194
 9174SOL     OW28420   0.935   5.558   6.953
 9174SOL    HW128421   0.957   5.655   6.953
 9174SOL    HW228422   0.990   5.511   7.023
 9175SOL     OW28423   1.861   6.818   6.881
 9175SOL    HW128424   1.941   6.870   6.911
 9175SOL    HW228425   1.839   6.749   6.950
 9176SOL     OW28426   1.716   1.411   2.724
 9176SOL    HW128427   1.728   1.375   2.816
 9176SOL    HW228428   1.633   1.467   2.720
 9177SOL     OW28429   0.207   4.488   3.777
 9177SOL    HW128430   0.189   4.552   3.852
 9177SOL    HW228431   0.139   4.414   3.779
 9178SOL     OW28432   1.954   6.131   0.286
 9178SOL    HW128433   1.858   6.131   0.258
 9178SOL    HW228434   1.992   6.223   0.274
 9179SOL     OW28435   4.408   6.304   5.134
 9179SOL    HW128436   4.386   6.230   5.070
 9179SOL    HW228437   4.324   6.349   5.164
 9180SOL     OW28438   6.826   2.242   4.082
 9180SOL    HW128439   6.740   2.209   4.042
 9180SOL    HW228440   6.902   2.223   4.020
 9181SOL     OW28441   3.863   1.870   3.715
 9181SOL    HW128442   3.795   1.796   3.713
 9181SOL    HW228443   3.953   1.831   3.699
 9182SOL     OW28444   2.280   1.297   3.297
 9182SOL    HW128445   2.259   1.297   3.200
 9182SOL    HW228446   2.195   1.299   3.350
 9183SOL     OW28447   5.711   2.497   5.941
 9183SOL    HW128448   5.658   2.582   5.946
 9183SOL    HW228449   5.765   2.497   5.857
 9184SOL     OW28450   3.727   2.799   1.298
 9184SOL    HW128451   3.737   2.709   1.339
 9184SOL    HW228452   3.804   2.817   1.238
 9185SOL     OW28453   0.497   0.391   6.844
 9185SOL    HW128454   0.491   0.482   6.884
 9185SOL    HW228455   0.452   0.390   6.755
 9186SOL     OW28456   5.272   0.618   6.161
 9186SOL    HW128457   5.261   0.575   6.071
 9186SOL    HW228458   5.345   0.572   6.211
 9187SOL     OW28459   5.166   1.678   0.479
 9187SOL    HW128460   5.111   1.754   0.513
 9187SOL    HW228461   5.262   1.708   0.471
 9188SOL     OW28462   0.967   6.951   2.024
 9188SOL    HW128463   0.991   0.005   2.079
 9188SOL    HW228464   1.009   6.959   1.934
 9189SOL     OW28465   3.261   1.535   3.880
 9189SOL    HW128466   3.235   1.439   3.875
 9189SOL    HW228467   3.333   1.547   3.949
 9190SOL     OW28468   5.866   4.049   5.419
 9190SOL    HW128469   5.792   4.113   5.439
 9190SOL    HW228470   5.874   4.036   5.320
 9191SOL     OW28471   5.072   6.253   6.234
 9191SOL    HW128472   5.041   6.289   6.145
 9191SOL    HW228473   5.016   6.174   6.259
 9192SOL     OW28474   6.650   4.230   5.870
 9192SOL    HW128475   6.675   4.134   5.886
 9192SOL    HW228476   6.577   4.257   5.933
 9193SOL     OW28477   3.909   2.984   3.307
 9193SOL    HW128478   3.985   2.994   3.372
 9193SOL    HW228479   3.841   2.922   3.345
 9194SOL     OW28480   2.843   5.624   3.095
 9194SOL    HW128481   2.794   5.606   3.180
 9194SOL    HW228482   2.937   5.590   3.102
 9195SOL     OW28483   0.473   3.047   3.389
 9195SOL    HW128484   0.428   2.958   3.381
 9195SOL    HW228485   0.515   3.072   3.301
 9196SOL     OW28486   3.976   0.411   2.795
 9196SOL    HW128487   4.063   0.402   2.844
 9196SOL    HW228488   3.987   0.475   2.719
 9197SOL     OW28489   3.097   2.980   6.359
 9197SOL    HW128490   3.163   2.994   6.285
 9197SOL    HW228491   3.049   3.066   6.378
 9198SOL     OW28492   5.770   2.975   5.768
 9198SOL    HW128493   5.721   3.037   5.706
 9198SOL    HW228494   5.756   2.880   5.739
 9199SOL     OW28495   1.748   4.194   6.408
 9199SOL    HW128496   1.710   4.175   6.498
 9199SOL    HW228497   1.680   4.244   6.353
 9200SOL     OW28498   6.335   0.083   0.231
 9200SOL    HW128499   6.362   0.010   0.295
 9200SOL    HW228500   6.366   0.171   0.267
 9201SOL     OW28501   0.205   4.049   2.207
 9201SOL    HW128502   0.156   3.969   2.241
 9201SOL    HW228503   0.234   4.033   2.113
 9202SOL     OW28504   2.837   5.082   4.284
 9202SOL    HW128505   2.867   5.163   4.235
 9202SOL    HW228506   2.812   5.107   4.378
 9203SOL     OW28507   5.192   1.051   5.612
 9203SOL    HW128508   5.226   1.059   5.705
 9203SOL    HW228509   5.092   1.044   5.614
 9204SOL     OW28510   5.727   4.192   2.961
 9204SOL    HW128511   5.742   4.195   2.862
 9204SOL    HW228512   5.683   4.276   2.991
 9205SOL     OW28513   5.911   2.601   2.992
 9205SOL    HW128514   5.930   2.647   3.079
 9205SOL    HW228515   5.911   2.502   3.006
 9206SOL     OW28516   1.316   6.523   3.281
 9206SOL    HW128517   1.286   6.429   3.268
 9206SOL    HW228518   1.272   6.561   3.362
 9207SOL     OW28519   3.900   6.306   6.893
 9207SOL    HW128520   3.801   6.316   6.899
 9207SOL    HW228521   3.929   6.311   6.798
 9208SOL     OW28522   5.132   3.583   2.012
 9208SOL    HW128523   5.078   3.500   2.000
 9208SOL    HW228524   5.070   3.662   2.017
 9209SOL     OW28525   3.837   0.971   2.596
 9209SOL    HW128526   3.872   0.940   2.685
 9209SOL    HW228527   3.767   0.908   2.563
 9210SOL     OW28528   2.176   0.059   1.133
 9210SOL    HW128529   2.242   0.045   1.060
 9210SOL    HW228530   2.197   0.145   1.181
 9211SOL     OW28531   5.123   1.759   6.902
 9211SOL    HW128532   5.073   1.837   6.865
 9211SOL    HW228533   5.059   1.685   6.922
 9212SOL     OW28534   5.549   4.556   4.560
 9212SOL    HW128535   5.611   4.564   4.483
 9212SOL    HW228536   5.601   4.542   4.644
 9213SOL     OW28537   5.949   6.688   3.642
 9213SOL    HW128538   5.943   6.628   3.562
 9213SOL    HW228539   5.925   6.637   3.724
 9214SOL     OW28540   2.430   2.455   4.567
 9214SOL    HW128541   2.444   2.357   4.552
 9214SOL    HW228542   2.427   2.503   4.479
 9215SOL     OW28543   0.616   4.117   2.719
 9215SOL    HW128544   0.669   4.034   2.700
 9215SOL    HW228545   0.645   4.190   2.657
 9216SOL     OW28546   2.591   6.007   5.128
 9216SOL    HW128547   2.615   5.928   5.071
 9216SOL    HW228548   2.497   5.997   5.161
 9217SOL     OW28549   4.640   1.451   6.361
 9217SOL    HW128550   4.569   1.483   6.423
 9217SOL    HW228551   4.657   1.520   6.291
 9218SOL     OW28552   5.977   6.421   6.039
 9218SOL    HW128553   5.884   6.385   6.028
 9218SOL    HW228554   5.982   6.472   6.125
 9219SOL     OW28555   3.619   3.241   5.244
 9219SOL    HW128556   3.604   3.163   5.184
 9219SOL    HW228557   3.590   3.218   5.337
 9220SOL     OW28558   1.556   6.760   2.996
 9220SOL    HW128559   1.576   6.668   3.031
 9220SOL    HW228560   1.638   6.799   2.955
 9221SOL     OW28561   2.301   0.680   6.723
 9221SOL    HW128562   2.375   0.727   6.674
 9221SOL    HW228563   2.321   0.681   6.821
 9222SOL     OW28564   1.603   4.386   3.453
 9222SOL    HW128565   1.656   4.409   3.371
 9222SOL    HW228566   1.521   4.335   3.427
 9223SOL     OW28567   1.289   3.589   4.560
 9223SOL    HW128568   1.269   3.674   4.608
 9223SOL    HW228569   1.259   3.596   4.464
 9224SOL     OW28570   2.125   4.445   3.822
 9224SOL    HW128571   2.224   4.450   3.805
 9224SOL    HW228572   2.103   4.358   3.865
 9225SOL     OW28573   4.471   6.945   6.303
 9225SOL    HW128574   4.485   7.011   6.229
 9225SOL    HW228575   4.484   6.991   6.391
 9226SOL     OW28576   1.051   0.096   0.688
 9226SOL    HW128577   1.062   0.087   0.787
 9226SOL    HW228578   0.954   0.098   0.666
 9227SOL     OW28579   2.650   5.181   0.825
 9227SOL    HW128580   2.726   5.136   0.872
 9227SOL    HW228581   2.651   5.157   0.728
 9228SOL     OW28582   3.157   2.406   5.689
 9228SOL    HW128583   3.072   2.395   5.739
 9228SOL    HW228584   3.138   2.442   5.597
 9229SOL     OW28585   0.017   4.856   6.897
 9229SOL    HW128586   0.040   4.912   6.977
 9229SOL    HW228587   6.999   4.913   6.828
 9230SOL     OW28588   4.851   1.738   3.964
 9230SOL    HW128589   4.912   1.659   3.967
 9230SOL    HW228590   4.769   1.715   3.912
 9231SOL     OW28591   0.760   5.160   5.014
 9231SOL    HW128592   0.683   5.137   5.074
 9231SOL    HW228593   0.744   5.250   4.972
 9232SOL     OW28594   1.612   5.180   1.515
 9232SOL    HW128595   1.560   5.158   1.597
 9232SOL    HW228596   1.670   5.260   1.532
 9233SOL     OW28597   0.885   0.618   0.073
 9233SOL    HW128598   0.887   0.595   0.170
 9233SOL    HW228599   0.929   0.706   0.058
 9234SOL     OW28600   2.440   4.638   0.714
 9234SOL    HW128601   2.384   4.589   0.780
 9234SOL    HW228602   2.524   4.586   0.696
 9235SOL     OW28603   2.438   2.561   4.336
 9235SOL    HW128604   2.363   2.618   4.302
 9235SOL    HW228605   2.490   2.526   4.258
 9236SOL     OW28606   1.763   3.197   6.893
 9236SOL    HW128607   1.811   3.226   6.975
 9236SOL    HW228608   1.827   3.154   6.829
 9237SOL     OW28609   5.735   5.326   3.055
 9237SOL    HW128610   5.650   5.334   3.005
 9237SOL    HW228611   5.802   5.391   3.018
 9238SOL     OW28612   1.485   2.963   5.047
 9238SOL    HW128613   1.453   3.011   4.965
 9238SOL    HW228614   1.412   2.961   5.115
 9239SOL     OW28615   0.777   4.719   0.319
 9239SOL    HW128616   0.806   4.627   0.345
 9239SOL    HW228617   0.720   4.757   0.392
 9240SOL     OW28618   4.844   2.870   2.989
 9240SOL    HW128619   4.859   2.962   2.955
 9240SOL    HW228620   4.864   2.804   2.917
 9241SOL     OW28621   6.061   6.543   0.813
 9241SOL    HW128622   6.117   6.557   0.895
 9241SOL    HW228623   6.104   6.476   0.753
 9242SOL     OW28624   1.424   2.291   1.523
 9242SOL    HW128625   1.382   2.335   1.602
 9242SOL    HW228626   1.366   2.215   1.493
 9243SOL     OW28627   0.602   0.548   1.337
 9243SOL    HW128628   0.544   0.538   1.257
 9243SOL    HW228629   0.585   0.637   1.379
 9244SOL     OW28630   4.394   6.855   5.042
 9244SOL    HW128631   4.352   6.899   5.121
 9244SOL    HW228632   4.492   6.870   5.044
 9245SOL     OW28633   1.145   4.624   3.271
 9245SOL    HW128634   1.135   4.718   3.239
 9245SOL    HW228635   1.056   4.580   3.274
 9246SOL     OW28636   6.329   1.133   4.633
 9246SOL    HW128637   6.381   1.060   4.586
 9246SOL    HW228638   6.255   1.164   4.573
 9247SOL     OW28639   3.706   5.480   3.086
 9247SOL    HW128640   3.627   5.466   3.146
 9247SOL    HW228641   3.692   5.563   3.033
 9248SOL     OW28642   2.420   1.396   5.617
 9248SOL    HW128643   2.425   1.461   5.542
 9248SOL    HW228644   2.486   1.422   5.688
 9249SOL     OW28645   3.878   4.886   1.911
 9249SOL    HW128646   3.800   4.828   1.932
 9249SOL    HW228647   3.850   4.982   1.916
 9250SOL     OW28648   0.227   3.510   4.281
 9250SOL    HW128649   0.175   3.512   4.196
 9250SOL    HW228650   0.315   3.467   4.265
 9251SOL     OW28651   3.811   2.334   0.578
 9251SOL    HW128652   3.849   2.244   0.558
 9251SOL    HW228653   3.878   2.405   0.557
 9252SOL     OW28654   5.028   0.372   5.236
 9252SOL    HW128655   5.127   0.376   5.244
 9252SOL    HW228656   4.997   0.277   5.249
 9253SOL     OW28657   1.280   4.960   5.538
 9253SOL    HW128658   1.220   4.985   5.614
 9253SOL    HW228659   1.246   5.001   5.454
 9254SOL     OW28660   6.373   4.700   2.700
 9254SOL    HW128661   6.403   4.793   2.722
 9254SOL    HW228662   6.338   4.656   2.783
 9255SOL     OW28663   5.957   4.641   0.518
 9255SOL    HW128664   6.023   4.583   0.566
 9255SOL    HW228665   5.864   4.606   0.534
 9256SOL     OW28666   2.006   6.588   1.948
 9256SOL    HW128667   2.088   6.538   1.974
 9256SOL    HW228668   1.948   6.529   1.892
 9257SOL     OW28669   0.109   5.567   3.840
 9257SOL    HW128670   0.171   5.565   3.918
 9257SOL    HW228671   0.102   5.661   3.805
 9258SOL     OW28672   3.680   3.521   0.738
 9258SOL    HW128673   3.589   3.556   0.717
 9258SOL    HW228674   3.741   3.536   0.660
 9259SOL     OW28675   2.115   1.948   6.733
 9259SOL    HW128676   2.161   1.955   6.822
 9259SOL    HW228677   2.165   2.001   6.665
 9260SOL     OW28678   5.859   2.836   5.367
 9260SOL    HW128679   5.898   2.921   5.333
 9260SOL    HW228680   5.854   2.838   5.466
 9261SOL     OW28681   4.078   1.947   1.151
 9261SOL    HW128682   4.178   1.944   1.148
 9261SOL    HW228683   4.048   1.997   1.231
 9262SOL     OW28684   6.372   6.199   3.946
 9262SOL    HW128685   6.275   6.221   3.942
 9262SOL    HW228686   6.389   6.135   4.021
 9263SOL     OW28687   2.180   4.065   3.206
 9263SOL    HW128688   2.177   4.136   3.277
 9263SOL    HW228689   2.197   3.977   3.249
 9264SOL     OW28690   5.273   4.161   6.708
 9264SOL    HW128691   5.320   4.116   6.632
 9264SOL    HW228692   5.184   4.117   6.723
 9265SOL     OW28693   4.657   1.948   6.897
 9265SOL    HW128694   4.659   2.048   6.906
 9265SOL    HW228695   4.590   1.910   6.960
 9266SOL     OW28696   0.223   4.369   1.505
 9266SOL    HW128697   0.317   4.336   1.500
 9266SOL    HW228698   0.220   4.464   1.474
 9267SOL     OW28699   0.240   0.919   3.719
 9267SOL    HW128700   0.160   0.938   3.776
 9267SOL    HW228701   0.323   0.932   3.773
 9268SOL     OW28702   0.576   6.511   1.307
 9268SOL    HW128703   0.571   6.412   1.317
 9268SOL    HW228704   0.613   6.533   1.216
 9269SOL     OW28705   4.362   0.124   0.270
 9269SOL    HW128706   4.426   0.058   0.232
 9269SOL    HW228707   4.371   0.211   0.221
 9270SOL     OW28708   3.061   0.847   6.220
 9270SOL    HW128709   3.135   0.900   6.177
 9270SOL    HW228710   3.092   0.754   6.236
 9271SOL     OW28711   0.939   0.535   6.594
 9271SOL    HW128712   0.851   0.488   6.591
 9271SOL    HW228713   0.974   0.534   6.687
 9272SOL     OW28714   6.797   6.564   5.939
 9272SOL    HW128715   6.885   6.604   5.914
 9272SOL    HW228716   6.762   6.510   5.862
 9273SOL     OW28717   4.954   5.324   3.665
 9273SOL    HW128718   5.034   5.380   3.689
 9273SOL    HW228719   4.878   5.383   3.639
 9274SOL     OW28720   0.637   3.575   0.024
 9274SOL    HW128721   0.689   3.653   0.059
 9274SOL    HW228722   0.673   3.490   0.063
 9275SOL     OW28723   0.612   6.279   0.898
 9275SOL    HW128724   0.516   6.275   0.924
 9275SOL    HW228725   0.654   6.189   0.909
 9276SOL     OW28726   3.346   4.294   0.370
 9276SOL    HW128727   3.361   4.283   0.272
 9276SOL    HW228728   3.319   4.389   0.389
 9277SOL     OW28729   4.162   4.918   2.587
 9277SOL    HW128730   4.065   4.916   2.562
 9277SOL    HW228731   4.212   4.852   2.530
 9278SOL     OW28732   0.720   0.792   4.417
 9278SOL    HW128733   0.815   0.769   4.395
 9278SOL    HW228734   0.665   0.708   4.415
 9279SOL     OW28735   3.995   5.007   1.487
 9279SOL    HW128736   3.896   4.995   1.498
 9279SOL    HW228737   4.041   4.920   1.504
 9280SOL     OW28738   1.492   1.267   2.863
 9280SOL    HW128739   1.456   1.257   2.770
 9280SOL    HW228740   1.573   1.209   2.873
 9281SOL     OW28741   3.252   4.355   6.942
 9281SOL    HW128742   3.170   4.411   6.933
 9281SOL    HW228743   3.298   4.349   6.854
 9282SOL     OW28744   3.543   0.037   5.126
 9282SOL    HW128745   3.527   6.974   5.081
 9282SOL    HW228746   3.631   0.034   5.174
 9283SOL     OW28747   4.652   6.076   6.786
 9283SOL    HW128748   4.695   6.032   6.707
 9283SOL    HW228749   4.582   6.140   6.755
 9284SOL     OW28750   3.001   4.052   5.196
 9284SOL    HW128751   3.010   4.125   5.263
 9284SOL    HW228752   3.090   4.011   5.178
 9285SOL     OW28753   6.120   3.532   2.740
 9285SOL    HW128754   6.087   3.483   2.659
 9285SOL    HW228755   6.072   3.497   2.821
 9286SOL     OW28756   4.609   6.006   0.658
 9286SOL    HW128757   4.594   6.068   0.735
 9286SOL    HW228758   4.552   5.925   0.669
 9287SOL     OW28759   3.077   4.768   6.153
 9287SOL    HW128760   3.150   4.808   6.208
 9287SOL    HW228761   3.014   4.718   6.212
 9288SOL     OW28762   4.457   2.064   3.971
 9288SOL    HW128763   4.390   1.996   3.941
 9288SOL    HW228764   4.549   2.023   3.968
 9289SOL     OW28765   4.365   6.296   6.964
 9289SOL    HW128766   4.335   6.236   6.890
 9289SOL    HW228767   4.444   6.349   6.934
 9290SOL     OW28768   5.542   0.648   4.638
 9290SOL    HW128769   5.608   0.573   4.628
 9290SOL    HW228770   5.450   0.613   4.620
 9291SOL     OW28771   0.808   5.396   5.464
 9291SOL    HW128772   0.851   5.447   5.390
 9291SOL    HW228773   0.735   5.338   5.427
 9292SOL     OW28774   1.514   1.220   6.474
 9292SOL    HW128775   1.450   1.296   6.488
 9292SOL    HW228776   1.540   1.216   6.378
 9293SOL     OW28777   5.022   2.822   5.618
 9293SOL    HW128778   5.100   2.873   5.656
 9293SOL    HW228779   5.047   2.784   5.529
 9294SOL     OW28780   4.879   0.992   0.534
 9294SOL    HW128781   4.940   0.913   0.542
 9294SOL    HW228782   4.920   1.059   0.472
 9295SOL     OW28783   0.436   0.803   5.329
 9295SOL    HW128784   0.532   0.827   5.339
 9295SOL    HW228785   0.427   0.705   5.311
 9296SOL     OW28786   2.840   4.536   0.996
 9296SOL    HW128787   2.790   4.526   1.082
 9296SOL    HW228788   2.792   4.487   0.923
 9297SOL     OW28789   6.730   6.687   3.053
 9297SOL    HW128790   6.676   6.606   3.077
 9297SOL    HW228791   6.826   6.672   3.077
 9298SOL     OW28792   1.646   6.423   5.738
 9298SOL    HW128793   1.552   6.415   5.773
 9298SOL    HW228794   1.649   6.394   5.643
 9299SOL     OW28795   2.134   2.396   5.129
 9299SOL    HW128796   2.035   2.398   5.144
 9299SOL    HW228797   2.156   2.454   5.051
 9300SOL     OW28798   1.658   5.790   5.811
 9300SOL    HW128799   1.735   5.838   5.770
 9300SOL    HW228800   1.572   5.831   5.781
 9301SOL     OW28801   0.231   4.238   4.670
 9301SOL    HW128802   0.283   4.215   4.588
 9301SOL    HW228803   0.254   4.331   4.698
 9302SOL     OW28804   2.169   3.134   4.918
 9302SOL    HW128805   2.180   3.231   4.939
 9302SOL    HW228806   2.257   3.087   4.929
 9303SOL     OW28807   2.522   4.198   0.326
 9303SOL    HW128808   2.605   4.144   0.341
 9303SOL    HW228809   2.464   4.152   0.259
 9304SOL     OW28810   5.074   4.922   0.259
 9304SOL    HW128811   5.165   4.929   0.218
 9304SOL    HW228812   5.044   5.012   0.290
 9305SOL     OW28813   3.123   1.431   0.994
 9305SOL    HW128814   3.065   1.459   1.070
 9305SOL    HW228815   3.153   1.337   1.008
 9306SOL     OW28816   0.473   4.465   5.196
 9306SOL    HW128817   0.519   4.459   5.284
 9306SOL    HW228818   0.411   4.387   5.185
 9307SOL     OW28819   2.522   3.142   1.171
 9307SOL    HW128820   2.538   3.074   1.242
 9307SOL    HW228821   2.454   3.208   1.202
 9308SOL     OW28822   1.700   3.986   1.325
 9308SOL    HW128823   1.607   3.989   1.286
 9308SOL    HW228824   1.695   4.009   1.422
 9309SOL     OW28825   4.177   5.997   5.260
 9309SOL    HW128826   4.101   5.933   5.269
 9309SOL    HW228827   4.262   5.947   5.247
 9310SOL     OW28828   4.365   6.291   5.841
 9310SOL    HW128829   4.327   6.380   5.867
 9310SOL    HW228830   4.309   6.218   5.878
 9311SOL     OW28831   4.842   3.694   1.647
 9311SOL    HW128832   4.836   3.616   1.709
 9311SOL    HW228833   4.769   3.689   1.579
 9312SOL     OW28834   0.673   2.395   1.104
 9312SOL    HW128835   0.618   2.381   1.187
 9312SOL    HW228836   0.663   2.489   1.073
 9313SOL     OW28837   1.077   6.638   1.837
 9313SOL    HW128838   1.114   6.672   1.924
 9313SOL    HW228839   1.100   6.703   1.764
 9314SOL     OW28840   5.214   2.480   0.566
 9314SOL    HW128841   5.257   2.403   0.613
 9314SOL    HW228842   5.240   2.565   0.611
 9315SOL     OW28843   5.839   1.222   6.570
 9315SOL    HW128844   5.812   1.316   6.590
 9315SOL    HW228845   5.867   1.176   6.654
 9316SOL     OW28846   4.402   1.030   5.653
 9316SOL    HW128847   4.456   1.048   5.735
 9316SOL    HW228848   4.343   0.951   5.669
 9317SOL     OW28849   3.072   5.959   4.062
 9317SOL    HW128850   3.085   5.896   4.139
 9317SOL    HW228851   3.154   5.959   4.005
 9318SOL     OW28852   4.831   6.298   0.452
 9318SOL    HW128853   4.810   6.342   0.540
 9318SOL    HW228854   4.895   6.223   0.467
 9319SOL     OW28855   2.270   4.509   0.872
 9319SOL    HW128856   2.273   4.546   0.965
 9319SOL    HW228857   2.276   4.409   0.875
 9320SOL     OW28858   6.254   0.225   6.251
 9320SOL    HW128859   6.210   0.144   6.289
 9320SOL    HW228860   6.354   0.212   6.253
 9321SOL     OW28861   0.096   3.221   5.699
 9321SOL    HW128862   0.081   3.211   5.798
 9321SOL    HW228863   0.087   3.318   5.674
 9322SOL     OW28864   6.054   4.207   5.788
 9322SOL    HW128865   6.034   4.217   5.886
 9322SOL    HW228866   5.972   4.174   5.741
 9323SOL     OW28867   1.282   3.122   3.295
 9323SOL    HW128868   1.364   3.126   3.238
 9323SOL    HW228869   1.203   3.156   3.243
 9324SOL     OW28870   0.484   4.198   1.315
 9324SOL    HW128871   0.524   4.107   1.318
 9324SOL    HW228872   0.405   4.197   1.254
 9325SOL     OW28873   1.562   5.484   2.594
 9325SOL    HW128874   1.626   5.418   2.634
 9325SOL    HW228875   1.582   5.575   2.629
 9326SOL     OW28876   4.328   3.918   6.917
 9326SOL    HW128877   4.336   3.935   7.015
 9326SOL    HW228878   4.238   3.878   6.897
 9327SOL     OW28879   4.592   1.062   3.316
 9327SOL    HW128880   4.653   1.072   3.237
 9327SOL    HW228881   4.625   0.988   3.374
 9328SOL     OW28882   2.823   6.274   4.304
 9328SOL    HW128883   2.869   6.261   4.216
 9328SOL    HW228884   2.888   6.309   4.371
 9329SOL     OW28885   0.321   6.196   6.342
 9329SOL    HW128886   0.227   6.194   6.309
 9329SOL    HW228887   0.383   6.169   6.268
 9330SOL     OW28888   5.923   6.893   6.301
 9330SOL    HW128889   5.897   6.882   6.205
 9330SOL    HW228890   5.894   6.813   6.353
 9331SOL     OW28891   1.663   3.197   4.989
 9331SOL    HW128892   1.749   3.242   4.966
 9331SOL    HW228893   1.682   3.110   5.034
 9332SOL     OW28894   4.456   5.776   0.696
 9332SOL    HW128895   4.413   5.696   0.738
 9332SOL    HW228896   4.416   5.791   0.605
 9333SOL     OW28897   3.809   5.148   0.878
 9333SOL    HW128898   3.830   5.108   0.789
 9333SOL    HW228899   3.845   5.089   0.950
 9334SOL     OW28900   4.755   6.209   5.384
 9334SOL    HW128901   4.745   6.125   5.437
 9334SOL    HW228902   4.821   6.269   5.430
 9335SOL     OW28903   2.466   2.075   1.790
 9335SOL    HW128904   2.374   2.039   1.803
 9335SOL    HW228905   2.517   2.069   1.876
 9336SOL     OW28906   6.669   1.327   5.014
 9336SOL    HW128907   6.614   1.405   5.045
 9336SOL    HW228908   6.635   1.296   4.925
 9337SOL     OW28909   4.507   0.592   5.894
 9337SOL    HW128910   4.551   0.679   5.870
 9337SOL    HW228911   4.418   0.611   5.937
 9338SOL     OW28912   6.578   6.102   7.006
 9338SOL    HW128913   6.522   6.019   7.009
 9338SOL    HW228914   6.521   6.180   6.979
 9339SOL     OW28915   6.447   4.846   6.054
 9339SOL    HW128916   6.429   4.752   6.082
 9339SOL    HW228917   6.546   4.862   6.054
 9340SOL     OW28918   3.388   6.037   2.475
 9340SOL    HW128919   3.344   6.124   2.455
 9340SOL    HW228920   3.443   6.009   2.396
 9341SOL     OW28921   5.542   4.403   6.952
 9341SOL    HW128922   5.592   4.326   6.992
 9341SOL    HW228923   5.590   4.435   6.870
 9342SOL     OW28924   2.719   0.081   4.379
 9342SOL    HW128925   2.733   7.007   4.378
 9342SOL    HW228926   2.708   0.114   4.286
 9343SOL     OW28927   4.747   4.476   1.910
 9343SOL    HW128928   4.828   4.425   1.880
 9343SOL    HW228929   4.682   4.413   1.953
 9344SOL     OW28930   6.238   5.186   5.691
 9344SOL    HW128931   6.245   5.097   5.646
 9344SOL    HW228932   6.144   5.200   5.724
 9345SOL     OW28933   7.001   5.941   0.021
 9345SOL    HW128934   0.060   5.904   0.062
 9345SOL    HW228935   6.963   5.874   6.983
 9346SOL     OW28936   5.608   6.685   1.984
 9346SOL    HW128937   5.671   6.662   1.910
 9346SOL    HW228938   5.653   6.748   2.048
 9347SOL     OW28939   3.896   5.329   1.114
 9347SOL    HW128940   3.806   5.315   1.072
 9347SOL    HW228941   3.915   5.427   1.120
 9348SOL     OW28942   2.133   5.717   2.818
 9348SOL    HW128943   2.068   5.792   2.827
 9348SOL    HW228944   2.119   5.669   2.731
 9349SOL     OW28945   6.587   5.539   2.017
 9349SOL    HW128946   6.605   5.516   2.113
 9349SOL    HW228947   6.652   5.609   1.987
 9350SOL     OW28948   6.835   1.741   4.917
 9350SOL    HW128949   6.762   1.785   4.864
 9350SOL    HW228950   6.866   1.804   4.989
 9351SOL     OW28951   3.073   0.627   5.233
 9351SOL    HW128952   3.063   0.625   5.133
 9351SOL    HW228953   3.155   0.577   5.259
 9352SOL     OW28954   2.681   2.321   5.821
 9352SOL    HW128955   2.624   2.374   5.884
 9352SOL    HW228956   2.644   2.328   5.729
 9353SOL     OW28957   0.934   4.237   1.596
 9353SOL    HW128958   0.988   4.161   1.633
 9353SOL    HW228959   0.855   4.201   1.546
 9354SOL     OW28960   6.646   2.169   1.391
 9354SOL    HW128961   6.564   2.159   1.334
 9354SOL    HW228962   6.724   2.190   1.332
 9355SOL     OW28963   6.987   0.237   4.214
 9355SOL    HW128964   6.958   0.193   4.299
 9355SOL    HW228965   6.962   0.180   4.137
 9356SOL     OW28966   4.272   4.879   1.878
 9356SOL    HW128967   4.249   4.818   1.953
 9356SOL    HW228968   4.219   4.964   1.888
 9357SOL     OW28969   2.789   3.362   0.575
 9357SOL    HW128970   2.708   3.363   0.517
 9357SOL    HW228971   2.802   3.271   0.613
 9358SOL     OW28972   6.201   4.530   1.747
 9358SOL    HW128973   6.228   4.446   1.699
 9358SOL    HW228974   6.122   4.570   1.701
 9359SOL     OW28975   6.900   4.327   6.460
 9359SOL    HW128976   6.873   4.388   6.386
 9359SOL    HW228977   6.959   4.255   6.424
 9360SOL     OW28978   2.089   0.600   5.830
 9360SOL    HW128979   2.159   0.664   5.862
 9360SOL    HW228980   2.131   0.513   5.805
 9361SOL     OW28981   2.876   5.771   2.611
 9361SOL    HW128982   2.869   5.758   2.710
 9361SOL    HW228983   2.960   5.728   2.578
 9362SOL     OW28984   2.532   1.096   2.333
 9362SOL    HW128985   2.608   1.031   2.339
 9362SOL    HW228986   2.564   1.187   2.358
 9363SOL     OW28987   3.222   5.689   2.753
 9363SOL    HW128988   3.200   5.718   2.660
 9363SOL    HW228989   3.200   5.592   2.764
 9364SOL     OW28990   4.452   3.061   6.320
 9364SOL    HW128991   4.427   3.158   6.322
 9364SOL    HW228992   4.402   3.012   6.391
 9365SOL     OW28993   2.796   2.278   4.825
 9365SOL    HW128994   2.733   2.353   4.808
 9365SOL    HW228995   2.881   2.313   4.864
 9366SOL     OW28996   3.385   1.743   0.625
 9366SOL    HW128997   3.442   1.752   0.707
 9366SOL    HW228998   3.341   1.830   0.605
 9367SOL     OW28999   6.804   5.332   3.792
 9367SOL    HW129000   6.774   5.405   3.731
 9367SOL    HW229001   6.828   5.371   3.881
 9368SOL     OW29002   3.652   1.849   1.509
 9368SOL    HW129003   3.611   1.763   1.477
 9368SOL    HW229004   3.704   1.832   1.593
 9369SOL     OW29005   6.608   1.584   6.032
 9369SOL    HW129006   6.577   1.517   6.100
 9369SOL    HW229007   6.657   1.537   5.959
 9370SOL     OW29008   6.043   1.126   3.034
 9370SOL    HW129009   6.003   1.188   3.102
 9370SOL    HW229010   6.105   1.062   3.080
 9371SOL     OW29011   1.124   5.451   0.124
 9371SOL    HW129012   1.222   5.465   0.112
 9371SOL    HW229013   1.107   5.357   0.153
 9372SOL     OW29014   5.871   6.535   3.399
 9372SOL    HW129015   5.794   6.546   3.337
 9372SOL    HW229016   5.942   6.480   3.355
 9373SOL     OW29017   4.296   1.755   3.187
 9373SOL    HW129018   4.269   1.748   3.091
 9373SOL    HW229019   4.255   1.837   3.228
 9374SOL     OW29020   6.059   2.899   0.486
 9374SOL    HW129021   5.990   2.843   0.438
 9374SOL    HW229022   6.109   2.841   0.550
 9375SOL     OW29023   6.672   1.593   3.100
 9375SOL    HW129024   6.703   1.548   3.183
 9375SOL    HW229025   6.615   1.531   3.047
 9376SOL     OW29026   3.429   3.855   0.900
 9376SOL    HW129027   3.447   3.896   0.811
 9376SOL    HW229028   3.496   3.784   0.919
 9377SOL     OW29029   6.401   5.388   3.803
 9377SOL    HW129030   6.408   5.304   3.856
 9377SOL    HW229031   6.467   5.387   3.728
 9378SOL     OW29032   2.829   6.931   6.196
 9378SOL    HW129033   2.874   6.900   6.113
 9378SOL    HW229034   2.793   7.024   6.181
 9379SOL     OW29035   5.029   4.752   4.502
 9379SOL    HW129036   5.016   4.800   4.415
 9379SOL    HW229037   4.952   4.771   4.563
 9380SOL     OW29038   6.660   6.638   5.479
 9380SOL    HW129039   6.649   6.609   5.574
 9380SOL    HW229040   6.597   6.713   5.459
 9381SOL     OW29041   2.726   2.898   5.347
 9381SOL    HW129042   2.697   2.806   5.373
 9381SOL    HW229043   2.658   2.939   5.286
 9382SOL     OW29044   4.055   0.725   2.984
 9382SOL    HW129045   4.017   0.637   3.013
 9382SOL    HW229046   4.126   0.709   2.915
 9383SOL     OW29047   3.133   6.571   4.906
 9383SOL    HW129048   3.229   6.542   4.905
 9383SOL    HW229049   3.126   6.663   4.943
 9384SOL     OW29050   4.096   5.856   2.604
 9384SOL    HW129051   4.083   5.935   2.544
 9384SOL    HW229052   4.060   5.774   2.560
 9385SOL     OW29053   4.016   1.582   2.776
 9385SOL    HW129054   3.981   1.640   2.702
 9385SOL    HW229055   3.942   1.565   2.841
 9386SOL     OW29056   3.250   6.199   4.646
 9386SOL    HW129057   3.208   6.273   4.698
 9386SOL    HW229058   3.179   6.137   4.612
 9387SOL     OW29059   4.106   6.462   1.314
 9387SOL    HW129060   4.109   6.426   1.220
 9387SOL    HW229061   4.109   6.385   1.378
 9388SOL     OW29062   1.301   6.305   2.155
 9388SOL    HW129063   1.214   6.287   2.110
 9388SOL    HW229064   1.373   6.251   2.111
 9389SOL     OW29065   2.387   0.254   5.367
 9389SOL    HW129066   2.344   0.336   5.330
 9389SOL    HW229067   2.435   0.206   5.294
 9390SOL     OW29068   4.042   5.785   3.322
 9390SOL    HW129069   4.015   5.710   3.261
 9390SOL    HW229070   4.057   5.867   3.268
 9391SOL     OW29071   2.057   0.892   5.676
 9391SOL    HW129072   1.971   0.937   5.650
 9391SOL    HW229073   2.117   0.959   5.720
 9392SOL     OW29074   0.556   6.645   5.196
 9392SOL    HW129075   0.603   6.609   5.115
 9392SOL    HW229076   0.516   6.569   5.247
 9393SOL     OW29077   3.619   1.592   4.449
 9393SOL    HW129078   3.542   1.563   4.507
 9393SOL    HW229079   3.584   1.626   4.362
 9394SOL     OW29080   6.093   2.424   3.256
 9394SOL    HW129081   6.090   2.446   3.354
 9394SOL    HW229082   6.152   2.344   3.242
 9395SOL     OW29083   2.819   2.428   0.393
 9395SOL    HW129084   2.851   2.351   0.448
 9395SOL    HW229085   2.820   2.511   0.449
 9396SOL     OW29086   6.948   6.636   4.654
 9396SOL    HW129087   6.967   6.620   4.751
 9396SOL    HW229088   6.853   6.613   4.634
 9397SOL     OW29089   2.507   0.220   0.601
 9397SOL    HW129090   2.507   0.124   0.630
 9397SOL    HW229091   2.600   0.248   0.580
 9398SOL     OW29092   1.970   0.501   0.086
 9398SOL    HW129093   2.000   0.588   0.124
 9398SOL    HW229094   2.016   0.426   0.134
 9399SOL     OW29095   0.007   1.948   0.224
 9399SOL    HW129096   6.965   1.942   0.149
 9399SOL    HW229097   0.059   2.032   0.216
 9400SOL     OW29098   5.262   3.649   1.714
 9400SOL    HW129099   5.289   3.745   1.725
 9400SOL    HW229100   5.233   3.612   1.802
 9401SOL     OW29101   2.706   6.554   3.609
 9401SOL    HW129102   2.703   6.465   3.565
 9401SOL    HW229103   2.745   6.545   3.700
 9402SOL     OW29104   1.890   5.067   6.211
 9402SOL    HW129105   1.811   5.014   6.182
 9402SOL    HW229106   1.934   5.022   6.289
 9403SOL     OW29107   5.036   1.935   2.991
 9403SOL    HW129108   4.955   1.885   2.959
 9403SOL    HW229109   5.026   2.032   2.968
 9404SOL     OW29110   0.823   4.936   6.196
 9404SOL    HW129111   0.919   4.918   6.173
 9404SOL    HW229112   0.819   5.003   6.270
 9405SOL     OW29113   6.405   6.705   1.489
 9405SOL    HW129114   6.346   6.727   1.567
 9405SOL    HW229115   6.501   6.706   1.519
 9406SOL     OW29116   0.639   1.770   5.670
 9406SOL    HW129117   0.715   1.739   5.613
 9406SOL    HW229118   0.553   1.760   5.620
 9407SOL     OW29119   2.764   6.779   2.218
 9407SOL    HW129120   2.766   6.705   2.285
 9407SOL    HW229121   2.720   6.859   2.259
 9408SOL     OW29122   3.549   1.097   5.586
 9408SOL    HW129123   3.521   1.147   5.503
 9408SOL    HW229124   3.477   1.032   5.611
 9409SOL     OW29125   4.719   4.392   4.585
 9409SOL    HW129126   4.660   4.431   4.656
 9409SOL    HW229127   4.799   4.351   4.628
 9410SOL     OW29128   3.583   5.583   1.608
 9410SOL    HW129129   3.576   5.679   1.637
 9410SOL    HW229130   3.626   5.579   1.518
 9411SOL     OW29131   3.864   4.554   1.052
 9411SOL    HW129132   3.930   4.555   1.128
 9411SOL    HW229133   3.783   4.503   1.079
 9412SOL     OW29134   0.823   3.257   1.538
 9412SOL    HW129135   0.918   3.273   1.566
 9412SOL    HW229136   0.772   3.219   1.615
 9413SOL     OW29137   4.189   5.589   4.972
 9413SOL    HW129138   4.164   5.533   4.893
 9413SOL    HW229139   4.120   5.578   5.043
 9414SOL     OW29140   3.132   1.660   2.784
 9414SOL    HW129141   3.222   1.703   2.787
 9414SOL    HW229142   3.101   1.641   2.878
 9415SOL     OW29143   1.884   6.709   2.692
 9415SOL    HW129144   1.829   6.728   2.611
 9415SOL    HW229145   1.845   6.632   2.742
 9416SOL     OW29146   0.488   1.147   1.566
 9416SOL    HW129147   0.478   1.237   1.610
 9416SOL    HW229148   0.568   1.101   1.604
 9417SOL     OW29149   3.041   6.965   5.719
 9417SOL    HW129150   2.954   6.998   5.683
 9417SOL    HW229151   3.066   6.879   5.673
 9418SOL     OW29152   2.455   6.383   0.804
 9418SOL    HW129153   2.418   6.350   0.717
 9418SOL    HW229154   2.402   6.346   0.880
 9419SOL     OW29155   3.639   6.509   5.078
 9419SOL    HW129156   3.680   6.445   5.013
 9419SOL    HW229157   3.679   6.599   5.067
 9420SOL     OW29158   0.546   1.779   5.283
 9420SOL    HW129159   0.626   1.720   5.297
 9420SOL    HW229160   0.559   1.836   5.202
 9421SOL     OW29161   2.419   5.859   5.769
 9421SOL    HW129162   2.411   5.922   5.692
 9421SOL    HW229163   2.345   5.791   5.765
 9422SOL     OW29164   5.556   0.371   2.584
 9422SOL    HW129165   5.461   0.357   2.612
 9422SOL    HW229166   5.614   0.383   2.665
 9423SOL     OW29167   4.218   0.791   2.776
 9423SOL    HW129168   4.297   0.729   2.781
 9423SOL    HW229169   4.194   0.806   2.680
 9424SOL     OW29170   5.072   0.736   5.578
 9424SOL    HW129171   5.017   0.658   5.610
 9424SOL    HW229172   5.027   0.821   5.606
 9425SOL     OW29173   6.913   3.513   6.475
 9425SOL    HW129174   6.860   3.429   6.476
 9425SOL    HW229175   6.875   3.576   6.407
 9426SOL     OW29176   2.735   1.805   0.495
 9426SOL    HW129177   2.670   1.819   0.419
 9426SOL    HW229178   2.714   1.718   0.540
 9427SOL     OW29179   2.773   4.721   5.327
 9427SOL    HW129180   2.827   4.652   5.278
 9427SOL    HW229181   2.687   4.735   5.278
 9428SOL     OW29182   5.517   0.146   2.441
 9428SOL    HW129183   5.536   0.235   2.483
 9428SOL    HW229184   5.590   0.123   2.376
 9429SOL     OW29185   1.397   4.297   1.820
 9429SOL    HW129186   1.351   4.354   1.752
 9429SOL    HW229187   1.382   4.200   1.797
 9430SOL     OW29188   6.277   6.416   1.680
 9430SOL    HW129189   6.315   6.459   1.598
 9430SOL    HW229190   6.245   6.324   1.656
 9431SOL     OW29191   5.414   4.127   0.356
 9431SOL    HW129192   5.358   4.209   0.362
 9431SOL    HW229193   5.370   4.061   0.295
 9432SOL     OW29194   6.477   0.255   3.826
 9432SOL    HW129195   6.397   0.205   3.857
 9432SOL    HW229196   6.538   0.274   3.903
 9433SOL     OW29197   3.041   4.868   4.247
 9433SOL    HW129198   2.985   4.950   4.237
 9433SOL    HW229199   3.101   4.877   4.326
 9434SOL     OW29200   5.497   4.665   3.069
 9434SOL    HW129201   5.567   4.727   3.033
 9434SOL    HW229202   5.406   4.706   3.056
 9435SOL     OW29203   1.273   1.225   4.343
 9435SOL    HW129204   1.174   1.219   4.329
 9435SOL    HW229205   1.292   1.286   4.419
 9436SOL     OW29206   1.252   3.393   1.745
 9436SOL    HW129207   1.255   3.482   1.700
 9436SOL    HW229208   1.321   3.389   1.817
 9437SOL     OW29209   0.998   6.188   3.506
 9437SOL    HW129210   0.909   6.179   3.461
 9437SOL    HW229211   0.992   6.255   3.579
 9438SOL     OW29212   1.124   6.332   1.092
 9438SOL    HW129213   1.197   6.400   1.097
 9438SOL    HW229214   1.118   6.296   0.999
 9439SOL     OW29215   0.223   3.184   1.878
 9439SOL    HW129216   0.249   3.102   1.929
 9439SOL    HW229217   0.143   3.164   1.822
 9440SOL     OW29218   4.941   5.181   4.279
 9440SOL    HW129219   4.933   5.198   4.377
 9440SOL    HW229220   4.959   5.084   4.262
 9441SOL     OW29221   1.433   5.143   5.262
 9441SOL    HW129222   1.418   5.242   5.256
 9441SOL    HW229223   1.379   5.097   5.192
 9442SOL     OW29224   6.194   1.724   0.270
 9442SOL    HW129225   6.119   1.702   0.334
 9442SOL    HW229226   6.281   1.700   0.313
 9443SOL     OW29227   1.842   4.361   1.398
 9443SOL    HW129228   1.870   4.310   1.317
 9443SOL    HW229229   1.895   4.330   1.477
 9444SOL     OW29230   0.386   3.504   6.925
 9444SOL    HW129231   0.477   3.540   6.945
 9444SOL    HW229232   0.340   3.565   6.861
 9445SOL     OW29233   5.323   3.132   2.262
 9445SOL    HW129234   5.314   3.142   2.163
 9445SOL    HW229235   5.321   3.223   2.304
 9446SOL     OW29236   6.378   0.048   2.779
 9446SOL    HW129237   6.430   6.988   2.783
 9446SOL    HW229238   6.435   0.121   2.740
 9447SOL     OW29239   5.503   3.492   3.295
 9447SOL    HW129240   5.493   3.591   3.290
 9447SOL    HW229241   5.413   3.449   3.291
 9448SOL     OW29242   5.062   5.775   6.175
 9448SOL    HW129243   4.980   5.813   6.131
 9448SOL    HW229244   5.036   5.729   6.260
 9449SOL     OW29245   6.991   5.751   6.223
 9449SOL    HW129246   6.922   5.719   6.287
 9449SOL    HW229247   0.055   5.712   6.248
 9450SOL     OW29248   2.842   4.828   4.859
 9450SOL    HW129249   2.823   4.913   4.907
 9450SOL    HW229250   2.879   4.761   4.923
 9451SOL     OW29251   4.656   5.584   5.717
 9451SOL    HW129252   4.602   5.638   5.782
 9451SOL    HW229253   4.603   5.568   5.634
 9452SOL     OW29254   1.760   3.378   0.750
 9452SOL    HW129255   1.766   3.280   0.767
 9452SOL    HW229256   1.666   3.402   0.726
 9453SOL     OW29257   1.726   3.915   3.074
 9453SOL    HW129258   1.655   3.862   3.121
 9453SOL    HW229259   1.809   3.860   3.067
 9454SOL     OW29260   2.037   3.724   5.719
 9454SOL    HW129261   1.974   3.731   5.796
 9454SOL    HW229262   2.063   3.815   5.688
 9455SOL     OW29263   3.497   1.381   2.515
 9455SOL    HW129264   3.556   1.308   2.549
 9455SOL    HW229265   3.466   1.437   2.592
 9456SOL     OW29266   0.306   4.530   0.771
 9456SOL    HW129267   0.327   4.554   0.866
 9456SOL    HW229268   0.384   4.482   0.731
 9457SOL     OW29269   1.142   3.660   6.180
 9457SOL    HW129270   1.060   3.692   6.132
 9457SOL    HW229271   1.177   3.733   6.238
 9458SOL     OW29272   1.034   4.518   6.709
 9458SOL    HW129273   0.981   4.603   6.703
 9458SOL    HW229274   1.053   4.498   6.805
 9459SOL     OW29275   6.655   5.079   2.216
 9459SOL    HW129276   6.736   5.138   2.218
 9459SOL    HW229277   6.683   4.983   2.218
 9460SOL     OW29278   0.125   2.206   5.351
 9460SOL    HW129279   0.117   2.112   5.318
 9460SOL    HW229280   0.085   2.268   5.284
 9461SOL     OW29281   6.156   1.602   3.300
 9461SOL    HW129282   6.170   1.683   3.244
 9461SOL    HW229283   6.071   1.611   3.353
 9462SOL     OW29284   1.882   3.349   3.245
 9462SOL    HW129285   1.979   3.326   3.260
 9462SOL    HW229286   1.861   3.344   3.148
 9463SOL     OW29287   0.204   0.734   0.869
 9463SOL    HW129288   0.166   0.644   0.847
 9463SOL    HW229289   0.274   0.758   0.802
 9464SOL     OW29290   5.482   6.679   6.397
 9464SOL    HW129291   5.418   6.602   6.407
 9464SOL    HW229292   5.552   6.655   6.331
 9465SOL     OW29293   6.874   0.377   3.442
 9465SOL    HW129294   6.900   0.440   3.369
 9465SOL    HW229295   6.848   0.430   3.523
 9466SOL     OW29296   4.236   3.566   5.120
 9466SOL    HW129297   4.234   3.510   5.038
 9466SOL    HW229298   4.173   3.643   5.110
 9467SOL     OW29299   1.585   2.898   1.156
 9467SOL    HW129300   1.541   2.809   1.170
 9467SOL    HW229301   1.517   2.965   1.126
 9468SOL     OW29302   5.870   2.674   6.427
 9468SOL    HW129303   5.949   2.634   6.473
 9468SOL    HW229304   5.812   2.601   6.390
 9469SOL     OW29305   5.991   5.507   1.908
 9469SOL    HW129306   6.078   5.538   1.946
 9469SOL    HW229307   5.946   5.582   1.860
 9470SOL     OW29308   5.477   2.986   6.279
 9470SOL    HW129309   5.489   3.085   6.271
 9470SOL    HW229310   5.459   2.947   6.189
 9471SOL     OW29311   7.021   2.721   5.633
 9471SOL    HW129312   0.024   2.815   5.654
 9471SOL    HW229313   0.043   2.690   5.550
 9472SOL     OW29314   6.709   3.576   4.375
 9472SOL    HW129315   6.801   3.537   4.375
 9472SOL    HW229316   6.714   3.674   4.361
 9473SOL     OW29317   3.962   6.454   5.750
 9473SOL    HW129318   3.974   6.356   5.739
 9473SOL    HW229319   3.971   6.478   5.846
 9474SOL     OW29320   6.264   3.682   1.383
 9474SOL    HW129321   6.190   3.632   1.338
 9474SOL    HW229322   6.293   3.758   1.324
 9475SOL     OW29323   3.049   3.463   0.524
 9475SOL    HW129324   3.100   3.512   0.594
 9475SOL    HW229325   2.952   3.461   0.548
 9476SOL     OW29326   2.938   3.271   4.636
 9476SOL    HW129327   2.936   3.368   4.614
 9476SOL    HW229328   2.960   3.259   4.733
 9477SOL     OW29329   0.792   3.422   1.815
 9477SOL    HW129330   0.743   3.420   1.728
 9477SOL    HW229331   0.788   3.514   1.855
 9478SOL     OW29332   5.753   4.189   6.112
 9478SOL    HW129333   5.741   4.166   6.208
 9478SOL    HW229334   5.670   4.233   6.078
 9479SOL     OW29335   5.470   6.633   6.053
 9479SOL    HW129336   5.457   6.720   6.006
 9479SOL    HW229337   5.398   6.620   6.121
 9480SOL     OW29338   4.193   4.151   6.544
 9480SOL    HW129339   4.267   4.160   6.477
 9480SOL    HW229340   4.128   4.082   6.513
 9481SOL     OW29341   6.043   3.543   1.280
 9481SOL    HW129342   6.025   3.518   1.185
 9481SOL    HW229343   6.022   3.465   1.340
 9482SOL     OW29344   5.886   1.304   3.229
 9482SOL    HW129345   5.973   1.287   3.276
 9482SOL    HW229346   5.875   1.402   3.213
 9483SOL     OW29347   2.181   1.348   1.096
 9483SOL    HW129348   2.243   1.427   1.099
 9483SOL    HW229349   2.086   1.380   1.099
 9484SOL     OW29350   5.433   1.728   3.362
 9484SOL    HW129351   5.478   1.650   3.318
 9484SOL    HW229352   5.342   1.700   3.394
 9485SOL     OW29353   0.851   6.908   1.682
 9485SOL    HW129354   0.772   6.892   1.741
 9485SOL    HW229355   0.821   6.949   1.596
 9486SOL     OW29356   2.224   5.014   0.892
 9486SOL    HW129357   2.145   5.051   0.843
 9486SOL    HW229358   2.214   4.916   0.904
 9487SOL     OW29359   2.936   3.820   3.799
 9487SOL    HW129360   2.984   3.852   3.717
 9487SOL    HW229361   2.895   3.898   3.846
 9488SOL     OW29362   2.727   6.587   1.374
 9488SOL    HW129363   2.812   6.633   1.401
 9488SOL    HW229364   2.713   6.508   1.433
 9489SOL     OW29365   3.330   3.999   1.128
 9489SOL    HW129366   3.308   3.937   1.203
 9489SOL    HW229367   3.367   3.946   1.051
 9490SOL     OW29368   5.630   0.069   0.298
 9490SOL    HW129369   5.720   0.076   0.255
 9490SOL    HW229370   5.596   0.160   0.321
 9491SOL     OW29371   6.697   4.924   4.927
 9491SOL    HW129372   6.650   4.944   4.841
 9491SOL    HW229373   6.630   4.915   5.001
 9492SOL     OW29374   3.163   3.515   2.436
 9492SOL    HW129375   3.197   3.589   2.377
 9492SOL    HW229376   3.235   3.486   2.498
 9493SOL     OW29377   4.613   5.434   3.670
 9493SOL    HW129378   4.560   5.479   3.742
 9493SOL    HW229379   4.561   5.435   3.585
 9494SOL     OW29380   4.852   3.727   0.958
 9494SOL    HW129381   4.875   3.643   0.909
 9494SOL    HW229382   4.937   3.770   0.990
 9495SOL     OW29383   6.530   2.287   4.187
 9495SOL    HW129384   6.566   2.263   4.277
 9495SOL    HW229385   6.461   2.358   4.196
 9496SOL     OW29386   5.042   4.670   6.909
 9496SOL    HW129387   5.139   4.686   6.923
 9496SOL    HW229388   5.015   4.585   6.955
 9497SOL     OW29389   4.428   3.868   0.503
 9497SOL    HW129390   4.356   3.937   0.504
 9497SOL    HW229391   4.406   3.798   0.435
 9498SOL     OW29392   5.292   0.483   5.905
 9498SOL    HW129393   5.375   0.430   5.926
 9498SOL    HW229394   5.318   0.576   5.879
 9499SOL     OW29395   2.122   3.446   5.654
 9499SOL    HW129396   2.216   3.424   5.626
 9499SOL    HW229397   2.120   3.537   5.696
 9500SOL     OW29398   2.875   6.437   2.054
 9500SOL    HW129399   2.892   6.469   1.961
 9500SOL    HW229400   2.937   6.483   2.117
 9501SOL     OW29401   3.300   1.628   4.886
 9501SOL    HW129402   3.316   1.698   4.956
 9501SOL    HW229403   3.320   1.667   4.796
 9502SOL     OW29404   0.186   2.271   4.995
 9502SOL    HW129405   0.149   2.178   4.995
 9502SOL    HW229406   0.252   2.280   4.920
 9503SOL     OW29407   0.296   1.033   1.365
 9503SOL    HW129408   0.335   1.091   1.436
 9503SOL    HW229409   0.203   1.006   1.392
 9504SOL     OW29410   6.821   2.020   1.124
 9504SOL    HW129411   6.845   2.090   1.191
 9504SOL    HW229412   6.843   2.054   1.032
 9505SOL     OW29413   5.796   3.773   3.316
 9505SOL    HW129414   5.840   3.832   3.384
 9505SOL    HW229415   5.775   3.684   3.357
 9506SOL     OW29416   0.470   3.162   6.508
 9506SOL    HW129417   0.388   3.218   6.523
 9506SOL    HW229418   0.551   3.219   6.519
 9507SOL     OW29419   2.253   1.015   4.511
 9507SOL    HW129420   2.253   1.046   4.415
 9507SOL    HW229421   2.164   0.973   4.531
 9508SOL     OW29422   6.173   2.767   0.682
 9508SOL    HW129423   6.096   2.724   0.730
 9508SOL    HW229424   6.242   2.697   0.662
 9509SOL     OW29425   1.361   6.453   5.362
 9509SOL    HW129426   1.337   6.368   5.315
 9509SOL    HW229427   1.388   6.432   5.456
 9510SOL     OW29428   0.439   3.939   1.492
 9510SOL    HW129429   0.415   3.865   1.429
 9510SOL    HW229430   0.356   3.981   1.528
 9511SOL     OW29431   0.666   2.197   6.883
 9511SOL    HW129432   0.691   2.166   6.792
 9511SOL    HW229433   0.567   2.185   6.897
 9512SOL     OW29434   5.705   2.119   3.419
 9512SOL    HW129435   5.728   2.215   3.435
 9512SOL    HW229436   5.782   2.062   3.444
 9513SOL     OW29437   1.632   3.277   4.437
 9513SOL    HW129438   1.715   3.308   4.390
 9513SOL    HW229439   1.654   3.256   4.532
 9514SOL     OW29440   1.764   4.116   0.207
 9514SOL    HW129441   1.818   4.149   0.284
 9514SOL    HW229442   1.706   4.040   0.237
 9515SOL     OW29443   1.515   5.685   6.805
 9515SOL    HW129444   1.563   5.698   6.892
 9515SOL    HW229445   1.530   5.592   6.772
 9516SOL     OW29446   4.905   3.609   4.628
 9516SOL    HW129447   4.829   3.570   4.680
 9516SOL    HW229448   4.887   3.597   4.530
 9517SOL     OW29449   1.276   5.084   1.042
 9517SOL    HW129450   1.236   5.020   0.976
 9517SOL    HW229451   1.333   5.034   1.107
 9518SOL     OW29452   1.551   2.347   6.765
 9518SOL    HW129453   1.630   2.390   6.721
 9518SOL    HW229454   1.574   2.253   6.790
 9519SOL     OW29455   3.237   3.625   2.773
 9519SOL    HW129456   3.143   3.654   2.755
 9519SOL    HW229457   3.301   3.684   2.723
 9520SOL     OW29458   6.440   1.521   4.234
 9520SOL    HW129459   6.525   1.530   4.285
 9520SOL    HW229460   6.377   1.594   4.260
 9521SOL     OW29461   3.588   4.242   1.565
 9521SOL    HW129462   3.568   4.204   1.474
 9521SOL    HW229463   3.600   4.341   1.557
 9522SOL     OW29464   4.174   5.673   2.351
 9522SOL    HW129465   4.217   5.583   2.348
 9522SOL    HW229466   4.234   5.737   2.399
 9523SOL     OW29467   2.693   5.539   5.116
 9523SOL    HW129468   2.656   5.561   5.206
 9523SOL    HW229469   2.780   5.491   5.126
 9524SOL     OW29470   1.704   3.108   1.322
 9524SOL    HW129471   1.634   3.048   1.285
 9524SOL    HW229472   1.776   3.053   1.364
 9525SOL     OW29473   1.699   1.545   5.978
 9525SOL    HW129474   1.704   1.625   6.038
 9525SOL    HW229475   1.742   1.567   5.890
 9526SOL     OW29476   5.931   5.102   0.651
 9526SOL    HW129477   6.001   5.094   0.722
 9526SOL    HW229478   5.976   5.113   0.562
 9527SOL     OW29479   2.432   0.022   4.462
 9527SOL    HW129480   2.527   0.043   4.441
 9527SOL    HW229481   2.419   6.948   4.464
 9528SOL     OW29482   6.162   1.599   1.159
 9528SOL    HW129483   6.124   1.520   1.209
 9528SOL    HW229484   6.242   1.633   1.207
 9529SOL     OW29485   5.473   3.676   0.903
 9529SOL    HW129486   5.516   3.742   0.965
 9529SOL    HW229487   5.415   3.725   0.838
 9530SOL     OW29488   1.298   4.443   4.445
 9530SOL    HW129489   1.389   4.420   4.411
 9530SOL    HW229490   1.229   4.391   4.395
 9531SOL     OW29491   4.301   5.031   3.246
 9531SOL    HW129492   4.219   5.047   3.301
 9531SOL    HW229493   4.298   5.086   3.163
 9532SOL     OW29494   6.361   5.217   1.202
 9532SOL    HW129495   6.262   5.203   1.196
 9532SOL    HW229496   6.400   5.154   1.269
 9533SOL     OW29497   0.578   5.454   3.867
 9533SOL    HW129498   0.520   5.480   3.788
 9533SOL    HW229499   0.610   5.360   3.856
 9534SOL     OW29500   5.867   4.603   4.736
 9534SOL    HW129501   5.860   4.686   4.681
 9534SOL    HW229502   5.962   4.587   4.762
 9535SOL     OW29503   2.019   1.156   6.437
 9535SOL    HW129504   1.950   1.105   6.488
 9535SOL    HW229505   2.107   1.109   6.444
 9536SOL     OW29506   3.875   3.345   5.149
 9536SOL    HW129507   3.915   3.393   5.227
 9536SOL    HW229508   3.793   3.295   5.179
 9537SOL     OW29509   3.109   1.717   4.577
 9537SOL    HW129510   3.208   1.726   4.586
 9537SOL    HW229511   3.073   1.794   4.524
 9538SOL     OW29512   4.757   0.806   4.258
 9538SOL    HW129513   4.781   0.826   4.353
 9538SOL    HW229514   4.840   0.800   4.203
 9539SOL     OW29515   2.885   3.478   4.232
 9539SOL    HW129516   2.955   3.530   4.183
 9539SOL    HW229517   2.806   3.537   4.250
 9540SOL     OW29518   5.123   5.610   4.053
 9540SOL    HW129519   5.165   5.524   4.085
 9540SOL    HW229520   5.024   5.597   4.045
 9541SOL     OW29521   1.367   0.798   5.530
 9541SOL    HW129522   1.303   0.863   5.571
 9541SOL    HW229523   1.338   0.776   5.437
 9542SOL     OW29524   5.470   5.072   4.110
 9542SOL    HW129525   5.568   5.076   4.132
 9542SOL    HW229526   5.420   5.034   4.188
 9543SOL     OW29527   3.487   0.284   5.931
 9543SOL    HW129528   3.534   0.248   5.851
 9543SOL    HW229529   3.462   0.209   5.992
 9544SOL     OW29530   5.173   3.561   4.093
 9544SOL    HW129531   5.073   3.567   4.099
 9544SOL    HW229532   5.201   3.561   3.997
 9545SOL     OW29533   6.594   5.226   2.464
 9545SOL    HW129534   6.634   5.236   2.555
 9545SOL    HW229535   6.596   5.130   2.437
 9546SOL     OW29536   3.588   1.617   5.726
 9546SOL    HW129537   3.641   1.681   5.671
 9546SOL    HW229538   3.634   1.600   5.813
 9547SOL     OW29539   2.429   5.459   4.155
 9547SOL    HW129540   2.385   5.533   4.104
 9547SOL    HW229541   2.496   5.414   4.097
 9548SOL     OW29542   0.461   5.717   4.983
 9548SOL    HW129543   0.448   5.652   5.058
 9548SOL    HW229544   0.468   5.666   4.897
 9549SOL     OW29545   2.721   0.899   2.345
 9549SOL    HW129546   2.739   0.937   2.254
 9549SOL    HW229547   2.804   0.904   2.400
 9550SOL     OW29548   6.402   2.464   0.868
 9550SOL    HW129549   6.338   2.499   0.936
 9550SOL    HW229550   6.495   2.466   0.905
 9551SOL     OW29551   5.907   3.300   5.894
 9551SOL    HW129552   5.811   3.310   5.918
 9551SOL    HW229553   5.916   3.277   5.798
 9552SOL     OW29554   2.252   6.450   6.356
 9552SOL    HW129555   2.297   6.539   6.364
 9552SOL    HW229556   2.237   6.430   6.259
 9553SOL     OW29557   5.694   2.555   7.012
 9553SOL    HW129558   5.727   2.565   6.918
 9553SOL    HW229559   5.730   2.630   0.043
 9554SOL     OW29560   1.439   6.630   3.677
 9554SOL    HW129561   1.526   6.582   3.670
 9554SOL    HW229562   1.397   6.611   3.766
 9555SOL     OW29563   0.603   1.382   3.255
 9555SOL    HW129564   0.574   1.419   3.343
 9555SOL    HW229565   0.522   1.357   3.201
 9556SOL     OW29566   1.900   3.923   0.875
 9556SOL    HW129567   1.854   3.972   0.949
 9556SOL    HW229568   1.946   3.842   0.911
 9557SOL     OW29569   5.310   6.808   1.426
 9557SOL    HW129570   5.407   6.790   1.444
 9557SOL    HW229571   5.302   6.862   1.342
 9558SOL     OW29572   5.792   6.375   5.061
 9558SOL    HW129573   5.758   6.341   5.149
 9558SOL    HW229574   5.731   6.445   5.026
 9559SOL     OW29575   1.015   3.944   6.913
 9559SOL    HW129576   0.975   3.884   6.982
 9559SOL    HW229577   1.014   3.898   6.824
 9560SOL     OW29578   2.792   0.835   2.711
 9560SOL    HW129579   2.742   0.900   2.769
 9560SOL    HW229580   2.831   0.883   2.633
 9561SOL     OW29581   0.370   0.179   1.310
 9561SOL    HW129582   0.292   0.219   1.359
 9561SOL    HW229583   0.363   0.202   1.212
 9562SOL     OW29584   2.616   6.255   4.477
 9562SOL    HW129585   2.549   6.326   4.453
 9562SOL    HW229586   2.697   6.266   4.419
 9563SOL     OW29587   0.429   6.654   7.015
 9563SOL    HW129588   0.472   6.569   6.985
 9563SOL    HW229589   0.500   6.718   0.020
 9564SOL     OW29590   2.527   1.092   1.058
 9564SOL    HW129591   2.459   1.149   1.011
 9564SOL    HW229592   2.483   1.008   1.090
 9565SOL     OW29593   3.390   0.849   5.609
 9565SOL    HW129594   3.338   0.818   5.688
 9565SOL    HW229595   3.335   0.839   5.526
 9566SOL     OW29596   2.655   5.775   0.344
 9566SOL    HW129597   2.588   5.837   0.303
 9566SOL    HW229598   2.740   5.825   0.360
 9567SOL     OW29599   5.421   4.480   0.213
 9567SOL    HW129600   5.355   4.418   0.255
 9567SOL    HW229601   5.506   4.431   0.192
 9568SOL     OW29602   4.218   1.592   0.150
 9568SOL    HW129603   4.171   1.676   0.175
 9568SOL    HW229604   4.259   1.551   0.231
 9569SOL     OW29605   0.205   1.176   1.961
 9569SOL    HW129606   0.264   1.097   1.978
 9569SOL    HW229607   0.237   1.255   2.012
 9570SOL     OW29608   0.259   2.917   1.231
 9570SOL    HW129609   0.178   2.965   1.265
 9570SOL    HW229610   0.341   2.955   1.275
 9571SOL     OW29611   2.861   3.236   5.778
 9571SOL    HW129612   2.852   3.145   5.738
 9571SOL    HW229613   2.880   3.303   5.705
 9572SOL     OW29614   1.769   5.148   2.416
 9572SOL    HW129615   1.738   5.237   2.382
 9572SOL    HW229616   1.826   5.105   2.346
 9573SOL     OW29617   0.183   1.796   6.524
 9573SOL    HW129618   0.111   1.809   6.592
 9573SOL    HW229619   0.179   1.870   6.456
 9574SOL     OW29620   3.458   2.854   2.424
 9574SOL    HW129621   3.496   2.878   2.513
 9574SOL    HW229622   3.408   2.768   2.431
 9575SOL     OW29623   0.173   1.525   2.322
 9575SOL    HW129624   0.081   1.500   2.351
 9575SOL    HW229625   0.174   1.540   2.223
 9576SOL     OW29626   2.015   2.298   0.511
 9576SOL    HW129627   2.105   2.334   0.531
 9576SOL    HW229628   2.007   2.205   0.547
 9577SOL     OW29629   0.635   6.965   5.558
 9577SOL    HW129630   0.646   6.921   5.647
 9577SOL    HW229631   0.604   0.034   5.571
 9578SOL     OW29632   1.101   2.824   2.788
 9578SOL    HW129633   1.114   2.894   2.857
 9578SOL    HW229634   1.003   2.816   2.767
 9579SOL     OW29635   0.303   6.318   3.342
 9579SOL    HW129636   0.265   6.394   3.396
 9579SOL    HW229637   0.239   6.293   3.270
 9580SOL     OW29638   4.679   3.367   0.740
 9580SOL    HW129639   4.669   3.372   0.839
 9580SOL    HW229640   4.639   3.281   0.707
 9581SOL     OW29641   0.424   0.403   6.559
 9581SOL    HW129642   0.370   0.413   6.476
 9581SOL    HW229643   0.521   0.405   6.537
 9582SOL     OW29644   3.825   5.967   4.712
 9582SOL    HW129645   3.786   5.876   4.703
 9582SOL    HW229646   3.872   5.974   4.800
 9583SOL     OW29647   3.159   3.876   1.347
 9583SOL    HW129648   3.108   3.818   1.284
 9583SOL    HW229649   3.178   3.826   1.431
 9584SOL     OW29650   0.197   4.706   5.717
 9584SOL    HW129651   0.138   4.631   5.749
 9584SOL    HW229652   0.275   4.715   5.778
 9585SOL     OW29653   5.463   6.846   3.032
 9585SOL    HW129654   5.374   6.890   3.028
 9585SOL    HW229655   5.498   6.834   2.939
 9586SOL     OW29656   4.583   5.577   2.321
 9586SOL    HW129657   4.580   5.533   2.411
 9586SOL    HW229658   4.585   5.676   2.332
 9587SOL     OW29659   0.743   6.911   1.229
 9587SOL    HW129660   0.751   6.957   1.141
 9587SOL    HW229661   0.647   6.894   1.249
 9588SOL     OW29662   5.980   6.741   0.605
 9588SOL    HW129663   5.962   6.684   0.524
 9588SOL    HW229664   5.982   6.684   0.686
 9589SOL     OW29665   1.833   4.709   0.286
 9589SOL    HW129666   1.878   4.763   0.214
 9589SOL    HW229667   1.768   4.767   0.335
 9590SOL     OW29668   6.333   2.596   1.926
 9590SOL    HW129669   6.393   2.657   1.978
 9590SOL    HW229670   6.263   2.558   1.987
 9591SOL     OW29671   2.877   5.499   6.205
 9591SOL    HW129672   2.803   5.558   6.173
 9591SOL    HW229673   2.849   5.403   6.197
 9592SOL     OW29674   3.076   4.536   0.724
 9592SOL    HW129675   3.093   4.599   0.648
 9592SOL    HW229676   3.142   4.553   0.798
 9593SOL     OW29677   0.876   1.185   6.399
 9593SOL    HW129678   0.829   1.273   6.398
 9593SOL    HW229679   0.972   1.198   6.425
 9594SOL     OW29680   2.166   5.237   4.040
 9594SOL    HW129681   2.143   5.141   4.026
 9594SOL    HW229682   2.186   5.253   4.137
 9595SOL     OW29683   0.330   2.902   4.046
 9595SOL    HW129684   0.413   2.940   4.084
 9595SOL    HW229685   0.254   2.914   4.111
 9596SOL     OW29686   0.554   5.180   6.520
 9596SOL    HW129687   0.584   5.100   6.572
 9596SOL    HW229688   0.625   5.206   6.455
 9597SOL     OW29689   6.895   4.175   1.538
 9597SOL    HW129690   6.942   4.246   1.591
 9597SOL    HW229691   6.924   4.085   1.570
 9598SOL     OW29692   2.069   4.637   3.063
 9598SOL    HW129693   2.077   4.704   2.989
 9598SOL    HW229694   2.146   4.573   3.059
 9599SOL     OW29695   2.813   0.457   3.837
 9599SOL    HW129696   2.829   0.446   3.935
 9599SOL    HW229697   2.855   0.542   3.805
 9600SOL     OW29698   2.905   0.020   0.049
 9600SOL    HW129699   2.909   0.046   6.977
 9600SOL    HW229700   2.857   6.958   0.058
 9601SOL     OW29701   5.143   4.563   0.497
 9601SOL    HW129702   5.189   4.644   0.461
 9601SOL    HW229703   5.131   4.573   0.596
 9602SOL     OW29704   6.153   4.279   6.671
 9602SOL    HW129705   6.113   4.214   6.736
 9602SOL    HW229706   6.230   4.235   6.623
 9603SOL     OW29707   4.402   1.160   6.267
 9603SOL    HW129708   4.374   1.249   6.301
 9603SOL    HW229709   4.356   1.088   6.319
 9604SOL     OW29710   5.008   0.014   0.952
 9604SOL    HW129711   5.062   0.094   0.980
 9604SOL    HW229712   5.043   6.958   0.999
 9605SOL     OW29713   1.072   6.320   2.982
 9605SOL    HW129714   1.137   6.245   2.979
 9605SOL    HW229715   1.036   6.330   3.075
 9606SOL     OW29716   1.801   6.363   6.801
 9606SOL    HW129717   1.802   6.288   6.868
 9606SOL    HW229718   1.718   6.358   6.747
 9607SOL     OW29719   2.666   1.415   6.895
 9607SOL    HW129720   2.571   1.383   6.884
 9607SOL    HW229721   2.669   1.484   6.967
 9608SOL     OW29722   0.060   4.323   1.707
 9608SOL    HW129723   0.049   4.406   1.762
 9608SOL    HW229724   0.125   4.340   1.633
 9609SOL     OW29725   2.960   2.958   0.128
 9609SOL    HW129726   2.912   2.995   0.208
 9609SOL    HW229727   3.020   2.883   0.157
 9610SOL     OW29728   1.539   5.018   3.806
 9610SOL    HW129729   1.498   5.074   3.734
 9610SOL    HW229730   1.515   5.056   3.895
 9611SOL     OW29731   1.103   6.295   0.531
 9611SOL    HW129732   1.162   6.371   0.507
 9611SOL    HW229733   1.158   6.212   0.543
 9612SOL     OW29734   0.132   3.702   1.534
 9612SOL    HW129735   0.048   3.654   1.506
 9612SOL    HW229736   0.191   3.715   1.455
 9613SOL     OW29737   4.918   0.057   3.337
 9613SOL    HW129738   4.838   0.087   3.388
 9613SOL    HW229739   4.906   0.078   3.240
 9614SOL     OW29740   4.139   2.291   1.796
 9614SOL    HW129741   4.127   2.332   1.887
 9614SOL    HW229742   4.167   2.196   1.806
 9615SOL     OW29743   2.613   0.750   0.824
 9615SOL    HW129744   2.522   0.742   0.783
 9615SOL    HW229745   2.615   0.699   0.910
 9616SOL     OW29746   3.781   3.973   1.387
 9616SOL    HW129747   3.787   3.875   1.367
 9616SOL    HW229748   3.785   3.986   1.487
 9617SOL     OW29749   1.556   2.844   3.097
 9617SOL    HW129750   1.513   2.787   3.026
 9617SOL    HW229751   1.488   2.867   3.166
 9618SOL     OW29752   2.905   6.511   0.405
 9618SOL    HW129753   2.953   6.424   0.393
 9618SOL    HW229754   2.936   6.576   0.336
 9619SOL     OW29755   1.453   6.918   6.467
 9619SOL    HW129756   1.478   6.993   6.406
 9619SOL    HW229757   1.353   6.916   6.478
 9620SOL     OW29758   4.313   0.655   6.094
 9620SOL    HW129759   4.214   0.665   6.088
 9620SOL    HW229760   4.335   0.575   6.150
 9621SOL     OW29761   1.364   2.363   1.964
 9621SOL    HW129762   1.445   2.421   1.954
 9621SOL    HW229763   1.362   2.324   2.056
 9622SOL     OW29764   0.083   1.134   0.278
 9622SOL    HW129765   0.073   1.219   0.329
 9622SOL    HW229766   0.174   1.130   0.237
 9623SOL     OW29767   2.859   3.633   5.700
 9623SOL    HW129768   2.834   3.543   5.664
 9623SOL    HW229769   2.871   3.697   5.623
 9624SOL     OW29770   6.530   3.846   3.065
 9624SOL    HW129771   6.487   3.757   3.053
 9624SOL    HW229772   6.554   3.859   3.161
 9625SOL     OW29773   4.673   5.665   6.702
 9625SOL    HW129774   4.642   5.574   6.731
 9625SOL    HW229775   4.763   5.683   6.741
 9626SOL     OW29776   4.413   5.322   0.728
 9626SOL    HW129777   4.372   5.412   0.743
 9626SOL    HW229778   4.513   5.330   0.730
 9627SOL     OW29779   6.951   6.130   5.150
 9627SOL    HW129780   6.992   6.063   5.211
 9627SOL    HW229781   7.018   6.158   5.081
 9628SOL     OW29782   4.655   4.639   0.356
 9628SOL    HW129783   4.678   4.696   0.435
 9628SOL    HW229784   4.657   4.694   0.273
 9629SOL     OW29785   0.308   6.898   1.494
 9629SOL    HW129786   0.217   6.882   1.533
 9629SOL    HW229787   0.360   6.958   1.555
 9630SOL     OW29788   6.548   0.071   4.571
 9630SOL    HW129789   6.487   0.021   4.509
 9630SOL    HW229790   6.503   0.082   4.660
 9631SOL     OW29791   0.038   6.620   6.858
 9631SOL    HW129792   6.971   6.658   6.871
 9631SOL    HW229793   0.075   6.652   6.771
 9632SOL     OW29794   1.017   0.320   2.771
 9632SOL    HW129795   1.089   0.305   2.839
 9632SOL    HW229796   0.988   0.415   2.774
 9633SOL     OW29797   5.049   5.241   5.956
 9633SOL    HW129798   5.026   5.275   5.865
 9633SOL    HW229799   5.028   5.143   5.961
 9634SOL     OW29800   1.083   5.823   4.118
 9634SOL    HW129801   1.122   5.794   4.031
 9634SOL    HW229802   1.082   5.923   4.122
 9635SOL     OW29803   1.781   5.254   5.143
 9635SOL    HW129804   1.699   5.304   5.172
 9635SOL    HW229805   1.756   5.189   5.071
 9636SOL     OW29806   3.901   2.207   5.923
 9636SOL    HW129807   3.850   2.121   5.933
 9636SOL    HW229808   3.843   2.275   5.878
 9637SOL     OW29809   2.269   1.638   6.445
 9637SOL    HW129810   2.361   1.675   6.460
 9637SOL    HW229811   2.214   1.649   6.528
 9638SOL     OW29812   6.577   3.993   6.542
 9638SOL    HW129813   6.548   3.988   6.638
 9638SOL    HW229814   6.533   3.920   6.490
 9639SOL     OW29815   3.768   1.225   2.490
 9639SOL    HW129816   3.788   1.145   2.546
 9639SOL    HW229817   3.772   1.200   2.393
 9640SOL     OW29818   2.346   2.666   3.977
 9640SOL    HW129819   2.269   2.609   3.949
 9640SOL    HW229820   2.431   2.614   3.969
 9641SOL     OW29821   3.863   5.783   0.954
 9641SOL    HW129822   3.933   5.849   0.980
 9641SOL    HW229823   3.884   5.746   0.863
 9642SOL     OW29824   3.269   6.778   5.058
 9642SOL    HW129825   3.278   6.840   5.136
 9642SOL    HW229826   3.351   6.786   5.000
 9643SOL     OW29827   5.580   5.451   4.272
 9643SOL    HW129828   5.569   5.413   4.181
 9643SOL    HW229829   5.509   5.415   4.333
 9644SOL     OW29830   0.940   4.190   6.022
 9644SOL    HW129831   0.902   4.197   6.114
 9644SOL    HW229832   1.040   4.185   6.027
 9645SOL     OW29833   2.958   5.420   4.644
 9645SOL    HW129834   2.868   5.460   4.626
 9645SOL    HW229835   2.967   5.402   4.742
 9646SOL     OW29836   2.672   4.799   1.891
 9646SOL    HW129837   2.723   4.832   1.812
 9646SOL    HW229838   2.719   4.719   1.930
 9647SOL     OW29839   6.619   5.352   1.795
 9647SOL    HW129840   6.579   5.416   1.861
 9647SOL    HW229841   6.653   5.272   1.843
 9648SOL     OW29842   4.512   1.157   0.600
 9648SOL    HW129843   4.427   1.158   0.547
 9648SOL    HW229844   4.586   1.194   0.544
 9649SOL     OW29845   2.999   6.400   0.071
 9649SOL    HW129846   3.039   6.348   7.021
 9649SOL    HW229847   3.050   6.485   0.083
 9650SOL     OW29848   6.349   5.069   2.229
 9650SOL    HW129849   6.445   5.068   2.200
 9650SOL    HW229850   6.342   5.030   2.321
 9651SOL     OW29851   0.123   1.198   6.201
 9651SOL    HW129852   0.042   1.138   6.204
 9651SOL    HW229853   0.097   1.287   6.163
 9652SOL     OW29854   1.975   4.318   0.894
 9652SOL    HW129855   1.915   4.314   0.814
 9652SOL    HW229856   2.050   4.253   0.883
 9653SOL     OW29857   4.141   4.848   4.660
 9653SOL    HW129858   4.118   4.792   4.580
 9653SOL    HW229859   4.215   4.804   4.712
 9654SOL     OW29860   3.258   2.723   1.431
 9654SOL    HW129861   3.317   2.643   1.420
 9654SOL    HW229862   3.312   2.799   1.467
 9655SOL     OW29863   0.348   0.951   0.312
 9655SOL    HW129864   0.278   0.880   0.310
 9655SOL    HW229865   0.364   0.979   0.407
 9656SOL     OW29866   2.498   1.187   1.717
 9656SOL    HW129867   2.588   1.229   1.726
 9656SOL    HW229868   2.508   1.094   1.683
 9657SOL     OW29869   5.274   0.448   3.733
 9657SOL    HW129870   5.208   0.413   3.666
 9657SOL    HW229871   5.282   0.383   3.809
 9658SOL     OW29872   6.674   2.287   3.271
 9658SOL    HW129873   6.681   2.193   3.304
 9658SOL    HW229874   6.697   2.351   3.345
 9659SOL     OW29875   6.594   4.560   0.208
 9659SOL    HW129876   6.556   4.468   0.220
 9659SOL    HW229877   6.519   4.627   0.212
 9660SOL     OW29878   0.445   5.394   0.611
 9660SOL    HW129879   0.431   5.473   0.671
 9660SOL    HW229880   0.508   5.418   0.538
 9661SOL     OW29881   4.313   5.527   1.519
 9661SOL    HW129882   4.317   5.526   1.419
 9661SOL    HW229883   4.344   5.615   1.554
 9662SOL     OW29884   6.139   2.872   4.780
 9662SOL    HW129885   6.150   2.881   4.879
 9662SOL    HW229886   6.047   2.841   4.759
 9663SOL     OW29887   1.345   5.669   4.129
 9663SOL    HW129888   1.351   5.767   4.144
 9663SOL    HW229889   1.273   5.649   4.062
 9664SOL     OW29890   5.477   0.263   2.869
 9664SOL    HW129891   5.548   0.250   2.939
 9664SOL    HW229892   5.388   0.270   2.913
 9665SOL     OW29893   5.565   4.973   5.621
 9665SOL    HW129894   5.595   4.973   5.716
 9665SOL    HW229895   5.644   4.963   5.561
 9666SOL     OW29896   5.455   4.024   1.673
 9666SOL    HW129897   5.506   4.028   1.759
 9666SOL    HW229898   5.491   3.950   1.616
 9667SOL     OW29899   3.922   3.036   4.387
 9667SOL    HW129900   3.864   3.113   4.363
 9667SOL    HW229901   3.898   2.957   4.330
 9668SOL     OW29902   6.834   1.597   6.195
 9668SOL    HW129903   6.757   1.616   6.134
 9668SOL    HW229904   6.803   1.546   6.275
 9669SOL     OW29905   0.903   1.573   1.025
 9669SOL    HW129906   0.874   1.482   1.055
 9669SOL    HW229907   0.969   1.610   1.091
 9670SOL     OW29908   4.675   4.770   6.094
 9670SOL    HW129909   4.588   4.778   6.045
 9670SOL    HW229910   4.700   4.859   6.131
 9671SOL     OW29911   0.561   5.406   6.198
 9671SOL    HW129912   0.634   5.474   6.196
 9671SOL    HW229913   0.594   5.321   6.156
 9672SOL     OW29914   1.148   0.034   4.405
 9672SOL    HW129915   1.140   0.108   4.472
 9672SOL    HW229916   1.154   0.072   4.313
 9673SOL     OW29917   5.318   4.391   6.793
 9673SOL    HW129918   5.396   4.400   6.855
 9673SOL    HW229919   5.318   4.299   6.753
 9674SOL     OW29920   2.874   5.786   2.873
 9674SOL    HW129921   2.869   5.717   2.946
 9674SOL    HW229922   2.967   5.822   2.868
 9675SOL     OW29923   5.726   0.998   1.750
 9675SOL    HW129924   5.747   1.047   1.665
 9675SOL    HW229925   5.656   1.047   1.801
 9676SOL     OW29926   1.413   3.550   5.551
 9676SOL    HW129927   1.382   3.542   5.646
 9676SOL    HW229928   1.419   3.459   5.510
 9677SOL     OW29929   2.708   4.296   6.189
 9677SOL    HW129930   2.696   4.208   6.235
 9677SOL    HW229931   2.672   4.291   6.096
 9678SOL     OW29932   3.307   3.987   3.004
 9678SOL    HW129933   3.290   4.004   2.907
 9678SOL    HW229934   3.315   3.889   3.020
 9679SOL     OW29935   0.741   1.324   1.782
 9679SOL    HW129936   0.774   1.382   1.707
 9679SOL    HW229937   0.644   1.342   1.797
 9680SOL     OW29938   6.195   0.295   3.400
 9680SOL    HW129939   6.261   0.335   3.336
 9680SOL    HW229940   6.126   0.244   3.349
 9681SOL     OW29941   2.634   0.710   1.473
 9681SOL    HW129942   2.703   0.648   1.510
 9681SOL    HW229943   2.544   0.667   1.480
 9682SOL     OW29944   5.110   5.430   3.011
 9682SOL    HW129945   5.028   5.432   2.953
 9682SOL    HW229946   5.100   5.359   3.080
 9683SOL     OW29947   3.768   5.410   0.849
 9683SOL    HW129948   3.812   5.321   0.852
 9683SOL    HW229949   3.670   5.399   0.863
 9684SOL     OW29950   0.171   3.373   4.897
 9684SOL    HW129951   0.083   3.420   4.891
 9684SOL    HW229952   0.157   3.283   4.938
 9685SOL     OW29953   2.091   3.183   1.136
 9685SOL    HW129954   1.993   3.201   1.139
 9685SOL    HW229955   2.141   3.267   1.155
 9686SOL     OW29956   6.536   2.063   0.748
 9686SOL    HW129957   6.562   1.995   0.680
 9686SOL    HW229958   6.536   2.022   0.839
 9687SOL     OW29959   1.921   0.617   3.432
 9687SOL    HW129960   1.935   0.679   3.509
 9687SOL    HW229961   1.855   0.547   3.457
 9688SOL     OW29962   6.406   2.578   3.340
 9688SOL    HW129963   6.323   2.607   3.292
 9688SOL    HW229964   6.387   2.495   3.392
 9689SOL     OW29965   1.659   6.507   0.285
 9689SOL    HW129966   1.744   6.481   0.332
 9689SOL    HW229967   1.625   6.593   0.324
 9690SOL     OW29968   5.682   5.470   6.250
 9690SOL    HW129969   5.767   5.462   6.301
 9690SOL    HW229970   5.689   5.419   6.164
 9691SOL     OW29971   2.664   4.901   1.292
 9691SOL    HW129972   2.583   4.948   1.257
 9691SOL    HW229973   2.727   4.967   1.331
 9692SOL     OW29974   2.179   5.213   2.429
 9692SOL    HW129975   2.232   5.291   2.463
 9692SOL    HW229976   2.170   5.145   2.502
 9693SOL     OW29977   0.048   5.340   1.925
 9693SOL    HW129978   0.132   5.289   1.942
 9693SOL    HW229979   6.996   5.294   1.967
 9694SOL     OW29980   1.971   1.029   6.161
 9694SOL    HW129981   2.019   0.941   6.158
 9694SOL    HW229982   2.012   1.085   6.233
 9695SOL     OW29983   6.286   4.293   1.184
 9695SOL    HW129984   6.370   4.278   1.132
 9695SOL    HW229985   6.212   4.318   1.121
 9696SOL     OW29986   4.779   2.571   1.374
 9696SOL    HW129987   4.843   2.600   1.303
 9696SOL    HW229988   4.687   2.568   1.336
 9697SOL     OW29989   0.074   5.265   6.712
 9697SOL    HW129990   0.112   5.328   6.779
 9697SOL    HW229991   0.082   5.304   6.621
 9698SOL     OW29992   6.206   0.979   5.497
 9698SOL    HW129993   6.176   1.074   5.506
 9698SOL    HW229994   6.208   0.936   5.588
 9699SOL     OW29995   0.116   4.302   6.177
 9699SOL    HW129996   0.019   4.322   6.164
 9699SOL    HW229997   0.126   4.219   6.232
 9700SOL     OW29998   3.830   5.085   5.946
 9700SOL    HW129999   3.734   5.080   5.974
 9700SOL    HW230000   3.836   5.123   5.854
 9701SOL     OW30001   3.728   5.713   4.723
 9701SOL    HW130002   3.780   5.645   4.672
 9701SOL    HW230003   3.637   5.675   4.745
 9702SOL     OW30004   5.329   0.440   6.591
 9702SOL    HW130005   5.376   0.525   6.613
 9702SOL    HW230006   5.285   0.404   6.673
 9703SOL     OW30007   3.751   5.714   4.343
 9703SOL    HW130008   3.719   5.808   4.334
 9703SOL    HW230009   3.828   5.699   4.281
 9704SOL     OW30010   3.153   0.893   2.352
 9704SOL    HW130011   3.237   0.842   2.371
 9704SOL    HW230012   3.126   0.879   2.257
 9705SOL     OW30013   5.023   5.213   0.344
 9705SOL    HW130014   5.024   5.248   0.251
 9705SOL    HW230015   5.092   5.261   0.398
 9706SOL     OW30016   0.228   2.174   1.343
 9706SOL    HW130017   0.149   2.234   1.361
 9706SOL    HW230018   0.196   2.080   1.335
 9707SOL     OW30019   6.729   4.221   2.306
 9707SOL    HW130020   6.633   4.192   2.309
 9707SOL    HW230021   6.767   4.202   2.215
 9708SOL     OW30022   1.965   2.451   3.363
 9708SOL    HW130023   1.902   2.379   3.391
 9708SOL    HW230024   1.947   2.534   3.416
 9709SOL     OW30025   0.205   6.128   3.552
 9709SOL    HW130026   0.296   6.105   3.587
 9709SOL    HW230027   0.210   6.145   3.454
 9710SOL     OW30028   0.716   1.652   2.626
 9710SOL    HW130029   0.763   1.728   2.672
 9710SOL    HW230030   0.627   1.684   2.592
 9711SOL     OW30031   1.417   3.286   6.133
 9711SOL    HW130032   1.370   3.284   6.045
 9711SOL    HW230033   1.464   3.199   6.149
 9712SOL     OW30034   5.348   3.372   4.809
 9712SOL    HW130035   5.391   3.459   4.783
 9712SOL    HW230036   5.264   3.359   4.756
 9713SOL     OW30037   0.190   5.098   2.703
 9713SOL    HW130038   0.177   5.103   2.802
 9713SOL    HW230039   0.274   5.147   2.678
 9714SOL     OW30040   1.780   0.964   1.894
 9714SOL    HW130041   1.833   0.935   1.974
 9714SOL    HW230042   1.823   1.046   1.854
 9715SOL     OW30043   6.804   5.901   4.521
 9715SOL    HW130044   6.883   5.921   4.463
 9715SOL    HW230045   6.782   5.981   4.576
 9716SOL     OW30046   4.037   2.704   0.053
 9716SOL    HW130047   4.056   2.637   7.006
 9716SOL    HW230048   4.116   2.763   0.064
 9717SOL     OW30049   5.455   6.176   5.186
 9717SOL    HW130050   5.464   6.165   5.087
 9717SOL    HW230051   5.466   6.087   5.231
 9718SOL     OW30052   4.721   3.229   1.736
 9718SOL    HW130053   4.689   3.157   1.797
 9718SOL    HW230054   4.796   3.194   1.679
 9719SOL     OW30055   0.421   2.061   6.970
 9719SOL    HW130056   0.471   1.991   7.019
 9719SOL    HW230057   0.345   2.095   0.002
 9720SOL     OW30058   0.861   5.717   1.699
 9720SOL    HW130059   0.959   5.708   1.682
 9720SOL    HW230060   0.820   5.778   1.632
 9721SOL     OW30061   0.762   2.594   1.799
 9721SOL    HW130062   0.766   2.562   1.894
 9721SOL    HW230063   0.693   2.541   1.748
 9722SOL     OW30064   0.330   0.062   3.563
 9722SOL    HW130065   0.379   0.099   3.642
 9722SOL    HW230066   0.340   0.124   3.486
 9723SOL     OW30067   1.384   6.254   2.623
 9723SOL    HW130068   1.376   6.306   2.538
 9723SOL    HW230069   1.479   6.224   2.635
 9724SOL     OW30070   3.402   2.891   1.591
 9724SOL    HW130071   3.463   2.936   1.526
 9724SOL    HW230072   3.339   2.959   1.630
 9725SOL     OW30073   4.189   3.620   6.106
 9725SOL    HW130074   4.158   3.602   6.199
 9725SOL    HW230075   4.241   3.705   6.104
 9726SOL     OW30076   4.465   0.318   4.538
 9726SOL    HW130077   4.557   0.356   4.535
 9726SOL    HW230078   4.407   0.376   4.595
 9727SOL     OW30079   1.457   3.303   5.420
 9727SOL    HW130080   1.556   3.292   5.428
 9727SOL    HW230081   1.429   3.295   5.324
 9728SOL     OW30082   0.908   6.353   6.628
 9728SOL    HW130083   0.881   6.433   6.575
 9728SOL    HW230084   0.828   6.295   6.643
 9729SOL     OW30085   1.438   4.403   2.886
 9729SOL    HW130086   1.453   4.312   2.926
 9729SOL    HW230087   1.400   4.463   2.956
 9730SOL     OW30088   6.960   3.250   2.615
 9730SOL    HW130089   0.021   3.213   2.580
 9730SOL    HW230090   6.937   3.205   2.701
 9731SOL     OW30091   4.458   4.806   0.697
 9731SOL    HW130092   4.495   4.713   0.705
 9731SOL    HW230093   4.400   4.812   0.616
 9732SOL     OW30094   5.953   6.226   3.073
 9732SOL    HW130095   6.004   6.234   3.159
 9732SOL    HW230096   6.008   6.261   2.998
 9733SOL     OW30097   5.568   5.326   4.873
 9733SOL    HW130098   5.602   5.232   4.870
 9733SOL    HW230099   5.507   5.343   4.795
 9734SOL     OW30100   5.220   2.064   4.019
 9734SOL    HW130101   5.258   2.119   3.945
 9734SOL    HW230102   5.265   2.087   4.105
 9735SOL     OW30103   1.611   4.716   2.800
 9735SOL    HW130104   1.689   4.658   2.823
 9735SOL    HW230105   1.641   4.789   2.739
 9736SOL     OW30106   5.482   1.539   5.848
 9736SOL    HW130107   5.534   1.457   5.823
 9736SOL    HW230108   5.545   1.612   5.875
 9737SOL     OW30109   4.594   2.671   5.063
 9737SOL    HW130110   4.564   2.736   5.133
 9737SOL    HW230111   4.646   2.719   4.992
 9738SOL     OW30112   1.737   0.130   3.136
 9738SOL    HW130113   1.748   0.156   3.232
 9738SOL    HW230114   1.644   0.097   3.121
 9739SOL     OW30115   0.734   4.705   1.739
 9739SOL    HW130116   0.829   4.716   1.714
 9739SOL    HW230117   0.694   4.794   1.760
 9740SOL     OW30118   6.156   3.134   3.437
 9740SOL    HW130119   6.255   3.130   3.442
 9740SOL    HW230120   6.127   3.128   3.341
 9741SOL     OW30121   4.635   1.244   2.615
 9741SOL    HW130122   4.714   1.198   2.656
 9741SOL    HW230123   4.665   1.328   2.569
 9742SOL     OW30124   4.556   7.014   3.086
 9742SOL    HW130125   4.506   6.998   3.001
 9742SOL    HW230126   4.514   6.962   3.160
 9743SOL     OW30127   2.199   2.022   5.855
 9743SOL    HW130128   2.282   2.063   5.816
 9743SOL    HW230129   2.220   1.986   5.946
 9744SOL     OW30130   0.951   0.608   2.798
 9744SOL    HW130131   0.983   0.610   2.893
 9744SOL    HW230132   1.028   0.586   2.738
 9745SOL     OW30133   0.387   2.428   5.797
 9745SOL    HW130134   0.339   2.363   5.738
 9745SOL    HW230135   0.355   2.521   5.779
 9746SOL     OW30136   5.610   1.775   5.048
 9746SOL    HW130137   5.552   1.741   5.122
 9746SOL    HW230138   5.602   1.875   5.042
 9747SOL     OW30139   1.397   1.252   1.826
 9747SOL    HW130140   1.343   1.247   1.742
 9747SOL    HW230141   1.348   1.304   1.895
 9748SOL     OW30142   1.079   0.078   4.738
 9748SOL    HW130143   1.140   7.024   4.745
 9748SOL    HW230144   1.043   0.084   4.645
 9749SOL     OW30145   1.954   2.504   5.440
 9749SOL    HW130146   1.859   2.534   5.449
 9749SOL    HW230147   1.991   2.485   5.531
 9750SOL     OW30148   5.732   5.155   4.170
 9750SOL    HW130149   5.744   5.255   4.174
 9750SOL    HW230150   5.753   5.115   4.259
 9751SOL     OW30151   2.039   2.469   1.364
 9751SOL    HW130152   1.975   2.457   1.441
 9751SOL    HW230153   2.103   2.392   1.362
 9752SOL     OW30154   4.420   0.821   6.286
 9752SOL    HW130155   4.372   0.783   6.365
 9752SOL    HW230156   4.382   0.783   6.202
 9753SOL     OW30157   6.407   6.250   5.089
 9753SOL    HW130158   6.331   6.263   5.154
 9753SOL    HW230159   6.370   6.236   4.997
 9754SOL     OW30160   1.154   1.743   0.021
 9754SOL    HW130161   1.085   1.807   7.013
 9754SOL    HW230162   1.245   1.785   0.014
 9755SOL     OW30163   4.132   3.473   4.822
 9755SOL    HW130164   4.110   3.447   4.728
 9755SOL    HW230165   4.139   3.391   4.878
 9756SOL     OW30166   6.324   2.538   0.136
 9756SOL    HW130167   6.291   2.519   0.228
 9756SOL    HW230168   6.246   2.547   0.074
 9757SOL     OW30169   4.840   3.244   3.434
 9757SOL    HW130170   4.754   3.192   3.428
 9757SOL    HW230171   4.902   3.212   3.363
 9758SOL     OW30172   1.784   0.205   6.167
 9758SOL    HW130173   1.700   0.257   6.180
 9758SOL    HW230174   1.763   0.107   6.174
 9759SOL     OW30175   2.581   6.995   1.175
 9759SOL    HW130176   2.588   6.934   1.254
 9759SOL    HW230177   2.577   0.065   1.207
 9760SOL     OW30178   5.158   3.840   5.241
 9760SOL    HW130179   5.143   3.864   5.145
 9760SOL    HW230180   5.136   3.744   5.255
 9761SOL     OW30181   5.358   6.107   2.112
 9761SOL    HW130182   5.400   6.094   2.022
 9761SOL    HW230183   5.313   6.022   2.140
 9762SOL     OW30184   2.775   1.916   4.628
 9762SOL    HW130185   2.809   2.005   4.597
 9762SOL    HW230186   2.845   1.870   4.682
 9763SOL     OW30187   4.339   1.923   1.327
 9763SOL    HW130188   4.331   2.023   1.333
 9763SOL    HW230189   4.257   1.880   1.364
 9764SOL     OW30190   1.452   1.986   3.397
 9764SOL    HW130191   1.389   2.040   3.341
 9764SOL    HW230192   1.456   1.893   3.361
 9765SOL     OW30193   6.597   1.812   4.764
 9765SOL    HW130194   6.541   1.803   4.846
 9765SOL    HW230195   6.559   1.754   4.692
 9766SOL     OW30196   2.283   0.632   2.747
 9766SOL    HW130197   2.186   0.626   2.770
 9766SOL    HW230198   2.315   0.545   2.710
 9767SOL     OW30199   4.943   2.122   4.784
 9767SOL    HW130200   5.039   2.148   4.794
 9767SOL    HW230201   4.904   2.167   4.704
 9768SOL     OW30202   5.385   2.269   2.471
 9768SOL    HW130203   5.413   2.183   2.514
 9768SOL    HW230204   5.383   2.257   2.372
 9769SOL     OW30205   1.659   1.567   1.993
 9769SOL    HW130206   1.586   1.575   2.062
 9769SOL    HW230207   1.692   1.473   1.990
 9770SOL     OW30208   5.739   6.310   6.021
 9770SOL    HW130209   5.645   6.340   6.004
 9770SOL    HW230210   5.737   6.219   6.063
 9771SOL     OW30211   4.833   4.606   1.037
 9771SOL    HW130212   4.910   4.619   0.975
 9771SOL    HW230213   4.835   4.677   1.108
 9772SOL     OW30214   6.657   6.642   1.542
 9772SOL    HW130215   6.738   6.627   1.485
 9772SOL    HW230216   6.679   6.622   1.637
 9773SOL     OW30217   6.036   6.219   3.399
 9773SOL    HW130218   6.099   6.252   3.470
 9773SOL    HW230219   6.046   6.121   3.388
 9774SOL     OW30220   6.002   5.388   3.383
 9774SOL    HW130221   5.950   5.422   3.304
 9774SOL    HW230222   6.027   5.464   3.442
 9775SOL     OW30223   2.256   1.903   4.575
 9775SOL    HW130224   2.238   1.935   4.482
 9775SOL    HW230225   2.322   1.963   4.620
 9776SOL     OW30226   0.097   5.564   4.517
 9776SOL    HW130227   0.109   5.467   4.534
 9776SOL    HW230228   0.155   5.593   4.441
 9777SOL     OW30229   5.451   5.352   6.416
 9777SOL    HW130230   5.457   5.253   6.429
 9777SOL    HW230231   5.533   5.384   6.368
 9778SOL     OW30232   5.631   0.212   3.515
 9778SOL    HW130233   5.731   0.215   3.515
 9778SOL    HW230234   5.597   0.205   3.421
 9779SOL     OW30235   2.372   1.484   4.833
 9779SOL    HW130236   2.373   1.400   4.779
 9779SOL    HW230237   2.454   1.537   4.814
 9780SOL     OW30238   2.461   2.377   0.788
 9780SOL    HW130239   2.372   2.362   0.830
 9780SOL    HW230240   2.515   2.293   0.794
 9781SOL     OW30241   1.838   4.684   4.111
 9781SOL    HW130242   1.765   4.734   4.064
 9781SOL    HW230243   1.878   4.617   4.048
 9782SOL     OW30244   6.570   0.210   0.632
 9782SOL    HW130245   6.630   0.289   0.639
 9782SOL    HW230246   6.611   0.133   0.681
 9783SOL     OW30247   6.288   1.234   1.785
 9783SOL    HW130248   6.369   1.287   1.811
 9783SOL    HW230249   6.317   1.153   1.734
 9784SOL     OW30250   4.539   1.607   3.168
 9784SOL    HW130251   4.492   1.525   3.197
 9784SOL    HW230252   4.474   1.683   3.162
 9785SOL     OW30253   0.011   2.734   3.231
 9785SOL    HW130254   7.024   2.661   3.298
 9785SOL    HW230255   6.959   2.732   3.166
 9786SOL     OW30256   1.790   4.916   5.747
 9786SOL    HW130257   1.823   5.009   5.731
 9786SOL    HW230258   1.713   4.897   5.687
 9787SOL     OW30259   5.413   3.637   2.091
 9787SOL    HW130260   5.422   3.546   2.052
 9787SOL    HW230261   5.318   3.666   2.088
 9788SOL     OW30262   0.619   0.519   4.011
 9788SOL    HW130263   0.670   0.438   3.984
 9788SOL    HW230264   0.542   0.533   3.948
 9789SOL     OW30265   2.050   5.426   6.043
 9789SOL    HW130266   2.094   5.457   5.959
 9789SOL    HW230267   1.952   5.415   6.027
 9790SOL     OW30268   5.830   2.651   4.408
 9790SOL    HW130269   5.739   2.674   4.442
 9790SOL    HW230270   5.896   2.717   4.442
 9791SOL     OW30271   0.841   0.749   1.582
 9791SOL    HW130272   0.887   0.742   1.493
 9791SOL    HW230273   0.771   0.820   1.577
 9792SOL     OW30274   4.468   5.175   1.834
 9792SOL    HW130275   4.391   5.222   1.792
 9792SOL    HW230276   4.551   5.230   1.824
 9793SOL     OW30277   4.726   5.897   2.782
 9793SOL    HW130278   4.752   5.899   2.685
 9793SOL    HW230279   4.633   5.862   2.791
 9794SOL     OW30280   5.356   3.504   6.442
 9794SOL    HW130281   5.395   3.446   6.513
 9794SOL    HW230282   5.329   3.447   6.364
 9795SOL     OW30283   0.990   2.739   3.944
 9795SOL    HW130284   0.996   2.640   3.931
 9795SOL    HW230285   0.960   2.759   4.037
 9796SOL     OW30286   3.173   4.661   0.973
 9796SOL    HW130287   3.088   4.699   0.938
 9796SOL    HW230288   3.249   4.722   0.950
 9797SOL     OW30289   4.790   3.502   0.003
 9797SOL    HW130290   4.868   3.455   0.044
 9797SOL    HW230291   4.780   3.473   6.933
 9798SOL     OW30292   2.418   0.592   1.256
 9798SOL    HW130293   2.352   0.569   1.185
 9798SOL    HW230294   2.440   0.510   1.308
 9799SOL     OW30295   3.393   3.484   2.565
 9799SOL    HW130296   3.459   3.559   2.559
 9799SOL    HW230297   3.383   3.455   2.660
 9800SOL     OW30298   4.224   6.072   5.926
 9800SOL    HW130299   4.202   6.000   5.992
 9800SOL    HW230300   4.268   6.032   5.846
 9801SOL     OW30301   4.458   5.512   6.862
 9801SOL    HW130302   4.387   5.447   6.835
 9801SOL    HW230303   4.419   5.581   6.924
 9802SOL     OW30304   0.534   3.476   1.688
 9802SOL    HW130305   0.489   3.402   1.738
 9802SOL    HW230306   0.516   3.563   1.734
 9803SOL     OW30307   6.350   0.349   6.526
 9803SOL    HW130308   6.392   0.281   6.586
 9803SOL    HW230309   6.333   0.308   6.436
 9804SOL     OW30310   0.150   4.944   3.558
 9804SOL    HW130311   0.057   4.981   3.565
 9804SOL    HW230312   0.182   4.953   3.464
 9805SOL     OW30313   1.139   5.494   6.610
 9805SOL    HW130314   1.141   5.587   6.647
 9805SOL    HW230315   1.208   5.485   6.538
 9806SOL     OW30316   1.019   2.813   1.489
 9806SOL    HW130317   1.063   2.835   1.576
 9806SOL    HW230318   0.961   2.890   1.460
 9807SOL     OW30319   3.566   1.978   6.996
 9807SOL    HW130320   3.653   1.994   6.948
 9807SOL    HW230321   3.534   2.064   0.011
 9808SOL     OW30322   5.878   1.025   5.529
 9808SOL    HW130323   5.870   0.927   5.509
 9808SOL    HW230324   5.835   1.045   5.617
 9809SOL     OW30325   1.025   1.226   5.647
 9809SOL    HW130326   1.040   1.318   5.612
 9809SOL    HW230327   1.038   1.225   5.746
 9810SOL     OW30328   2.946   1.739   3.026
 9810SOL    HW130329   2.919   1.748   3.122
 9810SOL    HW230330   2.945   1.829   2.983
 9811SOL     OW30331   6.311   6.024   3.361
 9811SOL    HW130332   6.374   5.947   3.352
 9811SOL    HW230333   6.345   6.088   3.430
 9812SOL     OW30334   4.058   2.127   6.312
 9812SOL    HW130335   4.078   2.135   6.409
 9812SOL    HW230336   4.142   2.138   6.259
 9813SOL     OW30337   6.367   5.183   0.291
 9813SOL    HW130338   6.412   5.154   0.376
 9813SOL    HW230339   6.404   5.271   0.263
 9814SOL     OW30340   6.499   0.677   5.978
 9814SOL    HW130341   6.426   0.611   5.959
 9814SOL    HW230342   6.495   0.752   5.912
 9815SOL     OW30343   6.762   2.979   0.977
 9815SOL    HW130344   6.757   2.883   0.952
 9815SOL    HW230345   6.683   3.027   0.939
 9816SOL     OW30346   6.130   0.847   6.613
 9816SOL    HW130347   6.217   0.816   6.574
 9816SOL    HW230348   6.080   0.900   6.544
 9817SOL     OW30349   3.189   5.275   1.732
 9817SOL    HW130350   3.144   5.255   1.819
 9817SOL    HW230351   3.255   5.349   1.745
 9818SOL     OW30352   2.020   1.547   3.340
 9818SOL    HW130353   1.944   1.592   3.293
 9818SOL    HW230354   1.998   1.450   3.355
 9819SOL     OW30355   5.555   3.890   4.579
 9819SOL    HW130356   5.474   3.836   4.556
 9819SOL    HW230357   5.627   3.828   4.611
 9820SOL     OW30358   3.163   1.726   6.619
 9820SOL    HW130359   3.138   1.634   6.592
 9820SOL    HW230360   3.169   1.784   6.538
 9821SOL     OW30361   4.450   2.177   1.660
 9821SOL    HW130362   4.412   2.158   1.750
 9821SOL    HW230363   4.517   2.252   1.667
 9822SOL     OW30364   4.005   6.019   4.515
 9822SOL    HW130365   4.021   5.924   4.488
 9822SOL    HW230366   3.955   6.022   4.601
 9823SOL     OW30367   1.162   0.558   2.265
 9823SOL    HW130368   1.089   0.618   2.232
 9823SOL    HW230369   1.131   0.509   2.346
 9824SOL     OW30370   2.108   6.205   5.753
 9824SOL    HW130371   2.030   6.258   5.786
 9824SOL    HW230372   2.078   6.144   5.680
 9825SOL     OW30373   4.952   6.059   5.161
 9825SOL    HW130374   5.052   6.048   5.161
 9825SOL    HW230375   4.929   6.156   5.155
 9826SOL     OW30376   3.655   0.101   5.549
 9826SOL    HW130377   3.620   0.060   5.633
 9826SOL    HW230378   3.698   0.188   5.570
 9827SOL     OW30379   1.769   5.977   2.532
 9827SOL    HW130380   1.845   6.042   2.532
 9827SOL    HW230381   1.762   5.934   2.442
 9828SOL     OW30382   3.539   1.907   4.792
 9828SOL    HW130383   3.508   1.922   4.886
 9828SOL    HW230384   3.631   1.943   4.781
 9829SOL     OW30385   4.503   6.158   6.191
 9829SOL    HW130386   4.465   6.066   6.194
 9829SOL    HW230387   4.582   6.159   6.128
 9830SOL     OW30388   6.251   1.585   2.398
 9830SOL    HW130389   6.197   1.505   2.423
 9830SOL    HW230390   6.321   1.601   2.468
 9831SOL     OW30391   0.187   3.792   2.433
 9831SOL    HW130392   0.272   3.755   2.471
 9831SOL    HW230393   0.139   3.721   2.382
 9832SOL     OW30394   5.231   4.838   4.657
 9832SOL    HW130395   5.143   4.795   4.635
 9832SOL    HW230396   5.303   4.795   4.603
 9833SOL     OW30397   3.621   4.138   3.994
 9833SOL    HW130398   3.717   4.139   3.966
 9833SOL    HW230399   3.616   4.148   4.093
 9834SOL     OW30400   2.419   5.190   5.742
 9834SOL    HW130401   2.421   5.098   5.704
 9834SOL    HW230402   2.495   5.202   5.806
 9835SOL     OW30403   3.793   4.128   4.653
 9835SOL    HW130404   3.737   4.087   4.725
 9835SOL    HW230405   3.736   4.146   4.573
 9836SOL     OW30406   0.714   4.124   6.226
 9836SOL    HW130407   0.732   4.058   6.298
 9836SOL    HW230408   0.684   4.076   6.143
 9837SOL     OW30409   6.140   1.798   1.693
 9837SOL    HW130410   6.044   1.815   1.672
 9837SOL    HW230411   6.153   1.701   1.712
 9838SOL     OW30412   1.279   5.828   1.436
 9838SOL    HW130413   1.248   5.827   1.341
 9838SOL    HW230414   1.339   5.749   1.453
 9839SOL     OW30415   4.338   1.010   3.239
 9839SOL    HW130416   4.432   1.017   3.274
 9839SOL    HW230417   4.340   0.973   3.146
 9840SOL     OW30418   5.390   1.814   6.922
 9840SOL    HW130419   5.367   1.902   6.961
 9840SOL    HW230420   5.308   1.757   6.917
 9841SOL     OW30421   0.067   5.324   3.734
 9841SOL    HW130422   6.996   5.319   3.709
 9841SOL    HW230423   0.099   5.418   3.727
 9842SOL     OW30424   3.719   2.501   0.172
 9842SOL    HW130425   3.805   2.449   0.180
 9842SOL    HW230426   3.656   2.472   0.243
 9843SOL     OW30427   6.867   6.176   0.981
 9843SOL    HW130428   6.933   6.250   0.969
 9843SOL    HW230429   6.916   6.091   1.002
 9844SOL     OW30430   5.160   0.328   4.483
 9844SOL    HW130431   5.180   0.316   4.386
 9844SOL    HW230432   5.062   0.324   4.498
 9845SOL     OW30433   1.008   2.380   2.110
 9845SOL    HW130434   1.008   2.328   2.024
 9845SOL    HW230435   1.031   2.475   2.091
 9846SOL     OW30436   5.377   1.263   1.287
 9846SOL    HW130437   5.400   1.303   1.376
 9846SOL    HW230438   5.336   1.173   1.301
 9847SOL     OW30439   3.856   3.386   1.102
 9847SOL    HW130440   3.942   3.425   1.069
 9847SOL    HW230441   3.845   3.293   1.067
 9848SOL     OW30442   3.605   3.513   5.263
 9848SOL    HW130443   3.610   3.528   5.362
 9848SOL    HW230444   3.617   3.416   5.244
 9849SOL     OW30445   1.396   0.634   6.893
 9849SOL    HW130446   1.435   0.543   6.906
 9849SOL    HW230447   1.386   0.651   6.795
 9850SOL     OW30448   0.184   0.598   4.212
 9850SOL    HW130449   0.254   0.655   4.169
 9850SOL    HW230450   0.098   0.609   4.162
 9851SOL     OW30451   3.939   5.272   4.427
 9851SOL    HW130452   3.851   5.270   4.475
 9851SOL    HW230453   3.940   5.203   4.355
 9852SOL     OW30454   1.587   1.136   6.941
 9852SOL    HW130455   1.582   1.055   6.998
 9852SOL    HW230456   1.682   1.168   6.936
 9853SOL     OW30457   0.072   4.391   4.140
 9853SOL    HW130458   0.131   4.460   4.099
 9853SOL    HW230459   0.071   4.402   4.240
 9854SOL     OW30460   0.496   6.056   5.896
 9854SOL    HW130461   0.543   6.127   5.843
 9854SOL    HW230462   0.400   6.052   5.869
 9855SOL     OW30463   0.875   3.422   0.738
 9855SOL    HW130464   0.836   3.400   0.649
 9855SOL    HW230465   0.908   3.516   0.738
 9856SOL     OW30466   5.852   4.830   3.294
 9856SOL    HW130467   5.935   4.870   3.331
 9856SOL    HW230468   5.859   4.824   3.194
 9857SOL     OW30469   5.050   2.430   3.216
 9857SOL    HW130470   5.034   2.523   3.183
 9857SOL    HW230471   5.139   2.398   3.184
 9858SOL     OW30472   1.153   6.118   2.671
 9858SOL    HW130473   1.236   6.169   2.652
 9858SOL    HW230474   1.123   6.071   2.587
 9859SOL     OW30475   0.478   4.764   5.113
 9859SOL    HW130476   0.477   4.740   5.210
 9859SOL    HW230477   0.571   4.759   5.078
 9860SOL     OW30478   1.798   2.053   5.531
 9860SOL    HW130479   1.822   1.982   5.465
 9860SOL    HW230480   1.856   2.133   5.516
 9861SOL     OW30481   2.759   1.492   3.871
 9861SOL    HW130482   2.826   1.539   3.928
 9861SOL    HW230483   2.667   1.517   3.899
 9862SOL     OW30484   2.432   4.819   1.101
 9862SOL    HW130485   2.412   4.914   1.127
 9862SOL    HW230486   2.513   4.816   1.043
 9863SOL     OW30487   3.010   5.923   1.170
 9863SOL    HW130488   3.065   5.876   1.239
 9863SOL    HW230489   2.913   5.908   1.188
 9864SOL     OW30490   2.966   6.274   5.363
 9864SOL    HW130491   3.002   6.195   5.314
 9864SOL    HW230492   2.881   6.304   5.321
 9865SOL     OW30493   0.337   6.991   5.750
 9865SOL    HW130494   0.284   0.038   5.794
 9865SOL    HW230495   0.304   6.979   5.656
 9866SOL     OW30496   6.463   4.681   4.291
 9866SOL    HW130497   6.510   4.682   4.379
 9866SOL    HW230498   6.472   4.770   4.247
 9867SOL     OW30499   5.285   1.821   1.889
 9867SOL    HW130500   5.190   1.791   1.887
 9867SOL    HW230501   5.342   1.757   1.837
 9868SOL     OW30502   1.316   4.545   3.443
 9868SOL    HW130503   1.342   4.631   3.487
 9868SOL    HW230504   1.244   4.563   3.375
 9869SOL     OW30505   0.385   2.661   1.249
 9869SOL    HW130506   0.418   2.665   1.155
 9869SOL    HW230507   0.316   2.733   1.263
 9870SOL     OW30508   3.625   1.215   1.843
 9870SOL    HW130509   3.546   1.219   1.781
 9870SOL    HW230510   3.627   1.298   1.899
 9871SOL     OW30511   6.962   3.580   5.397
 9871SOL    HW130512   6.943   3.487   5.367
 9871SOL    HW230513   6.924   3.645   5.331
 9872SOL     OW30514   2.385   5.543   5.256
 9872SOL    HW130515   2.370   5.584   5.167
 9872SOL    HW230516   2.392   5.444   5.247
 9873SOL     OW30517   2.014   2.060   6.182
 9873SOL    HW130518   2.010   2.130   6.254
 9873SOL    HW230519   2.110   2.038   6.163
 9874SOL     OW30520   0.683   2.551   4.944
 9874SOL    HW130521   0.655   2.490   4.870
 9874SOL    HW230522   0.741   2.624   4.907
 9875SOL     OW30523   6.703   6.145   0.757
 9875SOL    HW130524   6.763   6.119   0.682
 9875SOL    HW230525   6.758   6.162   0.839
 9876SOL     OW30526   2.743   6.813   3.128
 9876SOL    HW130527   2.671   6.785   3.193
 9876SOL    HW230528   2.798   6.885   3.170
 9877SOL     OW30529   0.536   5.018   4.783
 9877SOL    HW130530   0.613   4.961   4.814
 9877SOL    HW230531   0.567   5.076   4.707
 9878SOL     OW30532   1.891   3.251   0.116
 9878SOL    HW130533   1.958   3.324   0.130
 9878SOL    HW230534   1.829   3.247   0.195
 9879SOL     OW30535   1.576   4.418   6.086
 9879SOL    HW130536   1.562   4.349   6.015
 9879SOL    HW230537   1.673   4.424   6.108
 9880SOL     OW30538   2.316   1.650   0.025
 9880SOL    HW130539   2.225   1.629   0.062
 9880SOL    HW230540   2.386   1.615   0.088
 9881SOL     OW30541   5.089   0.724   4.770
 9881SOL    HW130542   5.070   0.819   4.796
 9881SOL    HW230543   5.171   0.693   4.816
 9882SOL     OW30544   3.579   2.939   4.386
 9882SOL    HW130545   3.565   2.906   4.480
 9882SOL    HW230546   3.644   3.014   4.386
 9883SOL     OW30547   1.986   6.271   1.077
 9883SOL    HW130548   2.020   6.282   1.171
 9883SOL    HW230549   2.059   6.234   1.020
 9884SOL     OW30550   1.518   3.200   6.713
 9884SOL    HW130551   1.528   3.154   6.625
 9884SOL    HW230552   1.608   3.220   6.751
 9885SOL     OW30553   6.599   3.215   3.732
 9885SOL    HW130554   6.664   3.231   3.807
 9885SOL    HW230555   6.563   3.303   3.701
 9886SOL     OW30556   5.217   6.288   1.527
 9886SOL    HW130557   5.216   6.384   1.502
 9886SOL    HW230558   5.245   6.278   1.623
 9887SOL     OW30559   3.933   6.274   0.435
 9887SOL    HW130560   3.959   6.359   0.388
 9887SOL    HW230561   3.957   6.196   0.377
 9888SOL     OW30562   5.549   5.965   2.533
 9888SOL    HW130563   5.620   5.928   2.592
 9888SOL    HW230564   5.583   6.049   2.490
 9889SOL     OW30565   0.237   4.908   3.034
 9889SOL    HW130566   0.328   4.886   3.070
 9889SOL    HW230567   0.237   5.003   3.001
 9890SOL     OW30568   6.309   3.529   1.046
 9890SOL    HW130569   6.236   3.591   1.019
 9890SOL    HW230570   6.378   3.526   0.974
 9891SOL     OW30571   4.845   5.309   0.562
 9891SOL    HW130572   4.917   5.280   0.625
 9891SOL    HW230573   4.843   5.248   0.483
 9892SOL     OW30574   2.068   5.671   4.111
 9892SOL    HW130575   2.085   5.618   4.028
 9892SOL    HW230576   2.142   5.738   4.124
 9893SOL     OW30577   5.906   5.139   3.152
 9893SOL    HW130578   5.883   5.051   3.110
 9893SOL    HW230579   5.850   5.211   3.112
 9894SOL     OW30580   3.754   2.383   5.805
 9894SOL    HW130581   3.673   2.356   5.754
 9894SOL    HW230582   3.755   2.483   5.815
 9895SOL     OW30583   5.592   2.998   6.551
 9895SOL    HW130584   5.546   3.086   6.569
 9895SOL    HW230585   5.561   2.962   6.463
 9896SOL     OW30586   3.628   3.259   0.837
 9896SOL    HW130587   3.664   3.350   0.816
 9896SOL    HW230588   3.688   3.215   0.904
 9897SOL     OW30589   5.039   1.562   2.578
 9897SOL    HW130590   5.106   1.516   2.637
 9897SOL    HW230591   4.958   1.586   2.633
 9898SOL     OW30592   0.968   5.537   5.253
 9898SOL    HW130593   0.881   5.555   5.207
 9898SOL    HW230594   1.025   5.480   5.194
 9899SOL     OW30595   5.028   4.939   2.232
 9899SOL    HW130596   4.950   4.950   2.294
 9899SOL    HW230597   5.088   4.867   2.267
 9900SOL     OW30598   1.740   2.106   3.899
 9900SOL    HW130599   1.790   2.182   3.939
 9900SOL    HW230600   1.672   2.140   3.834
 9901SOL     OW30601   2.335   2.549   6.333
 9901SOL    HW130602   2.392   2.488   6.389
 9901SOL    HW230603   2.305   2.626   6.389
 9902SOL     OW30604   3.724   3.758   0.875
 9902SOL    HW130605   3.719   3.675   0.819
 9902SOL    HW230606   3.784   3.741   0.953
 9903SOL     OW30607   4.524   2.138   2.436
 9903SOL    HW130608   4.506   2.102   2.345
 9903SOL    HW230609   4.513   2.238   2.436
 9904SOL     OW30610   6.757   2.402   0.089
 9904SOL    HW130611   6.745   2.451   0.175
 9904SOL    HW230612   6.853   2.377   0.077
 9905SOL     OW30613   1.440   6.576   6.312
 9905SOL    HW130614   1.480   6.493   6.273
 9905SOL    HW230615   1.513   6.642   6.333
 9906SOL     OW30616   2.093   3.043   6.365
 9906SOL    HW130617   2.095   3.086   6.455
 9906SOL    HW230618   2.016   2.979   6.360
 9907SOL     OW30619   2.325   5.978   3.359
 9907SOL    HW130620   2.258   5.929   3.303
 9907SOL    HW230621   2.392   5.913   3.394
 9908SOL     OW30622   0.363   3.525   6.355
 9908SOL    HW130623   0.436   3.510   6.288
 9908SOL    HW230624   0.341   3.623   6.358
 9909SOL     OW30625   3.341   1.237   2.688
 9909SOL    HW130626   3.256   1.277   2.722
 9909SOL    HW230627   3.344   1.244   2.588
 9910SOL     OW30628   6.366   4.631   0.779
 9910SOL    HW130629   6.425   4.700   0.736
 9910SOL    HW230630   6.374   4.638   0.878
 9911SOL     OW30631   4.550   4.912   3.274
 9911SOL    HW130632   4.483   4.980   3.244
 9911SOL    HW230633   4.598   4.946   3.355
 9912SOL     OW30634   5.052   0.323   2.040
 9912SOL    HW130635   5.098   0.286   2.121
 9912SOL    HW230636   4.978   0.384   2.069
 9913SOL     OW30637   5.488   2.886   3.103
 9913SOL    HW130638   5.475   2.832   3.020
 9913SOL    HW230639   5.417   2.862   3.169
 9914SOL     OW30640   1.547   0.105   5.163
 9914SOL    HW130641   1.586   0.062   5.082
 9914SOL    HW230642   1.551   0.205   5.154
 9915SOL     OW30643   4.890   3.579   4.125
 9915SOL    HW130644   4.852   3.646   4.062
 9915SOL    HW230645   4.906   3.493   4.077
 9916SOL     OW30646   2.172   2.975   2.305
 9916SOL    HW130647   2.231   3.054   2.319
 9916SOL    HW230648   2.076   3.002   2.318
 9917SOL     OW30649   3.240   4.095   5.566
 9917SOL    HW130650   3.166   4.161   5.554
 9917SOL    HW230651   3.319   4.141   5.605
 9918SOL     OW30652   1.998   1.592   6.399
 9918SOL    HW130653   2.094   1.610   6.380
 9918SOL    HW230654   1.962   1.666   6.456
 9919SOL     OW30655   1.372   5.811   2.279
 9919SOL    HW130656   1.462   5.766   2.280
 9919SOL    HW230657   1.384   5.908   2.299
 9920SOL     OW30658   3.640   6.037   1.465
 9920SOL    HW130659   3.682   6.062   1.378
 9920SOL    HW230660   3.563   5.975   1.449
 9921SOL     OW30661   6.139   0.005   3.037
 9921SOL    HW130662   6.200   0.044   2.969
 9921SOL    HW230663   6.192   6.976   3.102
 9922SOL     OW30664   4.479   4.298   0.657
 9922SOL    HW130665   4.542   4.329   0.729
 9922SOL    HW230666   4.406   4.244   0.698
 9923SOL     OW30667   6.590   2.092   6.461
 9923SOL    HW130668   6.668   2.062   6.406
 9923SOL    HW230669   6.619   2.107   6.555
 9924SOL     OW30670   6.560   1.391   2.974
 9924SOL    HW130671   6.633   1.336   2.934
 9924SOL    HW230672   6.472   1.350   2.951
 9925SOL     OW30673   2.617   3.875   5.746
 9925SOL    HW130674   2.535   3.927   5.768
 9925SOL    HW230675   2.595   3.777   5.743
 9926SOL     OW30676   1.301   1.455   1.050
 9926SOL    HW130677   1.375   1.519   1.069
 9926SOL    HW230678   1.337   1.362   1.049
 9927SOL     OW30679   0.254   2.060   2.525
 9927SOL    HW130680   0.174   2.008   2.552
 9927SOL    HW230681   0.256   2.146   2.577
 9928SOL     OW30682   0.619   3.854   2.095
 9928SOL    HW130683   0.631   3.942   2.141
 9928SOL    HW230684   0.702   3.831   2.044
 9929SOL     OW30685   3.503   4.370   6.207
 9929SOL    HW130686   3.593   4.342   6.241
 9929SOL    HW230687   3.439   4.377   6.284
 9930SOL     OW30688   6.725   0.080   6.540
 9930SOL    HW130689   6.811   0.029   6.538
 9930SOL    HW230690   6.669   0.055   6.462
 9931SOL     OW30691   1.633   6.404   5.464
 9931SOL    HW130692   1.696   6.342   5.418
 9931SOL    HW230693   1.639   6.494   5.421
 9932SOL     OW30694   2.009   1.650   0.783
 9932SOL    HW130695   1.928   1.645   0.724
 9932SOL    HW230696   1.981   1.673   0.876
 9933SOL     OW30697   2.583   1.146   3.174
 9933SOL    HW130698   2.516   1.075   3.155
 9933SOL    HW230699   2.551   1.204   3.249
 9934SOL     OW30700   5.637   1.769   6.405
 9934SOL    HW130701   5.661   1.814   6.491
 9934SOL    HW230702   5.590   1.834   6.345
 9935SOL     OW30703   2.908   2.010   0.258
 9935SOL    HW130704   2.921   2.005   0.357
 9935SOL    HW230705   2.979   1.957   0.212
 9936SOL     OW30706   5.204   5.686   5.718
 9936SOL    HW130707   5.218   5.720   5.810
 9936SOL    HW230708   5.107   5.665   5.704
 9937SOL     OW30709   0.320   0.256   2.878
 9937SOL    HW130710   0.250   0.248   2.949
 9937SOL    HW230711   0.326   0.351   2.847
 9938SOL     OW30712   6.743   0.863   4.704
 9938SOL    HW130713   6.746   0.765   4.684
 9938SOL    HW230714   6.723   0.913   4.620
 9939SOL     OW30715   2.148   3.700   0.686
 9939SOL    HW130716   2.196   3.788   0.681
 9939SOL    HW230717   2.092   3.697   0.769
 9940SOL     OW30718   0.380   7.015   2.830
 9940SOL    HW130719   0.347   0.080   2.858
 9940SOL    HW230720   0.478   7.020   2.810
 9941SOL     OW30721   4.193   4.842   5.648
 9941SOL    HW130722   4.192   4.747   5.677
 9941SOL    HW230723   4.261   4.893   5.701
 9942SOL     OW30724   4.517   4.500   3.635
 9942SOL    HW130725   4.589   4.567   3.653
 9942SOL    HW230726   4.437   4.547   3.596
 9943SOL     OW30727   2.005   3.880   0.294
 9943SOL    HW130728   1.955   3.911   0.213
 9943SOL    HW230729   2.043   3.959   0.342
 9944SOL     OW30730   1.593   4.981   0.152
 9944SOL    HW130731   1.693   4.971   0.144
 9944SOL    HW230732   1.549   4.896   0.123
 9945SOL     OW30733   6.088   3.899   0.218
 9945SOL    HW130734   6.096   3.921   0.315
 9945SOL    HW230735   6.077   3.801   0.206
 9946SOL     OW30736   5.425   1.248   2.721
 9946SOL    HW130737   5.407   1.149   2.724
 9946SOL    HW230738   5.512   1.267   2.765
 9947SOL     OW30739   1.408   1.641   4.295
 9947SOL    HW130740   1.370   1.619   4.205
 9947SOL    HW230741   1.424   1.739   4.302
 9948SOL     OW30742   6.354   0.532   3.992
 9948SOL    HW130743   6.431   0.499   3.937
 9948SOL    HW230744   6.342   0.630   3.977
 9949SOL     OW30745   6.544   4.243   4.737
 9949SOL    HW130746   6.495   4.196   4.811
 9949SOL    HW230747   6.540   4.188   4.654
 9950SOL     OW30748   6.721   5.408   5.645
 9950SOL    HW130749   6.677   5.462   5.717
 9950SOL    HW230750   6.815   5.388   5.671
 9951SOL     OW30751   0.832   2.848   2.670
 9951SOL    HW130752   0.872   2.781   2.607
 9951SOL    HW230753   0.783   2.918   2.617
 9952SOL     OW30754   0.665   4.450   1.740
 9952SOL    HW130755   0.677   4.549   1.728
 9952SOL    HW230756   0.743   4.413   1.791
 9953SOL     OW30757   5.921   2.599   3.535
 9953SOL    HW130758   6.017   2.585   3.557
 9953SOL    HW230759   5.880   2.662   3.601
 9954SOL     OW30760   2.976   1.739   5.751
 9954SOL    HW130761   2.965   1.758   5.653
 9954SOL    HW230762   3.034   1.659   5.763
 9955SOL     OW30763   5.012   3.443   1.108
 9955SOL    HW130764   5.090   3.502   1.127
 9955SOL    HW230765   4.971   3.469   1.020
 9956SOL     OW30766   1.645   4.798   3.061
 9956SOL    HW130767   1.627   4.840   2.973
 9956SOL    HW230768   1.690   4.709   3.047
 9957SOL     OW30769   5.482   6.845   1.762
 9957SOL    HW130770   5.453   6.756   1.727
 9957SOL    HW230771   5.539   6.832   1.843
 9958SOL     OW30772   3.961   4.844   5.902
 9958SOL    HW130773   3.909   4.765   5.932
 9958SOL    HW230774   3.907   4.927   5.914
 9959SOL     OW30775   4.334   4.088   1.161
 9959SOL    HW130776   4.327   4.124   1.254
 9959SOL    HW230777   4.253   4.114   1.108
 9960SOL     OW30778   6.761   6.805   0.265
 9960SOL    HW130779   6.703   6.735   0.222
 9960SOL    HW230780   6.801   6.864   0.194
 9961SOL     OW30781   2.073   4.328   1.909
 9961SOL    HW130782   2.032   4.408   1.954
 9961SOL    HW230783   2.165   4.352   1.878
 9962SOL     OW30784   3.387   5.159   2.698
 9962SOL    HW130785   3.469   5.125   2.650
 9962SOL    HW230786   3.415   5.210   2.779
 9963SOL     OW30787   1.828   1.363   0.708
 9963SOL    HW130788   1.889   1.387   0.784
 9963SOL    HW230789   1.799   1.447   0.662
 9964SOL     OW30790   4.823   4.327   5.577
 9964SOL    HW130791   4.755   4.398   5.559
 9964SOL    HW230792   4.829   4.266   5.498
 9965SOL     OW30793   2.921   5.895   5.319
 9965SOL    HW130794   2.958   5.952   5.246
 9965SOL    HW230795   2.925   5.799   5.291
 9966SOL     OW30796   2.778   4.845   2.334
 9966SOL    HW130797   2.793   4.757   2.288
 9966SOL    HW230798   2.680   4.859   2.347
 9967SOL     OW30799   6.821   0.084   2.353
 9967SOL    HW130800   6.733   0.091   2.306
 9967SOL    HW230801   6.870   0.003   2.320
 9968SOL     OW30802   4.231   6.259   0.289
 9968SOL    HW130803   4.166   6.269   0.214
 9968SOL    HW230804   4.217   6.333   0.355
 9969SOL     OW30805   1.285   4.526   4.712
 9969SOL    HW130806   1.246   4.503   4.623
 9969SOL    HW230807   1.384   4.538   4.703
 9970SOL     OW30808   5.607   5.032   2.065
 9970SOL    HW130809   5.627   4.948   2.014
 9970SOL    HW230810   5.547   5.090   2.011
 9971SOL     OW30811   1.671   3.059   1.945
 9971SOL    HW130812   1.723   3.009   1.877
 9971SOL    HW230813   1.573   3.037   1.936
 9972SOL     OW30814   3.767   3.920   0.474
 9972SOL    HW130815   3.814   3.900   0.389
 9972SOL    HW230816   3.817   3.992   0.523
 9973SOL     OW30817   3.866   1.691   4.002
 9973SOL    HW130818   3.952   1.686   3.952
 9973SOL    HW230819   3.872   1.763   4.071
 9974SOL     OW30820   0.037   2.135   3.477
 9974SOL    HW130821   0.026   2.231   3.504
 9974SOL    HW230822   0.074   2.130   3.384
 9975SOL     OW30823   1.031   5.243   6.440
 9975SOL    HW130824   1.084   5.186   6.378
 9975SOL    HW230825   1.024   5.336   6.403
 9976SOL     OW30826   2.196   4.918   5.827
 9976SOL    HW130827   2.121   4.857   5.851
 9976SOL    HW230828   2.198   4.995   5.891
 9977SOL     OW30829   5.247   5.491   4.523
 9977SOL    HW130830   5.157   5.479   4.480
 9977SOL    HW230831   5.281   5.584   4.504
 9978SOL     OW30832   0.353   2.079   6.232
 9978SOL    HW130833   0.386   2.156   6.178
 9978SOL    HW230834   0.389   1.994   6.195
 9979SOL     OW30835   5.054   3.229   5.442
 9979SOL    HW130836   4.982   3.175   5.485
 9979SOL    HW230837   5.143   3.200   5.476
 9980SOL     OW30838   1.421   0.872   0.239
 9980SOL    HW130839   1.408   0.918   0.151
 9980SOL    HW230840   1.334   0.833   0.270
 9981SOL     OW30841   0.863   2.207   1.032
 9981SOL    HW130842   0.836   2.128   1.087
 9981SOL    HW230843   0.809   2.287   1.058
 9982SOL     OW30844   2.497   1.295   5.128
 9982SOL    HW130845   2.587   1.283   5.171
 9982SOL    HW230846   2.468   1.389   5.139
 9983SOL     OW30847   6.456   2.849   2.400
 9983SOL    HW130848   6.452   2.750   2.393
 9983SOL    HW230849   6.551   2.880   2.393
 9984SOL     OW30850   0.500   6.257   1.372
 9984SOL    HW130851   0.460   6.271   1.463
 9984SOL    HW230852   0.426   6.243   1.305
 9985SOL     OW30853   3.452   5.024   0.715
 9985SOL    HW130854   3.497   5.085   0.651
 9985SOL    HW230855   3.455   5.064   0.807
 9986SOL     OW30856   4.946   4.367   0.609
 9986SOL    HW130857   4.928   4.395   0.514
 9986SOL    HW230858   5.042   4.384   0.631
 9987SOL     OW30859   5.706   3.232   1.774
 9987SOL    HW130860   5.749   3.312   1.817
 9987SOL    HW230861   5.772   3.187   1.715
 9988SOL     OW30862   5.990   5.933   4.296
 9988SOL    HW130863   6.079   5.918   4.254
 9988SOL    HW230864   5.940   6.003   4.245
 9989SOL     OW30865   6.342   3.854   1.174
 9989SOL    HW130866   6.440   3.872   1.178
 9989SOL    HW230867   6.293   3.931   1.215
 9990SOL     OW30868   0.573   6.592   3.283
 9990SOL    HW130869   0.610   6.684   3.297
 9990SOL    HW230870   0.572   6.543   3.370
 9991SOL     OW30871   1.762   3.928   3.579
 9991SOL    HW130872   1.763   4.028   3.570
 9991SOL    HW230873   1.787   3.903   3.672
 9992SOL     OW30874   3.361   4.281   0.908
 9992SOL    HW130875   3.268   4.265   0.874
 9992SOL    HW230876   3.426   4.274   0.831
 9993SOL     OW30877   3.717   6.000   4.305
 9993SOL    HW130878   3.663   6.017   4.223
 9993SOL    HW230879   3.725   6.085   4.358
 9994SOL     OW30880   0.393   4.162   4.456
 9994SOL    HW130881   0.358   4.076   4.419
 9994SOL    HW230882   0.371   4.237   4.393
 9995SOL     OW30883   2.878   0.611   4.685
 9995SOL    HW130884   2.969   0.612   4.644
 9995SOL    HW230885   2.845   0.705   4.696
 9996SOL     OW30886   2.455   4.184   0.628
 9996SOL    HW130887   2.525   4.125   0.669
 9996SOL    HW230888   2.430   4.147   0.539
 9997SOL     OW30889   5.607   1.639   3.931
 9997SOL    HW130890   5.661   1.640   3.847
 9997SOL    HW230891   5.522   1.688   3.917
 9998SOL     OW30892   4.829   4.097   2.509
 9998SOL    HW130893   4.865   4.026   2.570
 9998SOL    HW230894   4.844   4.071   2.414
 9999SOL     OW30895   0.844   0.041   3.775
 9999SOL    HW130896   0.921   0.102   3.797
 9999SOL    HW230897   0.822   0.049   3.678
10000SOL     OW30898   5.456   1.723   1.671
10000SOL    HW130899   5.386   1.671   1.621
10000SOL    HW230900   5.536   1.665   1.687
10001SOL     OW30901   2.974   6.553   2.447
10001SOL    HW130902   2.878   6.555   2.421
10001SOL    HW230903   3.031   6.556   2.365
10002SOL     OW30904   2.319   1.169   0.671
10002SOL    HW130905   2.288   1.105   0.600
10002SOL    HW230906   2.275   1.257   0.658
10003SOL     OW30907   2.458   1.375   2.429
10003SOL    HW130908   2.428   1.383   2.334
10003SOL    HW230909   2.541   1.429   2.444
10004SOL     OW30910   5.285   4.802   4.915
10004SOL    HW130911   5.242   4.833   4.830
10004SOL    HW230912   5.228   4.731   4.956
10005SOL     OW30913   2.738   5.535   3.843
10005SOL    HW130914   2.805   5.602   3.875
10005SOL    HW230915   2.778   5.482   3.768
10006SOL     OW30916   5.884   0.148   5.494
10006SOL    HW130917   5.967   0.201   5.513
10006SOL    HW230918   5.908   0.066   5.441
10007SOL     OW30919   0.600   3.847   4.640
10007SOL    HW130920   0.672   3.799   4.691
10007SOL    HW230921   0.609   3.945   4.655
10008SOL     OW30922   3.593   1.994   4.213
10008SOL    HW130923   3.686   1.995   4.178
10008SOL    HW230924   3.558   1.901   4.214
10009SOL     OW30925   1.877   3.692   1.685
10009SOL    HW130926   1.962   3.640   1.674
10009SOL    HW230927   1.844   3.682   1.779
10010SOL     OW30928   2.725   5.003   6.579
10010SOL    HW130929   2.685   5.077   6.633
10010SOL    HW230930   2.710   4.915   6.626
10011SOL     OW30931   0.117   4.342   0.815
10011SOL    HW130932   0.176   4.269   0.849
10011SOL    HW230933   0.174   4.417   0.781
10012SOL     OW30934   4.865   0.819   2.171
10012SOL    HW130935   4.925   0.791   2.246
10012SOL    HW230936   4.787   0.870   2.208
10013SOL     OW30937   1.520   4.541   5.130
10013SOL    HW130938   1.558   4.575   5.044
10013SOL    HW230939   1.421   4.554   5.130
10014SOL     OW30940   0.992   6.404   2.362
10014SOL    HW130941   1.007   6.499   2.389
10014SOL    HW230942   1.080   6.362   2.337
10015SOL     OW30943   4.025   5.141   6.686
10015SOL    HW130944   4.007   5.095   6.599
10015SOL    HW230945   3.948   5.201   6.708
10016SOL     OW30946   1.806   1.764   4.842
10016SOL    HW130947   1.732   1.820   4.806
10016SOL    HW230948   1.788   1.668   4.821
10017SOL     OW30949   2.464   1.699   2.580
10017SOL    HW130950   2.414   1.686   2.494
10017SOL    HW230951   2.559   1.724   2.560
10018SOL     OW30952   6.632   4.158   5.605
10018SOL    HW130953   6.643   4.180   5.702
10018SOL    HW230954   6.542   4.116   5.591
10019SOL     OW30955   0.076   1.504   3.388
10019SOL    HW130956   7.013   1.478   3.349
10019SOL    HW230957   0.071   1.599   3.421
10020SOL     OW30958   0.207   0.958   1.695
10020SOL    HW130959   0.128   1.010   1.729
10020SOL    HW230960   0.291   1.007   1.717
10021SOL     OW30961   1.089   3.289   1.549
10021SOL    HW130962   1.137   3.353   1.609
10021SOL    HW230963   1.129   3.198   1.558
10022SOL     OW30964   1.778   6.135   6.986
10022SOL    HW130965   1.878   6.130   6.986
10022SOL    HW230966   1.740   6.048   7.018
10023SOL     OW30967   2.725   6.133   5.704
10023SOL    HW130968   2.693   6.089   5.620
10023SOL    HW230969   2.824   6.124   5.711
10024SOL     OW30970   1.357   4.973   2.986
10024SOL    HW130971   1.305   4.922   2.917
10024SOL    HW230972   1.432   5.023   2.942
10025SOL     OW30973   1.963   3.176   1.735
10025SOL    HW130974   1.976   3.269   1.769
10025SOL    HW230975   2.017   3.164   1.652
10026SOL     OW30976   5.030   1.232   2.904
10026SOL    HW130977   5.059   1.321   2.938
10026SOL    HW230978   4.961   1.193   2.965
10027SOL     OW30979   0.832   2.763   5.343
10027SOL    HW130980   0.887   2.718   5.272
10027SOL    HW230981   0.884   2.766   5.428
10028SOL     OW30982   3.207   0.785   1.069
10028SOL    HW130983   3.130   0.722   1.065
10028SOL    HW230984   3.279   0.746   1.126
10029SOL     OW30985   0.250   2.998   4.687
10029SOL    HW130986   0.155   2.971   4.668
10029SOL    HW230987   0.294   3.027   4.602
10030SOL     OW30988   2.979   6.950   5.214
10030SOL    HW130989   2.931   6.866   5.188
10030SOL    HW230990   2.950   7.025   5.153
10031SOL     OW30991   4.542   4.910   4.557
10031SOL    HW130992   4.566   4.992   4.608
10031SOL    HW230993   4.458   4.927   4.504
10032SOL     OW30994   3.595   0.422   6.328
10032SOL    HW130995   3.575   0.509   6.372
10032SOL    HW230996   3.551   0.348   6.379
10033SOL     OW30997   4.325   1.237   4.212
10033SOL    HW130998   4.242   1.261   4.261
10033SOL    HW230999   4.372   1.321   4.183
10034SOL     OW31000   2.477   1.050   3.851
10034SOL    HW131001   2.396   0.995   3.873
10034SOL    HW231002   2.453   1.117   3.781
10035SOL     OW31003   5.677   3.989   0.800
10035SOL    HW131004   5.653   4.012   0.706
10035SOL    HW231005   5.770   3.952   0.803
10036SOL     OW31006   6.378   1.167   0.486
10036SOL    HW131007   6.402   1.073   0.509
10036SOL    HW231008   6.453   1.210   0.435
10037SOL     OW31009   6.539   0.001   6.312
10037SOL    HW131010   6.545   0.089   6.266
10037SOL    HW231011   6.515   6.956   6.245
10038SOL     OW31012   4.561   6.696   6.197
10038SOL    HW131013   4.642   6.664   6.246
10038SOL    HW231014   4.528   6.781   6.239
10039SOL     OW31015   4.772   6.071   4.487
10039SOL    HW131016   4.788   6.124   4.571
10039SOL    HW231017   4.757   5.975   4.510
10040SOL     OW31018   4.446   6.094   0.139
10040SOL    HW131019   4.404   6.182   0.161
10040SOL    HW231020   4.538   6.109   0.102
10041SOL     OW31021   5.998   5.266   5.374
10041SOL    HW131022   6.064   5.235   5.305
10041SOL    HW231023   5.906   5.258   5.336
10042SOL     OW31024   0.639   1.063   4.846
10042SOL    HW131025   0.589   1.026   4.924
10042SOL    HW231026   0.665   0.988   4.785
10043SOL     OW31027   0.657   0.405   2.932
10043SOL    HW131028   0.581   0.431   2.992
10043SOL    HW231029   0.645   0.448   2.843
10044SOL     OW31030   2.542   1.758   4.386
10044SOL    HW131031   2.605   1.694   4.342
10044SOL    HW231032   2.515   1.721   4.475
10045SOL     OW31033   4.862   0.171   3.969
10045SOL    HW131034   4.836   0.084   3.928
10045SOL    HW231035   4.782   0.230   3.979
10046SOL     OW31036   0.447   1.383   1.732
10046SOL    HW131037   0.437   1.481   1.711
10046SOL    HW231038   0.392   1.360   1.812
10047SOL     OW31039   6.290   3.515   4.934
10047SOL    HW131040   6.334   3.426   4.923
10047SOL    HW231041   6.232   3.534   4.855
10048SOL     OW31042   3.583   1.824   1.980
10048SOL    HW131043   3.622   1.798   2.068
10048SOL    HW231044   3.564   1.922   1.979
10049SOL     OW31045   0.764   0.773   6.540
10049SOL    HW131046   0.841   0.712   6.562
10049SOL    HW231047   0.795   0.868   6.546
10050SOL     OW31048   6.234   2.644   5.087
10050SOL    HW131049   6.301   2.626   5.159
10050SOL    HW231050   6.142   2.641   5.126
10051SOL     OW31051   6.547   2.686   4.655
10051SOL    HW131052   6.484   2.712   4.728
10051SOL    HW231053   6.641   2.696   4.687
10052SOL     OW31054   2.185   2.623   1.826
10052SOL    HW131055   2.176   2.715   1.864
10052SOL    HW231056   2.206   2.628   1.728
10053SOL     OW31057   3.874   5.222   1.933
10053SOL    HW131058   3.804   5.157   1.965
10053SOL    HW231059   3.833   5.286   1.868
10054SOL     OW31060   3.810   6.135   5.803
10054SOL    HW131061   3.795   6.143   5.902
10054SOL    HW231062   3.908   6.141   5.784
10055SOL     OW31063   6.444   2.613   5.296
10055SOL    HW131064   6.474   2.521   5.273
10055SOL    HW231065   6.522   2.666   5.331
10056SOL     OW31066   5.950   5.292   1.022
10056SOL    HW131067   5.971   5.368   0.961
10056SOL    HW231068   5.856   5.261   1.006
10057SOL     OW31069   3.425   0.771   4.376
10057SOL    HW131070   3.328   0.761   4.358
10057SOL    HW231071   3.441   0.851   4.434
10058SOL     OW31072   0.238   3.875   4.390
10058SOL    HW131073   0.303   3.838   4.323
10058SOL    HW231074   0.265   3.846   4.482
10059SOL     OW31075   4.941   6.796   0.782
10059SOL    HW131076   4.896   6.754   0.860
10059SOL    HW231077   5.004   6.867   0.814
10060SOL     OW31078   2.616   1.461   2.036
10060SOL    HW131079   2.656   1.544   1.996
10060SOL    HW231080   2.659   1.381   1.994
10061SOL     OW31081   4.901   1.264   4.211
10061SOL    HW131082   4.888   1.167   4.187
10061SOL    HW231083   4.893   1.320   4.128
10062SOL     OW31084   6.393   6.789   4.891
10062SOL    HW131085   6.396   6.691   4.909
10062SOL    HW231086   6.446   6.809   4.808
10063SOL     OW31087   1.827   1.732   3.189
10063SOL    HW131088   1.817   1.819   3.140
10063SOL    HW231089   1.866   1.663   3.127
10064SOL     OW31090   5.508   5.610   5.828
10064SOL    HW131091   5.500   5.588   5.926
10064SOL    HW231092   5.454   5.544   5.775
10065SOL     OW31093   2.075   0.485   1.907
10065SOL    HW131094   2.010   0.543   1.857
10065SOL    HW231095   2.133   0.437   1.842
10066SOL     OW31096   1.672   1.537   4.106
10066SOL    HW131097   1.641   1.623   4.064
10066SOL    HW231098   1.739   1.493   4.047
10067SOL     OW31099   5.400   4.112   6.014
10067SOL    HW131100   5.475   4.056   5.980
10067SOL    HW231101   5.370   4.175   5.942
10068SOL     OW31102   5.380   3.059   3.942
10068SOL    HW131103   5.420   3.134   3.996
10068SOL    HW231104   5.326   3.098   3.867
10069SOL     OW31105   1.773   5.626   3.933
10069SOL    HW131106   1.708   5.550   3.936
10069SOL    HW231107   1.817   5.637   4.022
10070SOL     OW31108   0.130   0.354   4.735
10070SOL    HW131109   0.121   0.376   4.638
10070SOL    HW231110   0.140   0.438   4.787
10071SOL     OW31111   4.955   5.321   3.975
10071SOL    HW131112   4.926   5.228   3.956
10071SOL    HW231113   5.055   5.326   3.971
10072SOL     OW31114   1.067   6.345   4.479
10072SOL    HW131115   1.136   6.416   4.485
10072SOL    HW231116   1.008   6.362   4.399
10073SOL     OW31117   6.425   4.167   4.469
10073SOL    HW131118   6.437   4.261   4.437
10073SOL    HW231119   6.481   4.105   4.414
10074SOL     OW31120   0.417   0.528   5.288
10074SOL    HW131121   0.433   0.534   5.387
10074SOL    HW231122   0.505   0.526   5.240
10075SOL     OW31123   1.460   1.951   2.480
10075SOL    HW131124   1.437   2.045   2.508
10075SOL    HW231125   1.559   1.940   2.480
10076SOL     OW31126   5.602   0.473   3.181
10076SOL    HW131127   5.692   0.456   3.141
10076SOL    HW231128   5.560   0.386   3.207
10077SOL     OW31129   3.424   2.391   6.871
10077SOL    HW131130   3.361   2.418   6.944
10077SOL    HW231131   3.375   2.335   6.804
10078SOL     OW31132   6.719   6.232   4.434
10078SOL    HW131133   6.813   6.268   4.437
10078SOL    HW231134   6.713   6.152   4.493
10079SOL     OW31135   1.083   3.216   2.147
10079SOL    HW131136   1.177   3.242   2.171
10079SOL    HW231137   1.065   3.244   2.052
10080SOL     OW31138   3.571   1.928   6.580
10080SOL    HW131139   3.543   1.882   6.665
10080SOL    HW231140   3.505   2.000   6.558
10081SOL     OW31141   0.143   0.179   6.683
10081SOL    HW131142   0.049   0.212   6.682
10081SOL    HW231143   0.186   0.202   6.770
10082SOL     OW31144   6.788   3.276   2.423
10082SOL    HW131145   6.744   3.366   2.412
10082SOL    HW231146   6.845   3.276   2.505
10083SOL     OW31147   5.235   1.077   3.128
10083SOL    HW131148   5.249   1.175   3.142
10083SOL    HW231149   5.212   1.061   3.032
10084SOL     OW31150   3.494   0.853   6.287
10084SOL    HW131151   3.492   0.783   6.358
10084SOL    HW231152   3.584   0.852   6.242
10085SOL     OW31153   0.208   5.530   2.300
10085SOL    HW131154   0.281   5.550   2.234
10085SOL    HW231155   0.204   5.601   2.369
10086SOL     OW31156   6.348   5.211   1.895
10086SOL    HW131157   6.356   5.286   1.960
10086SOL    HW231158   6.336   5.247   1.803
10087SOL     OW31159   0.701   0.091   4.147
10087SOL    HW131160   0.687   7.017   4.140
10087SOL    HW231161   0.622   0.139   4.110
10088SOL     OW31162   6.785   6.645   6.837
10088SOL    HW131163   6.708   6.690   6.793
10088SOL    HW231164   6.769   6.546   6.839
10089SOL     OW31165   2.375   2.453   3.093
10089SOL    HW131166   2.327   2.503   3.021
10089SOL    HW231167   2.443   2.393   3.053
10090SOL     OW31168   0.696   4.922   1.181
10090SOL    HW131169   0.656   4.908   1.272
10090SOL    HW231170   0.785   4.877   1.177
10091SOL     OW31171   0.999   3.099   4.692
10091SOL    HW131172   1.054   3.172   4.651
10091SOL    HW231173   0.915   3.087   4.639
10092SOL     OW31174   2.013   3.392   5.413
10092SOL    HW131175   2.078   3.359   5.344
10092SOL    HW231176   2.061   3.416   5.497
10093SOL     OW31177   0.967   3.931   4.534
10093SOL    HW131178   0.927   3.941   4.625
10093SOL    HW231179   0.945   4.011   4.479
10094SOL     OW31180   2.639   6.216   1.738
10094SOL    HW131181   2.585   6.142   1.778
10094SOL    HW231182   2.578   6.284   1.698
10095SOL     OW31183   6.254   2.168   5.524
10095SOL    HW131184   6.315   2.167   5.602
10095SOL    HW231185   6.163   2.199   5.553
10096SOL     OW31186   6.161   5.283   2.317
10096SOL    HW131187   6.217   5.211   2.276
10096SOL    HW231188   6.146   5.263   2.414
10097SOL     OW31189   1.017   0.831   6.988
10097SOL    HW131190   1.003   0.920   6.944
10097SOL    HW231191   1.099   0.833   0.019
10098SOL     OW31192   2.034   0.053   5.669
10098SOL    HW131193   2.079   7.024   5.740
10098SOL    HW231194   2.098   0.069   5.593
10099SOL     OW31195   6.966   5.343   6.303
10099SOL    HW131196   6.875   5.386   6.303
10099SOL    HW231197   0.003   5.396   6.360
10100SOL     OW31198   5.586   0.080   4.206
10100SOL    HW131199   5.591   0.035   4.117
10100SOL    HW231200   5.611   0.176   4.197
10101SOL     OW31201   5.860   4.030   1.604
10101SOL    HW131202   5.788   3.964   1.582
10101SOL    HW231203   5.901   4.065   1.520
10102SOL     OW31204   1.872   0.795   2.964
10102SOL    HW131205   1.917   0.766   2.879
10102SOL    HW231206   1.780   0.756   2.968
10103SOL     OW31207   2.776   1.257   5.244
10103SOL    HW131208   2.839   1.227   5.172
10103SOL    HW231209   2.771   1.186   5.314
10104SOL     OW31210   1.491   3.029   4.769
10104SOL    HW131211   1.479   3.018   4.671
10104SOL    HW231212   1.562   3.097   4.787
10105SOL     OW31213   1.261   1.165   0.203
10105SOL    HW131214   1.230   1.225   0.277
10105SOL    HW231215   1.286   1.220   0.123
10106SOL     OW31216   4.807   5.286   0.852
10106SOL    HW131217   4.828   5.323   0.943
10106SOL    HW231218   4.762   5.357   0.797
10107SOL     OW31219   0.312   1.758   6.874
10107SOL    HW131220   0.329   1.845   6.827
10107SOL    HW231221   0.277   1.777   6.966
10108SOL     OW31222   6.355   5.909   0.056
10108SOL    HW131223   6.376   5.811   0.054
10108SOL    HW231224   6.385   5.948   0.143
10109SOL     OW31225   3.317   6.299   2.199
10109SOL    HW131226   3.302   6.290   2.101
10109SOL    HW231227   3.242   6.255   2.249
10110SOL     OW31228   4.181   6.489   4.754
10110SOL    HW131229   4.231   6.407   4.726
10110SOL    HW231230   4.242   6.550   4.805
10111SOL     OW31231   6.249   2.698   4.568
10111SOL    HW131232   6.241   2.751   4.653
10111SOL    HW231233   6.317   2.742   4.509
10112SOL     OW31234   5.647   4.475   4.813
10112SOL    HW131235   5.733   4.524   4.801
10112SOL    HW231236   5.662   4.377   4.801
10113SOL     OW31237   3.913   1.444   5.983
10113SOL    HW131238   3.818   1.473   5.979
10113SOL    HW231239   3.940   1.404   5.895
10114SOL     OW31240   5.446   0.292   0.981
10114SOL    HW131241   5.528   0.293   1.038
10114SOL    HW231242   5.437   0.204   0.935
10115SOL     OW31243   3.330   2.129   3.596
10115SOL    HW131244   3.382   2.044   3.608
10115SOL    HW231245   3.292   2.132   3.504
10116SOL     OW31246   0.890   6.663   6.959
10116SOL    HW131247   0.968   6.663   6.897
10116SOL    HW231248   0.814   6.613   6.916
10117SOL     OW31249   7.006   0.144   4.518
10117SOL    HW131250   0.078   0.137   4.540
10117SOL    HW231251   6.952   0.120   4.599
10118SOL     OW31252   0.811   5.326   3.424
10118SOL    HW131253   0.730   5.291   3.471
10118SOL    HW231254   0.826   5.274   3.340
10119SOL     OW31255   1.321   6.497   4.706
10119SOL    HW131256   1.294   6.473   4.612
10119SOL    HW231257   1.419   6.483   4.717
10120SOL     OW31258   0.936   3.649   4.205
10120SOL    HW131259   1.003   3.723   4.193
10120SOL    HW231260   0.893   3.658   4.294
10121SOL     OW31261   6.601   4.953   5.821
10121SOL    HW131262   6.604   4.950   5.921
10121SOL    HW231263   6.584   5.047   5.791
10122SOL     OW31264   5.304   2.693   0.707
10122SOL    HW131265   5.256   2.771   0.668
10122SOL    HW231266   5.397   2.689   0.669
10123SOL     OW31267   6.496   6.428   0.289
10123SOL    HW131268   6.413   6.373   0.286
10123SOL    HW231269   6.481   6.510   0.345
10124SOL     OW31270   1.694   3.440   6.800
10124SOL    HW131271   1.775   3.488   6.767
10124SOL    HW231272   1.720   3.351   6.838
10125SOL     OW31273   1.454   0.911   2.605
10125SOL    HW131274   1.402   0.995   2.588
10125SOL    HW231275   1.477   0.868   2.517
10126SOL     OW31276   0.561   0.137   6.634
10126SOL    HW131277   0.550   0.146   6.733
10126SOL    HW231278   0.491   0.190   6.587
10127SOL     OW31279   2.784   4.837   5.805
10127SOL    HW131280   2.691   4.807   5.827
10127SOL    HW231281   2.801   4.823   5.708
10128SOL     OW31282   1.009   1.690   1.250
10128SOL    HW131283   1.024   1.769   1.309
10128SOL    HW231284   1.053   1.609   1.291
10129SOL     OW31285   5.084   3.004   4.196
10129SOL    HW131286   5.168   2.997   4.142
10129SOL    HW231287   5.106   3.038   4.288
10130SOL     OW31288   2.253   4.181   2.336
10130SOL    HW131289   2.268   4.272   2.298
10130SOL    HW231290   2.273   4.112   2.267
10131SOL     OW31291   0.509   0.898   2.957
10131SOL    HW131292   0.575   0.917   3.029
10131SOL    HW231293   0.543   0.823   2.900
10132SOL     OW31294   2.702   6.863   3.926
10132SOL    HW131295   2.660   6.814   3.850
10132SOL    HW231296   2.797   6.883   3.905
10133SOL     OW31297   4.809   5.811   1.634
10133SOL    HW131298   4.717   5.802   1.674
10133SOL    HW231299   4.869   5.740   1.672
10134SOL     OW31300   6.720   7.000   3.841
10134SOL    HW131301   6.749   0.069   3.853
10134SOL    HW231302   6.793   6.947   3.799
10135SOL     OW31303   5.323   3.311   3.272
10135SOL    HW131304   5.374   3.233   3.233
10135SOL    HW231305   5.311   3.297   3.370
10136SOL     OW31306   5.824   0.426   2.784
10136SOL    HW131307   5.894   0.413   2.714
10136SOL    HW231308   5.778   0.513   2.770
10137SOL     OW31309   6.071   4.520   3.960
10137SOL    HW131310   6.070   4.558   4.052
10137SOL    HW231311   6.135   4.443   3.956
10138SOL     OW31312   5.197   2.189   0.800
10138SOL    HW131313   5.268   2.171   0.732
10138SOL    HW231314   5.109   2.200   0.754
10139SOL     OW31315   3.677   3.453   3.302
10139SOL    HW131316   3.585   3.414   3.307
10139SOL    HW231317   3.673   3.551   3.322
10140SOL     OW31318   6.585   6.237   5.823
10140SOL    HW131319   6.644   6.174   5.873
10140SOL    HW231320   6.584   6.212   5.726
10141SOL     OW31321   3.206   1.300   4.221
10141SOL    HW131322   3.116   1.274   4.186
10141SOL    HW231323   3.197   1.382   4.277
10142SOL     OW31324   6.416   6.518   4.895
10142SOL    HW131325   6.368   6.431   4.882
10142SOL    HW231326   6.508   6.511   4.858
10143SOL     OW31327   4.611   0.655   0.502
10143SOL    HW131328   4.607   0.749   0.534
10143SOL    HW231329   4.594   0.652   0.404
10144SOL     OW31330   4.287   0.101   5.928
10144SOL    HW131331   4.232   0.032   5.881
10144SOL    HW231332   4.294   0.183   5.871
10145SOL     OW31333   3.440   5.778   6.028
10145SOL    HW131334   3.375   5.744   5.960
10145SOL    HW231335   3.497   5.703   6.062
10146SOL     OW31336   3.984   5.007   4.979
10146SOL    HW131337   3.921   5.033   4.906
10146SOL    HW231338   4.053   5.078   4.991
10147SOL     OW31339   5.245   4.678   5.236
10147SOL    HW131340   5.196   4.629   5.164
10147SOL    HW231341   5.185   4.692   5.315
10148SOL     OW31342   5.961   5.355   6.718
10148SOL    HW131343   5.901   5.433   6.736
10148SOL    HW231344   6.046   5.388   6.676
10149SOL     OW31345   5.841   1.938   1.087
10149SOL    HW131346   5.748   1.912   1.113
10149SOL    HW231347   5.855   2.035   1.106
10150SOL     OW31348   4.400   3.652   0.345
10150SOL    HW131349   4.318   3.599   0.367
10150SOL    HW231350   4.447   3.612   0.266
10151SOL     OW31351   1.317   6.553   0.156
10151SOL    HW131352   1.343   6.474   0.100
10151SOL    HW231353   1.351   6.636   0.112
10152SOL     OW31354   0.934   6.547   5.017
10152SOL    HW131355   0.965   6.641   5.001
10152SOL    HW231356   0.838   6.539   4.990
10153SOL     OW31357   5.288   5.942   3.797
10153SOL    HW131358   5.306   6.035   3.830
10153SOL    HW231359   5.270   5.944   3.699
10154SOL     OW31360   5.843   0.081   4.932
10154SOL    HW131361   5.804   0.123   5.014
10154SOL    HW231362   5.905   0.007   4.958
10155SOL     OW31363   3.527   2.054   5.763
10155SOL    HW131364   3.469   1.988   5.715
10155SOL    HW231365   3.594   2.092   5.699
10156SOL     OW31366   6.299   0.963   2.205
10156SOL    HW131367   6.227   0.911   2.253
10156SOL    HW231368   6.260   1.047   2.167
10157SOL     OW31369   5.979   3.170   6.343
10157SOL    HW131370   6.028   3.149   6.259
10157SOL    HW231371   5.926   3.090   6.372
10158SOL     OW31372   5.503   3.417   0.832
10158SOL    HW131373   5.479   3.367   0.915
10158SOL    HW231374   5.467   3.510   0.838
10159SOL     OW31375   3.243   3.308   6.079
10159SOL    HW131376   3.255   3.327   6.177
10159SOL    HW231377   3.274   3.216   6.059
10160SOL     OW31378   2.120   3.223   2.147
10160SOL    HW131379   2.174   3.301   2.115
10160SOL    HW231380   2.136   3.144   2.089
10161SOL     OW31381   3.657   3.368   6.432
10161SOL    HW131382   3.617   3.285   6.392
10161SOL    HW231383   3.691   3.347   6.524
10162SOL     OW31384   3.370   4.752   0.511
10162SOL    HW131385   3.316   4.794   0.584
10162SOL    HW231386   3.467   4.771   0.526
10163SOL     OW31387   5.461   5.251   5.775
10163SOL    HW131388   5.387   5.303   5.732
10163SOL    HW231389   5.475   5.166   5.724
10164SOL     OW31390   5.700   3.211   4.780
10164SOL    HW131391   5.685   3.283   4.848
10164SOL    HW231392   5.747   3.250   4.701
10165SOL     OW31393   0.652   1.920   3.233
10165SOL    HW131394   0.684   1.862   3.158
10165SOL    HW231395   0.588   1.988   3.198
10166SOL     OW31396   3.846   1.066   1.908
10166SOL    HW131397   3.778   1.132   1.876
10166SOL    HW231398   3.888   1.020   1.829
10167SOL     OW31399   3.144   2.600   6.382
10167SOL    HW131400   3.160   2.602   6.284
10167SOL    HW231401   3.053   2.638   6.401
10168SOL     OW31402   6.165   4.120   5.470
10168SOL    HW131403   6.208   4.187   5.531
10168SOL    HW231404   6.156   4.159   5.379
10169SOL     OW31405   6.120   4.019   3.341
10169SOL    HW131406   6.110   4.055   3.434
10169SOL    HW231407   6.031   4.018   3.296
10170SOL     OW31408   1.153   4.933   5.788
10170SOL    HW131409   1.080   4.992   5.754
10170SOL    HW231410   1.232   4.989   5.812
10171SOL     OW31411   6.741   3.213   5.520
10171SOL    HW131412   6.841   3.204   5.520
10171SOL    HW231413   6.701   3.134   5.566
10172SOL     OW31414   6.693   6.512   4.850
10172SOL    HW131415   6.745   6.482   4.770
10172SOL    HW231416   6.730   6.470   4.933
10173SOL     OW31417   0.891   2.605   0.889
10173SOL    HW131418   0.984   2.640   0.879
10173SOL    HW231419   0.853   2.637   0.976
10174SOL     OW31420   5.509   5.328   2.162
10174SOL    HW131421   5.491   5.421   2.196
10174SOL    HW231422   5.575   5.283   2.222
10175SOL     OW31423   5.901   2.304   3.772
10175SOL    HW131424   5.827   2.366   3.798
10175SOL    HW231425   5.963   2.291   3.850
10176SOL     OW31426   1.304   3.169   5.611
10176SOL    HW131427   1.344   3.228   5.542
10176SOL    HW231428   1.377   3.126   5.665
10177SOL     OW31429   2.246   0.687   0.470
10177SOL    HW131430   2.306   0.608   0.455
10177SOL    HW231431   2.160   0.656   0.511
10178SOL     OW31432   6.918   1.768   5.202
10178SOL    HW131433   6.826   1.775   5.241
10178SOL    HW231434   6.937   1.673   5.179
10179SOL     OW31435   0.773   2.092   6.166
10179SOL    HW131436   0.716   2.105   6.247
10179SOL    HW231437   0.865   2.063   6.193
10180SOL     OW31438   4.074   0.512   0.006
10180SOL    HW131439   4.171   0.536   0.009
10180SOL    HW231440   4.032   0.530   0.095
10181SOL     OW31441   5.237   2.709   2.220
10181SOL    HW131442   5.219   2.638   2.151
10181SOL    HW231443   5.331   2.740   2.212
10182SOL     OW31444   5.099   1.078   1.864
10182SOL    HW131445   5.175   1.092   1.801
10182SOL    HW231446   5.020   1.133   1.834
10183SOL     OW31447   0.178   2.327   6.395
10183SOL    HW131448   0.268   2.306   6.358
10183SOL    HW231449   0.167   2.427   6.401
10184SOL     OW31450   3.771   1.195   6.893
10184SOL    HW131451   3.749   1.200   6.796
10184SOL    HW231452   3.747   1.105   6.929
10185SOL     OW31453   5.453   5.895   1.875
10185SOL    HW131454   5.393   5.822   1.843
10185SOL    HW231455   5.545   5.881   1.839
10186SOL     OW31456   6.197   3.995   3.657
10186SOL    HW131457   6.137   3.996   3.736
10186SOL    HW231458   6.292   3.998   3.687
10187SOL     OW31459   0.739   3.016   0.919
10187SOL    HW131460   0.659   3.048   0.971
10187SOL    HW231461   0.711   2.991   0.827
10188SOL     OW31462   3.424   5.678   0.980
10188SOL    HW131463   3.463   5.723   0.899
10188SOL    HW231464   3.358   5.739   1.024
10189SOL     OW31465   1.091   0.849   6.349
10189SOL    HW131466   1.076   0.837   6.447
10189SOL    HW231467   1.010   0.818   6.299
10190SOL     OW31468   4.778   3.491   1.822
10190SOL    HW131469   4.731   3.415   1.777
10190SOL    HW231470   4.852   3.456   1.879
10191SOL     OW31471   5.053   5.046   5.520
10191SOL    HW131472   4.993   5.060   5.441
10191SOL    HW231473   5.148   5.047   5.491
10192SOL     OW31474   4.447   1.780   6.046
10192SOL    HW131475   4.366   1.808   6.097
10192SOL    HW231476   4.427   1.698   5.993
10193SOL     OW31477   4.146   3.633   2.291
10193SOL    HW131478   4.078   3.641   2.364
10193SOL    HW231479   4.237   3.631   2.331
10194SOL     OW31480   5.842   5.514   4.782
10194SOL    HW131481   5.885   5.509   4.872
10194SOL    HW231482   5.762   5.574   4.786
10195SOL     OW31483   6.065   5.554   0.982
10195SOL    HW131484   6.149   5.552   0.929
10195SOL    HW231485   6.006   5.628   0.949
10196SOL     OW31486   4.115   1.647   3.913
10196SOL    HW131487   4.139   1.618   4.005
10196SOL    HW231488   4.113   1.567   3.852
10197SOL     OW31489   6.481   2.328   5.168
10197SOL    HW131490   6.501   2.293   5.076
10197SOL    HW231491   6.567   2.349   5.214
10198SOL     OW31492   2.962   0.809   1.852
10198SOL    HW131493   3.046   0.773   1.811
10198SOL    HW231494   2.944   0.901   1.816
10199SOL     OW31495   2.730   2.439   6.765
10199SOL    HW131496   2.822   2.415   6.732
10199SOL    HW231497   2.733   2.452   6.864
10200SOL     OW31498   5.422   1.673   0.645
10200SOL    HW131499   5.502   1.633   0.602
10200SOL    HW231500   5.385   1.609   0.713
10201SOL     OW31501   1.481   4.487   0.584
10201SOL    HW131502   1.382   4.487   0.597
10201SOL    HW231503   1.514   4.582   0.582
10202SOL     OW31504   3.966   3.191   0.685
10202SOL    HW131505   4.027   3.264   0.717
10202SOL    HW231506   3.905   3.227   0.614
10203SOL     OW31507   6.447   3.008   3.833
10203SOL    HW131508   6.435   2.925   3.780
10203SOL    HW231509   6.498   3.075   3.780
10204SOL     OW31510   4.960   6.511   6.965
10204SOL    HW131511   4.894   6.586   6.958
10204SOL    HW231512   5.052   6.548   6.969
10205SOL     OW31513   2.050   0.939   1.540
10205SOL    HW131514   2.029   0.853   1.587
10205SOL    HW231515   1.972   0.964   1.482
10206SOL     OW31516   0.617   0.849   0.318
10206SOL    HW131517   0.616   0.751   0.300
10206SOL    HW231518   0.523   0.883   0.322
10207SOL     OW31519   1.417   1.640   6.590
10207SOL    HW131520   1.483   1.612   6.660
10207SOL    HW231521   1.406   1.739   6.592
10208SOL     OW31522   5.815   4.439   3.997
10208SOL    HW131523   5.828   4.340   4.001
10208SOL    HW231524   5.900   4.482   3.965
10209SOL     OW31525   6.922   0.280   6.613
10209SOL    HW131526   6.933   0.340   6.534
10209SOL    HW231527   6.851   0.211   6.593
10210SOL     OW31528   5.061   6.576   2.170
10210SOL    HW131529   5.130   6.505   2.182
10210SOL    HW231530   4.993   6.569   2.243
10211SOL     OW31531   4.115   6.377   4.301
10211SOL    HW131532   4.155   6.285   4.308
10211SOL    HW231533   4.106   6.402   4.205
10212SOL     OW31534   1.071   0.296   5.320
10212SOL    HW131535   1.158   0.325   5.280
10212SOL    HW231536   1.088   0.232   5.396
10213SOL     OW31537   4.914   2.949   0.946
10213SOL    HW131538   4.931   3.007   0.867
10213SOL    HW231539   4.999   2.903   0.972
10214SOL     OW31540   0.939   1.392   2.201
10214SOL    HW131541   0.912   1.387   2.297
10214SOL    HW231542   0.977   1.304   2.173
10215SOL     OW31543   4.070   3.189   3.475
10215SOL    HW131544   3.987   3.243   3.465
10215SOL    HW231545   4.149   3.250   3.483
10216SOL     OW31546   6.901   0.511   0.884
10216SOL    HW131547   6.833   0.484   0.816
10216SOL    HW231548   6.878   0.601   0.921
10217SOL     OW31549   2.815   1.669   3.305
10217SOL    HW131550   2.828   1.580   3.261
10217SOL    HW231551   2.893   1.689   3.364
10218SOL     OW31552   1.163   1.625   1.785
10218SOL    HW131553   1.182   1.620   1.883
10218SOL    HW231554   1.218   1.698   1.745
10219SOL     OW31555   0.105   2.438   2.968
10219SOL    HW131556   0.045   2.386   3.030
10219SOL    HW231557   0.065   2.439   2.877
10220SOL     OW31558   4.216   2.525   1.395
10220SOL    HW131559   4.250   2.433   1.411
10220SOL    HW231560   4.258   2.588   1.461
10221SOL     OW31561   0.481   5.244   3.308
10221SOL    HW131562   0.498   5.266   3.213
10221SOL    HW231563   0.555   5.187   3.344
10222SOL     OW31564   3.263   3.202   5.683
10222SOL    HW131565   3.218   3.263   5.618
10222SOL    HW231566   3.321   3.255   5.744
10223SOL     OW31567   0.455   4.627   1.488
10223SOL    HW131568   0.534   4.687   1.498
10223SOL    HW231569   0.439   4.579   1.574
10224SOL     OW31570   6.913   2.839   3.928
10224SOL    HW131571   6.941   2.935   3.930
10224SOL    HW231572   6.886   2.814   3.835
10225SOL     OW31573   1.892   4.782   5.969
10225SOL    HW131574   1.831   4.703   5.970
10225SOL    HW231575   1.866   4.842   5.893
10226SOL     OW31576   2.976   0.687   0.191
10226SOL    HW131577   3.057   0.746   0.195
10226SOL    HW231578   2.909   0.717   0.260
10227SOL     OW31579   5.050   4.471   0.163
10227SOL    HW131580   5.119   4.543   0.160
10227SOL    HW231581   5.052   4.420   0.077
10228SOL     OW31582   6.672   0.001   0.865
10228SOL    HW131583   6.655   0.033   0.958
10228SOL    HW231584   6.589   6.985   0.828
10229SOL     OW31585   1.222   2.747   5.029
10229SOL    HW131586   1.229   2.839   4.990
10229SOL    HW231587   1.310   2.700   5.019
10230SOL     OW31588   6.181   5.564   2.913
10230SOL    HW131589   6.235   5.642   2.945
10230SOL    HW231590   6.227   5.479   2.939
10231SOL     OW31591   0.770   5.787   4.941
10231SOL    HW131592   0.740   5.844   4.865
10231SOL    HW231593   0.708   5.709   4.951
10232SOL     OW31594   2.789   1.272   3.691
10232SOL    HW131595   2.866   1.312   3.642
10232SOL    HW231596   2.759   1.335   3.763
10233SOL     OW31597   3.971   3.984   4.974
10233SOL    HW131598   3.988   4.001   4.877
10233SOL    HW231599   3.874   4.000   4.995
10234SOL     OW31600   6.300   0.785   1.114
10234SOL    HW131601   6.220   0.732   1.141
10234SOL    HW231602   6.296   0.876   1.155
10235SOL     OW31603   1.905   2.253   2.146
10235SOL    HW131604   1.815   2.252   2.102
10235SOL    HW231605   1.974   2.224   2.080
10236SOL     OW31606   2.507   6.541   0.437
10236SOL    HW131607   2.576   6.612   0.451
10236SOL    HW231608   2.551   6.458   0.401
10237SOL     OW31609   6.868   3.163   0.361
10237SOL    HW131610   6.811   3.091   0.322
10237SOL    HW231611   6.938   3.189   0.294
10238SOL     OW31612   4.272   4.151   1.424
10238SOL    HW131613   4.289   4.124   1.519
10238SOL    HW231614   4.214   4.232   1.422
10239SOL     OW31615   1.120   2.449   5.100
10239SOL    HW131616   1.131   2.542   5.066
10239SOL    HW231617   1.023   2.431   5.116
10240SOL     OW31618   2.357   5.773   2.382
10240SOL    HW131619   2.371   5.872   2.384
10240SOL    HW231620   2.358   5.738   2.476
10241SOL     OW31621   5.424   0.850   2.275
10241SOL    HW131622   5.356   0.905   2.226
10241SOL    HW231623   5.472   0.909   2.340
10242SOL     OW31624   6.484   1.657   0.981
10242SOL    HW131625   6.532   1.726   0.928
10242SOL    HW231626   6.512   1.566   0.951
10243SOL     OW31627   2.605   4.270   1.602
10243SOL    HW131628   2.510   4.296   1.585
10243SOL    HW231629   2.648   4.338   1.661
10244SOL     OW31630   2.706   4.140   0.774
10244SOL    HW131631   2.786   4.127   0.716
10244SOL    HW231632   2.707   4.073   0.848
10245SOL     OW31633   3.892   4.175   1.200
10245SOL    HW131634   3.984   4.165   1.161
10245SOL    HW231635   3.871   4.096   1.256
10246SOL     OW31636   3.178   4.086   4.488
10246SOL    HW131637   3.120   4.041   4.556
10246SOL    HW231638   3.258   4.126   4.534
10247SOL     OW31639   6.958   3.760   6.061
10247SOL    HW131640   0.031   3.778   6.062
10247SOL    HW231641   6.939   3.681   6.003
10248SOL     OW31642   0.882   0.020   3.205
10248SOL    HW131643   0.819   7.000   3.141
10248SOL    HW231644   0.887   0.117   3.183
10249SOL     OW31645   2.650   5.302   6.449
10249SOL    HW131646   2.568   5.294   6.391
10249SOL    HW231647   2.725   5.250   6.408
10250SOL     OW31648   6.718   3.929   1.028
10250SOL    HW131649   6.799   3.935   1.085
10250SOL    HW231650   6.696   4.020   0.992
10251SOL     OW31651   2.044   1.361   4.306
10251SOL    HW131652   1.960   1.312   4.282
10251SOL    HW231653   2.024   1.459   4.310
10252SOL     OW31654   4.343   3.534   5.889
10252SOL    HW131655   4.287   3.559   5.968
10252SOL    HW231656   4.294   3.467   5.834
10253SOL     OW31657   2.893   6.233   0.795
10253SOL    HW131658   2.884   6.144   0.838
10253SOL    HW231659   2.983   6.272   0.818
10254SOL     OW31660   4.397   1.627   5.570
10254SOL    HW131661   4.350   1.651   5.485
10254SOL    HW231662   4.408   1.708   5.627
10255SOL     OW31663   2.754   6.881   0.797
10255SOL    HW131664   2.842   6.905   0.757
10255SOL    HW231665   2.750   6.782   0.811
10256SOL     OW31666   4.137   0.829   2.490
10256SOL    HW131667   4.136   0.735   2.454
10256SOL    HW231668   4.162   0.892   2.417
10257SOL     OW31669   1.253   5.441   4.244
10257SOL    HW131670   1.310   5.515   4.210
10257SOL    HW231671   1.240   5.451   4.342
10258SOL     OW31672   3.839   1.909   3.414
10258SOL    HW131673   3.808   1.835   3.473
10258SOL    HW231674   3.766   1.977   3.405
10259SOL     OW31675   1.130   4.184   3.652
10259SOL    HW131676   1.128   4.086   3.635
10259SOL    HW231677   1.062   4.208   3.722
10260SOL     OW31678   0.513   1.457   3.523
10260SOL    HW131679   0.513   1.552   3.492
10260SOL    HW231680   0.428   1.437   3.571
10261SOL     OW31681   6.526   4.823   0.660
10261SOL    HW131682   6.465   4.843   0.583
10261SOL    HW231683   6.609   4.778   0.626
10262SOL     OW31684   3.182   6.746   6.538
10262SOL    HW131685   3.197   6.657   6.496
10262SOL    HW231686   3.090   6.779   6.516
10263SOL     OW31687   5.849   0.249   0.542
10263SOL    HW131688   5.788   0.262   0.620
10263SOL    HW231689   5.802   0.278   0.458
10264SOL     OW31690   6.567   5.530   6.616
10264SOL    HW131691   6.559   5.434   6.641
10264SOL    HW231692   6.516   5.548   6.532
10265SOL     OW31693   3.788   2.601   6.803
10265SOL    HW131694   3.748   2.645   6.884
10265SOL    HW231695   3.723   2.605   6.728
10266SOL     OW31696   3.917   3.263   3.015
10266SOL    HW131697   3.876   3.326   2.948
10266SOL    HW231698   3.942   3.314   3.098
10267SOL     OW31699   5.146   0.909   0.975
10267SOL    HW131700   5.232   0.867   0.946
10267SOL    HW231701   5.152   1.008   0.963
10268SOL     OW31702   5.677   6.475   2.302
10268SOL    HW131703   5.669   6.412   2.225
10268SOL    HW231704   5.724   6.558   2.272
10269SOL     OW31705   1.380   2.514   5.897
10269SOL    HW131706   1.326   2.458   5.834
10269SOL    HW231707   1.377   2.610   5.868
10270SOL     OW31708   3.315   5.340   2.996
10270SOL    HW131709   3.373   5.259   3.011
10270SOL    HW231710   3.220   5.311   2.990
10271SOL     OW31711   3.010   2.638   6.718
10271SOL    HW131712   2.948   2.610   6.790
10271SOL    HW231713   2.976   2.720   6.673
10272SOL     OW31714   1.336   0.949   4.289
10272SOL    HW131715   1.265   0.891   4.328
10272SOL    HW231716   1.325   1.043   4.321
10273SOL     OW31717   3.062   5.154   4.068
10273SOL    HW131718   3.002   5.235   4.072
10273SOL    HW231719   3.155   5.181   4.092
10274SOL     OW31720   1.509   4.619   5.750
10274SOL    HW131721   1.464   4.534   5.723
10274SOL    HW231722   1.448   4.696   5.734
10275SOL     OW31723   0.332   0.581   1.949
10275SOL    HW131724   0.246   0.534   1.969
10275SOL    HW231725   0.314   0.661   1.892
10276SOL     OW31726   4.595   5.968   5.812
10276SOL    HW131727   4.554   6.011   5.892
10276SOL    HW231728   4.543   5.885   5.789
10277SOL     OW31729   1.457   6.166   4.710
10277SOL    HW131730   1.483   6.122   4.625
10277SOL    HW231731   1.463   6.101   4.786
10278SOL     OW31732   0.986   1.334   3.595
10278SOL    HW131733   1.017   1.254   3.646
10278SOL    HW231734   0.894   1.358   3.624
10279SOL     OW31735   1.833   5.255   4.104
10279SOL    HW131736   1.898   5.230   4.033
10279SOL    HW231737   1.824   5.179   4.169
10280SOL     OW31738   6.187   2.990   7.000
10280SOL    HW131739   6.236   2.971   6.915
10280SOL    HW231740   6.231   2.941   0.050
10281SOL     OW31741   6.232   2.119   3.759
10281SOL    HW131742   6.249   2.058   3.836
10281SOL    HW231743   6.265   2.211   3.781
10282SOL     OW31744   5.564   3.048   3.545
10282SOL    HW131745   5.598   3.092   3.628
10282SOL    HW231746   5.605   3.092   3.465
10283SOL     OW31747   1.435   3.256   0.781
10283SOL    HW131748   1.482   3.311   0.850
10283SOL    HW231749   1.502   3.208   0.725
10284SOL     OW31750   6.222   1.844   4.944
10284SOL    HW131751   6.318   1.836   4.973
10284SOL    HW231752   6.208   1.789   4.861
10285SOL     OW31753   4.343   6.363   2.820
10285SOL    HW131754   4.399   6.446   2.822
10285SOL    HW231755   4.377   6.301   2.748
10286SOL     OW31756   3.620   0.435   3.895
10286SOL    HW131757   3.629   0.335   3.891
10286SOL    HW231758   3.690   0.471   3.956
10287SOL     OW31759   2.451   5.447   2.076
10287SOL    HW131760   2.373   5.389   2.056
10287SOL    HW231761   2.532   5.412   2.029
10288SOL     OW31762   4.171   0.019   4.185
10288SOL    HW131763   4.145   0.028   4.089
10288SOL    HW231764   4.118   6.971   4.227
10289SOL     OW31765   3.032   6.289   0.397
10289SOL    HW131766   3.012   6.236   0.315
10289SOL    HW231767   3.078   6.231   0.464
10290SOL     OW31768   3.189   3.004   2.662
10290SOL    HW131769   3.103   3.051   2.683
10290SOL    HW231770   3.217   3.026   2.568
10291SOL     OW31771   3.783   1.795   3.147
10291SOL    HW131772   3.796   1.862   3.221
10291SOL    HW231773   3.826   1.830   3.063
10292SOL     OW31774   0.883   2.236   5.528
10292SOL    HW131775   0.922   2.242   5.620
10292SOL    HW231776   0.954   2.204   5.465
10293SOL     OW31777   1.219   3.312   3.505
10293SOL    HW131778   1.226   3.263   3.418
10293SOL    HW231779   1.173   3.253   3.572
10294SOL     OW31780   4.513   1.545   2.832
10294SOL    HW131781   4.501   1.628   2.778
10294SOL    HW231782   4.437   1.482   2.813
10295SOL     OW31783   1.104   2.964   5.260
10295SOL    HW131784   1.112   2.982   5.358
10295SOL    HW231785   1.037   2.892   5.244
10296SOL     OW31786   5.088   1.953   6.055
10296SOL    HW131787   5.104   2.020   5.982
10296SOL    HW231788   5.095   1.861   6.017
10297SOL     OW31789   2.198   1.348   6.693
10297SOL    HW131790   2.235   1.418   6.633
10297SOL    HW231791   2.106   1.323   6.664
10298SOL     OW31792   1.905   4.618   0.921
10298SOL    HW131793   1.960   4.537   0.902
10298SOL    HW231794   1.898   4.630   1.020
10299SOL     OW31795   3.791   5.359   2.754
10299SOL    HW131796   3.860   5.431   2.753
10299SOL    HW231797   3.805   5.298   2.675
10300SOL     OW31798   1.641   4.437   1.863
10300SOL    HW131799   1.700   4.358   1.877
10300SOL    HW231800   1.546   4.406   1.850
10301SOL     OW31801   4.290   1.767   5.381
10301SOL    HW131802   4.252   1.787   5.291
10301SOL    HW231803   4.243   1.822   5.450
10302SOL     OW31804   2.291   5.804   4.764
10302SOL    HW131805   2.211   5.783   4.707
10302SOL    HW231806   2.372   5.811   4.706
10303SOL     OW31807   1.202   5.726   3.890
10303SOL    HW131808   1.164   5.649   3.840
10303SOL    HW231809   1.240   5.792   3.825
10304SOL     OW31810   5.643   0.188   1.259
10304SOL    HW131811   5.741   0.188   1.243
10304SOL    HW231812   5.623   0.226   1.349
10305SOL     OW31813   1.747   4.063   5.379
10305SOL    HW131814   1.736   4.019   5.290
10305SOL    HW231815   1.799   4.148   5.368
10306SOL     OW31816   5.388   5.757   0.052
10306SOL    HW131817   5.452   5.718   7.011
10306SOL    HW231818   5.377   5.855   0.035
10307SOL     OW31819   3.076   1.529   5.075
10307SOL    HW131820   3.004   1.599   5.065
10307SOL    HW231821   3.142   1.539   5.001
10308SOL     OW31822   1.802   4.186   1.942
10308SOL    HW131823   1.882   4.212   1.996
10308SOL    HW231824   1.788   4.087   1.948
10309SOL     OW31825   0.268   1.327   0.122
10309SOL    HW131826   0.272   1.315   0.023
10309SOL    HW231827   0.190   1.385   0.146
10310SOL     OW31828   2.985   3.967   0.323
10310SOL    HW131829   3.013   3.883   0.370
10310SOL    HW231830   3.063   4.004   0.273
10311SOL     OW31831   6.527   5.435   0.214
10311SOL    HW131832   6.601   5.489   0.255
10311SOL    HW231833   6.464   5.496   0.167
10312SOL     OW31834   4.862   6.551   2.363
10312SOL    HW131835   4.849   6.649   2.380
10312SOL    HW231836   4.861   6.502   2.450
10313SOL     OW31837   3.476   5.805   2.054
10313SOL    HW131838   3.533   5.871   2.005
10313SOL    HW231839   3.515   5.713   2.044
10314SOL     OW31840   6.688   0.359   0.296
10314SOL    HW131841   6.737   0.272   0.301
10314SOL    HW231842   6.727   0.424   0.361
10315SOL     OW31843   5.773   6.241   4.296
10315SOL    HW131844   5.699   6.200   4.350
10315SOL    HW231845   5.839   6.284   4.357
10316SOL     OW31846   6.835   2.896   6.008
10316SOL    HW131847   6.924   2.915   6.048
10316SOL    HW231848   6.831   2.801   5.976
10317SOL     OW31849   4.021   6.333   6.661
10317SOL    HW131850   3.940   6.319   6.605
10317SOL    HW231851   4.100   6.352   6.603
10318SOL     OW31852   4.661   0.762   6.180
10318SOL    HW131853   4.655   0.675   6.132
10318SOL    HW231854   4.574   0.783   6.223
10319SOL     OW31855   0.623   3.583   5.663
10319SOL    HW131856   0.534   3.618   5.636
10319SOL    HW231857   0.673   3.552   5.582
10320SOL     OW31858   0.691   6.449   2.394
10320SOL    HW131859   0.738   6.500   2.466
10320SOL    HW231860   0.758   6.412   2.329
10321SOL     OW31861   5.881   1.886   1.625
10321SOL    HW131862   5.840   1.892   1.534
10321SOL    HW231863   5.936   1.968   1.642
10322SOL     OW31864   4.580   4.818   4.989
10322SOL    HW131865   4.546   4.732   5.027
10322SOL    HW231866   4.504   4.868   4.947
10323SOL     OW31867   6.069   4.742   5.466
10323SOL    HW131868   6.089   4.681   5.390
10323SOL    HW231869   6.062   4.689   5.550
10324SOL     OW31870   3.877   2.908   1.956
10324SOL    HW131871   3.901   2.831   2.016
10324SOL    HW231872   3.961   2.955   1.928
10325SOL     OW31873   6.498   4.373   2.041
10325SOL    HW131874   6.491   4.277   2.014
10325SOL    HW231875   6.433   4.391   2.115
10326SOL     OW31876   5.350   4.692   6.462
10326SOL    HW131877   5.344   4.791   6.471
10326SOL    HW231878   5.442   4.662   6.488
10327SOL     OW31879   2.303   2.850   1.196
10327SOL    HW131880   2.229   2.892   1.143
10327SOL    HW231881   2.373   2.918   1.215
10328SOL     OW31882   6.295   2.623   0.405
10328SOL    HW131883   6.339   2.616   0.494
10328SOL    HW231884   6.314   2.713   0.365
10329SOL     OW31885   2.351   0.788   3.239
10329SOL    HW131886   2.433   0.840   3.264
10329SOL    HW231887   2.376   0.694   3.218
10330SOL     OW31888   4.245   0.961   2.101
10330SOL    HW131889   4.325   0.954   2.160
10330SOL    HW231890   4.199   0.873   2.095
10331SOL     OW31891   6.634   6.585   6.176
10331SOL    HW131892   6.686   6.588   6.091
10331SOL    HW231893   6.695   6.557   6.251
10332SOL     OW31894   0.014   0.439   0.341
10332SOL    HW131895   7.014   0.440   0.245
10332SOL    HW231896   0.028   0.345   0.371
10333SOL     OW31897   1.055   4.727   5.212
10333SOL    HW131898   1.112   4.681   5.281
10333SOL    HW231899   1.115   4.766   5.141
10334SOL     OW31900   3.451   0.939   4.633
10334SOL    HW131901   3.359   0.961   4.664
10334SOL    HW231902   3.513   1.015   4.657
10335SOL     OW31903   2.311   4.060   0.186
10335SOL    HW131904   2.372   4.081   0.109
10335SOL    HW231905   2.268   3.971   0.171
10336SOL     OW31906   6.149   0.043   1.299
10336SOL    HW131907   6.211   6.994   1.276
10336SOL    HW231908   6.202   0.120   1.335
10337SOL     OW31909   0.520   6.339   6.510
10337SOL    HW131910   0.447   6.302   6.452
10337SOL    HW231911   0.586   6.387   6.452
10338SOL     OW31912   1.584   6.509   2.498
10338SOL    HW131913   1.597   6.602   2.466
10338SOL    HW231914   1.598   6.505   2.597
10339SOL     OW31915   5.247   3.270   5.757
10339SOL    HW131916   5.308   3.244   5.831
10339SOL    HW231917   5.178   3.333   5.791
10340SOL     OW31918   1.447   3.554   0.255
10340SOL    HW131919   1.438   3.458   0.228
10340SOL    HW231920   1.541   3.585   0.238
10341SOL     OW31921   2.008   3.627   2.139
10341SOL    HW131922   2.073   3.561   2.100
10341SOL    HW231923   1.958   3.584   2.215
10342SOL     OW31924   2.028   6.874   4.390
10342SOL    HW131925   1.934   6.885   4.421
10342SOL    HW231926   2.083   6.951   4.422
10343SOL     OW31927   3.201   4.901   6.370
10343SOL    HW131928   3.290   4.861   6.393
10343SOL    HW231929   3.170   4.960   6.444
10344SOL     OW31930   4.395   3.043   0.425
10344SOL    HW131931   4.320   3.100   0.389
10344SOL    HW231932   4.406   3.062   0.523
10345SOL     OW31933   1.836   1.631   6.745
10345SOL    HW131934   1.829   1.710   6.683
10345SOL    HW231935   1.746   1.589   6.754
10346SOL     OW31936   0.694   5.124   1.697
10346SOL    HW131937   0.634   5.048   1.674
10346SOL    HW231938   0.691   5.192   1.624
10347SOL     OW31939   3.727   1.221   3.351
10347SOL    HW131940   3.812   1.271   3.372
10347SOL    HW231941   3.750   1.128   3.322
10348SOL     OW31942   6.819   2.741   0.264
10348SOL    HW131943   6.859   2.696   0.344
10348SOL    HW231944   6.884   2.740   0.188
10349SOL     OW31945   1.756   0.671   0.399
10349SOL    HW131946   1.707   0.584   0.407
10349SOL    HW231947   1.732   0.715   0.313
10350SOL     OW31948   2.639   5.590   5.380
10350SOL    HW131949   2.674   5.678   5.413
10350SOL    HW231950   2.542   5.600   5.356
10351SOL     OW31951   4.183   4.849   6.508
10351SOL    HW131952   4.262   4.859   6.447
10351SOL    HW231953   4.137   4.762   6.488
10352SOL     OW31954   3.474   1.132   6.309
10352SOL    HW131955   3.462   1.033   6.320
10352SOL    HW231956   3.504   1.151   6.216
10353SOL     OW31957   6.741   3.530   5.068
10353SOL    HW131958   6.680   3.524   5.146
10353SOL    HW231959   6.688   3.552   4.986
10354SOL     OW31960   5.740   2.055   2.311
10354SOL    HW131961   5.802   2.131   2.330
10354SOL    HW231962   5.666   2.086   2.251
10355SOL     OW31963   2.436   6.890   1.419
10355SOL    HW131964   2.339   6.909   1.434
10355SOL    HW231965   2.447   6.798   1.383
10356SOL     OW31966   0.388   4.800   4.673
10356SOL    HW131967   0.480   4.775   4.645
10356SOL    HW231968   0.392   4.877   4.736
10357SOL     OW31969   1.620   2.863   5.954
10357SOL    HW131970   1.655   2.808   6.030
10357SOL    HW231971   1.681   2.854   5.876
10358SOL     OW31972   0.186   2.759   3.632
10358SOL    HW131973   0.090   2.755   3.659
10358SOL    HW231974   0.241   2.708   3.699
10359SOL     OW31975   0.845   2.021   1.241
10359SOL    HW131976   0.760   2.045   1.289
10359SOL    HW231977   0.843   1.925   1.216
10360SOL     OW31978   4.616   4.806   3.035
10360SOL    HW131979   4.707   4.846   3.024
10360SOL    HW231980   4.575   4.838   3.120
10361SOL     OW31981   2.230   6.190   3.218
10361SOL    HW131982   2.295   6.160   3.149
10361SOL    HW231983   2.229   6.123   3.293
10362SOL     OW31984   1.613   4.733   4.905
10362SOL    HW131985   1.604   4.811   4.967
10362SOL    HW231986   1.707   4.727   4.873
10363SOL     OW31987   4.656   0.847   2.561
10363SOL    HW131988   4.689   0.819   2.650
10363SOL    HW231989   4.568   0.893   2.571
10364SOL     OW31990   3.315   3.149   1.683
10364SOL    HW131991   3.406   3.144   1.723
10364SOL    HW231992   3.288   3.245   1.673
10365SOL     OW31993   3.729   5.137   6.338
10365SOL    HW131994   3.766   5.215   6.289
10365SOL    HW231995   3.674   5.169   6.415
10366SOL     OW31996   2.669   0.179   4.130
10366SOL    HW131997   2.646   0.136   4.043
10366SOL    HW231998   2.590   0.228   4.165
10367SOL     OW31999   5.683   2.522   2.483
10367SOL    HW132000   5.761   2.482   2.531
10367SOL    HW232001   5.600   2.509   2.537
10368SOL     OW32002   2.157   1.961   1.323
10368SOL    HW132003   2.097   1.885   1.299
10368SOL    HW232004   2.252   1.936   1.301
10369SOL     OW32005   4.103   1.238   6.206
10369SOL    HW132006   4.017   1.285   6.224
10369SOL    HW232007   4.176   1.283   6.258
10370SOL     OW32008   4.951   1.596   5.001
10370SOL    HW132009   4.929   1.575   5.096
10370SOL    HW232010   4.906   1.681   4.975
10371SOL     OW32011   3.731   5.670   4.992
10371SOL    HW132012   3.724   5.669   4.892
10371SOL    HW232013   3.688   5.753   5.027
10372SOL     OW32014   1.756   1.148   5.957
10372SOL    HW132015   1.757   1.210   5.879
10372SOL    HW232016   1.825   1.178   6.023
10373SOL     OW32017   2.333   6.372   4.862
10373SOL    HW132018   2.372   6.403   4.775
10373SOL    HW232019   2.405   6.329   4.917
10374SOL     OW32020   3.493   1.348   2.923
10374SOL    HW132021   3.577   1.297   2.906
10374SOL    HW232022   3.421   1.315   2.861
10375SOL     OW32023   4.436   1.878   0.025
10375SOL    HW132024   4.358   1.925   7.008
10375SOL    HW232025   4.423   1.872   0.124
10376SOL     OW32026   1.200   6.559   3.552
10376SOL    HW132027   1.290   6.582   3.589
10376SOL    HW232028   1.148   6.508   3.621
10377SOL     OW32029   6.644   1.052   4.089
10377SOL    HW132030   6.576   1.004   4.035
10377SOL    HW232031   6.633   1.151   4.077
10378SOL     OW32032   6.455   0.837   5.743
10378SOL    HW132033   6.423   0.743   5.729
10378SOL    HW232034   6.487   0.875   5.656
10379SOL     OW32035   4.511   0.420   4.880
10379SOL    HW132036   4.447   0.421   4.804
10379SOL    HW232037   4.560   0.507   4.885
10380SOL     OW32038   6.055   1.033   3.433
10380SOL    HW132039   5.960   1.045   3.460
10380SOL    HW232040   6.114   1.045   3.513
10381SOL     OW32041   4.898   5.627   5.827
10381SOL    HW132042   4.889   5.717   5.870
10381SOL    HW232043   4.822   5.612   5.764
10382SOL     OW32044   2.481   4.738   6.103
10382SOL    HW132045   2.437   4.822   6.135
10382SOL    HW232046   2.580   4.747   6.113
10383SOL     OW32047   0.765   3.364   0.446
10383SOL    HW132048   0.767   3.448   0.393
10383SOL    HW232049   0.674   3.322   0.439
10384SOL     OW32050   0.320   6.940   0.524
10384SOL    HW132051   0.359   6.874   0.460
10384SOL    HW232052   0.220   6.939   0.516
10385SOL     OW32053   4.895   0.009   5.997
10385SOL    HW132054   4.873   6.992   5.910
10385SOL    HW232055   4.913   0.107   5.983
10386SOL     OW32056   6.896   3.799   5.238
10386SOL    HW132057   6.831   3.847   5.296
10386SOL    HW232058   6.865   3.801   5.143
10387SOL     OW32059   2.911   1.784   2.684
10387SOL    HW132060   2.927   1.883   2.684
10387SOL    HW232061   2.988   1.738   2.730
10388SOL     OW32062   0.948   5.575   4.107
10388SOL    HW132063   0.973   5.529   4.192
10388SOL    HW232064   0.949   5.674   4.121
10389SOL     OW32065   0.649   5.609   2.687
10389SOL    HW132066   0.683   5.589   2.594
10389SOL    HW232067   0.633   5.707   2.696
10390SOL     OW32068   1.625   3.864   2.243
10390SOL    HW132069   1.708   3.877   2.298
10390SOL    HW232070   1.550   3.917   2.282
10391SOL     OW32071   1.265   6.020   6.386
10391SOL    HW132072   1.266   6.117   6.411
10391SOL    HW232073   1.293   5.966   6.465
10392SOL     OW32074   6.708   3.825   0.349
10392SOL    HW132075   6.658   3.758   0.295
10392SOL    HW232076   6.806   3.820   0.328
10393SOL     OW32077   0.586   1.655   3.358
10393SOL    HW132078   0.684   1.636   3.361
10393SOL    HW232079   0.569   1.738   3.303
10394SOL     OW32080   2.617   6.776   6.419
10394SOL    HW132081   2.612   6.806   6.514
10394SOL    HW232082   2.651   6.851   6.362
10395SOL     OW32083   6.867   0.849   4.401
10395SOL    HW132084   6.797   0.913   4.432
10395SOL    HW232085   6.824   0.760   4.384
10396SOL     OW32086   1.196   0.632   3.567
10396SOL    HW132087   1.114   0.678   3.600
10396SOL    HW232088   1.181   0.602   3.473
10397SOL     OW32089   3.644   0.869   3.483
10397SOL    HW132090   3.635   0.770   3.472
10397SOL    HW232091   3.567   0.915   3.437
10398SOL     OW32092   6.420   2.642   0.638
10398SOL    HW132093   6.505   2.694   0.634
10398SOL    HW232094   6.406   2.607   0.730
10399SOL     OW32095   4.202   1.872   5.611
10399SOL    HW132096   4.125   1.824   5.652
10399SOL    HW232097   4.285   1.854   5.664
10400SOL     OW32098   3.094   5.929   2.908
10400SOL    HW132099   3.098   6.014   2.960
10400SOL    HW232100   3.138   5.941   2.819
10401SOL     OW32101   6.200   6.172   2.385
10401SOL    HW132102   6.107   6.147   2.411
10401SOL    HW232103   6.262   6.095   2.403
10402SOL     OW32104   0.141   2.913   5.792
10402SOL    HW132105   0.141   2.992   5.731
10402SOL    HW232106   0.111   2.940   5.883
10403SOL     OW32107   5.256   1.633   2.412
10403SOL    HW132108   5.175   1.606   2.464
10403SOL    HW232109   5.285   1.557   2.354
10404SOL     OW32110   1.179   6.788   4.371
10404SOL    HW132111   1.185   6.886   4.388
10404SOL    HW232112   1.105   6.769   4.307
10405SOL     OW32113   1.602   5.432   5.250
10405SOL    HW132114   1.505   5.408   5.259
10405SOL    HW232115   1.621   5.511   5.308
10406SOL     OW32116   1.990   4.989   5.173
10406SOL    HW132117   2.004   4.904   5.224
10406SOL    HW232118   1.914   5.040   5.213
10407SOL     OW32119   1.547   0.885   6.330
10407SOL    HW132120   1.470   0.947   6.314
10407SOL    HW232121   1.608   0.886   6.251
10408SOL     OW32122   4.816   5.221   2.748
10408SOL    HW132123   4.807   5.200   2.651
10408SOL    HW232124   4.763   5.304   2.768
10409SOL     OW32125   0.239   3.993   1.741
10409SOL    HW132126   0.246   3.981   1.840
10409SOL    HW232127   0.146   3.971   1.711
10410SOL     OW32128   4.930   1.004   1.417
10410SOL    HW132129   4.913   1.010   1.319
10410SOL    HW232130   4.844   0.986   1.465
10411SOL     OW32131   1.861   4.741   3.578
10411SOL    HW132132   1.946   4.794   3.574
10411SOL    HW232133   1.783   4.801   3.559
10412SOL     OW32134   0.882   2.014   6.700
10412SOL    HW132135   0.845   2.013   6.793
10412SOL    HW232136   0.855   1.930   6.653
10413SOL     OW32137   0.818   1.923   0.799
10413SOL    HW132138   0.871   2.008   0.791
10413SOL    HW232139   0.725   1.946   0.830
10414SOL     OW32140   5.338   6.277   6.312
10414SOL    HW132141   5.245   6.251   6.285
10414SOL    HW232142   5.381   6.199   6.358
10415SOL     OW32143   1.062   5.474   3.699
10415SOL    HW132144   1.031   5.399   3.757
10415SOL    HW232145   0.998   5.550   3.705
10416SOL     OW32146   6.509   2.248   5.749
10416SOL    HW132147   6.500   2.178   5.819
10416SOL    HW232148   6.490   2.338   5.788
10417SOL     OW32149   4.076   5.192   2.742
10417SOL    HW132150   4.088   5.130   2.820
10417SOL    HW232151   4.107   5.148   2.658
10418SOL     OW32152   6.516   3.806   5.836
10418SOL    HW132153   6.570   3.889   5.854
10418SOL    HW232154   6.509   3.792   5.738
10419SOL     OW32155   3.073   0.820   5.521
10419SOL    HW132156   2.992   0.877   5.510
10419SOL    HW232157   3.048   0.735   5.568
10420SOL     OW32158   6.349   3.152   3.003
10420SOL    HW132159   6.391   3.195   3.084
10420SOL    HW232160   6.409   3.078   2.971
10421SOL     OW32161   1.303   4.624   3.793
10421SOL    HW132162   1.303   4.527   3.771
10421SOL    HW232163   1.327   4.637   3.889
10422SOL     OW32164   6.644   4.010   4.998
10422SOL    HW132165   6.563   4.021   4.941
10422SOL    HW232166   6.714   3.961   4.947
10423SOL     OW32167   3.516   4.923   4.423
10423SOL    HW132168   3.501   4.897   4.519
10423SOL    HW232169   3.612   4.908   4.399
10424SOL     OW32170   4.014   1.405   6.741
10424SOL    HW132171   4.061   1.317   6.752
10424SOL    HW232172   3.916   1.390   6.733
10425SOL     OW32173   1.705   0.242   0.927
10425SOL    HW132174   1.730   0.274   1.019
10425SOL    HW232175   1.639   0.306   0.887
10426SOL     OW32176   5.136   2.765   5.380
10426SOL    HW132177   5.155   2.669   5.403
10426SOL    HW232178   5.177   2.787   5.292
10427SOL     OW32179   4.755   5.845   5.070
10427SOL    HW132180   4.814   5.926   5.080
10427SOL    HW232181   4.663   5.868   5.101
10428SOL     OW32182   1.617   1.548   3.158
10428SOL    HW132183   1.688   1.614   3.182
10428SOL    HW232184   1.575   1.511   3.241
10429SOL     OW32185   1.033   3.426   2.763
10429SOL    HW132186   0.992   3.453   2.850
10429SOL    HW232187   1.085   3.342   2.775
10430SOL     OW32188   3.892   6.282   3.920
10430SOL    HW132189   3.813   6.339   3.897
10430SOL    HW232190   3.885   6.195   3.872
10431SOL     OW32191   2.531   2.043   4.332
10431SOL    HW132192   2.431   2.047   4.320
10431SOL    HW232193   2.557   1.953   4.365
10432SOL     OW32194   6.924   6.947   5.736
10432SOL    HW132195   6.940   0.014   5.771
10432SOL    HW232196   6.983   6.882   5.785
10433SOL     OW32197   1.995   6.698   1.573
10433SOL    HW132198   1.924   6.725   1.639
10433SOL    HW232199   2.056   6.630   1.616
10434SOL     OW32200   4.801   0.771   5.934
10434SOL    HW132201   4.901   0.781   5.932
10434SOL    HW232202   4.766   0.800   6.023
10435SOL     OW32203   0.978   2.195   6.518
10435SOL    HW132204   0.894   2.246   6.498
10435SOL    HW232205   0.958   2.124   6.585
10436SOL     OW32206   0.388   4.183   5.174
10436SOL    HW132207   0.332   4.108   5.140
10436SOL    HW232208   0.466   4.198   5.113
10437SOL     OW32209   5.028   4.874   5.128
10437SOL    HW132210   5.056   4.970   5.131
10437SOL    HW232211   5.068   4.824   5.205
10438SOL     OW32212   6.677   6.313   6.642
10438SOL    HW132213   6.680   6.349   6.735
10438SOL    HW232214   6.699   6.215   6.644
10439SOL     OW32215   0.171   0.360   4.376
10439SOL    HW132216   0.081   0.328   4.348
10439SOL    HW232217   0.197   0.440   4.322
10440SOL     OW32218   0.519   1.593   6.989
10440SOL    HW132219   0.502   1.504   6.946
10440SOL    HW232220   0.445   1.656   6.965
10441SOL     OW32221   3.390   1.483   1.028
10441SOL    HW132222   3.410   1.564   0.972
10441SOL    HW232223   3.291   1.469   1.031
10442SOL     OW32224   2.742   1.070   5.442
10442SOL    HW132225   2.795   1.053   5.525
10442SOL    HW232226   2.698   0.984   5.413
10443SOL     OW32227   0.176   1.664   3.732
10443SOL    HW132228   0.226   1.751   3.728
10443SOL    HW232229   0.089   1.678   3.780
10444SOL     OW32230   3.630   5.378   3.461
10444SOL    HW132231   3.704   5.444   3.473
10444SOL    HW232232   3.570   5.380   3.541
10445SOL     OW32233   1.472   3.987   2.418
10445SOL    HW132234   1.385   4.036   2.423
10445SOL    HW232235   1.486   3.934   2.502
10446SOL     OW32236   1.984   3.946   5.009
10446SOL    HW132237   2.067   3.894   5.029
10446SOL    HW232238   1.923   3.891   4.953
10447SOL     OW32239   6.554   2.465   3.102
10447SOL    HW132240   6.618   2.396   3.136
10447SOL    HW232241   6.488   2.487   3.174
10448SOL     OW32242   2.406   0.146   3.135
10448SOL    HW132243   2.391   0.149   3.234
10448SOL    HW232244   2.348   0.214   3.091
10449SOL     OW32245   3.415   5.776   6.755
10449SOL    HW132246   3.461   5.802   6.670
10449SOL    HW232247   3.337   5.717   6.733
10450SOL     OW32248   6.280   0.526   5.896
10450SOL    HW132249   6.273   0.556   5.801
10450SOL    HW232250   6.293   0.427   5.898
10451SOL     OW32251   1.766   0.653   4.168
10451SOL    HW132252   1.853   0.702   4.165
10451SOL    HW232253   1.692   0.718   4.188
10452SOL     OW32254   6.721   3.629   3.630
10452SOL    HW132255   6.794   3.697   3.625
10452SOL    HW232256   6.674   3.624   3.542
10453SOL     OW32257   4.324   5.845   3.466
10453SOL    HW132258   4.257   5.919   3.465
10453SOL    HW232259   4.292   5.772   3.527
10454SOL     OW32260   6.466   1.697   6.830
10454SOL    HW132261   6.366   1.701   6.833
10454SOL    HW232262   6.497   1.710   6.736
10455SOL     OW32263   6.397   6.301   4.395
10455SOL    HW132264   6.382   6.369   4.467
10455SOL    HW232265   6.451   6.343   4.321
10456SOL     OW32266   6.736   5.143   6.891
10456SOL    HW132267   6.732   5.171   6.987
10456SOL    HW232268   6.690   5.055   6.880
10457SOL     OW32269   3.865   2.943   0.041
10457SOL    HW132270   3.923   2.969   6.989
10457SOL    HW232271   3.844   2.845   0.035
10458SOL     OW32272   6.922   6.941   6.303
10458SOL    HW132273   6.867   6.971   6.225
10458SOL    HW232274   6.864   6.888   6.365
10459SOL     OW32275   6.608   5.117   0.119
10459SOL    HW132276   6.611   5.166   0.206
10459SOL    HW232277   6.517   5.077   0.107
10460SOL     OW32278   6.929   4.051   1.249
10460SOL    HW132279   6.925   3.956   1.277
10460SOL    HW232280   7.008   4.095   1.291
10461SOL     OW32281   6.653   4.667   5.203
10461SOL    HW132282   6.747   4.655   5.170
10461SOL    HW232283   6.648   4.644   5.300
10462SOL     OW32284   5.076   1.811   1.531
10462SOL    HW132285   5.025   1.729   1.555
10462SOL    HW232286   5.041   1.889   1.584
10463SOL     OW32287   4.645   2.676   6.304
10463SOL    HW132288   4.675   2.599   6.247
10463SOL    HW232289   4.602   2.641   6.387
10464SOL     OW32290   5.429   5.320   2.950
10464SOL    HW132291   5.432   5.420   2.940
10464SOL    HW232292   5.391   5.279   2.867
10465SOL     OW32293   5.203   3.770   2.342
10465SOL    HW132294   5.118   3.719   2.356
10465SOL    HW232295   5.206   3.803   2.247
10466SOL     OW32296   5.787   4.665   6.046
10466SOL    HW132297   5.730   4.648   6.126
10466SOL    HW232298   5.741   4.731   5.986
10467SOL     OW32299   1.945   2.759   6.921
10467SOL    HW132300   1.914   2.745   7.015
10467SOL    HW232301   1.875   2.725   6.858
10468SOL     OW32302   2.491   4.618   3.833
10468SOL    HW132303   2.411   4.677   3.843
10468SOL    HW232304   2.574   4.674   3.826
10469SOL     OW32305   5.818   2.218   5.671
10469SOL    HW132306   5.917   2.231   5.677
10469SOL    HW232307   5.783   2.191   5.761
10470SOL     OW32308   2.263   1.994   4.310
10470SOL    HW132309   2.230   1.927   4.244
10470SOL    HW232310   2.227   2.084   4.287
10471SOL     OW32311   2.678   0.612   0.327
10471SOL    HW132312   2.739   0.535   0.347
10471SOL    HW232313   2.717   0.696   0.364
10472SOL     OW32314   3.636   4.492   0.657
10472SOL    HW132315   3.639   4.507   0.558
10472SOL    HW232316   3.641   4.580   0.704
10473SOL     OW32317   5.245   5.728   5.979
10473SOL    HW132318   5.171   5.750   6.043
10473SOL    HW232319   5.304   5.658   6.019
10474SOL     OW32320   5.352   1.115   4.128
10474SOL    HW132321   5.340   1.150   4.035
10474SOL    HW232322   5.297   1.169   4.191
10475SOL     OW32323   2.288   6.099   1.972
10475SOL    HW132324   2.376   6.102   2.020
10475SOL    HW232325   2.282   6.015   1.919
10476SOL     OW32326   4.158   5.951   6.446
10476SOL    HW132327   4.075   5.950   6.502
10476SOL    HW232328   4.170   5.862   6.402
10477SOL     OW32329   6.968   6.018   4.038
10477SOL    HW132330   6.914   6.101   4.049
10477SOL    HW232331   6.908   5.938   4.044
10478SOL     OW32332   6.090   6.980   0.087
10478SOL    HW132333   6.167   0.018   0.098
10478SOL    HW232334   6.083   6.922   0.168
10479SOL     OW32335   0.055   2.960   2.649
10479SOL    HW132336   0.076   3.053   2.678
10479SOL    HW232337   0.017   2.963   2.556
10480SOL     OW32338   1.581   0.178   2.410
10480SOL    HW132339   1.600   0.204   2.316
10480SOL    HW232340   1.646   0.224   2.472
10481SOL     OW32341   0.682   6.909   3.013
10481SOL    HW132342   0.727   6.819   3.010
10481SOL    HW232343   0.649   6.932   2.922
10482SOL     OW32344   6.179   4.425   4.527
10482SOL    HW132345   6.242   4.411   4.451
10482SOL    HW232346   6.230   4.456   4.607
10483SOL     OW32347   5.559   5.424   6.745
10483SOL    HW132348   5.644   5.469   6.718
10483SOL    HW232349   5.481   5.476   6.710
10484SOL     OW32350   5.460   1.242   1.001
10484SOL    HW132351   5.452   1.258   1.100
10484SOL    HW232352   5.374   1.205   0.966
10485SOL     OW32353   4.153   4.363   6.230
10485SOL    HW132354   4.211   4.282   6.237
10485SOL    HW232355   4.081   4.347   6.162
10486SOL     OW32356   6.598   2.854   0.651
10486SOL    HW132357   6.540   2.910   0.711
10486SOL    HW232358   6.677   2.907   0.622
10487SOL     OW32359   5.778   6.624   1.802
10487SOL    HW132360   5.868   6.662   1.782
10487SOL    HW232361   5.720   6.630   1.721
10488SOL     OW32362   2.718   3.148   6.419
10488SOL    HW132363   2.727   3.073   6.484
10488SOL    HW232364   2.804   3.200   6.415
10489SOL     OW32365   0.758   6.571   6.091
10489SOL    HW132366   0.726   6.639   6.025
10489SOL    HW232367   0.779   6.485   6.044
10490SOL     OW32368   6.200   1.346   3.213
10490SOL    HW132369   6.215   1.364   3.115
10490SOL    HW232370   6.188   1.434   3.260
10491SOL     OW32371   1.574   3.782   6.649
10491SOL    HW132372   1.510   3.706   6.634
10491SOL    HW232373   1.633   3.761   6.727
10492SOL     OW32374   4.839   3.605   5.353
10492SOL    HW132375   4.845   3.705   5.359
10492SOL    HW232376   4.793   3.579   5.268
10493SOL     OW32377   3.481   0.634   1.460
10493SOL    HW132378   3.393   0.587   1.456
10493SOL    HW232379   3.481   0.698   1.537
10494SOL     OW32380   5.497   2.240   4.830
10494SOL    HW132381   5.506   2.332   4.794
10494SOL    HW232382   5.522   2.173   4.760
10495SOL     OW32383   1.438   6.920   0.906
10495SOL    HW132384   1.389   6.914   0.993
10495SOL    HW232385   1.528   6.961   0.921
10496SOL     OW32386   0.334   6.738   0.347
10496SOL    HW132387   0.387   6.654   0.338
10496SOL    HW232388   0.236   6.716   0.351
10497SOL     OW32389   1.871   0.498   1.077
10497SOL    HW132390   1.883   0.573   1.143
10497SOL    HW232391   1.821   0.532   0.998
10498SOL     OW32392   2.599   6.744   0.159
10498SOL    HW132393   2.587   6.647   0.182
10498SOL    HW232394   2.687   6.757   0.113
10499SOL     OW32395   2.431   6.375   3.006
10499SOL    HW132396   2.504   6.443   3.004
10499SOL    HW232397   2.468   6.287   3.036
10500SOL     OW32398   0.580   1.251   5.534
10500SOL    HW132399   0.512   1.261   5.607
10500SOL    HW232400   0.664   1.213   5.571
10501SOL     OW32401   1.766   5.260   3.139
10501SOL    HW132402   1.851   5.275   3.188
10501SOL    HW232403   1.783   5.261   3.040
10502SOL     OW32404   3.202   6.639   1.134
10502SOL    HW132405   3.108   6.605   1.125
10502SOL    HW232406   3.265   6.562   1.129
10503SOL     OW32407   4.405   2.760   0.260
10503SOL    HW132408   4.436   2.739   0.353
10503SOL    HW232409   4.465   2.829   0.220
10504SOL     OW32410   1.789   2.568   0.345
10504SOL    HW132411   1.830   2.628   0.414
10504SOL    HW232412   1.721   2.619   0.293
10505SOL     OW32413   5.774   6.378   0.711
10505SOL    HW132414   5.729   6.311   0.652
10505SOL    HW232415   5.812   6.451   0.654
10506SOL     OW32416   0.441   4.579   6.381
10506SOL    HW132417   0.343   4.589   6.399
10506SOL    HW232418   0.493   4.618   6.457
10507SOL     OW32419   2.251   6.839   0.298
10507SOL    HW132420   2.151   6.830   0.304
10507SOL    HW232421   2.275   6.924   0.251
10508SOL     OW32422   5.852   5.736   4.139
10508SOL    HW132423   5.909   5.702   4.065
10508SOL    HW232424   5.885   5.827   4.167
10509SOL     OW32425   1.156   6.870   6.430
10509SOL    HW132426   1.107   6.912   6.506
10509SOL    HW232427   1.091   6.838   6.362
10510SOL     OW32428   5.846   4.988   6.003
10510SOL    HW132429   5.799   4.957   5.921
10510SOL    HW232430   5.945   4.977   5.991
10511SOL     OW32431   4.527   3.118   0.691
10511SOL    HW132432   4.499   3.104   0.786
10511SOL    HW232433   4.576   3.037   0.659
10512SOL     OW32434   3.825   1.281   6.537
10512SOL    HW132435   3.867   1.345   6.472
10512SOL    HW232436   3.856   1.188   6.517
10513SOL     OW32437   6.783   2.305   6.198
10513SOL    HW132438   6.693   2.289   6.238
10513SOL    HW232439   6.781   2.280   6.102
10514SOL     OW32440   6.587   4.086   0.343
10514SOL    HW132441   6.657   4.115   0.407
10514SOL    HW232442   6.605   3.991   0.315
10515SOL     OW32443   6.242   2.602   3.100
10515SOL    HW132444   6.178   2.544   3.150
10515SOL    HW232445   6.271   2.555   3.016
10516SOL     OW32446   4.723   0.967   6.571
10516SOL    HW132447   4.817   0.940   6.593
10516SOL    HW232448   4.710   1.063   6.594
10517SOL     OW32449   0.554   2.262   2.359
10517SOL    HW132450   0.575   2.257   2.457
10517SOL    HW232451   0.455   2.260   2.346
10518SOL     OW32452   0.842   5.047   7.017
10518SOL    HW132453   0.784   5.126   0.012
10518SOL    HW232454   0.789   4.963   0.004
10519SOL     OW32455   3.313   2.643   5.548
10519SOL    HW132456   3.272   2.587   5.621
10519SOL    HW232457   3.250   2.645   5.470
10520SOL     OW32458   2.443   2.870   6.787
10520SOL    HW132459   2.479   2.877   6.880
10520SOL    HW232460   2.490   2.797   6.738
10521SOL     OW32461   6.247   5.800   1.214
10521SOL    HW132462   6.318   5.816   1.281
10521SOL    HW232463   6.232   5.702   1.203
10522SOL     OW32464   6.409   0.349   0.309
10522SOL    HW132465   6.503   0.335   0.277
10522SOL    HW232466   6.410   0.413   0.386
10523SOL     OW32467   0.240   6.166   4.628
10523SOL    HW132468   0.263   6.202   4.537
10523SOL    HW232469   0.287   6.079   4.642
10524SOL     OW32470   1.977   0.448   5.212
10524SOL    HW132471   1.988   0.358   5.171
10524SOL    HW232472   1.910   0.501   5.159
10525SOL     OW32473   2.989   6.582   5.686
10525SOL    HW132474   3.069   6.540   5.728
10525SOL    HW232475   2.960   6.662   5.740
10526SOL     OW32476   0.529   0.441   2.624
10526SOL    HW132477   0.533   0.366   2.558
10526SOL    HW232478   0.434   0.471   2.636
10527SOL     OW32479   1.339   2.971   4.004
10527SOL    HW132480   1.350   3.065   4.035
10527SOL    HW232481   1.429   2.930   3.990
10528SOL     OW32482   1.268   3.810   5.097
10528SOL    HW132483   1.356   3.858   5.105
10528SOL    HW232484   1.245   3.769   5.185
10529SOL     OW32485   1.027   5.725   2.571
10529SOL    HW132486   0.984   5.750   2.658
10529SOL    HW232487   1.013   5.798   2.504
10530SOL     OW32488   1.941   1.386   6.556
10530SOL    HW132489   1.962   1.466   6.501
10530SOL    HW232490   1.968   1.303   6.506
10531SOL     OW32491   2.139   3.413   4.430
10531SOL    HW132492   2.157   3.375   4.339
10531SOL    HW232493   2.206   3.483   4.451
10532SOL     OW32494   2.275   3.272   0.518
10532SOL    HW132495   2.344   3.226   0.574
10532SOL    HW232496   2.187   3.225   0.528
10533SOL     OW32497   3.231   1.516   4.394
10533SOL    HW132498   3.293   1.594   4.388
10533SOL    HW232499   3.150   1.542   4.447
10534SOL     OW32500   0.110   5.791   0.545
10534SOL    HW132501   0.058   5.715   0.583
10534SOL    HW232502   0.206   5.765   0.538
10535SOL     OW32503   0.162   2.400   2.389
10535SOL    HW132504   0.107   2.323   2.356
10535SOL    HW232505   0.198   2.378   2.480
10536SOL     OW32506   3.832   0.029   2.791
10536SOL    HW132507   3.773   0.024   2.711
10536SOL    HW232508   3.780   0.064   2.869
10537SOL     OW32509   3.506   5.419   3.242
10537SOL    HW132510   3.550   5.383   3.324
10537SOL    HW232511   3.457   5.346   3.195
10538SOL     OW32512   4.786   2.999   6.673
10538SOL    HW132513   4.860   2.932   6.677
10538SOL    HW232514   4.757   3.011   6.578
10539SOL     OW32515   0.417   4.122   6.342
10539SOL    HW132516   0.496   4.111   6.283
10539SOL    HW232517   0.404   4.219   6.364
10540SOL     OW32518   1.424   0.829   6.016
10540SOL    HW132519   1.371   0.899   5.967
10540SOL    HW232520   1.518   0.862   6.028
10541SOL     OW32521   3.565   3.867   1.585
10541SOL    HW132522   3.662   3.890   1.579
10541SOL    HW232523   3.546   3.829   1.675
10542SOL     OW32524   6.853   1.267   0.702
10542SOL    HW132525   6.760   1.240   0.731
10542SOL    HW232526   6.851   1.293   0.606
10543SOL     OW32527   0.041   1.477   5.107
10543SOL    HW132528   7.006   1.424   5.166
10543SOL    HW232529   0.022   1.454   5.011
10544SOL     OW32530   2.167   1.173   3.036
10544SOL    HW132531   2.107   1.103   3.075
10544SOL    HW232532   2.185   1.152   2.940
10545SOL     OW32533   6.836   6.461   2.541
10545SOL    HW132534   6.841   6.362   2.543
10545SOL    HW232535   6.748   6.491   2.578
10546SOL     OW32536   1.303   0.777   5.267
10546SOL    HW132537   1.362   0.852   5.235
10546SOL    HW232538   1.213   0.787   5.226
10547SOL     OW32539   4.748   1.398   2.201
10547SOL    HW132540   4.716   1.456   2.276
10547SOL    HW232541   4.788   1.315   2.238
10548SOL     OW32542   5.124   3.927   4.968
10548SOL    HW132543   5.032   3.900   4.942
10548SOL    HW232544   5.133   4.027   4.960
10549SOL     OW32545   6.516   0.561   2.450
10549SOL    HW132546   6.506   0.528   2.356
10549SOL    HW232547   6.426   0.576   2.490
10550SOL     OW32548   4.428   6.522   4.173
10550SOL    HW132549   4.411   6.620   4.184
10550SOL    HW232550   4.407   6.495   4.079
10551SOL     OW32551   1.654   2.109   4.971
10551SOL    HW132552   1.560   2.087   4.944
10551SOL    HW232553   1.653   2.152   5.061
10552SOL     OW32554   3.640   2.065   5.263
10552SOL    HW132555   3.569   2.098   5.201
10552SOL    HW232556   3.620   1.971   5.289
10553SOL     OW32557   0.980   4.979   1.407
10553SOL    HW132558   0.917   4.901   1.411
10553SOL    HW232559   1.046   4.965   1.334
10554SOL     OW32560   5.428   4.917   6.811
10554SOL    HW132561   5.385   4.827   6.797
10554SOL    HW232562   5.392   4.958   6.894
10555SOL     OW32563   2.883   2.137   1.544
10555SOL    HW132564   2.883   2.040   1.521
10555SOL    HW232565   2.966   2.158   1.597
10556SOL     OW32566   1.946   2.916   4.794
10556SOL    HW132567   1.882   2.915   4.871
10556SOL    HW232568   2.026   2.972   4.819
10557SOL     OW32569   0.933   2.554   3.434
10557SOL    HW132570   0.932   2.454   3.423
10557SOL    HW232571   1.015   2.581   3.485
10558SOL     OW32572   3.998   6.962   4.954
10558SOL    HW132573   4.062   6.912   4.896
10558SOL    HW232574   3.960   0.014   4.903
10559SOL     OW32575   4.155   1.245   1.353
10559SOL    HW132576   4.123   1.183   1.424
10559SOL    HW232577   4.077   1.288   1.308
10560SOL     OW32578   2.037   5.608   4.938
10560SOL    HW132579   2.033   5.520   4.891
10560SOL    HW232580   2.019   5.681   4.873
10561SOL     OW32581   2.292   5.087   0.169
10561SOL    HW132582   2.292   5.174   0.121
10561SOL    HW232583   2.299   5.012   0.103
10562SOL     OW32584   4.833   0.062   0.540
10562SOL    HW132585   4.913   0.002   0.537
10562SOL    HW232586   4.858   0.154   0.510
10563SOL     OW32587   1.800   1.214   4.412
10563SOL    HW132588   1.860   1.281   4.454
10563SOL    HW232589   1.848   1.126   4.405
10564SOL     OW32590   5.991   0.204   1.676
10564SOL    HW132591   5.939   0.290   1.681
10564SOL    HW232592   5.935   0.130   1.711
10565SOL     OW32593   0.708   0.862   5.370
10565SOL    HW132594   0.718   0.807   5.453
10565SOL    HW232595   0.797   0.898   5.343
10566SOL     OW32596   4.050   3.392   6.712
10566SOL    HW132597   4.129   3.331   6.721
10566SOL    HW232598   3.991   3.383   6.792
10567SOL     OW32599   2.168   3.627   4.100
10567SOL    HW132600   2.184   3.653   4.005
10567SOL    HW232601   2.182   3.706   4.159
10568SOL     OW32602   5.504   1.192   1.884
10568SOL    HW132603   5.487   1.288   1.905
10568SOL    HW232604   5.536   1.145   1.966
10569SOL     OW32605   6.693   3.011   2.389
10569SOL    HW132606   6.699   3.110   2.382
10569SOL    HW232607   6.726   2.981   2.478
10570SOL     OW32608   1.296   4.737   2.818
10570SOL    HW132609   1.390   4.704   2.809
10570SOL    HW232610   1.235   4.659   2.837
10571SOL     OW32611   6.724   5.606   3.830
10571SOL    HW132612   6.753   5.609   3.926
10571SOL    HW232613   6.633   5.648   3.821
10572SOL     OW32614   5.977   3.831   3.097
10572SOL    HW132615   5.921   3.789   3.169
10572SOL    HW232616   5.920   3.850   3.017
10573SOL     OW32617   5.940   6.565   2.951
10573SOL    HW132618   6.019   6.582   2.892
10573SOL    HW232619   5.867   6.522   2.898
10574SOL     OW32620   1.513   1.928   3.736
10574SOL    HW132621   1.514   1.836   3.775
10574SOL    HW232622   1.596   1.942   3.682
10575SOL     OW32623   0.459   0.715   4.176
10575SOL    HW132624   0.522   0.676   4.109
10575SOL    HW232625   0.469   0.666   4.263
10576SOL     OW32626   0.822   6.909   4.752
10576SOL    HW132627   0.809   6.876   4.846
10576SOL    HW232628   0.867   6.839   4.698
10577SOL     OW32629   0.994   3.337   6.628
10577SOL    HW132630   1.015   3.317   6.724
10577SOL    HW232631   1.061   3.292   6.570
10578SOL     OW32632   6.183   0.703   4.604
10578SOL    HW132633   6.133   0.761   4.540
10578SOL    HW232634   6.281   0.709   4.585
10579SOL     OW32635   4.259   1.153   0.777
10579SOL    HW132636   4.227   1.069   0.735
10579SOL    HW232637   4.340   1.186   0.728
10580SOL     OW32638   6.656   6.389   6.900
10580SOL    HW132639   6.561   6.360   6.912
10580SOL    HW232640   6.715   6.333   6.958
10581SOL     OW32641   6.044   0.099   2.558
10581SOL    HW132642   5.964   0.057   2.600
10581SOL    HW232643   6.102   0.140   2.628
10582SOL     OW32644   3.862   4.513   6.218
10582SOL    HW132645   3.887   4.421   6.247
10582SOL    HW232646   3.913   4.580   6.273
10583SOL     OW32647   4.092   1.140   6.811
10583SOL    HW132648   4.062   1.114   6.903
10583SOL    HW232649   4.023   1.113   6.744
10584SOL     OW32650   5.494   6.331   1.183
10584SOL    HW132651   5.578   6.281   1.202
10584SOL    HW232652   5.501   6.423   1.222
10585SOL     OW32653   1.531   3.070   5.702
10585SOL    HW132654   1.566   3.064   5.608
10585SOL    HW232655   1.561   2.990   5.754
10586SOL     OW32656   1.732   6.111   5.933
10586SOL    HW132657   1.639   6.147   5.934
10586SOL    HW232658   1.749   6.058   6.016
10587SOL     OW32659   5.640   3.114   0.349
10587SOL    HW132660   5.597   3.127   0.439
10587SOL    HW232661   5.577   3.145   0.278
10588SOL     OW32662   1.351   4.277   2.170
10588SOL    HW132663   1.289   4.339   2.122
10588SOL    HW232664   1.303   4.235   2.246
10589SOL     OW32665   5.417   1.592   4.406
10589SOL    HW132666   5.396   1.507   4.357
10589SOL    HW232667   5.353   1.603   4.482
10590SOL     OW32668   1.321   0.010   2.091
10590SOL    HW132669   1.243   6.976   2.113
10590SOL    HW232670   1.291   0.080   2.026
10591SOL     OW32671   1.549   1.700   5.558
10591SOL    HW132672   1.459   1.659   5.572
10591SOL    HW232673   1.542   1.773   5.490
10592SOL     OW32674   5.057   2.228   0.321
10592SOL    HW132675   5.043   2.288   0.242
10592SOL    HW232676   5.101   2.280   0.395
10593SOL     OW32677   2.695   5.467   0.981
10593SOL    HW132678   2.721   5.432   1.071
10593SOL    HW232679   2.777   5.485   0.927
10594SOL     OW32680   5.842   2.058   3.699
10594SOL    HW132681   5.894   2.138   3.730
10594SOL    HW232682   5.905   1.988   3.667
10595SOL     OW32683   3.382   6.897   5.844
10595SOL    HW132684   3.308   6.855   5.791
10595SOL    HW232685   3.443   6.825   5.878
10596SOL     OW32686   4.100   6.724   1.888
10596SOL    HW132687   4.078   6.745   1.983
10596SOL    HW232688   4.019   6.738   1.831
10597SOL     OW32689   2.872   1.301   4.363
10597SOL    HW132690   2.811   1.237   4.410
10597SOL    HW232691   2.946   1.329   4.425
10598SOL     OW32692   2.533   2.194   6.713
10598SOL    HW132693   2.574   2.269   6.766
10598SOL    HW232694   2.598   2.162   6.645
10599SOL     OW32695   5.434   1.123   0.172
10599SOL    HW132696   5.337   1.103   0.157
10599SOL    HW232697   5.475   1.155   0.087
10600SOL     OW32698   2.152   3.001   6.909
10600SOL    HW132699   2.081   2.930   6.915
10600SOL    HW232700   2.183   3.025   7.001
10601SOL     OW32701   2.528   5.115   6.093
10601SOL    HW132702   2.444   5.067   6.069
10601SOL    HW232703   2.566   5.160   6.012
10602SOL     OW32704   5.630   1.688   2.029
10602SOL    HW132705   5.595   1.771   2.074
10602SOL    HW232706   5.710   1.711   1.974
10603SOL     OW32707   1.822   6.253   3.353
10603SOL    HW132708   1.743   6.213   3.400
10603SOL    HW232709   1.891   6.277   3.421
10604SOL     OW32710   5.721   4.591   4.374
10604SOL    HW132711   5.804   4.536   4.361
10604SOL    HW232712   5.742   4.687   4.355
10605SOL     OW32713   0.515   5.325   6.788
10605SOL    HW132714   0.572   5.260   6.839
10605SOL    HW232715   0.527   5.310   6.690
10606SOL     OW32716   6.559   0.550   1.751
10606SOL    HW132717   6.587   0.599   1.668
10606SOL    HW232718   6.511   0.613   1.812
10607SOL     OW32719   3.827   4.170   6.085
10607SOL    HW132720   3.770   4.102   6.039
10607SOL    HW232721   3.923   4.155   6.061
10608SOL     OW32722   5.985   1.968   4.858
10608SOL    HW132723   6.074   1.931   4.883
10608SOL    HW232724   5.927   1.894   4.822
10609SOL     OW32725   3.687   5.556   1.366
10609SOL    HW132726   3.678   5.612   1.283
10609SOL    HW232727   3.718   5.464   1.341
10610SOL     OW32728   0.997   4.258   6.889
10610SOL    HW132729   1.086   4.304   6.891
10610SOL    HW232730   1.011   4.159   6.901
10611SOL     OW32731   5.533   3.213   0.125
10611SOL    HW132732   5.598   3.247   0.057
10611SOL    HW232733   5.440   3.220   0.088
10612SOL     OW32734   2.458   6.712   6.098
10612SOL    HW132735   2.442   6.764   6.182
10612SOL    HW232736   2.387   6.736   6.031
10613SOL     OW32737   6.757   6.998   6.102
10613SOL    HW132738   6.670   6.949   6.105
10613SOL    HW232739   6.754   0.042   6.030
10614SOL     OW32740   6.985   1.249   3.818
10614SOL    HW132741   6.932   1.239   3.903
10614SOL    HW232742   6.964   1.336   3.775
10615SOL     OW32743   3.996   5.591   5.164
10615SOL    HW132744   3.969   5.496   5.178
10615SOL    HW232745   3.925   5.639   5.112
10616SOL     OW32746   3.402   6.362   0.407
10616SOL    HW132747   3.389   6.397   0.315
10616SOL    HW232748   3.499   6.342   0.422
10617SOL     OW32749   2.101   2.205   0.836
10617SOL    HW132750   2.045   2.146   0.779
10617SOL    HW232751   2.090   2.180   0.932
10618SOL     OW32752   6.744   2.599   0.539
10618SOL    HW132753   6.698   2.680   0.504
10618SOL    HW232754   6.709   2.517   0.493
10619SOL     OW32755   0.856   3.743   2.691
10619SOL    HW132756   0.942   3.718   2.734
10619SOL    HW232757   0.796   3.786   2.759
10620SOL     OW32758   1.044   5.784   5.540
10620SOL    HW132759   0.951   5.749   5.532
10620SOL    HW232760   1.108   5.707   5.538
10621SOL     OW32761   1.625   5.719   0.306
10621SOL    HW132762   1.643   5.638   0.362
10621SOL    HW232763   1.710   5.771   0.294
10622SOL     OW32764   4.523   0.849   2.128
10622SOL    HW132765   4.438   0.798   2.115
10622SOL    HW232766   4.596   0.805   2.076
10623SOL     OW32767   5.651   2.929   3.850
10623SOL    HW132768   5.660   2.903   3.946
10623SOL    HW232769   5.561   2.968   3.835
10624SOL     OW32770   1.067   1.393   5.289
10624SOL    HW132771   1.128   1.424   5.215
10624SOL    HW232772   0.975   1.378   5.252
10625SOL     OW32773   0.744   4.638   6.898
10625SOL    HW132774   0.765   4.627   6.800
10625SOL    HW232775   0.773   4.555   6.947
10626SOL     OW32776   1.319   2.447   1.694
10626SOL    HW132777   1.342   2.395   1.776
10626SOL    HW232778   1.220   2.451   1.683
10627SOL     OW32779   6.556   6.229   2.384
10627SOL    HW132780   6.496   6.157   2.420
10627SOL    HW232781   6.651   6.209   2.408
10628SOL     OW32782   5.967   5.206   5.726
10628SOL    HW132783   5.909   5.191   5.646
10628SOL    HW232784   5.957   5.300   5.757
10629SOL     OW32785   2.351   4.211   6.073
10629SOL    HW132786   2.252   4.204   6.058
10629SOL    HW232787   2.375   4.307   6.087
10630SOL     OW32788   6.169   0.632   3.717
10630SOL    HW132789   6.110   0.594   3.645
10630SOL    HW232790   6.229   0.559   3.751
10631SOL     OW32791   1.170   6.514   4.177
10631SOL    HW132792   1.126   6.603   4.188
10631SOL    HW232793   1.185   6.495   4.080
10632SOL     OW32794   6.009   2.160   4.417
10632SOL    HW132795   5.997   2.092   4.344
10632SOL    HW232796   6.085   2.132   4.476
10633SOL     OW32797   2.597   4.495   1.161
10633SOL    HW132798   2.653   4.455   1.234
10633SOL    HW232799   2.570   4.588   1.188
10634SOL     OW32800   2.825   5.595   0.183
10634SOL    HW132801   2.764   5.669   0.210
10634SOL    HW232802   2.885   5.570   0.259
10635SOL     OW32803   3.384   1.014   1.239
10635SOL    HW132804   3.439   1.022   1.156
10635SOL    HW232805   3.351   0.920   1.248
10636SOL     OW32806   0.796   1.808   1.506
10636SOL    HW132807   0.881   1.854   1.479
10636SOL    HW232808   0.816   1.742   1.579
10637SOL     OW32809   3.318   3.824   5.580
10637SOL    HW132810   3.305   3.923   5.568
10637SOL    HW232811   3.397   3.807   5.638
10638SOL     OW32812   0.594   6.756   3.722
10638SOL    HW132813   0.622   6.665   3.752
10638SOL    HW232814   0.494   6.759   3.714
10639SOL     OW32815   0.845   1.571   3.876
10639SOL    HW132816   0.912   1.525   3.935
10639SOL    HW232817   0.813   1.655   3.921
10640SOL     OW32818   4.359   0.221   6.424
10640SOL    HW132819   4.394   0.148   6.483
10640SOL    HW232820   4.287   0.184   6.365
10641SOL     OW32821   4.620   1.488   0.105
10641SOL    HW132822   4.628   1.543   0.188
10641SOL    HW232823   4.566   1.537   0.037
10642SOL     OW32824   0.459   2.316   1.315
10642SOL    HW132825   0.368   2.274   1.316
10642SOL    HW232826   0.451   2.413   1.338
10643SOL     OW32827   2.327   3.972   5.812
10643SOL    HW132828   2.260   3.979   5.738
10643SOL    HW232829   2.282   3.935   5.893
10644SOL     OW32830   4.479   1.912   4.252
10644SOL    HW132831   4.392   1.954   4.225
10644SOL    HW232832   4.545   1.921   4.178
10645SOL     OW32833   1.015   1.020   4.576
10645SOL    HW132834   0.955   0.979   4.645
10645SOL    HW232835   1.087   0.955   4.552
10646SOL     OW32836   0.640   2.493   6.150
10646SOL    HW132837   0.593   2.579   6.169
10646SOL    HW232838   0.694   2.465   6.229
10647SOL     OW32839   5.890   5.426   6.402
10647SOL    HW132840   5.985   5.436   6.375
10647SOL    HW232841   5.885   5.411   6.501
10648SOL     OW32842   5.383   3.604   6.817
10648SOL    HW132843   5.346   3.645   6.734
10648SOL    HW232844   5.327   3.630   6.895
10649SOL     OW32845   0.068   4.703   4.551
10649SOL    HW132846   6.994   4.694   4.537
10649SOL    HW232847   0.086   4.780   4.612
10650SOL     OW32848   1.625   6.375   4.032
10650SOL    HW132849   1.661   6.288   3.997
10650SOL    HW232850   1.696   6.444   4.027
10651SOL     OW32851   4.547   6.859   5.427
10651SOL    HW132852   4.467   6.886   5.373
10651SOL    HW232853   4.560   6.925   5.501
10652SOL     OW32854   3.321   0.219   6.371
10652SOL    HW132855   3.301   0.130   6.330
10652SOL    HW232856   3.327   0.210   6.470
10653SOL     OW32857   5.128   4.567   5.016
10653SOL    HW132858   5.115   4.468   5.013
10653SOL    HW232859   5.078   4.609   4.940
10654SOL     OW32860   3.169   0.222   1.542
10654SOL    HW132861   3.079   0.238   1.582
10654SOL    HW232862   3.227   0.175   1.609
10655SOL     OW32863   3.247   5.283   2.210
10655SOL    HW132864   3.185   5.313   2.283
10655SOL    HW232865   3.195   5.265   2.127
10656SOL     OW32866   6.501   2.485   6.738
10656SOL    HW132867   6.565   2.560   6.753
10656SOL    HW232868   6.482   2.439   6.825
10657SOL     OW32869   6.111   6.816   0.945
10657SOL    HW132870   6.121   6.770   0.857
10657SOL    HW232871   6.080   6.910   0.931
10658SOL     OW32872   1.015   4.095   5.025
10658SOL    HW132873   0.943   4.064   5.088
10658SOL    HW232874   1.011   4.039   4.942
10659SOL     OW32875   5.895   0.069   0.972
10659SOL    HW132876   5.931   0.086   0.880
10659SOL    HW232877   5.849   7.005   0.974
10660SOL     OW32878   4.752   3.684   5.867
10660SOL    HW132879   4.801   3.767   5.840
10660SOL    HW232880   4.708   3.644   5.787
10661SOL     OW32881   6.917   6.650   2.064
10661SOL    HW132882   6.872   6.705   1.994
10661SOL    HW232883   6.918   6.555   2.036
10662SOL     OW32884   6.621   0.811   0.657
10662SOL    HW132885   6.608   0.749   0.734
10662SOL    HW232886   6.719   0.816   0.635
10663SOL     OW32887   0.805   0.163   1.733
10663SOL    HW132888   0.824   0.092   1.665
10663SOL    HW232889   0.729   0.220   1.701
10664SOL     OW32890   1.905   4.129   6.711
10664SOL    HW132891   1.953   4.178   6.784
10664SOL    HW232892   1.807   4.153   6.714
10665SOL     OW32893   0.903   1.588   0.259
10665SOL    HW132894   0.861   1.567   0.348
10665SOL    HW232895   0.911   1.504   0.205
10666SOL     OW32896   3.628   5.192   0.198
10666SOL    HW132897   3.725   5.218   0.198
10666SOL    HW232898   3.620   5.094   0.217
10667SOL     OW32899   3.655   2.218   5.530
10667SOL    HW132900   3.680   2.199   5.435
10667SOL    HW232901   3.621   2.312   5.538
10668SOL     OW32902   1.486   1.840   6.276
10668SOL    HW132903   1.560   1.773   6.267
10668SOL    HW232904   1.492   1.906   6.202
10669SOL     OW32905   0.670   7.004   0.959
10669SOL    HW132906   0.710   6.924   0.915
10669SOL    HW232907   0.571   7.006   0.943
10670SOL     OW32908   5.428   4.849   6.107
10670SOL    HW132909   5.501   4.841   6.174
10670SOL    HW232910   5.379   4.762   6.100
10671SOL     OW32911   2.266   2.560   2.858
10671SOL    HW132912   2.316   2.509   2.789
10671SOL    HW232913   2.171   2.571   2.829
10672SOL     OW32914   0.342   2.651   0.612
10672SOL    HW132915   0.287   2.732   0.590
10672SOL    HW232916   0.438   2.672   0.596
10673SOL     OW32917   2.619   2.810   5.792
10673SOL    HW132918   2.588   2.789   5.699
10673SOL    HW232919   2.547   2.860   5.841
10674SOL     OW32920   3.921   3.700   0.653
10674SOL    HW132921   3.966   3.751   0.726
10674SOL    HW232922   3.884   3.763   0.585
10675SOL     OW32923   0.542   0.762   5.830
10675SOL    HW132924   0.517   0.667   5.845
10675SOL    HW232925   0.502   0.819   5.902
10676SOL     OW32926   5.947   0.451   6.491
10676SOL    HW132927   6.007   0.511   6.437
10676SOL    HW232928   5.955   0.357   6.456
10677SOL     OW32929   0.382   0.976   2.614
10677SOL    HW132930   0.366   0.894   2.559
10677SOL    HW232931   0.480   0.989   2.626
10678SOL     OW32932   2.936   5.365   2.704
10678SOL    HW132933   2.900   5.309   2.779
10678SOL    HW232934   3.025   5.402   2.731
10679SOL     OW32935   5.750   5.305   4.626
10679SOL    HW132936   5.751   5.374   4.554
10679SOL    HW232937   5.782   5.346   4.712
10680SOL     OW32938   1.579   2.898   2.346
10680SOL    HW132939   1.609   2.969   2.281
10680SOL    HW232940   1.532   2.941   2.423
10681SOL     OW32941   6.328   4.164   6.511
10681SOL    HW132942   6.294   4.088   6.566
10681SOL    HW232943   6.414   4.137   6.468
10682SOL     OW32944   1.450   1.551   2.965
10682SOL    HW132945   1.517   1.525   3.035
10682SOL    HW232946   1.399   1.470   2.937
10683SOL     OW32947   1.986   2.174   4.396
10683SOL    HW132948   2.030   2.225   4.322
10683SOL    HW232949   2.007   2.218   4.484
10684SOL     OW32950   5.589   4.085   0.545
10684SOL    HW132951   5.506   4.109   0.495
10684SOL    HW232952   5.665   4.139   0.510
10685SOL     OW32953   1.273   4.001   3.425
10685SOL    HW132954   1.291   4.099   3.416
10685SOL    HW232955   1.344   3.958   3.480
10686SOL     OW32956   3.181   6.123   6.693
10686SOL    HW132957   3.190   6.053   6.764
10686SOL    HW232958   3.176   6.079   6.603
10687SOL     OW32959   6.968   5.170   2.548
10687SOL    HW132960   6.877   5.169   2.589
10687SOL    HW232961   0.011   5.184   2.620
10688SOL     OW32962   6.848   4.189   2.572
10688SOL    HW132963   6.817   4.184   2.477
10688SOL    HW232964   6.924   4.253   2.579
10689SOL     OW32965   6.991   0.327   2.848
10689SOL    HW132966   6.898   0.364   2.838
10689SOL    HW232967   7.014   0.274   2.767
10690SOL     OW32968   3.837   5.192   2.505
10690SOL    HW132969   3.794   5.227   2.422
10690SOL    HW232970   3.933   5.221   2.507
10691SOL     OW32971   7.018   1.141   1.644
10691SOL    HW132972   0.001   1.129   1.544
10691SOL    HW232973   0.010   1.236   1.668
10692SOL     OW32974   3.303   5.954   3.885
10692SOL    HW132975   3.313   6.051   3.864
10692SOL    HW232976   3.393   5.912   3.895
10693SOL     OW32977   0.423   1.653   0.945
10693SOL    HW132978   0.344   1.714   0.958
10693SOL    HW232979   0.489   1.667   1.018
10694SOL     OW32980   3.485   6.089   1.083
10694SOL    HW132981   3.452   6.111   0.991
10694SOL    HW232982   3.582   6.112   1.090
10695SOL     OW32983   0.448   2.786   4.380
10695SOL    HW132984   0.451   2.881   4.412
10695SOL    HW232985   0.354   2.754   4.378
10696SOL     OW32986   6.982   6.293   1.359
10696SOL    HW132987   0.006   6.279   1.446
10696SOL    HW232988   6.907   6.228   1.352
10697SOL     OW32989   0.352   6.287   3.874
10697SOL    HW132990   0.416   6.297   3.950
10697SOL    HW232991   0.261   6.318   3.903
10698SOL     OW32992   2.928   0.094   3.081
10698SOL    HW132993   2.989   0.140   3.016
10698SOL    HW232994   2.845   0.149   3.092
10699SOL     OW32995   4.160   1.752   2.912
10699SOL    HW132996   4.198   1.824   2.853
10699SOL    HW232997   4.123   1.678   2.855
10700SOL     OW32998   0.026   6.386   0.928
10700SOL    HW132999   0.105   6.427   0.972
10700SOL    HW233000   7.001   6.457   0.878
10701SOL     OW33001   3.743   5.757   0.059
10701SOL    HW133002   3.664   5.819   0.057
10701SOL    HW233003   3.711   5.663   0.070
10702SOL     OW33004   6.031   2.505   0.080
10702SOL    HW133005   5.984   2.454   0.152
10702SOL    HW233006   5.984   2.592   0.065
10703SOL     OW33007   3.896   4.019   3.459
10703SOL    HW133008   3.901   4.028   3.359
10703SOL    HW233009   3.925   3.927   3.485
10704SOL     OW33010   4.931   0.217   2.361
10704SOL    HW133011   4.936   0.201   2.263
10704SOL    HW233012   4.835   0.227   2.389
10705SOL     OW33013   1.287   3.845   6.328
10705SOL    HW133014   1.241   3.893   6.403
10705SOL    HW233015   1.384   3.870   6.328
10706SOL     OW33016   4.118   0.521   1.779
10706SOL    HW133017   4.070   0.507   1.692
10706SOL    HW233018   4.201   0.466   1.780
10707SOL     OW33019   6.374   0.270   5.853
10707SOL    HW133020   6.436   0.284   5.776
10707SOL    HW233021   6.364   0.172   5.871
10708SOL     OW33022   5.037   0.761   1.157
10708SOL    HW133023   5.094   0.819   1.099
10708SOL    HW233024   4.944   0.798   1.160
10709SOL     OW33025   6.165   0.014   5.355
10709SOL    HW133026   6.202   0.102   5.323
10709SOL    HW233027   6.213   7.011   5.438
10710SOL     OW33028   6.276   5.627   3.947
10710SOL    HW133029   6.301   5.561   3.877
10710SOL    HW233030   6.275   5.583   4.037
10711SOL     OW33031   1.773   0.135   4.234
10711SOL    HW133032   1.708   0.177   4.298
10711SOL    HW233033   1.728   0.120   4.146
10712SOL     OW33034   3.880   1.526   4.919
10712SOL    HW133035   3.938   1.475   4.855
10712SOL    HW233036   3.890   1.624   4.904
10713SOL     OW33037   2.549   5.925   1.755
10713SOL    HW133038   2.604   5.862   1.700
10713SOL    HW233039   2.453   5.903   1.744
10714SOL     OW33040   0.764   4.889   4.840
10714SOL    HW133041   0.832   4.940   4.892
10714SOL    HW233042   0.785   4.791   4.845
10715SOL     OW33043   4.692   1.973   4.039
10715SOL    HW133044   4.762   1.918   3.994
10715SOL    HW233045   4.736   2.040   4.098
10716SOL     OW33046   6.679   1.027   4.500
10716SOL    HW133047   6.714   1.100   4.441
10716SOL    HW233048   6.584   1.006   4.476
10717SOL     OW33049   6.549   1.276   1.859
10717SOL    HW133050   6.596   1.215   1.794
10717SOL    HW233051   6.599   1.278   1.945
10718SOL     OW33052   6.430   4.959   6.538
10718SOL    HW133053   6.355   4.944   6.473
10718SOL    HW233054   6.401   5.026   6.607
10719SOL     OW33055   5.393   0.891   1.544
10719SOL    HW133056   5.476   0.844   1.573
10719SOL    HW233057   5.313   0.841   1.577
10720SOL     OW33058   0.089   3.744   6.541
10720SOL    HW133059   0.024   3.671   6.520
10720SOL    HW233060   0.041   3.822   6.580
10721SOL     OW33061   6.015   2.449   4.445
10721SOL    HW133062   5.945   2.487   4.385
10721SOL    HW233063   6.019   2.350   4.433
10722SOL     OW33064   6.676   3.383   0.628
10722SOL    HW133065   6.630   3.440   0.560
10722SOL    HW233066   6.773   3.377   0.606
10723SOL     OW33067   5.663   4.416   6.672
10723SOL    HW133068   5.635   4.326   6.638
10723SOL    HW233069   5.743   4.407   6.730
10724SOL     OW33070   4.190   6.320   6.247
10724SOL    HW133071   4.262   6.328   6.178
10724SOL    HW233072   4.229   6.339   6.337
10725SOL     OW33073   0.428   6.442   4.355
10725SOL    HW133074   0.405   6.504   4.430
10725SOL    HW233075   0.377   6.468   4.273
10726SOL     OW33076   5.726   0.424   4.599
10726SOL    HW133077   5.687   0.431   4.507
10726SOL    HW233078   5.736   0.328   4.624
10727SOL     OW33079   2.038   5.543   5.599
10727SOL    HW133080   2.052   5.444   5.596
10727SOL    HW233081   1.943   5.562   5.624
10728SOL     OW33082   4.582   6.528   3.100
10728SOL    HW133083   4.485   6.536   3.123
10728SOL    HW233084   4.606   6.431   3.091
10729SOL     OW33085   6.136   2.896   2.987
10729SOL    HW133086   6.093   2.838   3.056
10729SOL    HW233087   6.142   2.845   2.901
10730SOL     OW33088   2.118   6.787   2.598
10730SOL    HW133089   2.115   6.886   2.590
10730SOL    HW233090   2.035   6.754   2.643
10731SOL     OW33091   3.634   6.156   0.203
10731SOL    HW133092   3.617   6.066   0.164
10731SOL    HW233093   3.670   6.146   0.296
10732SOL     OW33094   5.744   5.943   2.747
10732SOL    HW133095   5.732   6.029   2.797
10732SOL    HW233096   5.839   5.912   2.757
10733SOL     OW33097   6.547   1.809   6.255
10733SOL    HW133098   6.467   1.760   6.222
10733SOL    HW233099   6.618   1.807   6.185
10734SOL     OW33100   1.464   0.625   6.393
10734SOL    HW133101   1.504   0.712   6.366
10734SOL    HW233102   1.535   0.566   6.432
10735SOL     OW33103   1.233   4.569   2.194
10735SOL    HW133104   1.274   4.580   2.285
10735SOL    HW233105   1.133   4.569   2.203
10736SOL     OW33106   6.899   0.729   3.754
10736SOL    HW133107   6.947   0.720   3.667
10736SOL    HW233108   6.928   0.812   3.800
10737SOL     OW33109   6.883   1.641   0.955
10737SOL    HW133110   6.870   1.542   0.965
10737SOL    HW233111   6.974   1.660   0.920
10738SOL     OW33112   2.820   0.566   2.784
10738SOL    HW133113   2.809   0.662   2.759
10738SOL    HW233114   2.909   0.553   2.827
10739SOL     OW33115   5.859   1.486   2.105
10739SOL    HW133116   5.815   1.512   2.019
10739SOL    HW233117   5.824   1.543   2.179
10740SOL     OW33118   1.497   7.012   5.833
10740SOL    HW133119   1.574   0.033   5.787
10740SOL    HW233120   1.532   6.956   5.908
10741SOL     OW33121   1.636   2.481   2.999
10741SOL    HW133122   1.584   2.562   2.973
10741SOL    HW233123   1.643   2.420   2.920
10742SOL     OW33124   6.135   5.550   2.297
10742SOL    HW133125   6.142   5.453   2.321
10742SOL    HW233126   6.057   5.590   2.345
10743SOL     OW33127   3.271   1.237   5.644
10743SOL    HW133128   3.258   1.160   5.582
10743SOL    HW233129   3.327   1.307   5.599
10744SOL     OW33130   2.836   0.417   1.187
10744SOL    HW133131   2.770   0.480   1.145
10744SOL    HW233132   2.906   0.393   1.119
10745SOL     OW33133   1.978   4.255   1.180
10745SOL    HW133134   2.062   4.203   1.193
10745SOL    HW233135   1.981   4.303   1.092
10746SOL     OW33136   2.313   6.224   0.066
10746SOL    HW133137   2.228   6.249   0.112
10746SOL    HW233138   2.339   6.297   0.003
10747SOL     OW33139   6.489   2.017   4.299
10747SOL    HW133140   6.471   2.040   4.395
10747SOL    HW233141   6.500   2.101   4.246
10748SOL     OW33142   4.086   4.955   1.227
10748SOL    HW133143   4.113   4.860   1.243
10748SOL    HW233144   4.049   4.994   1.312
10749SOL     OW33145   6.488   4.943   2.731
10749SOL    HW133146   6.427   5.022   2.732
10749SOL    HW233147   6.507   4.915   2.825
10750SOL     OW33148   4.959   3.306   4.089
10750SOL    HW133149   4.951   3.265   3.998
10750SOL    HW233150   4.986   3.235   4.154
10751SOL     OW33151   1.354   3.282   4.785
10751SOL    HW133152   1.379   3.185   4.789
10751SOL    HW233153   1.293   3.303   4.861
10752SOL     OW33154   5.752   5.858   0.325
10752SOL    HW133155   5.659   5.885   0.348
10752SOL    HW233156   5.814   5.891   0.396
10753SOL     OW33157   5.255   6.228   3.786
10753SOL    HW133158   5.192   6.283   3.731
10753SOL    HW233159   5.244   6.251   3.883
10754SOL     OW33160   1.226   3.063   1.513
10754SOL    HW133161   1.243   3.011   1.597
10754SOL    HW233162   1.258   3.011   1.434
10755SOL     OW33163   6.771   2.890   1.258
10755SOL    HW133164   6.868   2.871   1.268
10755SOL    HW233165   6.750   2.903   1.161
10756SOL     OW33166   7.014   2.869   0.687
10756SOL    HW133167   6.990   2.810   0.763
10756SOL    HW233168   6.938   2.931   0.667
10757SOL     OW33169   6.413   4.322   0.568
10757SOL    HW133170   6.509   4.295   0.563
10757SOL    HW233171   6.357   4.258   0.516
10758SOL     OW33172   0.612   6.767   6.763
10758SOL    HW133173   0.654   6.827   6.831
10758SOL    HW233174   0.644   6.673   6.776
10759SOL     OW33175   1.872   1.846   6.543
10759SOL    HW133176   1.863   1.900   6.459
10759SOL    HW233177   1.939   1.890   6.604
10760SOL     OW33178   0.499   5.904   0.053
10760SOL    HW133179   0.528   5.821   0.006
10760SOL    HW233180   0.416   5.885   0.106
10761SOL     OW33181   0.888   1.784   6.347
10761SOL    HW133182   0.844   1.726   6.279
10761SOL    HW233183   0.944   1.853   6.302
10762SOL     OW33184   4.210   0.831   5.730
10762SOL    HW133185   4.114   0.813   5.707
10762SOL    HW233186   4.218   0.854   5.827
10763SOL     OW33187   6.005   0.147   3.258
10763SOL    HW133188   5.964   0.067   3.215
10763SOL    HW233189   6.030   0.214   3.188
10764SOL     OW33190   4.510   1.388   5.192
10764SOL    HW133191   4.451   1.310   5.175
10764SOL    HW233192   4.519   1.403   5.290
10765SOL     OW33193   6.230   2.451   2.444
10765SOL    HW133194   6.178   2.537   2.442
10765SOL    HW233195   6.175   2.379   2.401
10766SOL     OW33196   1.505   4.722   0.125
10766SOL    HW133197   1.572   4.667   0.175
10766SOL    HW233198   1.418   4.673   0.121
10767SOL     OW33199   1.668   5.756   0.697
10767SOL    HW133200   1.690   5.849   0.726
10767SOL    HW233201   1.569   5.741   0.702
10768SOL     OW33202   5.716   5.897   0.033
10768SOL    HW133203   5.712   5.900   0.133
10768SOL    HW233204   5.628   5.925   7.020
10769SOL     OW33205   3.168   3.580   5.108
10769SOL    HW133206   3.177   3.495   5.160
10769SOL    HW233207   3.238   3.645   5.139
10770SOL     OW33208   5.436   6.961   4.385
10770SOL    HW133209   5.377   6.894   4.340
10770SOL    HW233210   5.488   7.011   4.315
10771SOL     OW33211   5.499   6.970   5.494
10771SOL    HW133212   5.531   6.876   5.492
10771SOL    HW233213   5.433   6.983   5.568
10772SOL     OW33214   5.461   5.654   3.256
10772SOL    HW133215   5.381   5.596   3.273
10772SOL    HW233216   5.432   5.750   3.250
10773SOL     OW33217   6.875   4.565   0.849
10773SOL    HW133218   6.889   4.550   0.947
10773SOL    HW233219   6.951   4.523   0.798
10774SOL     OW33220   1.236   2.428   0.849
10774SOL    HW133221   1.210   2.468   0.937
10774SOL    HW233222   1.168   2.360   0.822
10775SOL     OW33223   1.632   4.600   0.870
10775SOL    HW133224   1.598   4.509   0.894
10775SOL    HW233225   1.732   4.599   0.873
10776SOL     OW33226   0.074   0.905   3.055
10776SOL    HW133227   0.076   0.932   3.151
10776SOL    HW233228   0.120   0.974   2.999
10777SOL     OW33229   2.945   0.834   3.463
10777SOL    HW133230   3.033   0.881   3.469
10777SOL    HW233231   2.961   0.735   3.459
10778SOL     OW33232   6.420   6.469   4.130
10778SOL    HW133233   6.477   6.550   4.115
10778SOL    HW233234   6.461   6.390   4.085
10779SOL     OW33235   5.808   4.162   3.975
10779SOL    HW133236   5.734   4.182   3.912
10779SOL    HW233237   5.773   4.108   4.052
10780SOL     OW33238   0.591   5.990   4.512
10780SOL    HW133239   0.504   5.968   4.557
10780SOL    HW233240   0.574   6.017   4.417
10781SOL     OW33241   5.844   2.572   4.896
10781SOL    HW133242   5.908   2.496   4.905
10781SOL    HW233243   5.835   2.617   4.985
10782SOL     OW33244   0.804   3.197   5.465
10782SOL    HW133245   0.809   3.124   5.397
10782SOL    HW233246   0.737   3.172   5.535
10783SOL     OW33247   1.147   2.624   2.374
10783SOL    HW133248   1.191   2.697   2.426
10783SOL    HW233249   1.189   2.617   2.283
10784SOL     OW33250   2.781   6.011   2.707
10784SOL    HW133251   2.785   5.911   2.707
10784SOL    HW233252   2.795   6.044   2.801
10785SOL     OW33253   1.874   5.628   2.169
10785SOL    HW133254   1.846   5.626   2.265
10785SOL    HW233255   1.974   5.630   2.163
10786SOL     OW33256   4.623   2.022   1.998
10786SOL    HW133257   4.558   2.078   1.946
10786SOL    HW233258   4.645   1.940   1.945
10787SOL     OW33259   3.497   0.929   3.750
10787SOL    HW133260   3.538   0.890   3.832
10787SOL    HW233261   3.560   0.919   3.673
10788SOL     OW33262   0.780   4.451   0.424
10788SOL    HW133263   0.684   4.458   0.398
10788SOL    HW233264   0.833   4.416   0.347
10789SOL     OW33265   6.269   1.392   0.066
10789SOL    HW133266   6.353   1.337   0.065
10789SOL    HW233267   6.285   1.476   0.118
10790SOL     OW33268   0.317   2.296   4.728
10790SOL    HW133269   0.343   2.207   4.691
10790SOL    HW233270   0.398   2.354   4.735
10791SOL     OW33271   2.072   1.371   2.728
10791SOL    HW133272   2.133   1.404   2.656
10791SOL    HW233273   1.977   1.394   2.705
10792SOL     OW33274   4.061   2.153   1.467
10792SOL    HW133275   4.014   2.159   1.379
10792SOL    HW233276   3.996   2.173   1.540
10793SOL     OW33277   4.663   1.796   4.727
10793SOL    HW133278   4.641   1.771   4.633
10793SOL    HW233279   4.605   1.743   4.789
10794SOL     OW33280   4.368   3.157   1.755
10794SOL    HW133281   4.437   3.118   1.816
10794SOL    HW233282   4.343   3.248   1.788
10795SOL     OW33283   6.973   3.750   3.220
10795SOL    HW133284   6.939   3.795   3.138
10795SOL    HW233285   6.940   3.655   3.222
10796SOL     OW33286   6.273   6.334   6.644
10796SOL    HW133287   6.318   6.422   6.630
10796SOL    HW233288   6.304   6.270   6.573
10797SOL     OW33289   4.369   3.352   0.702
10797SOL    HW133290   4.456   3.303   0.709
10797SOL    HW233291   4.387   3.449   0.685
10798SOL     OW33292   2.982   6.941   6.427
10798SOL    HW133293   2.988   0.016   6.432
10798SOL    HW233294   2.905   6.915   6.369
10799SOL     OW33295   3.061   1.299   2.771
10799SOL    HW133296   3.078   1.347   2.858
10799SOL    HW233297   2.989   1.347   2.721
10800SOL     OW33298   1.319   0.200   6.606
10800SOL    HW133299   1.367   0.193   6.518
10800SOL    HW233300   1.225   0.169   6.595
10801SOL     OW33301   1.978   5.917   6.463
10801SOL    HW133302   2.036   5.976   6.407
10801SOL    HW233303   2.032   5.878   6.538
10802SOL     OW33304   1.098   3.447   4.096
10802SOL    HW133305   1.020   3.502   4.129
10802SOL    HW233306   1.077   3.350   4.108
10803SOL     OW33307   6.197   4.919   5.604
10803SOL    HW133308   6.294   4.930   5.583
10803SOL    HW233309   6.159   4.847   5.545
10804SOL     OW33310   5.945   4.547   1.901
10804SOL    HW133311   6.019   4.562   1.836
10804SOL    HW233312   5.970   4.587   1.990
10805SOL     OW33313   4.208   6.640   0.604
10805SOL    HW133314   4.208   6.695   0.688
10805SOL    HW233315   4.117   6.644   0.562
10806SOL     OW33316   5.649   3.786   0.529
10806SOL    HW133317   5.703   3.784   0.613
10806SOL    HW233318   5.614   3.879   0.514
10807SOL     OW33319   3.595   6.081   3.271
10807SOL    HW133320   3.555   5.993   3.246
10807SOL    HW233321   3.685   6.066   3.313
10808SOL     OW33322   0.571   2.855   5.984
10808SOL    HW133323   0.575   2.862   5.884
10808SOL    HW233324   0.576   2.947   6.024
10809SOL     OW33325   2.730   0.292   3.497
10809SOL    HW133326   2.766   0.225   3.433
10809SOL    HW233327   2.630   0.295   3.490
10810SOL     OW33328   0.290   1.674   4.993
10810SOL    HW133329   0.201   1.636   4.969
10810SOL    HW233330   0.312   1.652   5.088
10811SOL     OW33331   4.690   4.908   5.344
10811SOL    HW133332   4.590   4.915   5.346
10811SOL    HW233333   4.717   4.849   5.267
10812SOL     OW33334   6.415   3.036   2.613
10812SOL    HW133335   6.469   3.005   2.692
10812SOL    HW233336   6.425   2.970   2.538
10813SOL     OW33337   2.842   5.969   2.173
10813SOL    HW133338   2.796   5.967   2.262
10813SOL    HW233339   2.786   5.922   2.105
10814SOL     OW33340   1.959   7.022   5.333
10814SOL    HW133341   2.053   0.023   5.357
10814SOL    HW233342   1.902   7.024   5.415
10815SOL     OW33343   5.433   4.180   2.587
10815SOL    HW133344   5.501   4.106   2.592
10815SOL    HW233345   5.434   4.219   2.495
10816SOL     OW33346   1.385   0.860   2.121
10816SOL    HW133347   1.312   0.794   2.104
10816SOL    HW233348   1.401   0.915   2.039
10817SOL     OW33349   5.027   0.320   2.725
10817SOL    HW133350   5.000   0.377   2.648
10817SOL    HW233351   4.945   0.280   2.767
10818SOL     OW33352   5.193   2.797   6.626
10818SOL    HW133353   5.258   2.817   6.700
10818SOL    HW233354   5.204   2.864   6.553
10819SOL     OW33355   0.162   4.686   6.732
10819SOL    HW133356   0.254   4.684   6.770
10819SOL    HW233357   0.105   4.747   6.787
10820SOL     OW33358   6.979   6.501   3.894
10820SOL    HW133359   6.960   6.457   3.806
10820SOL    HW233360   6.970   6.600   3.884
10821SOL     OW33361   6.776   0.537   1.256
10821SOL    HW133362   6.856   0.595   1.272
10821SOL    HW233363   6.697   0.595   1.235
10822SOL     OW33364   1.139   3.928   2.520
10822SOL    HW133365   1.146   3.852   2.586
10822SOL    HW233366   1.081   3.901   2.444
10823SOL     OW33367   2.435   6.314   1.256
10823SOL    HW133368   2.374   6.384   1.293
10823SOL    HW233369   2.436   6.235   1.317
10824SOL     OW33370   5.164   0.721   2.593
10824SOL    HW133371   5.090   0.752   2.533
10824SOL    HW233372   5.195   0.631   2.562
10825SOL     OW33373   3.248   0.965   0.837
10825SOL    HW133374   3.235   0.912   0.921
10825SOL    HW233375   3.294   1.051   0.859
10826SOL     OW33376   0.150   3.445   2.435
10826SOL    HW133377   0.128   3.349   2.452
10826SOL    HW233378   0.219   3.475   2.501
10827SOL     OW33379   0.256   3.246   4.412
10827SOL    HW133380   0.258   3.327   4.354
10827SOL    HW233381   0.214   3.268   4.500
10828SOL     OW33382   1.388   5.848   0.374
10828SOL    HW133383   1.397   5.925   0.311
10828SOL    HW233384   1.474   5.797   0.377
10829SOL     OW33385   3.215   3.984   2.128
10829SOL    HW133386   3.171   3.935   2.052
10829SOL    HW233387   3.156   3.981   2.208
10830SOL     OW33388   5.211   2.968   4.728
10830SOL    HW133389   5.264   3.053   4.726
10830SOL    HW233390   5.124   2.982   4.681
10831SOL     OW33391   5.239   1.433   2.695
10831SOL    HW133392   5.316   1.371   2.712
10831SOL    HW233393   5.273   1.519   2.658
10832SOL     OW33394   0.862   2.158   0.566
10832SOL    HW133395   0.813   2.217   0.501
10832SOL    HW233396   0.810   2.074   0.580
10833SOL     OW33397   2.536   0.559   4.412
10833SOL    HW133398   2.505   0.607   4.494
10833SOL    HW233399   2.615   0.502   4.435
10834SOL     OW33400   0.513   2.019   5.723
10834SOL    HW133401   0.557   1.932   5.744
10834SOL    HW233402   0.468   2.013   5.634
10835SOL     OW33403   5.788   1.773   2.283
10835SOL    HW133404   5.769   1.870   2.299
10835SOL    HW233405   5.722   1.717   2.333
10836SOL     OW33406   1.523   1.978   6.546
10836SOL    HW133407   1.435   2.022   6.528
10836SOL    HW233408   1.555   1.932   6.464
10837SOL     OW33409   6.617   4.904   0.899
10837SOL    HW133410   6.594   4.822   0.952
10837SOL    HW233411   6.585   4.892   0.805
10838SOL     OW33412   5.526   6.803   6.632
10838SOL    HW133413   5.579   6.884   6.608
10838SOL    HW233414   5.507   6.750   6.549
10839SOL     OW33415   1.696   2.021   0.066
10839SOL    HW133416   1.698   1.921   0.071
10839SOL    HW233417   1.788   2.055   0.050
10840SOL     OW33418   3.629   5.074   1.947
10840SOL    HW133419   3.560   5.140   1.979
10840SOL    HW233420   3.587   4.985   1.934
10841SOL     OW33421   3.954   5.507   6.042
10841SOL    HW133422   4.053   5.517   6.047
10841SOL    HW233423   3.925   5.503   5.946
10842SOL     OW33424   6.144   3.315   0.944
10842SOL    HW133425   6.079   3.290   1.016
10842SOL    HW233426   6.217   3.372   0.984
10843SOL     OW33427   0.517   1.598   2.028
10843SOL    HW133428   0.493   1.627   2.121
10843SOL    HW233429   0.612   1.567   2.027
10844SOL     OW33430   5.210   0.389   3.175
10844SOL    HW133431   5.123   0.400   3.222
10844SOL    HW233432   5.253   0.479   3.163
10845SOL     OW33433   1.091   0.923   1.594
10845SOL    HW133434   0.993   0.903   1.599
10845SOL    HW233435   1.105   1.020   1.613
10846SOL     OW33436   4.094   1.802   1.422
10846SOL    HW133437   4.136   1.719   1.385
10846SOL    HW233438   3.998   1.785   1.444
10847SOL     OW33439   3.977   2.555   6.123
10847SOL    HW133440   4.051   2.613   6.088
10847SOL    HW233441   4.006   2.459   6.118
10848SOL     OW33442   1.402   0.541   0.298
10848SOL    HW133443   1.402   0.635   0.331
10848SOL    HW233444   1.341   0.533   0.219
10849SOL     OW33445   3.059   4.995   4.524
10849SOL    HW133446   2.967   5.033   4.527
10849SOL    HW233447   3.074   4.937   4.604
10850SOL     OW33448   5.331   6.735   0.167
10850SOL    HW133449   5.302   6.810   0.107
10850SOL    HW233450   5.334   6.768   0.261
10851SOL     OW33451   3.016   2.351   6.941
10851SOL    HW133452   2.953   2.376   7.015
10851SOL    HW233453   3.003   2.255   6.917
10852SOL     OW33454   0.277   0.927   6.832
10852SOL    HW133455   0.282   0.830   6.805
10852SOL    HW233456   0.192   0.966   6.798
10853SOL     OW33457   2.849   1.205   4.794
10853SOL    HW133458   2.888   1.178   4.706
10853SOL    HW233459   2.749   1.194   4.791
10854SOL     OW33460   6.328   6.587   6.602
10854SOL    HW133461   6.399   6.640   6.557
10854SOL    HW233462   6.315   6.622   6.695
10855SOL     OW33463   1.589   6.285   1.641
10855SOL    HW133464   1.557   6.342   1.565
10855SOL    HW233465   1.641   6.208   1.605
10856SOL     OW33466   6.045   6.877   6.861
10856SOL    HW133467   6.083   6.934   6.935
10856SOL    HW233468   6.117   6.818   6.825
10857SOL     OW33469   6.383   1.287   3.806
10857SOL    HW133470   6.467   1.328   3.842
10857SOL    HW233471   6.367   1.320   3.713
10858SOL     OW33472   1.299   3.166   6.914
10858SOL    HW133473   1.214   3.133   6.873
10858SOL    HW233474   1.365   3.185   6.842
10859SOL     OW33475   0.829   4.418   3.588
10859SOL    HW133476   0.808   4.322   3.606
10859SOL    HW233477   0.750   4.462   3.546
10860SOL     OW33478   6.034   1.910   0.125
10860SOL    HW133479   6.079   1.836   0.175
10860SOL    HW233480   6.004   1.981   0.189
10861SOL     OW33481   3.214   2.773   1.866
10861SOL    HW133482   3.311   2.769   1.891
10861SOL    HW233483   3.170   2.847   1.918
10862SOL     OW33484   3.397   2.379   5.861
10862SOL    HW133485   3.396   2.280   5.868
10862SOL    HW233486   3.327   2.409   5.796
10863SOL     OW33487   2.798   1.185   3.377
10863SOL    HW133488   2.814   1.102   3.325
10863SOL    HW233489   2.711   1.227   3.348
10864SOL     OW33490   2.307   4.422   1.856
10864SOL    HW133491   2.330   4.519   1.867
10864SOL    HW233492   2.362   4.383   1.782
10865SOL     OW33493   4.692   2.353   3.244
10865SOL    HW133494   4.641   2.310   3.169
10865SOL    HW233495   4.718   2.283   3.310
10866SOL     OW33496   6.849   3.893   2.505
10866SOL    HW133497   6.842   3.850   2.595
10866SOL    HW233498   6.794   3.976   2.503
10867SOL     OW33499   3.727   2.711   0.414
10867SOL    HW133500   3.684   2.623   0.434
10867SOL    HW233501   3.734   2.764   0.499
10868SOL     OW33502   1.392   2.032   4.041
10868SOL    HW133503   1.297   2.005   4.055
10868SOL    HW233504   1.450   1.951   4.038
10869NA      NA33505   0.123   2.018   6.051
10870NA      NA33506   4.281   4.681   5.218
10871NA      NA33507   1.349   5.448   2.477
10872NA      NA33508   5.325   4.144   3.328
10873NA      NA33509   4.276   2.404   5.287
10874NA      NA33510   2.427   5.138   0.874
10875NA      NA33511   1.030   5.281   6.686
10876NA      NA33512   3.473   4.195   1.101
10877NA      NA33513   4.505   4.979   0.828
10878NA      NA33514   3.375   1.276   6.527
10879NA      NA33515   5.526   5.776   2.081
10880NA      NA33516   1.409   6.678   5.288
10881NA      NA33517   4.457   4.959   1.743
10882NA      NA33518   3.077   3.094   6.776
   7.02521   7.02521   7.02521
