Generated by trjconv : CNT in water t= 432.00000
33518
    1C        C    1   2.840   2.766   4.747
    1C        C    2   2.896   2.719   4.868
    1C        C    3   2.844   2.777   4.985
    1C        C    4   2.848   2.773   4.260
    1C        C    5   2.902   2.728   4.383
    1C        C    6   2.842   2.768   4.504
    1C        C    7   3.012   2.639   4.627
    1C        C    8   2.897   2.721   4.626
    1C        C    9   3.081   2.609   4.747
    1C        C   10   3.010   2.636   4.866
    1C        C   11   3.182   2.501   4.980
    1C        C   12   3.057   2.563   4.976
    1C        C   13   2.851   2.774   3.772
    1C        C   14   2.902   2.727   3.895
    1C        C   15   2.847   2.773   4.017
    1C        C   16   3.018   2.647   4.136
    1C        C   17   2.897   2.720   4.138
    1C        C   18   3.079   2.617   4.260
    1C        C   19   3.020   2.651   4.384
    1C        C   20   3.210   2.559   4.505
    1C        C   21   3.079   2.611   4.506
    1C        C   22   3.277   2.535   4.627
    1C        C   23   3.209   2.548   4.750
    1C        C   24   3.415   2.484   4.866
    1C        C   25   3.273   2.503   4.869
    1C        C   26   3.492   2.477   4.983
    1C        C   27   2.844   2.768   3.283
    1C        C   28   2.903   2.728   3.406
    1C        C   29   2.851   2.774   3.529
    1C        C   30   3.019   2.642   3.650
    1C        C   31   2.905   2.726   3.651
    1C        C   32   3.081   2.611   3.773
    1C        C   33   3.016   2.645   3.894
    1C        C   34   3.211   2.559   4.016
    1C        C   35   3.079   2.609   4.015
    1C        C   36   3.277   2.541   4.139
    1C        C   37   3.211   2.566   4.262
    1C        C   38   3.419   2.519   4.382
    1C        C   39   3.280   2.546   4.383
    1C        C   40   3.488   2.508   4.504
    1C        C   41   3.417   2.512   4.626
    1C        C   42   3.631   2.490   4.745
    1C        C   43   3.489   2.487   4.745
    1C        C   44   3.706   2.491   4.864
    1C        C   45   3.631   2.481   4.982
    1C        C   46   2.837   2.756   2.792
    1C        C   47   2.892   2.715   2.916
    1C        C   48   2.842   2.764   3.038
    1C        C   49   3.017   2.645   3.163
    1C        C   50   2.899   2.724   3.161
    1C        C   51   3.077   2.605   3.284
    1C        C   52   3.014   2.641   3.405
    1C        C   53   3.207   2.553   3.527
    1C        C   54   3.075   2.604   3.526
    1C        C   55   3.277   2.538   3.649
    1C        C   56   3.212   2.558   3.773
    1C        C   57   3.421   2.520   3.894
    1C        C   58   3.281   2.537   3.895
    1C        C   59   3.488   2.513   4.018
    1C        C   60   3.415   2.511   4.139
    1C        C   61   3.630   2.505   4.261
    1C        C   62   3.488   2.506   4.259
    1C        C   63   3.703   2.510   4.382
    1C        C   64   3.629   2.505   4.502
    1C        C   65   3.839   2.543   4.622
    1C        C   66   3.702   2.509   4.624
    1C        C   67   3.904   2.565   4.745
    1C        C   68   3.843   2.526   4.866
    1C        C   69   4.051   2.585   4.978
    1C        C   70   3.923   2.529   4.981
    1C        C   71   2.823   2.733   2.309
    1C        C   72   2.882   2.693   2.431
    1C        C   73   2.833   2.749   2.551
    1C        C   74   3.008   2.628   2.675
    1C        C   75   2.889   2.704   2.672
    1C        C   76   3.072   2.599   2.797
    1C        C   77   3.012   2.640   2.919
    1C        C   78   3.206   2.552   3.040
    1C        C   79   3.079   2.612   3.040
    1C        C   80   3.273   2.529   3.163
    1C        C   81   3.207   2.549   3.286
    1C        C   82   3.416   2.507   3.405
    1C        C   83   3.277   2.527   3.407
    1C        C   84   3.489   2.504   3.527
    1C        C   85   3.416   2.512   3.648
    1C        C   86   3.629   2.507   3.771
    1C        C   87   3.488   2.506   3.770
    1C        C   88   3.699   2.517   3.893
    1C        C   89   3.629   2.514   4.016
    1C        C   90   3.836   2.552   4.136
    1C        C   91   3.699   2.516   4.139
    1C        C   92   3.902   2.578   4.258
    1C        C   93   3.839   2.547   4.381
    1C        C   94   4.033   2.636   4.501
    1C        C   95   3.909   2.568   4.502
    1C        C   96   4.091   2.675   4.624
    1C        C   97   4.028   2.634   4.744
    1C        C   98   4.192   2.767   4.864
    1C        C   99   4.100   2.658   4.864
    1C        C  100   4.220   2.841   4.980
    1C        C  101   2.823   2.732   2.068
    1C        C  102   2.991   2.596   2.191
    1C        C  103   2.876   2.682   2.187
    1C        C  104   3.064   2.576   2.311
    1C        C  105   2.999   2.614   2.430
    1C        C  106   3.197   2.535   2.551
    1C        C  107   3.067   2.589   2.552
    1C        C  108   3.269   2.525   2.672
    1C        C  109   3.204   2.548   2.795
    1C        C  110   3.412   2.505   2.916
    1C        C  111   3.274   2.534   2.917
    1C        C  112   3.482   2.498   3.038
    1C        C  113   3.413   2.509   3.161
    1C        C  114   3.626   2.512   3.280
    1C        C  115   3.485   2.504   3.282
    1C        C  116   3.697   2.518   3.402
    1C        C  117   3.630   2.510   3.526
    1C        C  118   3.837   2.547   3.645
    1C        C  119   3.699   2.517   3.649
    1C        C  120   3.902   2.571   3.768
    1C        C  121   3.836   2.549   3.891
    1C        C  122   4.030   2.634   4.014
    1C        C  123   3.903   2.572   4.013
    1C        C  124   4.091   2.675   4.135
    1C        C  125   4.029   2.640   4.257
    1C        C  126   4.198   2.767   4.378
    1C        C  127   4.091   2.675   4.379
    1C        C  128   4.247   2.819   4.500
    1C        C  129   4.196   2.769   4.622
    1C        C  130   4.329   2.937   4.740
    1C        C  131   4.244   2.822   4.744
    1C        C  132   4.356   3.005   4.860
    1C        C  133   4.291   2.961   4.977
    1C        C  134   3.170   2.466   2.082
    1C        C  135   3.036   2.505   2.090
    1C        C  136   3.257   2.479   2.191
    1C        C  137   3.195   2.520   2.311
    1C        C  138   3.407   2.488   2.432
    1C        C  139   3.266   2.503   2.432
    1C        C  140   3.482   2.490   2.551
    1C        C  141   3.408   2.502   2.672
    1C        C  142   3.622   2.497   2.792
    1C        C  143   3.480   2.494   2.793
    1C        C  144   3.693   2.509   2.913
    1C        C  145   3.624   2.502   3.036
    1C        C  146   3.834   2.538   3.158
    1C        C  147   3.695   2.511   3.157
    1C        C  148   3.904   2.564   3.278
    1C        C  149   3.835   2.546   3.400
    1C        C  150   4.030   2.632   3.521
    1C        C  151   3.904   2.568   3.522
    1C        C  152   4.084   2.674   3.645
    1C        C  153   4.027   2.638   3.768
    1C        C  154   4.197   2.763   3.890
    1C        C  155   4.088   2.674   3.891
    1C        C  156   4.250   2.813   4.011
    1C        C  157   4.200   2.765   4.134
    1C        C  158   4.343   2.922   4.252
    1C        C  159   4.251   2.815   4.256
    1C        C  160   4.377   2.984   4.374
    1C        C  161   4.332   2.931   4.497
    1C        C  162   4.442   3.115   4.618
    1C        C  163   4.371   2.993   4.618
    1C        C  164   4.474   3.185   4.737
    1C        C  165   4.433   3.124   4.858
    1C        C  166   4.511   3.324   4.975
    1C        C  167   4.469   3.191   4.975
    1C        C  168   3.473   2.431   2.079
    1C        C  169   3.397   2.461   2.193
    1C        C  170   3.618   2.471   2.307
    1C        C  171   3.476   2.467   2.310
    1C        C  172   3.692   2.490   2.426
    1C        C  173   3.623   2.489   2.549
    1C        C  174   3.830   2.537   2.668
    1C        C  175   3.694   2.500   2.671
    1C        C  176   3.897   2.565   2.789
    1C        C  177   3.830   2.544   2.912
    1C        C  178   4.023   2.625   3.033
    1C        C  179   3.900   2.556   3.034
    1C        C  180   4.087   2.665   3.152
    1C        C  181   4.030   2.627   3.276
    1C        C  182   4.199   2.755   3.398
    1C        C  183   4.091   2.664   3.398
    1C        C  184   4.251   2.804   3.520
    1C        C  185   4.199   2.757   3.643
    1C        C  186   4.341   2.913   3.766
    1C        C  187   4.248   2.807   3.766
    1C        C  188   4.384   2.974   3.886
    1C        C  189   4.340   2.922   4.010
    1C        C  190   4.447   3.107   4.131
    1C        C  191   4.386   2.980   4.130
    1C        C  192   4.473   3.173   4.253
    1C        C  193   4.444   3.108   4.375
    1C        C  194   4.505   3.316   4.493
    1C        C  195   4.466   3.180   4.495
    1C        C  196   4.524   3.389   4.612
    1C        C  197   4.513   3.321   4.735
    1C        C  198   4.554   3.536   4.853
    1C        C  199   4.528   3.395   4.856
    1C        C  200   4.580   3.622   4.964
    1C        C  201   3.613   2.427   2.075
    1C        C  202   3.828   2.515   2.182
    1C        C  203   3.692   2.471   2.186
    1C        C  204   3.896   2.546   2.304
    1C        C  205   3.828   2.526   2.426
    1C        C  206   4.022   2.624   2.544
    1C        C  207   3.897   2.557   2.545
    1C        C  208   4.083   2.664   2.664
    1C        C  209   4.022   2.631   2.787
    1C        C  210   4.194   2.751   2.908
    1C        C  211   4.081   2.667   2.911
    1C        C  212   4.252   2.795   3.029
    1C        C  213   4.201   2.748   3.152
    1C        C  214   4.343   2.906   3.277
    1C        C  215   4.251   2.799   3.274
    1C        C  216   4.378   2.969   3.398
    1C        C  217   4.337   2.916   3.522
    1C        C  218   4.435   3.104   3.643
    1C        C  219   4.374   2.976   3.644
    1C        C  220   4.464   3.171   3.764
    1C        C  221   4.446   3.101   3.885
    1C        C  222   4.505   3.307   4.006
    1C        C  223   4.470   3.170   4.006
    1C        C  224   4.514   3.381   4.126
    1C        C  225   4.504   3.311   4.249
    1C        C  226   4.518   3.525   4.367
    1C        C  227   4.514   3.384   4.369
    1C        C  228   4.516   3.599   4.488
    1C        C  229   4.531   3.530   4.610
    1C        C  230   4.497   3.742   4.729
    1C        C  231   4.535   3.605   4.730
    1C        C  232   4.492   3.823   4.845
    1C        C  233   4.546   3.758   4.957
    1C        C  234   4.021   2.613   2.066
    1C        C  235   3.895   2.553   2.065
    1C        C  236   4.089   2.649   2.183
    1C        C  237   4.022   2.612   2.302
    1C        C  238   4.201   2.736   2.421
    1C        C  239   4.083   2.656   2.421
    1C        C  240   4.254   2.787   2.542
    1C        C  241   4.198   2.746   2.665
    1C        C  242   4.340   2.905   2.785
    1C        C  243   4.247   2.798   2.786
    1C        C  244   4.382   2.961   2.908
    1C        C  245   4.340   2.906   3.031
    1C        C  246   4.439   3.093   3.148
    1C        C  247   4.379   2.965   3.153
    1C        C  248   4.458   3.160   3.271
    1C        C  249   4.431   3.100   3.396
    1C        C  250   4.491   3.302   3.514
    1C        C  251   4.459   3.165   3.518
    1C        C  252   4.501   3.373   3.636
    1C        C  253   4.495   3.309   3.762
    1C        C  254   4.518   3.518   3.880
    1C        C  255   4.515   3.377   3.884
    1C        C  256   4.515   3.590   4.002
    1C        C  257   4.518   3.523   4.126
    1C        C  258   4.488   3.736   4.244
    1C        C  259   4.511   3.597   4.246
    1C        C  260   4.471   3.807   4.365
    1C        C  261   4.486   3.737   4.487
    1C        C  262   4.424   3.942   4.605
    1C        C  263   4.468   3.808   4.607
    1C        C  264   4.400   4.013   4.724
    1C        C  265   4.433   3.951   4.846
    1C        C  266   4.317   4.135   4.960
    1C        C  267   4.383   4.013   4.962
    1C        C  268   4.264   2.779   2.063
    1C        C  269   4.206   2.729   2.180
    1C        C  270   4.348   2.891   2.297
    1C        C  271   4.260   2.779   2.300
    1C        C  272   4.387   2.952   2.419
    1C        C  273   4.346   2.895   2.541
    1C        C  274   4.449   3.083   2.662
    1C        C  275   4.382   2.959   2.662
    1C        C  276   4.477   3.150   2.783
    1C        C  277   4.447   3.087   2.905
    1C        C  278   4.502   3.294   3.027
    1C        C  279   4.470   3.156   3.026
    1C        C  280   4.506   3.367   3.148
    1C        C  281   4.495   3.296   3.270
    1C        C  282   4.512   3.510   3.391
    1C        C  283   4.504   3.369   3.391
    1C        C  284   4.508   3.583   3.512
    1C        C  285   4.509   3.514   3.635
    1C        C  286   4.490   3.726   3.754
    1C        C  287   4.513   3.587   3.757
    1C        C  288   4.468   3.795   3.875
    1C        C  289   4.490   3.729   3.998
    1C        C  290   4.430   3.934   4.116
    1C        C  291   4.478   3.801   4.119
    1C        C  292   4.402   4.003   4.237
    1C        C  293   4.429   3.942   4.361
    1C        C  294   4.322   4.128   4.481
    1C        C  295   4.396   4.007   4.482
    1C        C  296   4.284   4.192   4.601
    1C        C  297   4.333   4.139   4.722
    1C        C  298   4.203   4.318   4.840
    1C        C  299   4.287   4.203   4.841
    1C        C  300   4.169   4.402   4.951
    1C        C  301   4.355   2.884   2.058
    1C        C  302   4.468   3.070   2.175
    1C        C  303   4.400   2.944   2.177
    1C        C  304   4.485   3.140   2.298
    1C        C  305   4.450   3.078   2.419
    1C        C  306   4.517   3.283   2.537
    1C        C  307   4.479   3.147   2.539
    1C        C  308   4.517   3.356   2.658
    1C        C  309   4.506   3.289   2.782
    1C        C  310   4.524   3.501   2.899
    1C        C  311   4.518   3.360   2.903
    1C        C  312   4.515   3.573   3.020
    1C        C  313   4.509   3.508   3.146
    1C        C  314   4.481   3.719   3.264
    1C        C  315   4.505   3.579   3.268
    1C        C  316   4.461   3.787   3.386
    1C        C  317   4.482   3.722   3.509
    1C        C  318   4.426   3.927   3.629
    1C        C  319   4.470   3.793   3.631
    1C        C  320   4.400   3.994   3.751
    1C        C  321   4.423   3.929   3.874
    1C        C  322   4.320   4.116   3.992
    1C        C  323   4.396   3.997   3.995
    1C        C  324   4.286   4.176   4.115
    1C        C  325   4.333   4.126   4.239
    1C        C  326   4.190   4.290   4.356
    1C        C  327   4.281   4.182   4.357
    1C        C  328   4.138   4.343   4.476
    1C        C  329   4.190   4.297   4.600
    1C        C  330   4.024   4.439   4.718
    1C        C  331   4.139   4.355   4.718
    1C        C  332   3.969   4.490   4.838
    1C        C  333   4.053   4.480   4.950
    1C        C  334   4.556   3.267   2.063
    1C        C  335   4.546   3.127   2.070
    1C        C  336   4.542   3.349   2.175
    1C        C  337   4.517   3.279   2.295
    1C        C  338   4.524   3.495   2.414
    1C        C  339   4.520   3.353   2.415
    1C        C  340   4.516   3.569   2.534
    1C        C  341   4.516   3.497   2.655
    1C        C  342   4.490   3.709   2.775
    1C        C  343   4.511   3.570   2.776
    1C        C  344   4.471   3.780   2.896
    1C        C  345   4.488   3.712   3.019
    1C        C  346   4.424   3.917   3.139
    1C        C  347   4.470   3.784   3.139
    1C        C  348   4.396   3.987   3.259
    1C        C  349   4.424   3.923   3.381
    1C        C  350   4.324   4.108   3.503
    1C        C  351   4.399   3.988   3.504
    1C        C  352   4.278   4.166   3.624
    1C        C  353   4.326   4.114   3.746
    1C        C  354   4.186   4.276   3.868
    1C        C  355   4.282   4.173   3.868
    1C        C  356   4.129   4.320   3.989
    1C        C  357   4.183   4.273   4.111
    1C        C  358   4.018   4.408   4.232
    1C        C  359   4.134   4.327   4.232
    1C        C  360   3.960   4.456   4.352
    1C        C  361   4.023   4.424   4.475
    1C        C  362   3.830   4.518   4.594
    1C        C  363   3.962   4.467   4.595
    1C        C  364   3.765   4.555   4.713
    1C        C  365   3.839   4.545   4.833
    1C        C  366   3.629   4.591   4.952
    1C        C  367   3.766   4.566   4.950
    1C        C  368   4.504   3.562   2.056
    1C        C  369   4.528   3.490   2.174
    1C        C  370   4.511   3.707   2.290
    1C        C  371   4.523   3.566   2.292
    1C        C  372   4.488   3.780   2.408
    1C        C  373   4.500   3.710   2.530
    1C        C  374   4.422   3.907   2.653
    1C        C  375   4.479   3.778   2.652
    1C        C  376   4.393   3.976   2.773
    1C        C  377   4.425   3.914   2.896
    1C        C  378   4.322   4.102   3.014
    1C        C  379   4.391   3.979   3.016
    1C        C  380   4.277   4.159   3.135
    1C        C  381   4.321   4.107   3.259
    1C        C  382   4.182   4.265   3.379
    1C        C  383   4.283   4.166   3.381
    1C        C  384   4.125   4.313   3.499
    1C        C  385   4.181   4.268   3.621
    1C        C  386   4.011   4.392   3.744
    1C        C  387   4.129   4.315   3.744
    1C        C  388   3.951   4.433   3.866
    1C        C  389   4.011   4.398   3.989
    1C        C  390   3.823   4.496   4.109
    1C        C  391   3.954   4.442   4.111
    1C        C  392   3.756   4.520   4.231
    1C        C  393   3.827   4.503   4.351
    1C        C  394   3.619   4.548   4.474
    1C        C  395   3.759   4.529   4.472
    1C        C  396   3.548   4.561   4.596
    1C        C  397   3.624   4.568   4.715
    1C        C  398   3.413   4.549   4.836
    1C        C  399   3.552   4.570   4.836
    1C        C  400   3.344   4.512   4.952
    1C        C  401   4.500   3.701   2.053
    1C        C  402   4.452   3.913   2.167
    1C        C  403   4.497   3.779   2.169
    1C        C  404   4.415   3.976   2.288
    1C        C  405   4.440   3.913   2.411
    1C        C  406   4.328   4.096   2.526
    1C        C  407   4.403   3.977   2.531
    1C        C  408   4.278   4.151   2.646
    1C        C  409   4.316   4.094   2.770
    1C        C  410   4.175   4.253   2.889
    1C        C  411   4.278   4.156   2.891
    1C        C  412   4.125   4.305   3.011
    1C        C  413   4.181   4.263   3.133
    1C        C  414   4.011   4.387   3.253
    1C        C  415   4.130   4.311   3.256
    1C        C  416   3.945   4.419   3.374
    1C        C  417   4.005   4.387   3.498
    1C        C  418   3.817   4.478   3.623
    1C        C  419   3.946   4.421   3.622
    1C        C  420   3.749   4.505   3.744
    1C        C  421   3.820   4.485   3.865
    1C        C  422   3.615   4.534   3.986
    1C        C  423   3.755   4.513   3.987
    1C        C  424   3.543   4.538   4.108
    1C        C  425   3.616   4.538   4.230
    1C        C  426   3.406   4.544   4.355
    1C        C  427   3.547   4.546   4.353
    1C        C  428   3.334   4.542   4.477
    1C        C  429   3.407   4.553   4.598
    1C        C  430   3.196   4.514   4.720
    1C        C  431   3.335   4.542   4.718
    1C        C  432   3.128   4.492   4.843
    1C        C  433   3.207   4.490   4.959
    1C        C  434   4.382   4.120   2.051
    1C        C  435   4.445   3.995   2.054
    1C        C  436   4.304   4.159   2.164
    1C        C  437   4.338   4.096   2.286
    1C        C  438   4.183   4.251   2.401
    1C        C  439   4.280   4.149   2.404
    1C        C  440   4.127   4.298   2.522
    1C        C  441   4.182   4.255   2.644
    1C        C  442   4.008   4.379   2.766
    1C        C  443   4.124   4.299   2.766
    1C        C  444   3.946   4.417   2.887
    1C        C  445   4.005   4.380   3.010
    1C        C  446   3.815   4.473   3.132
    1C        C  447   3.944   4.415   3.132
    1C        C  448   3.748   4.496   3.255
    1C        C  449   3.815   4.475   3.377
    1C        C  450   3.611   4.527   3.499
    1C        C  451   3.750   4.500   3.500
    1C        C  452   3.540   4.536   3.621
    1C        C  453   3.610   4.532   3.743
    1C        C  454   3.401   4.540   3.864
    1C        C  455   3.542   4.544   3.866
    1C        C  456   3.333   4.528   3.987
    1C        C  457   3.402   4.532   4.110
    1C        C  458   3.196   4.503   4.238
    1C        C  459   3.334   4.530   4.234
    1C        C  460   3.128   4.483   4.360
    1C        C  461   3.198   4.507   4.480
    1C        C  462   2.995   4.432   4.602
    1C        C  463   3.127   4.483   4.600
    1C        C  464   2.932   4.403   4.725
    1C        C  465   2.993   4.444   4.847
    1C        C  466   2.802   4.337   4.962
    1C        C  467   2.905   4.432   4.959
    1C        C  468   4.126   4.289   2.045
    1C        C  469   4.190   4.247   2.162
    1C        C  470   4.007   4.373   2.282
    1C        C  471   4.130   4.300   2.279
    1C        C  472   3.940   4.402   2.403
    1C        C  473   4.006   4.372   2.523
    1C        C  474   3.815   4.468   2.647
    1C        C  475   3.942   4.407   2.644
    1C        C  476   3.746   4.497   2.766
    1C        C  477   3.816   4.474   2.887
    1C        C  478   3.610   4.517   3.008
    1C        C  479   3.750   4.497   3.009
    1C        C  480   3.540   4.529   3.130
    1C        C  481   3.610   4.527   3.253
    1C        C  482   3.401   4.530   3.377
    1C        C  483   3.542   4.532   3.376
    1C        C  484   3.328   4.531   3.498
    1C        C  485   3.399   4.539   3.620
    1C        C  486   3.191   4.500   3.745
    1C        C  487   3.328   4.533   3.742
    1C        C  488   3.130   4.474   3.869
    1C        C  489   3.196   4.497   3.992
    1C        C  490   3.002   4.418   4.117
    1C        C  491   3.129   4.481   4.115
    1C        C  492   2.942   4.381   4.239
    1C        C  493   2.999   4.426   4.361
    1C        C  494   2.824   4.306   4.483
    1C        C  495   2.931   4.398   4.481
    1C        C  496   2.776   4.259   4.607
    1C        C  497   2.823   4.312   4.729
    1C        C  498   2.665   4.165   4.845
    1C        C  499   2.753   4.275   4.846
    1C        C  500   2.594   4.120   4.957
    1C        C  501   4.001   4.351   2.043
    1C        C  502   3.814   4.459   2.156
    1C        C  503   3.943   4.402   2.160
    1C        C  504   3.743   4.475   2.277
    1C        C  505   3.810   4.457   2.400
    1C        C  506   3.607   4.506   2.519
    1C        C  507   3.746   4.481   2.524
    1C        C  508   3.534   4.513   2.640
    1C        C  509   3.606   4.515   2.762
    1C        C  510   3.397   4.522   2.887
    1C        C  511   3.538   4.521   2.886
    1C        C  512   3.327   4.514   3.009
    1C        C  513   3.399   4.525   3.130
    1C        C  514   3.193   4.490   3.255
    1C        C  515   3.331   4.519   3.254
    1C        C  516   3.128   4.460   3.377
    1C        C  517   3.193   4.490   3.499
    1C        C  518   2.997   4.417   3.628
    1C        C  519   3.125   4.476   3.622
    1C        C  520   2.938   4.379   3.751
    1C        C  521   3.003   4.411   3.872
    1C        C  522   2.835   4.286   3.997
    1C        C  523   2.945   4.375   3.995
    1C        C  524   2.785   4.238   4.120
    1C        C  525   2.829   4.296   4.242
    1C        C  526   2.685   4.141   4.367
    1C        C  527   2.771   4.252   4.363
    1C        C  528   2.645   4.083   4.490
    1C        C  529   2.685   4.150   4.607
    1C        C  530   2.586   3.961   4.735
    1C        C  531   2.638   4.093   4.727
    1C        C  532   2.543   3.901   4.857
    1C        C  533   2.530   3.995   4.964
    1C        C  534   3.614   4.552   2.041
    1C        C  535   3.749   4.513   2.044
    1C        C  536   3.535   4.536   2.159
    1C        C  537   3.605   4.508   2.279
    1C        C  538   3.391   4.517   2.401
    1C        C  539   3.532   4.516   2.400
    1C        C  540   3.319   4.513   2.523
    1C        C  541   3.393   4.515   2.643
    1C        C  542   3.186   4.482   2.767
    1C        C  543   3.324   4.510   2.766
    1C        C  544   3.121   4.463   2.891
    1C        C  545   3.188   4.486   3.013
    1C        C  546   2.995   4.404   3.135
    1C        C  547   3.121   4.467   3.136
    1C        C  548   2.940   4.367   3.260
    1C        C  549   2.999   4.402   3.384
    1C        C  550   2.829   4.282   3.505
    1C        C  551   2.937   4.373   3.507
    1C        C  552   2.777   4.238   3.629
    1C        C  553   2.828   4.290   3.750
    1C        C  554   2.701   4.125   3.876
    1C        C  555   2.782   4.240   3.874
    1C        C  556   2.665   4.067   4.000
    1C        C  557   2.698   4.128   4.123
    1C        C  558   2.592   3.947   4.245
    1C        C  559   2.656   4.073   4.246
    1C        C  560   2.566   3.886   4.370
    1C        C  561   2.590   3.953   4.493
    1C        C  562   2.527   3.753   4.615
    1C        C  563   2.563   3.889   4.616
    1C        C  564   2.519   3.685   4.739
    1C        C  565   2.520   3.760   4.860
    1C        C  566   2.522   3.545   4.979
    1C        C  567   2.521   3.684   4.979
    1C        C  568   3.328   4.465   2.044
    1C        C  569   3.395   4.509   2.159
    1C        C  570   3.181   4.479   2.280
    1C        C  571   3.320   4.508   2.279
    1C        C  572   3.114   4.457   2.402
    1C        C  573   3.182   4.476   2.525
    1C        C  574   2.985   4.405   2.648
    1C        C  575   3.113   4.464   2.647
    1C        C  576   2.929   4.364   2.771
    1C        C  577   2.994   4.402   2.891
    1C        C  578   2.823   4.278   3.017
    1C        C  579   2.933   4.367   3.014
    1C        C  580   2.773   4.230   3.140
    1C        C  581   2.830   4.279   3.259
    1C        C  582   2.697   4.117   3.387
    1C        C  583   2.784   4.228   3.383
    1C        C  584   2.655   4.060   3.510
    1C        C  585   2.692   4.125   3.630
    1C        C  586   2.597   3.941   3.756
    1C        C  587   2.657   4.069   3.754
    1C        C  588   2.578   3.873   3.879
    1C        C  589   2.603   3.940   4.001
    1C        C  590   2.536   3.741   4.128
    1C        C  591   2.573   3.877   4.124
    1C        C  592   2.532   3.675   4.253
    1C        C  593   2.540   3.748   4.373
    1C        C  594   2.515   3.537   4.498
    1C        C  595   2.522   3.678   4.495
    1C        C  596   2.521   3.468   4.621
    1C        C  597   2.521   3.543   4.740
    1C        C  598   2.541   3.330   4.861
    1C        C  599   2.527   3.471   4.861
    1C        C  600   2.534   3.254   4.979
    1C        C  601   3.193   4.437   2.044
    1C        C  602   2.978   4.398   2.159
    1C        C  603   3.113   4.446   2.159
    1C        C  604   2.921   4.360   2.284
    1C        C  605   2.986   4.399   2.404
    1C        C  606   2.814   4.276   2.529
    1C        C  607   2.925   4.365   2.527
    1C        C  608   2.768   4.225   2.652
    1C        C  609   2.822   4.272   2.774
    1C        C  610   2.686   4.111   2.897
    1C        C  611   2.772   4.223   2.897
    1C        C  612   2.653   4.055   3.022
    1C        C  613   2.689   4.116   3.145
    1C        C  614   2.591   3.929   3.268
    1C        C  615   2.655   4.055   3.268
    1C        C  616   2.566   3.867   3.392
    1C        C  617   2.596   3.932   3.514
    1C        C  618   2.529   3.734   3.640
    1C        C  619   2.569   3.869   3.638
    1C        C  620   2.519   3.666   3.763
    1C        C  621   2.539   3.737   3.884
    1C        C  622   2.512   3.528   4.010
    1C        C  623   2.525   3.669   4.007
    1C        C  624   2.514   3.461   4.134
    1C        C  625   2.520   3.534   4.255
    1C        C  626   2.539   3.324   4.379
    1C        C  627   2.517   3.463   4.378
    1C        C  628   2.556   3.255   4.501
    1C        C  629   2.542   3.328   4.621
    1C        C  630   2.595   3.120   4.744
    1C        C  631   2.550   3.255   4.742
    1C        C  632   2.620   3.051   4.865
    1C        C  633   2.561   3.117   4.977
    1C        C  634   2.780   4.305   2.052
    1C        C  635   2.889   4.393   2.047
    1C        C  636   2.750   4.232   2.168
    1C        C  637   2.805   4.279   2.289
    1C        C  638   2.676   4.109   2.410
    1C        C  639   2.760   4.223   2.411
    1C        C  640   2.640   4.050   2.533
    1C        C  641   2.683   4.112   2.652
    1C        C  642   2.585   3.924   2.779
    1C        C  643   2.649   4.050   2.775
    1C        C  644   2.568   3.858   2.902
    1C        C  645   2.595   3.926   3.023
    1C        C  646   2.532   3.725   3.148
    1C        C  647   2.568   3.862   3.146
    1C        C  648   2.519   3.658   3.272
    1C        C  649   2.530   3.730   3.393
    1C        C  650   2.511   3.523   3.520
    1C        C  651   2.520   3.664   3.517
    1C        C  652   2.514   3.454   3.643
    1C        C  653   2.513   3.525   3.765
    1C        C  654   2.533   3.317   3.892
    1C        C  655   2.508   3.456   3.889
    1C        C  656   2.554   3.251   4.015
    1C        C  657   2.538   3.322   4.136
    1C        C  658   2.611   3.123   4.259
    1C        C  659   2.559   3.254   4.258
    1C        C  660   2.634   3.056   4.381
    1C        C  661   2.602   3.121   4.502
    1C        C  662   2.710   2.939   4.624
    1C        C  663   2.632   3.056   4.623
    1C        C  664   2.751   2.876   4.744
    1C        C  665   2.695   2.929   4.864
    1C        C  666   2.742   2.871   4.982
    1C        C  667   2.679   4.025   2.051
    1C        C  668   2.690   4.105   2.166
    1C        C  669   2.594   3.914   2.293
    1C        C  670   2.648   4.046   2.287
    1C        C  671   2.556   3.852   2.413
    1C        C  672   2.580   3.922   2.534
    1C        C  673   2.521   3.721   2.659
    1C        C  674   2.556   3.857   2.657
    1C        C  675   2.512   3.651   2.782
    1C        C  676   2.529   3.722   2.902
    1C        C  677   2.507   3.515   3.032
    1C        C  678   2.521   3.655   3.026
    1C        C  679   2.503   3.445   3.155
    1C        C  680   2.504   3.517   3.276
    1C        C  681   2.531   3.309   3.402
    1C        C  682   2.508   3.448   3.399
    1C        C  683   2.553   3.244   3.525
    1C        C  684   2.533   3.314   3.646
    1C        C  685   2.601   3.116   3.772
    1C        C  686   2.549   3.247   3.770
    1C        C  687   2.636   3.052   3.894
    1C        C  688   2.606   3.120   4.014
    1C        C  689   2.714   2.938   4.142
    1C        C  690   2.640   3.058   4.136
    1C        C  691   2.754   2.878   4.263
    1C        C  692   2.709   2.936   4.384
    1C        C  693   2.749   2.874   4.504
    1C        C  694   2.626   3.896   2.055
    1C        C  695   2.534   3.705   2.174
    1C        C  696   2.581   3.838   2.174
    1C        C  697   2.512   3.642   2.299
    1C        C  698   2.518   3.716   2.419
    1C        C  699   2.489   3.505   2.542
    1C        C  700   2.505   3.645   2.541
    1C        C  701   2.497   3.437   2.666
    1C        C  702   2.505   3.510   2.786
    1C        C  703   2.532   3.303   2.912
    1C        C  704   2.507   3.442   2.910
    1C        C  705   2.548   3.236   3.035
    1C        C  706   2.527   3.306   3.156
    1C        C  707   2.597   3.108   3.282
    1C        C  708   2.547   3.240   3.280
    1C        C  709   2.632   3.047   3.404
    1C        C  710   2.606   3.113   3.527
    1C        C  711   2.712   2.933   3.650
    1C        C  712   2.633   3.051   3.651
    1C        C  713   2.754   2.877   3.773
    1C        C  714   2.713   2.934   3.896
    1C        C  715   2.757   2.882   4.019
    1C        C  716   2.453   3.502   2.064
    1C        C  717   2.495   3.636   2.059
    1C        C  718   2.466   3.423   2.183
    1C        C  719   2.485   3.502   2.299
    1C        C  720   2.517   3.294   2.424
    1C        C  721   2.485   3.432   2.421
    1C        C  722   2.541   3.228   2.547
    1C        C  723   2.525   3.299   2.668
    1C        C  724   2.595   3.100   2.790
    1C        C  725   2.543   3.232   2.791
    1C        C  726   2.625   3.037   2.913
    1C        C  727   2.594   3.103   3.035
    1C        C  728   2.705   2.926   3.159
    1C        C  729   2.626   3.044   3.159
    1C        C  730   2.747   2.870   3.282
    1C        C  731   2.708   2.928   3.405
    1C        C  732   2.753   2.875   3.528
    1C        C  733   2.490   3.201   2.071
    1C        C  734   2.489   3.281   2.186
    1C        C  735   2.588   3.089   2.304
    1C        C  736   2.527   3.217   2.306
    1C        C  737   2.616   3.024   2.426
    1C        C  738   2.586   3.094   2.545
    1C        C  739   2.699   2.916   2.670
    1C        C  740   2.623   3.035   2.668
    1C        C  741   2.741   2.859   2.792
    1C        C  742   2.698   2.916   2.914
    1C        C  743   2.745   2.867   3.038
    1C        C  744   2.541   3.072   2.073
    1C        C  745   2.684   2.898   2.187
    1C        C  746   2.608   3.017   2.184
    1C        C  747   2.727   2.838   2.307
    1C        C  748   2.688   2.902   2.427
    1C        C  749   2.738   2.854   2.550
    1C        C  750   2.734   2.839   2.071
    1C        C  751   3.664   2.334   1.972
    1C        O  752   3.711   2.220   1.999
    1C        O  753   3.642   2.349   1.835
    1C        C  754   4.663   3.053   2.017
    1C        O  755   4.659   3.020   1.895
    1C        O  756   4.793   3.076   2.063
    1C        C  757   4.446   4.229   1.973
    1C        O  758   4.571   4.238   1.965
    1C        O  759   4.384   4.272   1.855
    1C        C  760   3.594   4.657   1.939
    1C        O  761   3.620   4.779   1.960
    1C        O  762   3.607   4.640   1.801
    1C        C  763   2.869   4.495   1.942
    1C        O  764   2.869   4.457   1.822
    1C        O  765   2.786   4.604   1.972
    1C        C  766   2.355   3.471   1.958
    1C        O  767   2.380   3.432   1.841
    1C        O  768   2.223   3.503   1.993
    1C        C  769   4.691   3.594   5.057
    1C        O  770   4.672   3.571   5.180
    1C        O  771   4.827   3.618   5.032
    1C        C  772   4.235   4.406   5.083
    1C        O  773   4.185   4.355   5.187
    1C        O  774   4.328   4.509   5.099
    1C        C  775   4.148   2.505   5.055
    1C        O  776   4.184   2.398   5.000
    1C        O  777   4.152   2.525   5.194
    1C        C  778   2.889   4.547   5.051
    1C        O  779   2.825   4.648   5.011
    1C        O  780   2.925   4.538   5.186
    1C        C  781   2.475   3.035   5.067
    1C        O  782   2.384   2.959   5.025
    1C        O  783   2.521   3.008   5.195
    1C        C  784   2.446   3.982   5.085
    1C        O  785   2.321   3.968   5.091
    1C        O  786   2.509   3.946   5.204
    1C        C  787   2.939   2.414   2.025
    1C        O  788   2.925   2.417   1.900
    1C        O  789   2.914   2.289   2.080
    1C        C  790   3.186   2.392   5.081
    1C        O  791   3.103   2.297   5.072
    1C        O  792   3.233   2.414   5.211
    1C        H  793   4.247   3.036   5.038
    1C        H  794   4.203   2.796   5.076
    1C        H  795   4.483   3.129   5.061
    1C        H  796   4.512   3.374   5.070
    1C        H  797   4.583   3.820   5.035
    1C        H  798   4.358   3.949   5.044
    1C        H  799   4.264   4.159   5.050
    1C        H  800   4.051   4.566   5.014
    1C        H  801   3.816   4.603   5.037
    1C        H  802   3.581   4.639   5.035
    1C        H  803   3.390   4.527   5.048
    1C        H  804   3.167   4.456   5.052
    1C        H  805   3.879   2.513   5.077
    1C        H  806   3.679   2.436   5.067
    1C        H  807   2.980   2.527   5.041
    1C        H  808   3.444   2.487   5.078
    1C        H  809   2.895   2.765   5.078
    1C        H  810   2.686   2.884   5.073
    1C        H  811   2.520   3.300   5.075
    1C        H  812   2.464   3.499   5.056
    1C        H  813   2.521   3.734   5.073
    1C        H  814   2.567   4.197   5.027
    1C        H  815   2.753   4.323   5.056
    1C        H  816   2.707   2.877   1.974
    1C        H  817   2.794   2.661   1.993
    1C        H  818   3.200   2.391   2.011
    1C        H  819   3.425   2.415   1.985
    1C        H  820   3.836   2.564   1.977
    1C        H  821   4.075   2.602   1.974
    1C        H  822   4.270   2.705   1.986
    1C        H  823   4.416   2.883   1.970
    1C        H  824   4.600   3.306   1.973
    1C        H  825   4.473   3.511   1.967
    1C        H  826   4.536   3.745   1.963
    1C        H  827   3.796   4.498   1.950
    1C        H  828   3.933   4.306   1.974
    1C        H  829   4.143   4.236   1.954
    1C        H  830   4.493   3.969   1.962
    1C        H  831   2.604   3.853   1.959
    1C        H  832   2.703   4.066   1.955
    1C        H  833   2.699   4.319   1.984
    1C        H  834   3.383   4.414   1.967
    1C        H  835   3.142   4.430   1.951
    1C        H  836   2.528   3.016   1.983
    1C        H  837   2.416   3.223   1.997
    1C        H  838   2.549   3.653   1.969
    2V3OU   H29  839   2.812   3.549   5.120
    2V3OU   C27  840   2.788   3.500   5.217
    2V3OU   H27  841   2.725   3.571   5.278
    2V3OU   H28  842   2.727   3.407   5.203
    2V3OU   O11  843   2.911   3.470   5.283
    2V3OU   C15  844   2.925   3.394   5.398
    2V3OU   C13  845   3.057   3.371   5.443
    2V3OU   C14  846   3.074   3.266   5.535
    2V3OU   C16  847   2.970   3.190   5.586
    2V3OU    H6  848   2.989   3.110   5.659
    2V3OU   C12  849   3.212   3.231   5.576
    2V3OU    O2  850   3.240   3.128   5.642
    2V3OU   C10  851   3.325   3.303   5.516
    2V3OU    C8  852   3.460   3.273   5.532
    2V3OU   O10  853   3.490   3.158   5.597
    2V3OU   H26  854   3.404   3.118   5.619
    2V3OU    C6  855   3.568   3.352   5.481
    2V3OU    C5  856   3.542   3.469   5.411
    2V3OU    C4  857   3.706   3.297   5.488
    2V3OU    H4  858   3.726   3.234   5.579
    2V3OU    H5  859   3.717   3.222   5.404
    2V3OU    C2  860   3.821   3.398   5.481
    2V3OU    O6  861   3.804   3.471   5.603
    2V3OU   H21  862   3.762   3.555   5.580
    2V3OU    C3  863   3.784   3.493   5.367
    2V3OU    H2  864   3.860   3.574   5.354
    2V3OU    H3  865   3.785   3.440   5.268
    2V3OU   C25  866   3.953   3.322   5.460
    2V3OU    O7  867   4.002   3.304   5.349
    2V3OU   C26  868   4.029   3.291   5.588
    2V3OU   H22  869   4.060   3.384   5.641
    2V3OU   H23  870   4.119   3.228   5.565
    2V3OU    O8  871   3.969   3.212   5.688
    2V3OU   H24  872   3.924   3.274   5.747
    2V3OU    C1  873   3.651   3.566   5.377
    2V3OU    H1  874   3.633   3.621   5.280
    2V3OU    O3  875   3.666   3.659   5.484
    2V3OU   C19  876   3.618   3.794   5.480
    2V3OU    H9  877   3.521   3.801   5.422
    2V3OU    O4  878   3.711   3.856   5.395
    2V3OU   C20  879   3.843   3.878   5.445
    2V3OU   H10  880   3.902   3.782   5.451
    2V3OU   C24  881   3.611   3.853   5.621
    2V3OU   H16  882   3.546   3.789   5.686
    2V3OU   H17  883   3.568   3.956   5.609
    2V3OU   C23  884   3.751   3.875   5.678
    2V3OU   H15  885   3.795   3.772   5.701
    2V3OU    N1  886   3.738   3.954   5.799
    2V3OU   H19  887   3.815   3.933   5.859
    2V3OU   H20  888   3.648   3.933   5.839
    2V3OU   C21  889   3.847   3.949   5.581
    2V3OU   H11  890   3.954   3.926   5.610
    2V3OU    O5  891   3.830   4.089   5.590
    2V3OU   H18  892   3.783   4.101   5.674
    2V3OU   C22  893   3.913   3.951   5.331
    2V3OU   H12  894   3.865   4.050   5.311
    2V3OU   H13  895   3.908   3.887   5.239
    2V3OU   H14  896   4.022   3.966   5.351
    2V3OU   C11  897   3.164   3.467   5.415
    2V3OU    O1  898   3.132   3.584   5.386
    2V3OU    C9  899   3.301   3.430   5.458
    2V3OU    C7  900   3.403   3.505   5.401
    2V3OU    O9  901   3.388   3.611   5.314
    2V3OU   H25  902   3.294   3.634   5.312
    2V3OU   C17  903   2.824   3.315   5.456
    2V3OU    H7  904   2.718   3.339   5.441
    2V3OU   C18  905   2.839   3.206   5.541
    2V3OU    H8  906   2.758   3.142   5.579
    3SOL     OW  907   3.880   4.030   4.196
    3SOL    HW1  908   3.919   4.019   4.288
    3SOL    HW2  909   3.780   4.022   4.201
    4SOL     OW  910   6.431   0.317   0.449
    4SOL    HW1  911   6.503   0.385   0.438
    4SOL    HW2  912   6.356   0.356   0.502
    5SOL     OW  913   4.511   1.763   1.448
    5SOL    HW1  914   4.493   1.830   1.377
    5SOL    HW2  915   4.438   1.694   1.448
    6SOL     OW  916   5.281   0.351   2.820
    6SOL    HW1  917   5.209   0.359   2.889
    6SOL    HW2  918   5.244   0.309   2.737
    7SOL     OW  919   2.299   4.377   3.581
    7SOL    HW1  920   2.324   4.410   3.490
    7SOL    HW2  921   2.246   4.446   3.629
    8SOL     OW  922   1.811   3.422   5.678
    8SOL    HW1  923   1.806   3.400   5.581
    8SOL    HW2  924   1.837   3.341   5.730
    9SOL     OW  925   6.214   0.866   6.677
    9SOL    HW1  926   6.234   0.896   6.770
    9SOL    HW2  927   6.118   0.884   6.655
   10SOL     OW  928   4.465   4.857   3.007
   10SOL    HW1  929   4.540   4.818   3.060
   10SOL    HW2  930   4.498   4.886   2.917
   11SOL     OW  931   2.302   0.805   0.929
   11SOL    HW1  932   2.388   0.754   0.916
   11SOL    HW2  933   2.266   0.785   1.020
   12SOL     OW  934   3.267   5.165   3.434
   12SOL    HW1  935   3.354   5.182   3.480
   12SOL    HW2  936   3.196   5.222   3.475
   13SOL     OW  937   4.990   5.972   1.414
   13SOL    HW1  938   5.007   5.895   1.353
   13SOL    HW2  939   5.052   5.968   1.492
   14SOL     OW  940   4.298   5.364   4.907
   14SOL    HW1  941   4.347   5.293   4.958
   14SOL    HW2  942   4.364   5.425   4.864
   15SOL     OW  943   6.763   5.911   5.972
   15SOL    HW1  944   6.837   5.956   5.921
   15SOL    HW2  945   6.796   5.825   6.009
   16SOL     OW  946   1.069   3.686   5.325
   16SOL    HW1  947   1.093   3.717   5.233
   16SOL    HW2  948   1.124   3.736   5.392
   17SOL     OW  949   6.026   1.253   5.275
   17SOL    HW1  950   6.110   1.271   5.327
   17SOL    HW2  951   5.971   1.186   5.324
   18SOL     OW  952   3.151   0.899   5.941
   18SOL    HW1  953   3.218   0.837   5.981
   18SOL    HW2  954   3.198   0.980   5.904
   19SOL     OW  955   1.898   1.097   3.156
   19SOL    HW1  956   1.941   1.050   3.233
   19SOL    HW2  957   1.957   1.173   3.127
   20SOL     OW  958   5.998   1.722   5.587
   20SOL    HW1  959   5.913   1.736   5.538
   20SOL    HW2  960   5.998   1.630   5.628
   21SOL     OW  961   2.801   5.120   2.603
   21SOL    HW1  962   2.792   5.185   2.527
   21SOL    HW2  963   2.736   5.144   2.675
   22SOL     OW  964   1.968   6.016   5.709
   22SOL    HW1  965   2.005   5.989   5.620
   22SOL    HW2  966   1.892   6.080   5.695
   23SOL     OW  967   5.299   4.446   2.234
   23SOL    HW1  968   5.270   4.461   2.328
   23SOL    HW2  969   5.272   4.354   2.206
   24SOL     OW  970   4.322   0.775   1.629
   24SOL    HW1  971   4.404   0.764   1.573
   24SOL    HW2  972   4.243   0.738   1.580
   25SOL     OW  973   2.392   0.772   4.157
   25SOL    HW1  974   2.414   0.722   4.241
   25SOL    HW2  975   2.459   0.750   4.086
   26SOL     OW  976   0.811   3.091   6.811
   26SOL    HW1  977   0.825   3.187   6.784
   26SOL    HW2  978   0.885   3.062   6.871
   27SOL     OW  979   7.007   0.883   1.138
   27SOL    HW1  980   6.986   0.846   1.048
   27SOL    HW2  981   7.000   0.983   1.135
   28SOL     OW  982   2.669   0.956   4.592
   28SOL    HW1  983   2.751   0.928   4.541
   28SOL    HW2  984   2.679   0.930   4.688
   29SOL     OW  985   0.206   0.404   1.146
   29SOL    HW1  986   0.279   0.380   1.082
   29SOL    HW2  987   0.242   0.467   1.215
   30SOL     OW  988   4.325   0.407   4.967
   30SOL    HW1  989   4.311   0.322   5.018
   30SOL    HW2  990   4.421   0.415   4.941
   31SOL     OW  991   1.393   3.281   5.173
   31SOL    HW1  992   1.383   3.293   5.272
   31SOL    HW2  993   1.333   3.206   5.143
   32SOL     OW  994   2.158   0.744   1.199
   32SOL    HW1  995   2.136   0.646   1.198
   32SOL    HW2  996   2.128   0.785   1.285
   33SOL     OW  997   0.665   5.362   5.858
   33SOL    HW1  998   0.697   5.307   5.781
   33SOL    HW2  999   0.705   5.454   5.852
   34SOL     OW 1000   2.396   5.551   5.165
   34SOL    HW1 1001   2.340   5.631   5.186
   34SOL    HW2 1002   2.489   5.566   5.200
   35SOL     OW 1003   3.146   3.074   0.632
   35SOL    HW1 1004   3.165   2.985   0.589
   35SOL    HW2 1005   3.232   3.116   0.660
   36SOL     OW 1006   4.495   0.677   4.695
   36SOL    HW1 1007   4.528   0.583   4.706
   36SOL    HW2 1008   4.502   0.725   4.782
   37SOL     OW 1009   2.704   0.863   3.626
   37SOL    HW1 1010   2.758   0.939   3.662
   37SOL    HW2 1011   2.760   0.812   3.560
   38SOL     OW 1012   0.287   4.446   2.851
   38SOL    HW1 1013   0.214   4.515   2.856
   38SOL    HW2 1014   0.319   4.438   2.757
   39SOL     OW 1015   6.897   5.714   5.794
   39SOL    HW1 1016   6.827   5.782   5.811
   39SOL    HW2 1017   6.922   5.670   5.881
   40SOL     OW 1018   3.662   0.835   6.427
   40SOL    HW1 1019   3.725   0.903   6.392
   40SOL    HW2 1020   3.586   0.823   6.362
   41SOL     OW 1021   5.969   4.731   1.513
   41SOL    HW1 1022   6.043   4.764   1.454
   41SOL    HW2 1023   5.928   4.649   1.473
   42SOL     OW 1024   2.127   5.648   5.990
   42SOL    HW1 1025   2.146   5.572   6.052
   42SOL    HW2 1026   2.190   5.643   5.912
   43SOL     OW 1027   4.810   6.412   4.727
   43SOL    HW1 1028   4.798   6.366   4.639
   43SOL    HW2 1029   4.871   6.490   4.715
   44SOL     OW 1030   6.504   1.726   6.020
   44SOL    HW1 1031   6.566   1.772   6.084
   44SOL    HW2 1032   6.411   1.758   6.036
   45SOL     OW 1033   3.381   5.035   0.196
   45SOL    HW1 1034   3.420   5.126   0.187
   45SOL    HW2 1035   3.380   4.990   0.107
   46SOL     OW 1036   0.436   2.861   4.218
   46SOL    HW1 1037   0.382   2.941   4.193
   46SOL    HW2 1038   0.489   2.830   4.139
   47SOL     OW 1039   5.950   2.940   1.430
   47SOL    HW1 1040   5.860   2.979   1.453
   47SOL    HW2 1041   6.016   3.014   1.419
   48SOL     OW 1042   6.250   3.647   0.644
   48SOL    HW1 1043   6.240   3.587   0.723
   48SOL    HW2 1044   6.171   3.708   0.638
   49SOL     OW 1045   4.184   3.132   0.340
   49SOL    HW1 1046   4.088   3.126   0.314
   49SOL    HW2 1047   4.209   3.228   0.356
   50SOL     OW 1048   6.510   3.433   6.880
   50SOL    HW1 1049   6.416   3.464   6.865
   50SOL    HW2 1050   6.512   3.334   6.885
   51SOL     OW 1051   2.665   5.792   2.780
   51SOL    HW1 1052   2.752   5.746   2.795
   51SOL    HW2 1053   2.643   5.790   2.682
   52SOL     OW 1054   5.730   3.122   1.485
   52SOL    HW1 1055   5.672   3.173   1.421
   52SOL    HW2 1056   5.673   3.085   1.559
   53SOL     OW 1057   3.893   0.396   2.384
   53SOL    HW1 1058   3.818   0.460   2.369
   53SOL    HW2 1059   3.979   0.447   2.398
   54SOL     OW 1060   5.492   6.826   0.141
   54SOL    HW1 1061   5.527   6.913   0.178
   54SOL    HW2 1062   5.466   6.766   0.217
   55SOL     OW 1063   0.954   3.349   6.114
   55SOL    HW1 1064   0.930   3.444   6.135
   55SOL    HW2 1065   1.045   3.329   6.149
   56SOL     OW 1066   0.959   2.575   0.039
   56SOL    HW1 1067   0.984   2.480   0.018
   56SOL    HW2 1068   0.942   2.584   0.137
   57SOL     OW 1069   4.611   0.286   0.131
   57SOL    HW1 1070   4.518   0.259   0.105
   57SOL    HW2 1071   4.673   0.272   0.054
   58SOL     OW 1072   0.843   0.587   6.031
   58SOL    HW1 1073   0.858   0.502   5.980
   58SOL    HW2 1074   0.746   0.596   6.053
   59SOL     OW 1075   4.880   3.299   5.700
   59SOL    HW1 1076   4.908   3.254   5.785
   59SOL    HW2 1077   4.885   3.398   5.711
   60SOL     OW 1078   5.530   0.459   2.890
   60SOL    HW1 1079   5.445   0.412   2.864
   60SOL    HW2 1080   5.545   0.538   2.830
   61SOL     OW 1081   6.961   6.491   5.103
   61SOL    HW1 1082   0.028   6.491   5.064
   61SOL    HW2 1083   6.920   6.401   5.090
   62SOL     OW 1084   6.745   1.937   2.209
   62SOL    HW1 1085   6.661   1.990   2.203
   62SOL    HW2 1086   6.822   1.991   2.175
   63SOL     OW 1087   4.410   5.666   5.021
   63SOL    HW1 1088   4.360   5.591   5.063
   63SOL    HW2 1089   4.353   5.709   4.951
   64SOL     OW 1090   0.265   4.751   7.002
   64SOL    HW1 1091   0.288   4.718   0.068
   64SOL    HW2 1092   0.299   4.687   6.934
   65SOL     OW 1093   1.162   0.043   5.253
   65SOL    HW1 1094   1.093   7.000   5.276
   65SOL    HW2 1095   1.253   0.005   5.271
   66SOL     OW 1096   4.354   0.876   2.144
   66SOL    HW1 1097   4.366   0.931   2.226
   66SOL    HW2 1098   4.432   0.814   2.133
   67SOL     OW 1099   1.081   2.375   1.265
   67SOL    HW1 1100   1.114   2.287   1.229
   67SOL    HW2 1101   1.032   2.424   1.193
   68SOL     OW 1102   7.008   1.813   5.538
   68SOL    HW1 1103   0.044   1.751   5.488
   68SOL    HW2 1104   6.968   1.765   5.616
   69SOL     OW 1105   0.790   5.448   6.285
   69SOL    HW1 1106   0.707   5.437   6.339
   69SOL    HW2 1107   0.811   5.361   6.239
   70SOL     OW 1108   4.898   3.616   4.110
   70SOL    HW1 1109   4.844   3.693   4.075
   70SOL    HW2 1110   4.995   3.632   4.091
   71SOL     OW 1111   4.417   1.487   4.344
   71SOL    HW1 1112   4.409   1.585   4.325
   71SOL    HW2 1113   4.366   1.435   4.275
   72SOL     OW 1114   0.407   0.989   3.616
   72SOL    HW1 1115   0.417   0.939   3.530
   72SOL    HW2 1116   0.480   0.962   3.678
   73SOL     OW 1117   2.735   0.596   1.371
   73SOL    HW1 1118   2.763   0.688   1.396
   73SOL    HW2 1119   2.700   0.595   1.278
   74SOL     OW 1120   2.105   2.504   0.580
   74SOL    HW1 1121   2.060   2.462   0.658
   74SOL    HW2 1122   2.201   2.476   0.577
   75SOL     OW 1123   3.890   2.794   0.299
   75SOL    HW1 1124   3.844   2.774   0.212
   75SOL    HW2 1125   3.905   2.893   0.306
   76SOL     OW 1126   3.392   4.662   5.325
   76SOL    HW1 1127   3.307   4.615   5.302
   76SOL    HW2 1128   3.387   4.757   5.294
   77SOL     OW 1129   1.479   4.302   4.501
   77SOL    HW1 1130   1.452   4.278   4.594
   77SOL    HW2 1131   1.476   4.221   4.442
   78SOL     OW 1132   5.041   1.893   0.825
   78SOL    HW1 1133   4.944   1.917   0.824
   78SOL    HW2 1134   5.088   1.945   0.897
   79SOL     OW 1135   1.933   5.032   2.606
   79SOL    HW1 1136   1.942   5.082   2.520
   79SOL    HW2 1137   2.024   5.021   2.647
   80SOL     OW 1138   4.704   1.954   4.414
   80SOL    HW1 1139   4.633   1.912   4.470
   80SOL    HW2 1140   4.679   2.048   4.393
   81SOL     OW 1141   3.567   5.374   1.447
   81SOL    HW1 1142   3.598   5.346   1.356
   81SOL    HW2 1143   3.467   5.375   1.450
   82SOL     OW 1144   1.938   5.766   1.668
   82SOL    HW1 1145   1.860   5.748   1.728
   82SOL    HW2 1146   1.912   5.751   1.573
   83SOL     OW 1147   5.022   1.123   4.612
   83SOL    HW1 1148   5.007   1.171   4.525
   83SOL    HW2 1149   5.097   1.057   4.601
   84SOL     OW 1150   5.786   2.379   2.352
   84SOL    HW1 1151   5.809   2.366   2.255
   84SOL    HW2 1152   5.790   2.477   2.374
   85SOL     OW 1153   2.276   0.623   3.940
   85SOL    HW1 1154   2.302   0.533   3.974
   85SOL    HW2 1155   2.358   0.677   3.923
   86SOL     OW 1156   5.180   0.675   6.653
   86SOL    HW1 1157   5.216   0.768   6.645
   86SOL    HW2 1158   5.255   0.609   6.646
   87SOL     OW 1159   2.975   4.199   0.119
   87SOL    HW1 1160   3.019   4.288   0.133
   87SOL    HW2 1161   3.003   4.163   0.030
   88SOL     OW 1162   3.361   3.518   6.984
   88SOL    HW1 1163   3.416   3.601   6.991
   88SOL    HW2 1164   3.339   3.485   0.050
   89SOL     OW 1165   2.962   3.565   2.879
   89SOL    HW1 1166   2.921   3.517   2.801
   89SOL    HW2 1167   2.928   3.526   2.964
   90SOL     OW 1168   4.847   4.057   3.328
   90SOL    HW1 1169   4.862   3.959   3.312
   90SOL    HW2 1170   4.800   4.097   3.250
   91SOL     OW 1171   4.776   4.852   5.605
   91SOL    HW1 1172   4.869   4.822   5.627
   91SOL    HW2 1173   4.771   4.952   5.610
   92SOL     OW 1174   5.606   4.021   6.620
   92SOL    HW1 1175   5.643   4.113   6.614
   92SOL    HW2 1176   5.582   3.988   6.529
   93SOL     OW 1177   2.843   3.446   1.983
   93SOL    HW1 1178   2.760   3.445   1.928
   93SOL    HW2 1179   2.867   3.353   2.011
   94SOL     OW 1180   3.246   1.848   5.311
   94SOL    HW1 1181   3.332   1.801   5.295
   94SOL    HW2 1182   3.195   1.855   5.225
   95SOL     OW 1183   0.795   0.442   4.524
   95SOL    HW1 1184   0.770   0.483   4.612
   95SOL    HW2 1185   0.846   0.358   4.539
   96SOL     OW 1186   5.316   5.139   0.410
   96SOL    HW1 1187   5.228   5.187   0.408
   96SOL    HW2 1188   5.323   5.086   0.495
   97SOL     OW 1189   2.956   5.036   5.850
   97SOL    HW1 1190   3.050   5.051   5.880
   97SOL    HW2 1191   2.950   5.052   5.751
   98SOL     OW 1192   1.459   2.606   3.214
   98SOL    HW1 1193   1.423   2.515   3.194
   98SOL    HW2 1194   1.400   2.675   3.171
   99SOL     OW 1195   3.875   3.082   4.996
   99SOL    HW1 1196   3.789   3.033   5.008
   99SOL    HW2 1197   3.949   3.031   5.040
  100SOL     OW 1198   0.185   0.983   3.807
  100SOL    HW1 1199   0.250   0.992   3.732
  100SOL    HW2 1200   0.128   0.902   3.791
  101SOL     OW 1201   6.903   3.920   2.520
  101SOL    HW1 1202   6.805   3.928   2.535
  101SOL    HW2 1203   6.925   3.948   2.427
  102SOL     OW 1204   2.953   0.518   0.336
  102SOL    HW1 1205   2.906   0.605   0.319
  102SOL    HW2 1206   3.024   0.532   0.405
  103SOL     OW 1207   2.306   0.730   2.093
  103SOL    HW1 1208   2.292   0.829   2.104
  103SOL    HW2 1209   2.284   0.684   2.179
  104SOL     OW 1210   0.801   4.816   1.528
  104SOL    HW1 1211   0.719   4.790   1.477
  104SOL    HW2 1212   0.808   4.761   1.611
  105SOL     OW 1213   5.452   0.984   5.783
  105SOL    HW1 1214   5.500   0.910   5.736
  105SOL    HW2 1215   5.473   1.071   5.738
  106SOL     OW 1216   5.879   4.750   2.153
  106SOL    HW1 1217   5.922   4.835   2.121
  106SOL    HW2 1218   5.898   4.738   2.250
  107SOL     OW 1219   5.563   0.741   1.054
  107SOL    HW1 1220   5.505   0.670   1.014
  107SOL    HW2 1221   5.632   0.768   0.987
  108SOL     OW 1222   2.108   1.104   5.517
  108SOL    HW1 1223   2.069   1.108   5.610
  108SOL    HW2 1224   2.038   1.072   5.453
  109SOL     OW 1225   1.812   0.987   4.010
  109SOL    HW1 1226   1.880   0.916   4.028
  109SOL    HW2 1227   1.724   0.959   4.048
  110SOL     OW 1228   3.022   4.131   5.570
  110SOL    HW1 1229   3.093   4.187   5.613
  110SOL    HW2 1230   2.997   4.171   5.482
  111SOL     OW 1231   6.571   1.515   1.490
  111SOL    HW1 1232   6.578   1.611   1.463
  111SOL    HW2 1233   6.611   1.457   1.419
  112SOL     OW 1234   4.803   0.005   6.728
  112SOL    HW1 1235   4.861   0.015   6.809
  112SOL    HW2 1236   4.727   6.969   6.750
  113SOL     OW 1237   6.839   6.051   1.566
  113SOL    HW1 1238   6.745   6.076   1.585
  113SOL    HW2 1239   6.846   5.951   1.559
  114SOL     OW 1240   0.514   3.680   3.490
  114SOL    HW1 1241   0.529   3.594   3.442
  114SOL    HW2 1242   0.457   3.740   3.434
  115SOL     OW 1243   5.822   0.748   3.768
  115SOL    HW1 1244   5.737   0.800   3.772
  115SOL    HW2 1245   5.900   0.810   3.765
  116SOL     OW 1246   0.949   4.841   0.500
  116SOL    HW1 1247   0.970   4.918   0.559
  116SOL    HW2 1248   0.890   4.872   0.425
  117SOL     OW 1249   2.205   1.937   7.019
  117SOL    HW1 1250   2.231   1.951   6.924
  117SOL    HW2 1251   2.153   1.852   0.002
  118SOL     OW 1252   1.548   1.860   4.442
  118SOL    HW1 1253   1.589   1.770   4.426
  118SOL    HW2 1254   1.614   1.931   4.420
  119SOL     OW 1255   6.745   6.219   6.456
  119SOL    HW1 1256   6.761   6.158   6.379
  119SOL    HW2 1257   6.648   6.214   6.483
  120SOL     OW 1258   4.756   2.235   4.732
  120SOL    HW1 1259   4.664   2.198   4.739
  120SOL    HW2 1260   4.795   2.245   4.823
  121SOL     OW 1261   1.546   4.411   6.759
  121SOL    HW1 1262   1.473   4.343   6.751
  121SOL    HW2 1263   1.597   4.396   6.843
  122SOL     OW 1264   0.495   4.013   7.018
  122SOL    HW1 1265   0.547   3.976   6.940
  122SOL    HW2 1266   0.417   3.953   0.011
  123SOL     OW 1267   1.010   1.342   1.748
  123SOL    HW1 1268   0.938   1.273   1.755
  123SOL    HW2 1269   1.095   1.300   1.716
  124SOL     OW 1270   2.426   2.872   0.484
  124SOL    HW1 1271   2.456   2.821   0.564
  124SOL    HW2 1272   2.385   2.809   0.418
  125SOL     OW 1273   3.788   3.761   0.196
  125SOL    HW1 1274   3.866   3.720   0.244
  125SOL    HW2 1275   3.813   3.782   0.102
  126SOL     OW 1276   3.989   3.487   4.433
  126SOL    HW1 1277   3.910   3.547   4.422
  126SOL    HW2 1278   3.994   3.455   4.528
  127SOL     OW 1279   0.649   6.028   6.067
  127SOL    HW1 1280   0.602   6.107   6.106
  127SOL    HW2 1281   0.600   5.996   5.986
  128SOL     OW 1282   5.056   3.387   0.770
  128SOL    HW1 1283   5.001   3.420   0.847
  128SOL    HW2 1284   5.003   3.397   0.685
  129SOL     OW 1285   1.397   5.578   1.144
  129SOL    HW1 1286   1.481   5.530   1.170
  129SOL    HW2 1287   1.359   5.623   1.224
  130SOL     OW 1288   5.198   2.590   4.851
  130SOL    HW1 1289   5.170   2.556   4.941
  130SOL    HW2 1290   5.236   2.682   4.860
  131SOL     OW 1291   6.881   2.273   3.793
  131SOL    HW1 1292   6.893   2.175   3.803
  131SOL    HW2 1293   6.967   2.320   3.815
  132SOL     OW 1294   4.084   3.228   2.343
  132SOL    HW1 1295   4.111   3.269   2.256
  132SOL    HW2 1296   4.161   3.178   2.382
  133SOL     OW 1297   5.533   6.618   5.899
  133SOL    HW1 1298   5.538   6.527   5.857
  133SOL    HW2 1299   5.579   6.616   5.988
  134SOL     OW 1300   5.009   0.813   1.886
  134SOL    HW1 1301   4.913   0.837   1.873
  134SOL    HW2 1302   5.026   0.795   1.983
  135SOL     OW 1303   4.902   3.509   3.483
  135SOL    HW1 1304   4.818   3.561   3.494
  135SOL    HW2 1305   4.964   3.528   3.560
  136SOL     OW 1306   3.471   6.840   6.003
  136SOL    HW1 1307   3.410   6.915   6.029
  136SOL    HW2 1308   3.473   6.832   5.903
  137SOL     OW 1309   2.971   2.478   5.592
  137SOL    HW1 1310   2.970   2.469   5.493
  137SOL    HW2 1311   3.065   2.489   5.624
  138SOL     OW 1312   1.123   5.861   6.071
  138SOL    HW1 1313   1.220   5.854   6.047
  138SOL    HW2 1314   1.101   5.790   6.139
  139SOL     OW 1315   2.128   5.947   0.175
  139SOL    HW1 1316   2.070   5.974   0.098
  139SOL    HW2 1317   2.181   6.026   0.206
  140SOL     OW 1318   2.518   0.168   1.896
  140SOL    HW1 1319   2.590   0.220   1.849
  140SOL    HW2 1320   2.441   0.153   1.834
  141SOL     OW 1321   6.685   3.565   0.313
  141SOL    HW1 1322   6.747   3.547   0.389
  141SOL    HW2 1323   6.690   3.661   0.288
  142SOL     OW 1324   1.481   4.426   2.598
  142SOL    HW1 1325   1.467   4.376   2.513
  142SOL    HW2 1326   1.577   4.424   2.623
  143SOL     OW 1327   4.757   6.717   2.363
  143SOL    HW1 1328   4.707   6.691   2.445
  143SOL    HW2 1329   4.832   6.653   2.347
  144SOL     OW 1330   3.429   4.912   3.593
  144SOL    HW1 1331   3.507   4.892   3.653
  144SOL    HW2 1332   3.423   5.010   3.579
  145SOL     OW 1333   6.840   4.957   3.117
  145SOL    HW1 1334   6.796   4.920   3.199
  145SOL    HW2 1335   6.891   4.885   3.071
  146SOL     OW 1336   5.928   1.684   6.582
  146SOL    HW1 1337   5.939   1.585   6.580
  146SOL    HW2 1338   5.832   1.707   6.593
  147SOL     OW 1339   4.820   1.351   5.572
  147SOL    HW1 1340   4.761   1.348   5.653
  147SOL    HW2 1341   4.909   1.312   5.595
  148SOL     OW 1342   1.116   5.247   0.683
  148SOL    HW1 1343   1.031   5.256   0.735
  148SOL    HW2 1344   1.150   5.338   0.658
  149SOL     OW 1345   2.001   2.858   5.676
  149SOL    HW1 1346   1.984   2.898   5.766
  149SOL    HW2 1347   2.097   2.869   5.652
  150SOL     OW 1348   4.273   1.814   4.851
  150SOL    HW1 1349   4.327   1.811   4.935
  150SOL    HW2 1350   4.305   1.744   4.788
  151SOL     OW 1351   4.160   2.644   0.836
  151SOL    HW1 1352   4.189   2.631   0.931
  151SOL    HW2 1353   4.078   2.702   0.833
  152SOL     OW 1354   1.181   1.981   0.206
  152SOL    HW1 1355   1.232   1.907   0.249
  152SOL    HW2 1356   1.237   2.024   0.135
  153SOL     OW 1357   3.162   1.087   3.487
  153SOL    HW1 1358   3.241   1.147   3.484
  153SOL    HW2 1359   3.190   0.994   3.510
  154SOL     OW 1360   6.002   1.599   1.521
  154SOL    HW1 1361   6.021   1.519   1.578
  154SOL    HW2 1362   6.052   1.591   1.435
  155SOL     OW 1363   1.781   6.869   2.110
  155SOL    HW1 1364   1.741   6.955   2.079
  155SOL    HW2 1365   1.852   6.840   2.046
  156SOL     OW 1366   5.202   2.071   0.553
  156SOL    HW1 1367   5.141   2.149   0.566
  156SOL    HW2 1368   5.231   2.036   0.643
  157SOL     OW 1369   4.564   5.068   6.984
  157SOL    HW1 1370   4.542   4.972   6.968
  157SOL    HW2 1371   4.639   5.095   6.923
  158SOL     OW 1372   0.359   2.787   2.953
  158SOL    HW1 1373   0.429   2.824   2.892
  158SOL    HW2 1374   0.271   2.785   2.905
  159SOL     OW 1375   5.925   5.356   0.260
  159SOL    HW1 1376   6.025   5.360   0.249
  159SOL    HW2 1377   5.899   5.410   0.340
  160SOL     OW 1378   6.281   6.872   1.293
  160SOL    HW1 1379   6.307   6.966   1.314
  160SOL    HW2 1380   6.348   6.809   1.331
  161SOL     OW 1381   0.176   6.713   0.361
  161SOL    HW1 1382   0.101   6.679   0.303
  161SOL    HW2 1383   0.197   6.808   0.337
  162SOL     OW 1384   4.019   0.024   6.963
  162SOL    HW1 1385   4.019   0.124   6.955
  162SOL    HW2 1386   3.990   7.009   6.877
  163SOL     OW 1387   6.778   3.749   3.075
  163SOL    HW1 1388   6.808   3.656   3.097
  163SOL    HW2 1389   6.722   3.748   2.992
  164SOL     OW 1390   2.070   2.501   3.445
  164SOL    HW1 1391   2.163   2.506   3.482
  164SOL    HW2 1392   2.045   2.405   3.432
  165SOL     OW 1393   0.489   6.360   3.534
  165SOL    HW1 1394   0.496   6.452   3.496
  165SOL    HW2 1395   0.542   6.354   3.618
  166SOL     OW 1396   0.162   3.520   3.166
  166SOL    HW1 1397   0.071   3.546   3.133
  166SOL    HW2 1398   0.231   3.570   3.115
  167SOL     OW 1399   4.745   2.096   6.955
  167SOL    HW1 1400   4.702   2.067   6.870
  167SOL    HW2 1401   4.699   2.053   0.007
  168SOL     OW 1402   5.063   4.279   1.918
  168SOL    HW1 1403   5.044   4.268   1.821
  168SOL    HW2 1404   5.137   4.218   1.945
  169SOL     OW 1405   6.036   2.009   1.367
  169SOL    HW1 1406   6.021   2.094   1.318
  169SOL    HW2 1407   5.948   1.967   1.389
  170SOL     OW 1408   0.714   5.408   3.005
  170SOL    HW1 1409   0.774   5.477   3.046
  170SOL    HW2 1410   0.757   5.371   2.923
  171SOL     OW 1411   3.078   4.107   0.369
  171SOL    HW1 1412   3.055   4.110   0.271
  171SOL    HW2 1413   3.012   4.163   0.420
  172SOL     OW 1414   6.802   1.864   0.279
  172SOL    HW1 1415   6.799   1.910   0.190
  172SOL    HW2 1416   6.817   1.766   0.265
  173SOL     OW 1417   6.863   2.051   4.975
  173SOL    HW1 1418   6.873   1.971   5.034
  173SOL    HW2 1419   6.859   2.134   5.031
  174SOL     OW 1420   5.980   5.459   5.497
  174SOL    HW1 1421   6.070   5.441   5.459
  174SOL    HW2 1422   5.968   5.557   5.512
  175SOL     OW 1423   0.780   0.178   0.976
  175SOL    HW1 1424   0.727   0.193   1.060
  175SOL    HW2 1425   0.853   0.113   0.994
  176SOL     OW 1426   5.609   4.555   2.241
  176SOL    HW1 1427   5.510   4.540   2.242
  176SOL    HW2 1428   5.654   4.478   2.196
  177SOL     OW 1429   5.968   2.325   4.329
  177SOL    HW1 1430   5.879   2.363   4.301
  177SOL    HW2 1431   5.953   2.249   4.392
  178SOL     OW 1432   1.957   6.332   4.984
  178SOL    HW1 1433   1.935   6.419   5.029
  178SOL    HW2 1434   1.959   6.259   5.053
  179SOL     OW 1435   3.789   4.603   1.285
  179SOL    HW1 1436   3.752   4.652   1.207
  179SOL    HW2 1437   3.886   4.626   1.297
  180SOL     OW 1438   4.209   1.664   0.575
  180SOL    HW1 1439   4.113   1.683   0.556
  180SOL    HW2 1440   4.216   1.586   0.636
  181SOL     OW 1441   3.037   2.147   5.277
  181SOL    HW1 1442   3.066   2.225   5.222
  181SOL    HW2 1443   2.951   2.112   5.242
  182SOL     OW 1444   5.010   2.655   6.747
  182SOL    HW1 1445   5.064   2.717   6.690
  182SOL    HW2 1446   4.961   2.589   6.689
  183SOL     OW 1447   3.389   1.435   3.629
  183SOL    HW1 1448   3.464   1.387   3.675
  183SOL    HW2 1449   3.344   1.496   3.694
  184SOL     OW 1450   5.760   6.085   3.779
  184SOL    HW1 1451   5.792   6.033   3.700
  184SOL    HW2 1452   5.756   6.026   3.859
  185SOL     OW 1453   6.965   1.664   4.256
  185SOL    HW1 1454   6.966   1.599   4.180
  185SOL    HW2 1455   6.944   1.756   4.222
  186SOL     OW 1456   4.488   5.772   4.214
  186SOL    HW1 1457   4.407   5.792   4.270
  186SOL    HW2 1458   4.535   5.858   4.193
  187SOL     OW 1459   4.653   6.449   1.687
  187SOL    HW1 1460   4.592   6.426   1.763
  187SOL    HW2 1461   4.748   6.429   1.713
  188SOL     OW 1462   1.774   3.549   3.124
  188SOL    HW1 1463   1.811   3.462   3.156
  188SOL    HW2 1464   1.807   3.568   3.032
  189SOL     OW 1465   6.200   5.144   6.196
  189SOL    HW1 1466   6.142   5.213   6.239
  189SOL    HW2 1467   6.176   5.053   6.231
  190SOL     OW 1468   6.071   0.209   0.022
  190SOL    HW1 1469   6.000   0.280   0.023
  190SOL    HW2 1470   6.050   0.140   0.091
  191SOL     OW 1471   6.797   1.314   5.801
  191SOL    HW1 1472   6.718   1.376   5.803
  191SOL    HW2 1473   6.860   1.344   5.728
  192SOL     OW 1474   0.757   5.536   0.694
  192SOL    HW1 1475   0.757   5.477   0.775
  192SOL    HW2 1476   0.723   5.627   0.719
  193SOL     OW 1477   2.546   6.302   6.345
  193SOL    HW1 1478   2.483   6.250   6.403
  193SOL    HW2 1479   2.498   6.329   6.261
  194SOL     OW 1480   3.862   6.713   2.118
  194SOL    HW1 1481   3.789   6.721   2.051
  194SOL    HW2 1482   3.900   6.803   2.137
  195SOL     OW 1483   3.368   0.716   1.737
  195SOL    HW1 1484   3.312   0.739   1.658
  195SOL    HW2 1485   3.426   0.638   1.715
  196SOL     OW 1486   1.962   1.457   0.881
  196SOL    HW1 1487   1.960   1.422   0.787
  196SOL    HW2 1488   1.879   1.427   0.929
  197SOL     OW 1489   2.187   6.092   0.597
  197SOL    HW1 1490   2.172   6.175   0.650
  197SOL    HW2 1491   2.271   6.102   0.543
  198SOL     OW 1492   4.311   0.040   6.803
  198SOL    HW1 1493   4.332   0.086   6.890
  198SOL    HW2 1494   4.218   0.004   6.806
  199SOL     OW 1495   6.858   6.336   3.224
  199SOL    HW1 1496   6.953   6.368   3.215
  199SOL    HW2 1497   6.825   6.353   3.317
  200SOL     OW 1498   0.669   3.697   3.725
  200SOL    HW1 1499   0.735   3.626   3.703
  200SOL    HW2 1500   0.593   3.694   3.660
  201SOL     OW 1501   3.338   1.056   6.840
  201SOL    HW1 1502   3.266   1.093   6.783
  201SOL    HW2 1503   3.393   0.991   6.787
  202SOL     OW 1504   3.571   0.104   2.882
  202SOL    HW1 1505   3.616   0.193   2.874
  202SOL    HW2 1506   3.536   0.093   2.975
  203SOL     OW 1507   5.473   3.641   6.412
  203SOL    HW1 1508   5.526   3.726   6.411
  203SOL    HW2 1509   5.376   3.662   6.421
  204SOL     OW 1510   2.179   6.696   0.887
  204SOL    HW1 1511   2.106   6.712   0.820
  204SOL    HW2 1512   2.186   6.598   0.906
  205SOL     OW 1513   6.031   1.938   0.671
  205SOL    HW1 1514   6.107   1.900   0.617
  205SOL    HW2 1515   5.946   1.928   0.620
  206SOL     OW 1516   0.995   4.711   2.062
  206SOL    HW1 1517   0.949   4.754   1.985
  206SOL    HW2 1518   1.080   4.668   2.031
  207SOL     OW 1519   4.566   0.479   5.675
  207SOL    HW1 1520   4.501   0.553   5.693
  207SOL    HW2 1521   4.659   0.511   5.692
  208SOL     OW 1522   4.781   5.553   6.099
  208SOL    HW1 1523   4.862   5.542   6.041
  208SOL    HW2 1524   4.734   5.465   6.107
  209SOL     OW 1525   6.421   5.528   5.635
  209SOL    HW1 1526   6.514   5.558   5.656
  209SOL    HW2 1527   6.357   5.571   5.698
  210SOL     OW 1528   3.886   2.981   1.177
  210SOL    HW1 1529   3.926   3.011   1.091
  210SOL    HW2 1530   3.879   2.882   1.178
  211SOL     OW 1531   1.704   1.265   0.898
  211SOL    HW1 1532   1.617   1.269   0.946
  211SOL    HW2 1533   1.759   1.190   0.935
  212SOL     OW 1534   0.424   5.026   4.131
  212SOL    HW1 1535   0.379   5.018   4.220
  212SOL    HW2 1536   0.456   4.936   4.102
  213SOL     OW 1537   5.165   2.165   6.774
  213SOL    HW1 1538   5.087   2.226   6.789
  213SOL    HW2 1539   5.187   2.117   6.859
  214SOL     OW 1540   0.832   0.374   2.701
  214SOL    HW1 1541   0.913   0.349   2.647
  214SOL    HW2 1542   0.798   0.463   2.669
  215SOL     OW 1543   3.794   3.371   3.141
  215SOL    HW1 1544   3.752   3.282   3.123
  215SOL    HW2 1545   3.757   3.409   3.225
  216SOL     OW 1546   0.792   6.871   6.124
  216SOL    HW1 1547   0.775   6.888   6.222
  216SOL    HW2 1548   0.749   6.943   6.070
  217SOL     OW 1549   0.686   2.873   3.128
  217SOL    HW1 1550   0.751   2.797   3.121
  217SOL    HW2 1551   0.613   2.849   3.192
  218SOL     OW 1552   1.194   3.805   5.559
  218SOL    HW1 1553   1.229   3.890   5.599
  218SOL    HW2 1554   1.270   3.744   5.538
  219SOL     OW 1555   4.669   5.378   0.093
  219SOL    HW1 1556   4.722   5.463   0.104
  219SOL    HW2 1557   4.581   5.399   0.051
  220SOL     OW 1558   2.569   5.210   0.284
  220SOL    HW1 1559   2.504   5.170   0.220
  220SOL    HW2 1560   2.646   5.248   0.234
  221SOL     OW 1561   5.586   2.078   4.435
  221SOL    HW1 1562   5.525   2.019   4.383
  221SOL    HW2 1563   5.678   2.072   4.397
  222SOL     OW 1564   0.665   5.901   5.390
  222SOL    HW1 1565   0.666   5.825   5.455
  222SOL    HW2 1566   0.586   5.960   5.409
  223SOL     OW 1567   6.846   3.927   1.965
  223SOL    HW1 1568   6.816   3.964   1.878
  223SOL    HW2 1569   6.946   3.924   1.968
  224SOL     OW 1570   3.062   2.409   1.686
  224SOL    HW1 1571   3.018   2.411   1.776
  224SOL    HW2 1572   2.993   2.386   1.616
  225SOL     OW 1573   5.985   1.050   6.853
  225SOL    HW1 1574   5.902   1.017   6.897
  225SOL    HW2 1575   5.998   1.147   6.874
  226SOL     OW 1576   6.931   5.993   0.906
  226SOL    HW1 1577   6.962   6.002   1.001
  226SOL    HW2 1578   6.898   6.082   0.874
  227SOL     OW 1579   1.462   3.500   3.773
  227SOL    HW1 1580   1.388   3.447   3.732
  227SOL    HW2 1581   1.463   3.592   3.735
  228SOL     OW 1582   4.648   6.720   3.966
  228SOL    HW1 1583   4.595   6.666   3.901
  228SOL    HW2 1584   4.666   6.665   4.048
  229SOL     OW 1585   6.064   5.743   2.051
  229SOL    HW1 1586   6.125   5.757   2.129
  229SOL    HW2 1587   6.096   5.798   1.973
  230SOL     OW 1588   2.318   4.447   4.947
  230SOL    HW1 1589   2.295   4.354   4.973
  230SOL    HW2 1590   2.385   4.485   5.011
  231SOL     OW 1591   0.366   2.510   6.164
  231SOL    HW1 1592   0.314   2.594   6.180
  231SOL    HW2 1593   0.445   2.508   6.226
  232SOL     OW 1594   2.352   4.745   6.612
  232SOL    HW1 1595   2.416   4.727   6.686
  232SOL    HW2 1596   2.262   4.706   6.635
  233SOL     OW 1597   2.135   1.009   5.959
  233SOL    HW1 1598   2.210   1.059   6.001
  233SOL    HW2 1599   2.159   0.913   5.950
  234SOL     OW 1600   2.893   5.620   6.077
  234SOL    HW1 1601   2.815   5.576   6.031
  234SOL    HW2 1602   2.866   5.646   6.170
  235SOL     OW 1603   3.051   3.501   4.582
  235SOL    HW1 1604   2.983   3.574   4.584
  235SOL    HW2 1605   3.022   3.430   4.518
  236SOL     OW 1606   6.663   2.243   5.565
  236SOL    HW1 1607   6.633   2.263   5.658
  236SOL    HW2 1608   6.717   2.159   5.565
  237SOL     OW 1609   0.583   0.201   1.231
  237SOL    HW1 1610   0.515   0.161   1.170
  237SOL    HW2 1611   0.563   0.298   1.243
  238SOL     OW 1612   5.925   2.809   2.883
  238SOL    HW1 1613   5.920   2.807   2.783
  238SOL    HW2 1614   5.890   2.722   2.919
  239SOL     OW 1615   6.520   5.706   6.736
  239SOL    HW1 1616   6.542   5.772   6.809
  239SOL    HW2 1617   6.505   5.755   6.650
  240SOL     OW 1618   0.128   4.116   5.885
  240SOL    HW1 1619   0.104   4.020   5.866
  240SOL    HW2 1620   0.225   4.131   5.864
  241SOL     OW 1621   0.403   1.018   3.083
  241SOL    HW1 1622   0.488   1.062   3.113
  241SOL    HW2 1623   0.425   0.940   3.023
  242SOL     OW 1624   1.786   3.873   4.184
  242SOL    HW1 1625   1.857   3.910   4.125
  242SOL    HW2 1626   1.700   3.866   4.134
  243SOL     OW 1627   5.840   6.763   5.424
  243SOL    HW1 1628   5.811   6.793   5.515
  243SOL    HW2 1629   5.776   6.694   5.389
  244SOL     OW 1630   6.083   1.921   5.756
  244SOL    HW1 1631   6.045   1.925   5.848
  244SOL    HW2 1632   6.058   1.834   5.714
  245SOL     OW 1633   5.605   2.302   4.095
  245SOL    HW1 1634   5.554   2.238   4.153
  245SOL    HW2 1635   5.625   2.259   4.007
  246SOL     OW 1636   4.974   3.235   3.020
  246SOL    HW1 1637   4.971   3.271   3.113
  246SOL    HW2 1638   4.939   3.141   3.019
  247SOL     OW 1639   2.396   1.203   3.355
  247SOL    HW1 1640   2.332   1.279   3.360
  247SOL    HW2 1641   2.468   1.214   3.423
  248SOL     OW 1642   5.990   1.515   3.169
  248SOL    HW1 1643   5.989   1.615   3.181
  248SOL    HW2 1644   6.066   1.489   3.110
  249SOL     OW 1645   3.347   6.941   3.960
  249SOL    HW1 1646   3.344   6.863   3.898
  249SOL    HW2 1647   3.290   7.015   3.923
  250SOL     OW 1648   5.335   2.967   5.791
  250SOL    HW1 1649   5.292   2.916   5.717
  250SOL    HW2 1650   5.312   3.064   5.783
  251SOL     OW 1651   4.169   2.307   6.919
  251SOL    HW1 1652   4.185   2.228   6.979
  251SOL    HW2 1653   4.247   2.370   6.926
  252SOL     OW 1654   0.109   0.521   5.653
  252SOL    HW1 1655   0.099   0.621   5.657
  252SOL    HW2 1656   0.036   0.479   5.706
  253SOL     OW 1657   3.063   3.409   0.133
  253SOL    HW1 1658   3.132   3.473   0.166
  253SOL    HW2 1659   2.972   3.442   0.159
  254SOL     OW 1660   5.687   3.278   4.939
  254SOL    HW1 1661   5.676   3.192   4.989
  254SOL    HW2 1662   5.629   3.277   4.857
  255SOL     OW 1663   2.902   1.684   3.369
  255SOL    HW1 1664   2.875   1.631   3.289
  255SOL    HW2 1665   2.838   1.760   3.382
  256SOL     OW 1666   5.912   5.121   0.122
  256SOL    HW1 1667   5.924   5.046   0.187
  256SOL    HW2 1668   5.916   5.209   0.171
  257SOL     OW 1669   2.893   6.405   5.942
  257SOL    HW1 1670   2.898   6.437   6.036
  257SOL    HW2 1671   2.960   6.453   5.886
  258SOL     OW 1672   5.574   4.439   4.848
  258SOL    HW1 1673   5.601   4.345   4.830
  258SOL    HW2 1674   5.653   4.492   4.877
  259SOL     OW 1675   1.712   2.024   2.279
  259SOL    HW1 1676   1.686   2.116   2.305
  259SOL    HW2 1677   1.791   1.994   2.333
  260SOL     OW 1678   5.303   0.398   5.704
  260SOL    HW1 1679   5.355   0.321   5.742
  260SOL    HW2 1680   5.346   0.484   5.732
  261SOL     OW 1681   0.826   3.590   2.287
  261SOL    HW1 1682   0.795   3.569   2.380
  261SOL    HW2 1683   0.922   3.566   2.277
  262SOL     OW 1684   0.803   4.752   2.270
  262SOL    HW1 1685   0.773   4.684   2.337
  262SOL    HW2 1686   0.867   4.709   2.206
  263SOL     OW 1687   1.098   2.180   4.454
  263SOL    HW1 1688   1.107   2.278   4.432
  263SOL    HW2 1689   1.007   2.163   4.490
  264SOL     OW 1690   2.515   4.933   6.072
  264SOL    HW1 1691   2.582   5.004   6.052
  264SOL    HW2 1692   2.469   4.953   6.159
  265SOL     OW 1693   5.359   3.691   4.724
  265SOL    HW1 1694   5.423   3.650   4.659
  265SOL    HW2 1695   5.375   3.652   4.815
  266SOL     OW 1696   4.328   1.673   0.358
  266SOL    HW1 1697   4.375   1.587   0.336
  266SOL    HW2 1698   4.286   1.665   0.448
  267SOL     OW 1699   1.103   2.360   6.062
  267SOL    HW1 1700   1.144   2.270   6.078
  267SOL    HW2 1701   1.114   2.385   5.966
  268SOL     OW 1702   4.155   4.849   4.814
  268SOL    HW1 1703   4.189   4.775   4.873
  268SOL    HW2 1704   4.162   4.821   4.718
  269SOL     OW 1705   0.606   1.653   5.911
  269SOL    HW1 1706   0.648   1.596   5.841
  269SOL    HW2 1707   0.652   1.639   5.999
  270SOL     OW 1708   5.335   1.196   3.199
  270SOL    HW1 1709   5.371   1.120   3.145
  270SOL    HW2 1710   5.392   1.277   3.184
  271SOL     OW 1711   1.725   0.814   0.038
  271SOL    HW1 1712   1.793   0.749   0.004
  271SOL    HW2 1713   1.690   0.784   0.127
  272SOL     OW 1714   3.347   5.838   3.653
  272SOL    HW1 1715   3.418   5.904   3.629
  272SOL    HW2 1716   3.309   5.798   3.570
  273SOL     OW 1717   2.345   6.377   5.216
  273SOL    HW1 1718   2.300   6.444   5.156
  273SOL    HW2 1719   2.287   6.295   5.222
  274SOL     OW 1720   6.229   2.088   1.587
  274SOL    HW1 1721   6.201   2.029   1.512
  274SOL    HW2 1722   6.315   2.134   1.562
  275SOL     OW 1723   6.572   5.962   5.092
  275SOL    HW1 1724   6.594   5.992   4.999
  275SOL    HW2 1725   6.503   5.889   5.088
  276SOL     OW 1726   6.607   5.945   3.679
  276SOL    HW1 1727   6.619   5.889   3.760
  276SOL    HW2 1728   6.575   6.036   3.706
  277SOL     OW 1729   4.328   1.460   5.670
  277SOL    HW1 1730   4.364   1.545   5.631
  277SOL    HW2 1731   4.393   1.425   5.738
  278SOL     OW 1732   6.105   2.985   2.749
  278SOL    HW1 1733   6.035   2.951   2.813
  278SOL    HW2 1734   6.173   3.038   2.799
  279SOL     OW 1735   6.661   2.725   4.387
  279SOL    HW1 1736   6.752   2.734   4.345
  279SOL    HW2 1737   6.666   2.659   4.462
  280SOL     OW 1738   3.526   0.729   3.792
  280SOL    HW1 1739   3.555   0.802   3.730
  280SOL    HW2 1740   3.463   0.766   3.860
  281SOL     OW 1741   5.036   6.083   4.215
  281SOL    HW1 1742   4.980   6.051   4.291
  281SOL    HW2 1743   5.095   6.008   4.184
  282SOL     OW 1744   3.961   1.810   0.409
  282SOL    HW1 1745   3.936   1.767   0.322
  282SOL    HW2 1746   3.879   1.822   0.465
  283SOL     OW 1747   6.285   1.966   4.912
  283SOL    HW1 1748   6.289   1.931   4.818
  283SOL    HW2 1749   6.378   1.979   4.947
  284SOL     OW 1750   5.639   5.628   3.714
  284SOL    HW1 1751   5.606   5.595   3.626
  284SOL    HW2 1752   5.669   5.550   3.769
  285SOL     OW 1753   4.214   0.729   6.162
  285SOL    HW1 1754   4.174   0.685   6.082
  285SOL    HW2 1755   4.215   0.665   6.238
  286SOL     OW 1756   3.063   5.264   5.084
  286SOL    HW1 1757   3.138   5.262   5.151
  286SOL    HW2 1758   3.030   5.172   5.068
  287SOL     OW 1759   2.851   6.881   6.012
  287SOL    HW1 1760   2.938   6.895   6.060
  287SOL    HW2 1761   2.868   6.877   5.913
  288SOL     OW 1762   3.613   0.942   0.919
  288SOL    HW1 1763   3.598   0.983   1.009
  288SOL    HW2 1764   3.692   0.987   0.875
  289SOL     OW 1765   6.447   6.397   4.322
  289SOL    HW1 1766   6.506   6.408   4.242
  289SOL    HW2 1767   6.460   6.475   4.383
  290SOL     OW 1768   3.437   0.847   4.931
  290SOL    HW1 1769   3.499   0.877   5.003
  290SOL    HW2 1770   3.476   0.767   4.885
  291SOL     OW 1771   4.413   6.900   5.061
  291SOL    HW1 1772   4.434   6.816   5.012
  291SOL    HW2 1773   4.461   6.977   5.018
  292SOL     OW 1774   4.369   0.134   3.516
  292SOL    HW1 1775   4.337   0.153   3.608
  292SOL    HW2 1776   4.449   0.191   3.496
  293SOL     OW 1777   5.952   6.656   2.339
  293SOL    HW1 1778   5.853   6.666   2.341
  293SOL    HW2 1779   5.975   6.559   2.325
  294SOL     OW 1780   6.481   0.516   5.597
  294SOL    HW1 1781   6.523   0.449   5.535
  294SOL    HW2 1782   6.523   0.606   5.582
  295SOL     OW 1783   1.195   1.648   5.026
  295SOL    HW1 1784   1.099   1.635   5.051
  295SOL    HW2 1785   1.254   1.605   5.094
  296SOL     OW 1786   0.080   2.238   1.537
  296SOL    HW1 1787   0.041   2.321   1.496
  296SOL    HW2 1788   0.103   2.255   1.632
  297SOL     OW 1789   5.612   3.559   3.650
  297SOL    HW1 1790   5.702   3.543   3.690
  297SOL    HW2 1791   5.620   3.627   3.577
  298SOL     OW 1792   3.454   0.928   6.627
  298SOL    HW1 1793   3.554   0.937   6.630
  298SOL    HW2 1794   3.419   0.972   6.544
  299SOL     OW 1795   2.321   1.393   6.197
  299SOL    HW1 1796   2.256   1.395   6.121
  299SOL    HW2 1797   2.389   1.465   6.184
  300SOL     OW 1798   4.094   0.076   2.784
  300SOL    HW1 1799   4.101   7.021   2.724
  300SOL    HW2 1800   4.069   0.156   2.730
  301SOL     OW 1801   6.389   5.393   0.676
  301SOL    HW1 1802   6.482   5.431   0.680
  301SOL    HW2 1803   6.393   5.296   0.654
  302SOL     OW 1804   6.041   5.621   0.951
  302SOL    HW1 1805   5.969   5.646   0.886
  302SOL    HW2 1806   6.130   5.628   0.906
  303SOL     OW 1807   5.950   5.595   1.861
  303SOL    HW1 1808   5.960   5.646   1.946
  303SOL    HW2 1809   5.887   5.644   1.800
  304SOL     OW 1810   2.625   6.601   5.371
  304SOL    HW1 1811   2.688   6.529   5.341
  304SOL    HW2 1812   2.602   6.660   5.294
  305SOL     OW 1813   1.324   3.005   2.261
  305SOL    HW1 1814   1.321   3.095   2.304
  305SOL    HW2 1815   1.232   2.967   2.257
  306SOL     OW 1816   6.517   0.197   2.713
  306SOL    HW1 1817   6.481   0.127   2.652
  306SOL    HW2 1818   6.464   0.281   2.703
  307SOL     OW 1819   3.305   3.026   3.244
  307SOL    HW1 1820   3.314   3.011   3.343
  307SOL    HW2 1821   3.364   2.961   3.195
  308SOL     OW 1822   5.829   1.716   4.031
  308SOL    HW1 1823   5.841   1.733   4.129
  308SOL    HW2 1824   5.772   1.788   3.992
  309SOL     OW 1825   0.874   6.248   5.975
  309SOL    HW1 1826   0.852   6.150   5.981
  309SOL    HW2 1827   0.972   6.260   5.965
  310SOL     OW 1828   5.250   6.123   4.935
  310SOL    HW1 1829   5.242   6.207   4.881
  310SOL    HW2 1830   5.162   6.102   4.977
  311SOL     OW 1831   2.376   5.368   3.036
  311SOL    HW1 1832   2.402   5.436   3.105
  311SOL    HW2 1833   2.384   5.409   2.945
  312SOL     OW 1834   4.528   2.051   3.037
  312SOL    HW1 1835   4.504   1.983   3.106
  312SOL    HW2 1836   4.457   2.054   2.967
  313SOL     OW 1837   4.077   3.534   3.432
  313SOL    HW1 1838   4.096   3.557   3.528
  313SOL    HW2 1839   4.121   3.448   3.408
  314SOL     OW 1840   2.113   6.502   5.725
  314SOL    HW1 1841   2.076   6.509   5.818
  314SOL    HW2 1842   2.141   6.592   5.693
  315SOL     OW 1843   6.327   1.514   3.493
  315SOL    HW1 1844   6.336   1.448   3.418
  315SOL    HW2 1845   6.386   1.593   3.476
  316SOL     OW 1846   3.615   0.908   5.112
  316SOL    HW1 1847   3.687   0.939   5.050
  316SOL    HW2 1848   3.602   0.975   5.184
  317SOL     OW 1849   1.171   1.327   1.493
  317SOL    HW1 1850   1.172   1.237   1.536
  317SOL    HW2 1851   1.243   1.384   1.533
  318SOL     OW 1852   0.138   0.478   5.389
  318SOL    HW1 1853   0.103   0.560   5.342
  318SOL    HW2 1854   0.123   0.487   5.487
  319SOL     OW 1855   1.595   2.547   2.808
  319SOL    HW1 1856   1.558   2.468   2.759
  319SOL    HW2 1857   1.572   2.631   2.759
  320SOL     OW 1858   6.057   2.896   6.603
  320SOL    HW1 1859   6.050   2.940   6.513
  320SOL    HW2 1860   6.031   2.800   6.595
  321SOL     OW 1861   4.351   3.177   1.248
  321SOL    HW1 1862   4.412   3.122   1.191
  321SOL    HW2 1863   4.405   3.236   1.308
  322SOL     OW 1864   3.408   3.188   6.221
  322SOL    HW1 1865   3.490   3.145   6.260
  322SOL    HW2 1866   3.329   3.128   6.234
  323SOL     OW 1867   0.233   3.149   3.556
  323SOL    HW1 1868   0.217   3.182   3.463
  323SOL    HW2 1869   0.182   3.205   3.621
  324SOL     OW 1870   0.619   6.977   4.029
  324SOL    HW1 1871   0.661   0.023   4.085
  324SOL    HW2 1872   0.579   6.907   4.088
  325SOL     OW 1873   0.579   3.816   2.352
  325SOL    HW1 1874   0.613   3.896   2.303
  325SOL    HW2 1875   0.656   3.764   2.389
  326SOL     OW 1876   0.597   6.303   6.705
  326SOL    HW1 1877   0.640   6.297   6.615
  326SOL    HW2 1878   0.573   6.399   6.723
  327SOL     OW 1879   4.232   5.039   3.442
  327SOL    HW1 1880   4.234   4.945   3.475
  327SOL    HW2 1881   4.204   5.040   3.346
  328SOL     OW 1882   2.082   4.072   2.221
  328SOL    HW1 1883   2.004   4.092   2.281
  328SOL    HW2 1884   2.166   4.106   2.263
  329SOL     OW 1885   3.531   3.866   2.215
  329SOL    HW1 1886   3.513   3.965   2.217
  329SOL    HW2 1887   3.619   3.847   2.259
  330SOL     OW 1888   3.661   5.190   0.423
  330SOL    HW1 1889   3.720   5.268   0.443
  330SOL    HW2 1890   3.697   5.140   0.345
  331SOL     OW 1891   5.594   5.422   6.798
  331SOL    HW1 1892   5.582   5.475   6.881
  331SOL    HW2 1893   5.506   5.409   6.753
  332SOL     OW 1894   5.340   2.138   2.591
  332SOL    HW1 1895   5.270   2.207   2.577
  332SOL    HW2 1896   5.407   2.142   2.517
  333SOL     OW 1897   3.449   1.555   6.338
  333SOL    HW1 1898   3.372   1.549   6.275
  333SOL    HW2 1899   3.441   1.639   6.391
  334SOL     OW 1900   3.546   3.387   3.465
  334SOL    HW1 1901   3.596   3.470   3.443
  334SOL    HW2 1902   3.457   3.388   3.419
  335SOL     OW 1903   3.217   0.501   5.853
  335SOL    HW1 1904   3.155   0.520   5.929
  335SOL    HW2 1905   3.181   0.425   5.799
  336SOL     OW 1906   3.143   1.672   3.110
  336SOL    HW1 1907   3.220   1.622   3.069
  336SOL    HW2 1908   3.058   1.647   3.064
  337SOL     OW 1909   2.228   0.356   5.893
  337SOL    HW1 1910   2.214   0.431   5.828
  337SOL    HW2 1911   2.315   0.311   5.874
  338SOL     OW 1912   4.779   1.696   1.511
  338SOL    HW1 1913   4.687   1.708   1.473
  338SOL    HW2 1914   4.800   1.773   1.571
  339SOL     OW 1915   3.652   4.954   5.064
  339SOL    HW1 1916   3.657   5.052   5.080
  339SOL    HW2 1917   3.647   4.937   4.965
  340SOL     OW 1918   4.730   1.903   3.487
  340SOL    HW1 1919   4.750   1.944   3.576
  340SOL    HW2 1920   4.685   1.971   3.428
  341SOL     OW 1921   5.496   7.005   4.248
  341SOL    HW1 1922   5.579   6.952   4.266
  341SOL    HW2 1923   5.416   6.945   4.259
  342SOL     OW 1924   5.151   2.476   1.629
  342SOL    HW1 1925   5.155   2.546   1.701
  342SOL    HW2 1926   5.114   2.391   1.667
  343SOL     OW 1927   0.932   5.850   3.103
  343SOL    HW1 1928   1.008   5.889   3.154
  343SOL    HW2 1929   0.850   5.906   3.117
  344SOL     OW 1930   1.870   1.496   1.907
  344SOL    HW1 1931   1.800   1.492   1.978
  344SOL    HW2 1932   1.955   1.531   1.947
  345SOL     OW 1933   6.135   3.264   4.056
  345SOL    HW1 1934   6.172   3.347   4.097
  345SOL    HW2 1935   6.199   3.188   4.069
  346SOL     OW 1936   1.538   6.916   3.062
  346SOL    HW1 1937   1.598   6.936   3.139
  346SOL    HW2 1938   1.481   6.997   3.044
  347SOL     OW 1939   2.794   5.132   0.454
  347SOL    HW1 1940   2.731   5.154   0.380
  347SOL    HW2 1941   2.778   5.038   0.485
  348SOL     OW 1942   5.187   5.588   2.286
  348SOL    HW1 1943   5.203   5.687   2.277
  348SOL    HW2 1944   5.165   5.550   2.196
  349SOL     OW 1945   6.501   4.191   1.305
  349SOL    HW1 1946   6.532   4.283   1.280
  349SOL    HW2 1947   6.533   4.169   1.397
  350SOL     OW 1948   3.168   3.159   0.294
  350SOL    HW1 1949   3.140   3.203   0.379
  350SOL    HW2 1950   3.133   3.211   0.216
  351SOL     OW 1951   3.323   4.305   1.465
  351SOL    HW1 1952   3.396   4.257   1.514
  351SOL    HW2 1953   3.253   4.239   1.438
  352SOL     OW 1954   4.125   6.773   2.921
  352SOL    HW1 1955   4.081   6.689   2.954
  352SOL    HW2 1956   4.087   6.798   2.832
  353SOL     OW 1957   2.105   6.160   6.742
  353SOL    HW1 1958   2.131   6.257   6.738
  353SOL    HW2 1959   2.174   6.110   6.795
  354SOL     OW 1960   6.799   2.421   0.575
  354SOL    HW1 1961   6.857   2.500   0.591
  354SOL    HW2 1962   6.739   2.438   0.497
  355SOL     OW 1963   2.130   2.464   2.634
  355SOL    HW1 1964   2.078   2.543   2.666
  355SOL    HW2 1965   2.127   2.460   2.535
  356SOL     OW 1966   0.977   0.004   6.353
  356SOL    HW1 1967   0.895   6.976   6.372
  356SOL    HW2 1968   0.951   0.091   6.311
  357SOL     OW 1969   5.457   6.635   4.467
  357SOL    HW1 1970   5.437   6.625   4.564
  357SOL    HW2 1971   5.553   6.616   4.451
  358SOL     OW 1972   5.196   6.031   0.748
  358SOL    HW1 1973   5.255   6.049   0.669
  358SOL    HW2 1974   5.141   6.111   0.768
  359SOL     OW 1975   3.056   2.101   1.955
  359SOL    HW1 1976   3.156   2.103   1.960
  359SOL    HW2 1977   3.020   2.187   1.992
  360SOL     OW 1978   1.480   4.400   4.144
  360SOL    HW1 1979   1.448   4.389   4.050
  360SOL    HW2 1980   1.507   4.495   4.159
  361SOL     OW 1981   6.725   6.270   3.502
  361SOL    HW1 1982   6.703   6.209   3.579
  361SOL    HW2 1983   6.652   6.265   3.434
  362SOL     OW 1984   3.921   4.202   1.235
  362SOL    HW1 1985   4.003   4.150   1.211
  362SOL    HW2 1986   3.944   4.298   1.244
  363SOL     OW 1987   5.927   5.294   2.760
  363SOL    HW1 1988   6.018   5.282   2.720
  363SOL    HW2 1989   5.901   5.211   2.809
  364SOL     OW 1990   0.184   5.373   6.834
  364SOL    HW1 1991   0.209   5.390   6.739
  364SOL    HW2 1992   0.264   5.342   6.884
  365SOL     OW 1993   3.534   1.609   2.190
  365SOL    HW1 1994   3.494   1.534   2.137
  365SOL    HW2 1995   3.552   1.578   2.283
  366SOL     OW 1996   6.058   2.746   0.814
  366SOL    HW1 1997   6.061   2.760   0.913
  366SOL    HW2 1998   6.150   2.748   0.776
  367SOL     OW 1999   4.296   1.852   5.841
  367SOL    HW1 2000   4.340   1.937   5.869
  367SOL    HW2 2001   4.207   1.871   5.801
  368SOL     OW 2002   6.406   1.993   5.961
  368SOL    HW1 2003   6.471   1.984   5.886
  368SOL    HW2 2004   6.338   2.063   5.938
  369SOL     OW 2005   5.366   3.609   2.613
  369SOL    HW1 2006   5.465   3.617   2.625
  369SOL    HW2 2007   5.341   3.636   2.519
  370SOL     OW 2008   2.284   2.846   4.227
  370SOL    HW1 2009   2.248   2.783   4.296
  370SOL    HW2 2010   2.258   2.939   4.250
  371SOL     OW 2011   2.176   4.175   6.844
  371SOL    HW1 2012   2.202   4.267   6.814
  371SOL    HW2 2013   2.246   4.110   6.814
  372SOL     OW 2014   2.907   6.824   5.569
  372SOL    HW1 2015   2.959   6.878   5.635
  372SOL    HW2 2016   2.813   6.856   5.566
  373SOL     OW 2017   6.230   6.468   4.591
  373SOL    HW1 2018   6.236   6.371   4.615
  373SOL    HW2 2019   6.136   6.491   4.568
  374SOL     OW 2020   2.645   1.593   2.534
  374SOL    HW1 2021   2.697   1.650   2.470
  374SOL    HW2 2022   2.547   1.611   2.524
  375SOL     OW 2023   1.131   4.546   5.347
  375SOL    HW1 2024   1.051   4.502   5.306
  375SOL    HW2 2025   1.120   4.550   5.446
  376SOL     OW 2026   2.754   0.979   4.095
  376SOL    HW1 2027   2.696   1.024   4.028
  376SOL    HW2 2028   2.726   0.883   4.104
  377SOL     OW 2029   1.662   2.264   0.000
  377SOL    HW1 2030   1.712   2.178   0.006
  377SOL    HW2 2031   1.582   2.260   0.059
  378SOL     OW 2032   3.039   1.924   1.350
  378SOL    HW1 2033   3.082   2.000   1.302
  378SOL    HW2 2034   3.057   1.839   1.300
  379SOL     OW 2035   5.854   2.431   6.471
  379SOL    HW1 2036   5.847   2.343   6.519
  379SOL    HW2 2037   5.780   2.437   6.403
  380SOL     OW 2038   3.924   1.424   1.375
  380SOL    HW1 2039   3.919   1.510   1.324
  380SOL    HW2 2040   3.870   1.432   1.459
  381SOL     OW 2041   1.557   4.466   3.382
  381SOL    HW1 2042   1.646   4.421   3.384
  381SOL    HW2 2043   1.516   4.456   3.291
  382SOL     OW 2044   6.051   0.483   0.287
  382SOL    HW1 2045   6.070   0.456   0.382
  382SOL    HW2 2046   5.978   0.425   0.251
  383SOL     OW 2047   4.011   2.710   1.554
  383SOL    HW1 2048   3.958   2.628   1.531
  383SOL    HW2 2049   3.998   2.779   1.483
  384SOL     OW 2050   6.557   4.064   4.742
  384SOL    HW1 2051   6.469   4.109   4.760
  384SOL    HW2 2052   6.631   4.129   4.756
  385SOL     OW 2053   4.561   4.803   6.834
  385SOL    HW1 2054   4.651   4.839   6.809
  385SOL    HW2 2055   4.557   4.705   6.812
  386SOL     OW 2056   4.183   0.483   4.320
  386SOL    HW1 2057   4.249   0.534   4.375
  386SOL    HW2 2058   4.193   0.385   4.337
  387SOL     OW 2059   2.168   5.178   3.515
  387SOL    HW1 2060   2.144   5.215   3.605
  387SOL    HW2 2061   2.142   5.243   3.445
  388SOL     OW 2062   2.283   2.636   6.694
  388SOL    HW1 2063   2.324   2.546   6.694
  388SOL    HW2 2064   2.184   2.628   6.712
  389SOL     OW 2065   2.946   3.524   3.463
  389SOL    HW1 2066   2.884   3.564   3.530
  389SOL    HW2 2067   3.013   3.593   3.434
  390SOL     OW 2068   2.353   1.488   4.104
  390SOL    HW1 2069   2.296   1.471   4.023
  390SOL    HW2 2070   2.380   1.584   4.106
  391SOL     OW 2071   1.172   2.582   6.676
  391SOL    HW1 2072   1.219   2.543   6.755
  391SOL    HW2 2073   1.086   2.533   6.661
  392SOL     OW 2074   2.618   5.394   1.815
  392SOL    HW1 2075   2.519   5.399   1.805
  392SOL    HW2 2076   2.658   5.485   1.805
  393SOL     OW 2077   6.204   4.549   5.221
  393SOL    HW1 2078   6.218   4.474   5.286
  393SOL    HW2 2079   6.126   4.528   5.162
  394SOL     OW 2080   7.004   6.675   0.171
  394SOL    HW1 2081   6.984   6.581   0.142
  394SOL    HW2 2082   0.004   6.730   0.092
  395SOL     OW 2083   5.391   3.996   2.501
  395SOL    HW1 2084   5.324   3.944   2.448
  395SOL    HW2 2085   5.423   3.940   2.578
  396SOL     OW 2086   3.231   3.953   3.488
  396SOL    HW1 2087   3.277   4.036   3.457
  396SOL    HW2 2088   3.278   3.916   3.568
  397SOL     OW 2089   4.609   2.160   5.515
  397SOL    HW1 2090   4.663   2.127   5.438
  397SOL    HW2 2091   4.512   2.140   5.499
  398SOL     OW 2092   1.056   5.380   2.279
  398SOL    HW1 2093   1.017   5.417   2.195
  398SOL    HW2 2094   1.121   5.446   2.317
  399SOL     OW 2095   4.454   5.687   1.403
  399SOL    HW1 2096   4.541   5.669   1.448
  399SOL    HW2 2097   4.390   5.612   1.422
  400SOL     OW 2098   0.322   6.593   5.490
  400SOL    HW1 2099   0.379   6.614   5.410
  400SOL    HW2 2100   0.242   6.653   5.490
  401SOL     OW 2101   4.541   1.327   6.322
  401SOL    HW1 2102   4.580   1.239   6.294
  401SOL    HW2 2103   4.465   1.350   6.262
  402SOL     OW 2104   6.377   6.189   2.837
  402SOL    HW1 2105   6.455   6.128   2.824
  402SOL    HW2 2106   6.401   6.281   2.808
  403SOL     OW 2107   4.697   2.364   5.902
  403SOL    HW1 2108   4.622   2.315   5.947
  403SOL    HW2 2109   4.784   2.318   5.924
  404SOL     OW 2110   1.363   6.730   3.788
  404SOL    HW1 2111   1.292   6.770   3.730
  404SOL    HW2 2112   1.420   6.803   3.826
  405SOL     OW 2113   1.655   2.686   1.020
  405SOL    HW1 2114   1.632   2.603   0.969
  405SOL    HW2 2115   1.743   2.721   0.988
  406SOL     OW 2116   1.032   2.658   4.389
  406SOL    HW1 2117   0.993   2.676   4.479
  406SOL    HW2 2118   1.051   2.560   4.379
  407SOL     OW 2119   3.032   6.921   4.676
  407SOL    HW1 2120   3.001   6.861   4.750
  407SOL    HW2 2121   3.097   6.871   4.618
  408SOL     OW 2122   1.408   0.125   3.327
  408SOL    HW1 2123   1.497   0.171   3.324
  408SOL    HW2 2124   1.344   0.172   3.266
  409SOL     OW 2125   6.670   3.141   2.897
  409SOL    HW1 2126   6.612   3.190   2.831
  409SOL    HW2 2127   6.652   3.043   2.891
  410SOL     OW 2128   2.085   0.357   0.475
  410SOL    HW1 2129   2.170   0.363   0.422
  410SOL    HW2 2130   2.038   0.272   0.452
  411SOL     OW 2131   5.625   5.003   6.439
  411SOL    HW1 2132   5.614   5.097   6.473
  411SOL    HW2 2133   5.673   4.948   6.508
  412SOL     OW 2134   3.698   6.424   2.850
  412SOL    HW1 2135   3.719   6.327   2.843
  412SOL    HW2 2136   3.654   6.443   2.937
  413SOL     OW 2137   3.212   5.499   0.255
  413SOL    HW1 2138   3.185   5.567   0.324
  413SOL    HW2 2139   3.224   5.410   0.298
  414SOL     OW 2140   4.406   4.939   1.386
  414SOL    HW1 2141   4.464   4.995   1.327
  414SOL    HW2 2142   4.348   4.999   1.442
  415SOL     OW 2143   1.338   5.896   0.715
  415SOL    HW1 2144   1.372   5.826   0.653
  415SOL    HW2 2145   1.328   5.858   0.807
  416SOL     OW 2146   3.957   5.798   4.852
  416SOL    HW1 2147   3.952   5.700   4.832
  416SOL    HW2 2148   3.866   5.839   4.841
  417SOL     OW 2149   3.244   6.353   1.806
  417SOL    HW1 2150   3.335   6.384   1.833
  417SOL    HW2 2151   3.195   6.320   1.887
  418SOL     OW 2152   4.919   6.214   0.403
  418SOL    HW1 2153   4.885   6.259   0.485
  418SOL    HW2 2154   4.871   6.127   0.391
  419SOL     OW 2155   0.261   0.958   0.730
  419SOL    HW1 2156   0.298   0.865   0.735
  419SOL    HW2 2157   0.270   0.991   0.636
  420SOL     OW 2158   5.911   4.015   1.210
  420SOL    HW1 2159   5.820   4.027   1.171
  420SOL    HW2 2160   5.909   3.938   1.275
  421SOL     OW 2161   1.298   4.984   6.205
  421SOL    HW1 2162   1.296   5.003   6.303
  421SOL    HW2 2163   1.341   4.895   6.189
  422SOL     OW 2164   5.650   4.807   0.592
  422SOL    HW1 2165   5.609   4.717   0.574
  422SOL    HW2 2166   5.616   4.841   0.680
  423SOL     OW 2167   5.935   2.914   6.843
  423SOL    HW1 2168   5.863   2.983   6.841
  423SOL    HW2 2169   5.982   2.912   6.754
  424SOL     OW 2170   2.671   3.738   0.218
  424SOL    HW1 2171   2.611   3.718   0.141
  424SOL    HW2 2172   2.736   3.663   0.229
  425SOL     OW 2173   5.125   1.891   1.137
  425SOL    HW1 2174   5.164   1.972   1.180
  425SOL    HW2 2175   5.039   1.867   1.184
  426SOL     OW 2176   5.164   2.617   5.499
  426SOL    HW1 2177   5.065   2.610   5.511
  426SOL    HW2 2178   5.183   2.653   5.407
  427SOL     OW 2179   5.753   4.323   2.074
  427SOL    HW1 2180   5.815   4.397   2.046
  427SOL    HW2 2181   5.694   4.299   1.997
  428SOL     OW 2182   4.153   0.439   5.331
  428SOL    HW1 2183   4.233   0.412   5.385
  428SOL    HW2 2184   4.123   0.530   5.361
  429SOL     OW 2185   1.930   5.132   0.295
  429SOL    HW1 2186   1.954   5.158   0.201
  429SOL    HW2 2187   1.836   5.160   0.314
  430SOL     OW 2188   1.678   6.824   4.500
  430SOL    HW1 2189   1.611   6.881   4.548
  430SOL    HW2 2190   1.714   6.873   4.421
  431SOL     OW 2191   3.360   0.969   0.088
  431SOL    HW1 2192   3.458   0.950   0.098
  431SOL    HW2 2193   3.338   0.978   7.016
  432SOL     OW 2194   0.099   2.255   0.281
  432SOL    HW1 2195   0.068   2.199   0.204
  432SOL    HW2 2196   0.196   2.277   0.269
  433SOL     OW 2197   2.968   0.141   4.189
  433SOL    HW1 2198   3.016   0.227   4.171
  433SOL    HW2 2199   2.969   0.122   4.287
  434SOL     OW 2200   5.444   4.612   1.157
  434SOL    HW1 2201   5.510   4.653   1.221
  434SOL    HW2 2202   5.361   4.668   1.155
  435SOL     OW 2203   3.493   3.090   5.929
  435SOL    HW1 2204   3.518   2.994   5.941
  435SOL    HW2 2205   3.478   3.132   6.019
  436SOL     OW 2206   1.581   0.150   1.269
  436SOL    HW1 2207   1.624   0.236   1.296
  436SOL    HW2 2208   1.652   0.084   1.245
  437SOL     OW 2209   6.618   7.002   6.639
  437SOL    HW1 2210   6.597   6.904   6.632
  437SOL    HW2 2211   6.613   0.005   6.735
  438SOL     OW 2212   1.854   2.805   2.120
  438SOL    HW1 2213   1.910   2.762   2.190
  438SOL    HW2 2214   1.910   2.872   2.070
  439SOL     OW 2215   6.367   4.962   2.997
  439SOL    HW1 2216   6.454   4.998   2.963
  439SOL    HW2 2217   6.341   4.881   2.944
  440SOL     OW 2218   0.817   2.176   4.517
  440SOL    HW1 2219   0.809   2.268   4.555
  440SOL    HW2 2220   0.738   2.122   4.545
  441SOL     OW 2221   1.411   1.877   3.330
  441SOL    HW1 2222   1.454   1.871   3.420
  441SOL    HW2 2223   1.368   1.967   3.319
  442SOL     OW 2224   0.470   4.375   0.263
  442SOL    HW1 2225   0.396   4.335   0.210
  442SOL    HW2 2226   0.556   4.364   0.213
  443SOL     OW 2227   1.269   4.568   4.833
  443SOL    HW1 2228   1.343   4.524   4.883
  443SOL    HW2 2229   1.229   4.503   4.769
  444SOL     OW 2230   4.823   2.782   6.076
  444SOL    HW1 2231   4.817   2.816   6.170
  444SOL    HW2 2232   4.853   2.687   6.077
  445SOL     OW 2233   1.921   5.572   2.948
  445SOL    HW1 2234   2.021   5.573   2.951
  445SOL    HW2 2235   1.889   5.638   2.881
  446SOL     OW 2236   3.837   4.869   3.630
  446SOL    HW1 2237   3.821   4.771   3.636
  446SOL    HW2 2238   3.777   4.918   3.694
  447SOL     OW 2239   0.319   4.204   0.119
  447SOL    HW1 2240   0.370   4.130   0.076
  447SOL    HW2 2241   0.222   4.179   0.126
  448SOL     OW 2242   3.604   0.602   4.972
  448SOL    HW1 2243   3.523   0.553   5.007
  448SOL    HW2 2244   3.686   0.548   4.992
  449SOL     OW 2245   5.248   1.061   5.029
  449SOL    HW1 2246   5.164   1.115   5.039
  449SOL    HW2 2247   5.229   0.982   4.970
  450SOL     OW 2248   0.256   5.948   3.545
  450SOL    HW1 2249   0.168   5.902   3.534
  450SOL    HW2 2250   0.320   5.916   3.475
  451SOL     OW 2251   0.994   2.281   2.479
  451SOL    HW1 2252   0.982   2.328   2.392
  451SOL    HW2 2253   0.904   2.258   2.517
  452SOL     OW 2254   6.778   5.616   6.969
  452SOL    HW1 2255   6.689   5.655   6.993
  452SOL    HW2 2256   6.849   5.685   6.983
  453SOL     OW 2257   2.866   0.820   6.486
  453SOL    HW1 2258   2.957   0.859   6.473
  453SOL    HW2 2259   2.803   0.855   6.416
  454SOL     OW 2260   6.989   6.040   5.869
  454SOL    HW1 2261   0.056   6.057   5.903
  454SOL    HW2 2262   6.990   6.031   5.770
  455SOL     OW 2263   6.395   0.307   4.594
  455SOL    HW1 2264   6.320   0.273   4.537
  455SOL    HW2 2265   6.480   0.260   4.570
  456SOL     OW 2266   4.751   5.591   5.522
  456SOL    HW1 2267   4.756   5.643   5.437
  456SOL    HW2 2268   4.668   5.617   5.572
  457SOL     OW 2269   2.347   4.366   3.046
  457SOL    HW1 2270   2.276   4.304   3.012
  457SOL    HW2 2271   2.310   4.458   3.053
  458SOL     OW 2272   5.541   5.642   5.420
  458SOL    HW1 2273   5.549   5.641   5.321
  458SOL    HW2 2274   5.630   5.662   5.461
  459SOL     OW 2275   1.234   0.129   3.616
  459SOL    HW1 2276   1.289   0.204   3.581
  459SOL    HW2 2277   1.138   0.144   3.593
  460SOL     OW 2278   0.207   1.377   2.254
  460SOL    HW1 2279   0.124   1.341   2.213
  460SOL    HW2 2280   0.225   1.468   2.217
  461SOL     OW 2281   4.791   6.821   4.939
  461SOL    HW1 2282   4.757   6.753   4.873
  461SOL    HW2 2283   4.783   6.783   5.031
  462SOL     OW 2284   4.262   2.176   6.075
  462SOL    HW1 2285   4.266   2.263   6.125
  462SOL    HW2 2286   4.212   2.190   5.989
  463SOL     OW 2287   6.348   5.445   2.734
  463SOL    HW1 2288   6.304   5.389   2.665
  463SOL    HW2 2289   6.442   5.413   2.748
  464SOL     OW 2290   2.745   1.584   6.632
  464SOL    HW1 2291   2.714   1.676   6.610
  464SOL    HW2 2292   2.840   1.587   6.661
  465SOL     OW 2293   0.667   1.761   4.408
  465SOL    HW1 2294   0.671   1.848   4.360
  465SOL    HW2 2295   0.662   1.687   4.341
  466SOL     OW 2296   0.120   6.092   3.781
  466SOL    HW1 2297   0.201   6.065   3.729
  466SOL    HW2 2298   0.142   6.170   3.839
  467SOL     OW 2299   0.958   0.232   6.205
  467SOL    HW1 2300   1.039   0.267   6.252
  467SOL    HW2 2301   0.924   0.302   6.141
  468SOL     OW 2302   3.376   6.002   0.325
  468SOL    HW1 2303   3.317   6.069   0.279
  468SOL    HW2 2304   3.319   5.932   0.368
  469SOL     OW 2305   3.145   4.672   0.368
  469SOL    HW1 2306   3.236   4.668   0.326
  469SOL    HW2 2307   3.138   4.755   0.424
  470SOL     OW 2308   3.258   0.120   2.293
  470SOL    HW1 2309   3.345   0.136   2.246
  470SOL    HW2 2310   3.201   0.202   2.284
  471SOL     OW 2311   1.334   2.690   4.376
  471SOL    HW1 2312   1.353   2.787   4.359
  471SOL    HW2 2313   1.235   2.677   4.382
  472SOL     OW 2314   4.721   3.448   6.507
  472SOL    HW1 2315   4.741   3.539   6.542
  472SOL    HW2 2316   4.627   3.446   6.472
  473SOL     OW 2317   0.616   2.840   1.249
  473SOL    HW1 2318   0.565   2.856   1.164
  473SOL    HW2 2319   0.624   2.742   1.265
  474SOL     OW 2320   4.861   4.972   3.834
  474SOL    HW1 2321   4.774   5.004   3.871
  474SOL    HW2 2322   4.911   4.922   3.905
  475SOL     OW 2323   6.382   0.379   6.798
  475SOL    HW1 2324   6.384   0.436   6.881
  475SOL    HW2 2325   6.437   0.422   6.727
  476SOL     OW 2326   0.155   4.316   2.148
  476SOL    HW1 2327   0.183   4.394   2.092
  476SOL    HW2 2328   0.219   4.240   2.134
  477SOL     OW 2329   2.429   4.844   5.032
  477SOL    HW1 2330   2.528   4.837   5.025
  477SOL    HW2 2331   2.404   4.883   5.121
  478SOL     OW 2332   3.159   6.235   2.041
  478SOL    HW1 2333   3.228   6.241   2.113
  478SOL    HW2 2334   3.069   6.259   2.079
  479SOL     OW 2335   4.354   1.833   0.139
  479SOL    HW1 2336   4.329   1.772   0.214
  479SOL    HW2 2337   4.272   1.855   0.086
  480SOL     OW 2338   1.305   6.716   0.026
  480SOL    HW1 2339   1.379   6.656   7.021
  480SOL    HW2 2340   1.338   6.775   0.100
  481SOL     OW 2341   2.061   0.457   0.938
  481SOL    HW1 2342   2.025   0.369   0.906
  481SOL    HW2 2343   2.127   0.491   0.871
  482SOL     OW 2344   4.797   4.574   2.559
  482SOL    HW1 2345   4.763   4.542   2.470
  482SOL    HW2 2346   4.817   4.672   2.553
  483SOL     OW 2347   5.431   2.539   1.286
  483SOL    HW1 2348   5.490   2.524   1.365
  483SOL    HW2 2349   5.335   2.532   1.315
  484SOL     OW 2350   1.033   2.559   5.034
  484SOL    HW1 2351   1.067   2.514   4.951
  484SOL    HW2 2352   1.088   2.530   5.112
  485SOL     OW 2353   4.294   5.534   2.118
  485SOL    HW1 2354   4.248   5.513   2.205
  485SOL    HW2 2355   4.392   5.523   2.129
  486SOL     OW 2356   0.893   1.579   0.814
  486SOL    HW1 2357   0.855   1.645   0.879
  486SOL    HW2 2358   0.828   1.563   0.740
  487SOL     OW 2359   1.165   1.743   6.910
  487SOL    HW1 2360   1.204   1.661   6.868
  487SOL    HW2 2361   1.238   1.809   6.928
  488SOL     OW 2362   1.067   0.533   1.351
  488SOL    HW1 2363   1.106   0.623   1.370
  488SOL    HW2 2364   1.000   0.541   1.278
  489SOL     OW 2365   3.287   5.857   0.003
  489SOL    HW1 2366   3.249   5.920   0.070
  489SOL    HW2 2367   3.235   5.864   6.943
  490SOL     OW 2368   6.670   5.833   4.148
  490SOL    HW1 2369   6.697   5.903   4.213
  490SOL    HW2 2370   6.701   5.743   4.180
  491SOL     OW 2371   6.743   2.587   3.225
  491SOL    HW1 2372   6.837   2.605   3.254
  491SOL    HW2 2373   6.737   2.492   3.192
  492SOL     OW 2374   3.022   0.322   4.975
  492SOL    HW1 2375   3.086   0.306   4.899
  492SOL    HW2 2376   2.994   0.418   4.975
  493SOL     OW 2377   5.764   5.272   6.151
  493SOL    HW1 2378   5.784   5.273   6.053
  493SOL    HW2 2379   5.686   5.212   6.168
  494SOL     OW 2380   0.707   6.496   0.061
  494SOL    HW1 2381   0.695   6.523   0.157
  494SOL    HW2 2382   0.748   6.405   0.057
  495SOL     OW 2383   5.282   5.620   2.894
  495SOL    HW1 2384   5.250   5.687   2.826
  495SOL    HW2 2385   5.332   5.547   2.849
  496SOL     OW 2386   5.591   2.801   2.820
  496SOL    HW1 2387   5.510   2.812   2.878
  496SOL    HW2 2388   5.562   2.781   2.727
  497SOL     OW 2389   3.368   1.562   5.329
  497SOL    HW1 2390   3.364   1.563   5.429
  497SOL    HW2 2391   3.275   1.567   5.292
  498SOL     OW 2392   1.025   4.263   1.704
  498SOL    HW1 2393   1.120   4.239   1.684
  498SOL    HW2 2394   0.967   4.233   1.628
  499SOL     OW 2395   3.297   0.773   3.956
  499SOL    HW1 2396   3.209   0.757   3.912
  499SOL    HW2 2397   3.285   0.833   4.035
  500SOL     OW 2398   1.346   4.059   3.361
  500SOL    HW1 2399   1.261   4.013   3.336
  500SOL    HW2 2400   1.409   4.057   3.283
  501SOL     OW 2401   3.240   0.649   0.910
  501SOL    HW1 2402   3.180   0.683   0.983
  501SOL    HW2 2403   3.294   0.725   0.874
  502SOL     OW 2404   6.197   4.485   6.384
  502SOL    HW1 2405   6.120   4.477   6.447
  502SOL    HW2 2406   6.260   4.408   6.398
  503SOL     OW 2407   5.973   4.805   5.884
  503SOL    HW1 2408   5.977   4.873   5.958
  503SOL    HW2 2409   5.949   4.850   5.799
  504SOL     OW 2410   2.568   6.383   3.675
  504SOL    HW1 2411   2.666   6.375   3.657
  504SOL    HW2 2412   2.519   6.396   3.589
  505SOL     OW 2413   3.733   0.487   5.676
  505SOL    HW1 2414   3.642   0.470   5.640
  505SOL    HW2 2415   3.794   0.413   5.648
  506SOL     OW 2416   1.768   5.448   4.625
  506SOL    HW1 2417   1.838   5.518   4.636
  506SOL    HW2 2418   1.716   5.438   4.710
  507SOL     OW 2419   3.489   0.654   4.168
  507SOL    HW1 2420   3.438   0.650   4.082
  507SOL    HW2 2421   3.570   0.712   4.156
  508SOL     OW 2422   6.398   3.934   2.616
  508SOL    HW1 2423   6.311   3.968   2.652
  508SOL    HW2 2424   6.380   3.871   2.540
  509SOL     OW 2425   3.291   1.792   1.708
  509SOL    HW1 2426   3.229   1.865   1.678
  509SOL    HW2 2427   3.383   1.829   1.719
  510SOL     OW 2428   6.835   4.589   5.817
  510SOL    HW1 2429   6.812   4.527   5.742
  510SOL    HW2 2430   6.761   4.586   5.885
  511SOL     OW 2431   0.265   6.385   6.978
  511SOL    HW1 2432   0.214   6.394   0.039
  511SOL    HW2 2433   0.314   6.469   6.959
  512SOL     OW 2434   0.053   3.382   0.419
  512SOL    HW1 2435   0.035   3.402   0.323
  512SOL    HW2 2436   0.148   3.405   0.441
  513SOL     OW 2437   5.921   6.328   3.173
  513SOL    HW1 2438   5.993   6.287   3.117
  513SOL    HW2 2439   5.962   6.377   3.250
  514SOL     OW 2440   6.588   2.263   4.233
  514SOL    HW1 2441   6.661   2.307   4.181
  514SOL    HW2 2442   6.629   2.201   4.301
  515SOL     OW 2443   2.111   0.036   6.115
  515SOL    HW1 2444   2.147   0.027   6.208
  515SOL    HW2 2445   2.180   0.005   6.049
  516SOL     OW 2446   2.790   4.458   1.572
  516SOL    HW1 2447   2.827   4.435   1.662
  516SOL    HW2 2448   2.865   4.478   1.509
  517SOL     OW 2449   5.374   6.025   2.553
  517SOL    HW1 2450   5.441   5.990   2.487
  517SOL    HW2 2451   5.420   6.041   2.641
  518SOL     OW 2452   2.776   1.857   1.731
  518SOL    HW1 2453   2.796   1.884   1.825
  518SOL    HW2 2454   2.803   1.931   1.668
  519SOL     OW 2455   6.883   0.537   5.001
  519SOL    HW1 2456   6.966   0.585   4.974
  519SOL    HW2 2457   6.832   0.511   4.919
  520SOL     OW 2458   5.606   4.434   6.547
  520SOL    HW1 2459   5.522   4.380   6.546
  520SOL    HW2 2460   5.647   4.434   6.456
  521SOL     OW 2461   6.259   2.376   6.646
  521SOL    HW1 2462   6.336   2.386   6.709
  521SOL    HW2 2463   6.254   2.281   6.614
  522SOL     OW 2464   3.821   2.993   5.605
  522SOL    HW1 2465   3.860   2.914   5.652
  522SOL    HW2 2466   3.875   3.075   5.627
  523SOL     OW 2467   0.009   5.215   3.800
  523SOL    HW1 2468   0.019   5.313   3.780
  523SOL    HW2 2469   6.939   5.188   3.788
  524SOL     OW 2470   2.558   1.130   6.551
  524SOL    HW1 2471   2.505   1.186   6.614
  524SOL    HW2 2472   2.597   1.052   6.600
  525SOL     OW 2473   2.520   3.367   6.411
  525SOL    HW1 2474   2.582   3.296   6.377
  525SOL    HW2 2475   2.550   3.456   6.377
  526SOL     OW 2476   2.667   6.733   4.950
  526SOL    HW1 2477   2.572   6.766   4.951
  526SOL    HW2 2478   2.669   6.636   4.975
  527SOL     OW 2479   6.145   2.922   6.143
  527SOL    HW1 2480   6.178   2.833   6.175
  527SOL    HW2 2481   6.221   2.986   6.137
  528SOL     OW 2482   1.440   1.206   3.737
  528SOL    HW1 2483   1.533   1.171   3.727
  528SOL    HW2 2484   1.405   1.234   3.648
  529SOL     OW 2485   0.703   5.280   4.668
  529SOL    HW1 2486   0.731   5.195   4.623
  529SOL    HW2 2487   0.670   5.345   4.598
  530SOL     OW 2488   2.738   2.988   5.351
  530SOL    HW1 2489   2.775   3.081   5.354
  530SOL    HW2 2490   2.660   2.985   5.287
  531SOL     OW 2491   0.291   1.044   1.779
  531SOL    HW1 2492   0.205   1.055   1.729
  531SOL    HW2 2493   0.296   0.951   1.817
  532SOL     OW 2494   0.708   2.783   6.054
  532SOL    HW1 2495   0.719   2.684   6.044
  532SOL    HW2 2496   0.641   2.817   5.988
  533SOL     OW 2497   5.046   5.788   4.404
  533SOL    HW1 2498   5.028   5.753   4.312
  533SOL    HW2 2499   5.093   5.718   4.457
  534SOL     OW 2500   5.038   5.216   3.321
  534SOL    HW1 2501   4.996   5.126   3.304
  534SOL    HW2 2502   5.117   5.204   3.381
  535SOL     OW 2503   1.149   4.390   4.420
  535SOL    HW1 2504   1.221   4.380   4.489
  535SOL    HW2 2505   1.149   4.484   4.386
  536SOL     OW 2506   0.274   4.986   1.973
  536SOL    HW1 2507   0.258   4.992   2.071
  536SOL    HW2 2508   0.370   5.005   1.953
  537SOL     OW 2509   2.144   6.562   3.810
  537SOL    HW1 2510   2.242   6.565   3.831
  537SOL    HW2 2511   2.117   6.467   3.793
  538SOL     OW 2512   1.591   5.983   3.348
  538SOL    HW1 2513   1.581   5.884   3.362
  538SOL    HW2 2514   1.674   6.014   3.396
  539SOL     OW 2515   6.937   6.018   0.488
  539SOL    HW1 2516   6.928   6.008   0.389
  539SOL    HW2 2517   6.879   5.950   0.533
  540SOL     OW 2518   0.391   1.812   2.207
  540SOL    HW1 2519   0.411   1.780   2.299
  540SOL    HW2 2520   0.459   1.880   2.179
  541SOL     OW 2521   2.970   6.565   4.457
  541SOL    HW1 2522   3.062   6.556   4.496
  541SOL    HW2 2523   2.911   6.614   4.521
  542SOL     OW 2524   6.605   6.719   6.962
  542SOL    HW1 2525   6.641   6.631   6.991
  542SOL    HW2 2526   6.675   6.790   6.975
  543SOL     OW 2527   0.499   4.882   5.634
  543SOL    HW1 2528   0.488   4.952   5.704
  543SOL    HW2 2529   0.507   4.925   5.544
  544SOL     OW 2530   1.108   4.465   1.425
  544SOL    HW1 2531   1.020   4.463   1.378
  544SOL    HW2 2532   1.145   4.372   1.432
  545SOL     OW 2533   3.531   1.666   3.522
  545SOL    HW1 2534   3.472   1.595   3.562
  545SOL    HW2 2535   3.598   1.696   3.589
  546SOL     OW 2536   1.858   3.409   1.784
  546SOL    HW1 2537   1.802   3.448   1.711
  546SOL    HW2 2538   1.894   3.320   1.755
  547SOL     OW 2539   2.311   1.466   6.874
  547SOL    HW1 2540   2.345   1.512   6.956
  547SOL    HW2 2541   2.388   1.439   6.816
  548SOL     OW 2542   3.515   2.872   2.756
  548SOL    HW1 2543   3.518   2.824   2.668
  548SOL    HW2 2544   3.421   2.879   2.787
  549SOL     OW 2545   4.206   3.545   1.693
  549SOL    HW1 2546   4.282   3.610   1.694
  549SOL    HW2 2547   4.136   3.575   1.627
  550SOL     OW 2548   0.067   3.126   2.951
  550SOL    HW1 2549   0.097   3.085   3.037
  550SOL    HW2 2550   0.137   3.189   2.917
  551SOL     OW 2551   6.993   2.213   0.887
  551SOL    HW1 2552   6.897   2.199   0.861
  551SOL    HW2 2553   0.027   2.165   0.822
  552SOL     OW 2554   3.662   5.896   0.346
  552SOL    HW1 2555   3.576   5.877   0.300
  552SOL    HW2 2556   3.667   5.843   0.431
  553SOL     OW 2557   1.972   6.799   2.735
  553SOL    HW1 2558   2.004   6.819   2.827
  553SOL    HW2 2559   1.881   6.758   2.739
  554SOL     OW 2560   5.071   0.114   6.516
  554SOL    HW1 2561   4.988   0.060   6.502
  554SOL    HW2 2562   5.139   0.059   6.564
  555SOL     OW 2563   2.351   5.132   3.989
  555SOL    HW1 2564   2.431   5.086   3.950
  555SOL    HW2 2565   2.366   5.231   3.986
  556SOL     OW 2566   6.053   2.307   4.079
  556SOL    HW1 2567   6.121   2.244   4.040
  556SOL    HW2 2568   6.024   2.274   4.169
  557SOL     OW 2569   0.136   6.174   6.541
  557SOL    HW1 2570   0.086   6.088   6.551
  557SOL    HW2 2571   0.194   6.188   6.621
  558SOL     OW 2572   4.138   3.720   5.131
  558SOL    HW1 2573   4.221   3.721   5.075
  558SOL    HW2 2574   4.060   3.690   5.076
  559SOL     OW 2575   6.931   6.353   6.573
  559SOL    HW1 2576   6.848   6.305   6.546
  559SOL    HW2 2577   7.008   6.290   6.572
  560SOL     OW 2578   3.390   6.722   0.572
  560SOL    HW1 2579   3.315   6.686   0.628
  560SOL    HW2 2580   3.477   6.694   0.612
  561SOL     OW 2581   5.616   7.023   6.748
  561SOL    HW1 2582   5.522   0.030   6.759
  561SOL    HW2 2583   5.632   6.947   6.812
  562SOL     OW 2584   4.565   1.020   6.318
  562SOL    HW1 2585   4.484   1.059   6.362
  562SOL    HW2 2586   4.551   1.017   6.219
  563SOL     OW 2587   2.787   6.558   3.383
  563SOL    HW1 2588   2.842   6.566   3.465
  563SOL    HW2 2589   2.811   6.475   3.334
  564SOL     OW 2590   2.264   2.386   6.198
  564SOL    HW1 2591   2.335   2.457   6.197
  564SOL    HW2 2592   2.175   2.430   6.205
  565SOL     OW 2593   4.364   3.062   5.885
  565SOL    HW1 2594   4.415   2.980   5.859
  565SOL    HW2 2595   4.387   3.088   5.979
  566SOL     OW 2596   4.393   4.735   3.649
  566SOL    HW1 2597   4.456   4.813   3.647
  566SOL    HW2 2598   4.327   4.743   3.575
  567SOL     OW 2599   3.089   3.368   4.059
  567SOL    HW1 2600   3.016   3.432   4.037
  567SOL    HW2 2601   3.176   3.402   4.024
  568SOL     OW 2602   3.749   2.337   0.674
  568SOL    HW1 2603   3.700   2.422   0.691
  568SOL    HW2 2604   3.808   2.348   0.594
  569SOL     OW 2605   1.356   2.902   0.562
  569SOL    HW1 2606   1.380   2.816   0.608
  569SOL    HW2 2607   1.390   2.979   0.616
  570SOL     OW 2608   1.377   6.382   0.327
  570SOL    HW1 2609   1.454   6.420   0.379
  570SOL    HW2 2610   1.406   6.299   0.280
  571SOL     OW 2611   3.124   5.772   2.701
  571SOL    HW1 2612   3.103   5.695   2.641
  571SOL    HW2 2613   3.202   5.749   2.759
  572SOL     OW 2614   2.183   4.691   5.751
  572SOL    HW1 2615   2.123   4.754   5.701
  572SOL    HW2 2616   2.161   4.695   5.849
  573SOL     OW 2617   3.400   1.549   5.649
  573SOL    HW1 2618   3.490   1.591   5.639
  573SOL    HW2 2619   3.373   1.550   5.745
  574SOL     OW 2620   2.121   1.953   4.437
  574SOL    HW1 2621   2.085   2.018   4.504
  574SOL    HW2 2622   2.216   1.931   4.459
  575SOL     OW 2623   6.516   3.544   0.573
  575SOL    HW1 2624   6.435   3.581   0.618
  575SOL    HW2 2625   6.502   3.446   0.556
  576SOL     OW 2626   1.369   2.213   2.072
  576SOL    HW1 2627   1.383   2.282   2.002
  576SOL    HW2 2628   1.427   2.233   2.151
  577SOL     OW 2629   2.291   1.531   3.801
  577SOL    HW1 2630   2.255   1.446   3.761
  577SOL    HW2 2631   2.390   1.532   3.795
  578SOL     OW 2632   0.484   3.368   3.478
  578SOL    HW1 2633   0.470   3.412   3.390
  578SOL    HW2 2634   0.568   3.314   3.476
  579SOL     OW 2635   4.204   2.177   1.133
  579SOL    HW1 2636   4.231   2.230   1.213
  579SOL    HW2 2637   4.209   2.234   1.051
  580SOL     OW 2638   0.999   4.972   6.200
  580SOL    HW1 2639   1.095   4.947   6.184
  580SOL    HW2 2640   0.940   4.914   6.143
  581SOL     OW 2641   3.615   2.881   3.517
  581SOL    HW1 2642   3.584   2.826   3.595
  581SOL    HW2 2643   3.649   2.969   3.550
  582SOL     OW 2644   5.797   3.942   2.210
  582SOL    HW1 2645   5.853   4.024   2.202
  582SOL    HW2 2646   5.757   3.921   2.121
  583SOL     OW 2647   2.995   4.634   6.854
  583SOL    HW1 2648   3.037   4.566   6.915
  583SOL    HW2 2649   3.032   4.725   6.875
  584SOL     OW 2650   0.038   4.791   5.405
  584SOL    HW1 2651   6.999   4.806   5.480
  584SOL    HW2 2652   0.071   4.879   5.371
  585SOL     OW 2653   0.059   2.491   6.084
  585SOL    HW1 2654   0.007   2.562   6.132
  585SOL    HW2 2655   0.076   2.519   5.990
  586SOL     OW 2656   2.856   6.943   0.388
  586SOL    HW1 2657   2.908   6.895   0.317
  586SOL    HW2 2658   2.760   6.946   0.363
  587SOL     OW 2659   1.491   2.380   5.353
  587SOL    HW1 2660   1.482   2.289   5.313
  587SOL    HW2 2661   1.554   2.376   5.431
  588SOL     OW 2662   3.653   6.889   1.524
  588SOL    HW1 2663   3.656   6.815   1.457
  588SOL    HW2 2664   3.696   6.859   1.609
  589SOL     OW 2665   3.749   5.049   1.843
  589SOL    HW1 2666   3.839   5.076   1.810
  589SOL    HW2 2667   3.721   5.110   1.918
  590SOL     OW 2668   6.963   2.819   2.102
  590SOL    HW1 2669   6.979   2.907   2.056
  590SOL    HW2 2670   6.898   2.832   2.177
  591SOL     OW 2671   4.378   6.908   3.769
  591SOL    HW1 2672   4.369   7.005   3.744
  591SOL    HW2 2673   4.455   6.868   3.721
  592SOL     OW 2674   4.826   1.205   0.258
  592SOL    HW1 2675   4.914   1.210   0.211
  592SOL    HW2 2676   4.823   1.274   0.330
  593SOL     OW 2677   4.136   2.315   4.056
  593SOL    HW1 2678   4.047   2.273   4.041
  593SOL    HW2 2679   4.206   2.265   4.005
  594SOL     OW 2680   4.085   3.522   6.947
  594SOL    HW1 2681   4.023   3.562   6.879
  594SOL    HW2 2682   4.108   3.591   7.016
  595SOL     OW 2683   4.004   6.691   4.498
  595SOL    HW1 2684   3.921   6.656   4.541
  595SOL    HW2 2685   4.016   6.650   4.408
  596SOL     OW 2686   0.911   4.412   2.355
  596SOL    HW1 2687   0.834   4.353   2.379
  596SOL    HW2 2688   0.983   4.402   2.423
  597SOL     OW 2689   3.364   0.088   6.944
  597SOL    HW1 2690   3.461   0.089   6.967
  597SOL    HW2 2691   3.339   0.176   6.902
  598SOL     OW 2692   4.141   4.702   0.255
  598SOL    HW1 2693   4.077   4.733   0.184
  598SOL    HW2 2694   4.232   4.737   0.234
  599SOL     OW 2695   0.167   0.248   2.735
  599SOL    HW1 2696   0.234   0.306   2.782
  599SOL    HW2 2697   0.075   0.270   2.769
  600SOL     OW 2698   0.901   6.760   0.765
  600SOL    HW1 2699   0.958   6.690   0.808
  600SOL    HW2 2700   0.825   6.717   0.717
  601SOL     OW 2701   2.614   6.060   3.460
  601SOL    HW1 2702   2.528   6.022   3.496
  601SOL    HW2 2703   2.671   6.091   3.536
  602SOL     OW 2704   1.263   7.015   0.882
  602SOL    HW1 2705   1.174   6.991   0.922
  602SOL    HW2 2706   1.311   0.052   0.944
  603SOL     OW 2707   3.922   1.876   3.730
  603SOL    HW1 2708   3.879   1.867   3.640
  603SOL    HW2 2709   3.863   1.834   3.799
  604SOL     OW 2710   1.531   3.465   0.012
  604SOL    HW1 2711   1.558   3.558   7.010
  604SOL    HW2 2712   1.554   3.401   6.965
  605SOL     OW 2713   7.022   5.715   3.521
  605SOL    HW1 2714   6.959   5.786   3.489
  605SOL    HW2 2715   7.023   5.639   3.455
  606SOL     OW 2716   4.286   0.173   5.119
  606SOL    HW1 2717   4.312   0.131   5.032
  606SOL    HW2 2718   4.320   0.116   5.194
  607SOL     OW 2719   5.318   1.157   3.666
  607SOL    HW1 2720   5.417   1.161   3.672
  607SOL    HW2 2721   5.291   1.100   3.588
  608SOL     OW 2722   2.802   0.536   0.695
  608SOL    HW1 2723   2.711   0.575   0.681
  608SOL    HW2 2724   2.840   0.508   0.606
  609SOL     OW 2725   3.511   2.959   4.310
  609SOL    HW1 2726   3.607   2.933   4.310
  609SOL    HW2 2727   3.473   2.948   4.218
  610SOL     OW 2728   5.048   2.476   3.837
  610SOL    HW1 2729   5.122   2.532   3.799
  610SOL    HW2 2730   5.082   2.425   3.916
  611SOL     OW 2731   0.129   0.536   0.109
  611SOL    HW1 2732   0.218   0.569   0.138
  611SOL    HW2 2733   0.126   0.529   0.009
  612SOL     OW 2734   3.612   5.181   6.096
  612SOL    HW1 2735   3.622   5.198   5.998
  612SOL    HW2 2736   3.623   5.267   6.146
  613SOL     OW 2737   4.057   1.635   5.660
  613SOL    HW1 2738   4.074   1.622   5.758
  613SOL    HW2 2739   4.104   1.563   5.609
  614SOL     OW 2740   6.060   4.792   0.644
  614SOL    HW1 2741   6.028   4.778   0.738
  614SOL    HW2 2742   5.999   4.855   0.597
  615SOL     OW 2743   0.394   0.134   0.107
  615SOL    HW1 2744   0.309   0.110   0.060
  615SOL    HW2 2745   0.375   0.152   0.204
  616SOL     OW 2746   5.662   2.153   4.689
  616SOL    HW1 2747   5.646   2.126   4.594
  616SOL    HW2 2748   5.755   2.126   4.716
  617SOL     OW 2749   0.484   4.633   5.546
  617SOL    HW1 2750   0.494   4.724   5.588
  617SOL    HW2 2751   0.447   4.644   5.454
  618SOL     OW 2752   6.215   3.476   1.166
  618SOL    HW1 2753   6.314   3.483   1.171
  618SOL    HW2 2754   6.173   3.549   1.219
  619SOL     OW 2755   3.170   0.549   0.509
  619SOL    HW1 2756   3.207   0.613   0.442
  619SOL    HW2 2757   3.121   0.599   0.580
  620SOL     OW 2758   5.617   3.350   2.193
  620SOL    HW1 2759   5.586   3.368   2.099
  620SOL    HW2 2760   5.698   3.405   2.212
  621SOL     OW 2761   2.627   6.906   6.201
  621SOL    HW1 2762   2.699   6.911   6.132
  621SOL    HW2 2763   2.662   6.937   6.289
  622SOL     OW 2764   1.166   2.304   5.491
  622SOL    HW1 2765   1.247   2.304   5.550
  622SOL    HW2 2766   1.127   2.211   5.488
  623SOL     OW 2767   6.281   6.781   4.161
  623SOL    HW1 2768   6.228   6.696   4.158
  623SOL    HW2 2769   6.307   6.801   4.255
  624SOL     OW 2770   6.420   1.625   6.686
  624SOL    HW1 2771   6.381   1.563   6.618
  624SOL    HW2 2772   6.357   1.634   6.763
  625SOL     OW 2773   2.242   1.453   0.310
  625SOL    HW1 2774   2.342   1.458   0.306
  625SOL    HW2 2775   2.215   1.375   0.367
  626SOL     OW 2776   1.272   5.755   3.683
  626SOL    HW1 2777   1.366   5.722   3.675
  626SOL    HW2 2778   1.228   5.709   3.761
  627SOL     OW 2779   6.316   6.892   0.150
  627SOL    HW1 2780   6.314   6.818   0.083
  627SOL    HW2 2781   6.294   6.979   0.105
  628SOL     OW 2782   5.241   4.308   5.594
  628SOL    HW1 2783   5.242   4.258   5.507
  628SOL    HW2 2784   5.266   4.247   5.669
  629SOL     OW 2785   6.759   0.729   0.367
  629SOL    HW1 2786   6.830   0.659   0.360
  629SOL    HW2 2787   6.793   0.815   0.331
  630SOL     OW 2788   6.979   1.464   1.433
  630SOL    HW1 2789   0.039   1.414   1.448
  630SOL    HW2 2790   6.908   1.401   1.402
  631SOL     OW 2791   2.559   2.442   4.784
  631SOL    HW1 2792   2.482   2.498   4.756
  631SOL    HW2 2793   2.572   2.450   4.883
  632SOL     OW 2794   4.760   3.179   0.452
  632SOL    HW1 2795   4.720   3.116   0.519
  632SOL    HW2 2796   4.814   3.127   0.386
  633SOL     OW 2797   1.442   5.332   1.387
  633SOL    HW1 2798   1.449   5.281   1.301
  633SOL    HW2 2799   1.383   5.283   1.450
  634SOL     OW 2800   2.992   3.609   4.022
  634SOL    HW1 2801   3.090   3.623   4.039
  634SOL    HW2 2802   2.971   3.633   3.927
  635SOL     OW 2803   5.348   1.365   6.603
  635SOL    HW1 2804   5.374   1.302   6.530
  635SOL    HW2 2805   5.302   1.444   6.564
  636SOL     OW 2806   2.997   0.087   6.248
  636SOL    HW1 2807   2.974   0.091   6.151
  636SOL    HW2 2808   3.058   0.162   6.272
  637SOL     OW 2809   6.290   1.186   1.891
  637SOL    HW1 2810   6.193   1.197   1.916
  637SOL    HW2 2811   6.298   1.182   1.792
  638SOL     OW 2812   5.913   3.391   3.964
  638SOL    HW1 2813   5.857   3.338   3.900
  638SOL    HW2 2814   5.992   3.336   3.992
  639SOL     OW 2815   5.309   4.616   2.970
  639SOL    HW1 2816   5.280   4.586   3.061
  639SOL    HW2 2817   5.404   4.588   2.955
  640SOL     OW 2818   0.153   2.827   2.532
  640SOL    HW1 2819   0.242   2.842   2.487
  640SOL    HW2 2820   0.101   2.912   2.533
  641SOL     OW 2821   1.903   4.879   5.204
  641SOL    HW1 2822   1.901   4.870   5.105
  641SOL    HW2 2823   1.812   4.901   5.238
  642SOL     OW 2824   1.302   3.810   4.645
  642SOL    HW1 2825   1.205   3.818   4.666
  642SOL    HW2 2826   1.319   3.727   4.593
  643SOL     OW 2827   4.933   6.461   6.888
  643SOL    HW1 2828   4.955   6.488   6.982
  643SOL    HW2 2829   4.886   6.536   6.842
  644SOL     OW 2830   0.259   6.990   4.661
  644SOL    HW1 2831   0.183   6.926   4.675
  644SOL    HW2 2832   0.305   7.007   4.748
  645SOL     OW 2833   3.596   4.940   3.115
  645SOL    HW1 2834   3.533   4.972   3.044
  645SOL    HW2 2835   3.543   4.901   3.191
  646SOL     OW 2836   3.826   0.863   5.343
  646SOL    HW1 2837   3.772   0.790   5.301
  646SOL    HW2 2838   3.767   0.942   5.360
  647SOL     OW 2839   4.907   2.038   4.581
  647SOL    HW1 2840   4.824   2.017   4.530
  647SOL    HW2 2841   4.887   2.109   4.649
  648SOL     OW 2842   6.029   1.477   2.731
  648SOL    HW1 2843   6.094   1.413   2.772
  648SOL    HW2 2844   6.065   1.509   2.643
  649SOL     OW 2845   2.115   4.927   0.342
  649SOL    HW1 2846   2.052   4.997   0.311
  649SOL    HW2 2847   2.129   4.935   0.441
  650SOL     OW 2848   6.616   5.561   0.686
  650SOL    HW1 2849   6.676   5.528   0.613
  650SOL    HW2 2850   6.664   5.558   0.773
  651SOL     OW 2851   1.395   0.213   5.569
  651SOL    HW1 2852   1.416   0.116   5.558
  651SOL    HW2 2853   1.299   0.230   5.547
  652SOL     OW 2854   4.374   0.506   2.019
  652SOL    HW1 2855   4.292   0.500   2.075
  652SOL    HW2 2856   4.378   0.595   1.974
  653SOL     OW 2857   6.832   6.731   0.958
  653SOL    HW1 2858   6.786   6.721   0.870
  653SOL    HW2 2859   6.870   6.823   0.965
  654SOL     OW 2860   6.653   6.594   5.919
  654SOL    HW1 2861   6.671   6.615   5.823
  654SOL    HW2 2862   6.707   6.515   5.947
  655SOL     OW 2863   0.302   4.958   2.234
  655SOL    HW1 2864   0.270   4.871   2.273
  655SOL    HW2 2865   0.393   4.979   2.269
  656SOL     OW 2866   3.197   6.657   0.737
  656SOL    HW1 2867   3.163   6.595   0.807
  656SOL    HW2 2868   3.120   6.696   0.686
  657SOL     OW 2869   3.810   3.398   1.739
  657SOL    HW1 2870   3.852   3.488   1.721
  657SOL    HW2 2871   3.857   3.355   1.816
  658SOL     OW 2872   2.300   4.263   4.251
  658SOL    HW1 2873   2.252   4.229   4.333
  658SOL    HW2 2874   2.320   4.186   4.191
  659SOL     OW 2875   3.761   6.172   5.988
  659SOL    HW1 2876   3.795   6.081   6.013
  659SOL    HW2 2877   3.795   6.239   6.055
  660SOL     OW 2878   4.968   4.369   2.655
  660SOL    HW1 2879   5.022   4.395   2.735
  660SOL    HW2 2880   4.907   4.444   2.630
  661SOL     OW 2881   5.064   4.421   4.180
  661SOL    HW1 2882   4.996   4.375   4.122
  661SOL    HW2 2883   5.138   4.457   4.123
  662SOL     OW 2884   4.934   3.017   0.293
  662SOL    HW1 2885   5.021   3.064   0.304
  662SOL    HW2 2886   4.925   2.985   0.199
  663SOL     OW 2887   7.006   4.248   6.865
  663SOL    HW1 2888   6.950   4.327   6.891
  663SOL    HW2 2889   6.949   4.181   6.816
  664SOL     OW 2890   1.542   6.159   6.201
  664SOL    HW1 2891   1.555   6.246   6.153
  664SOL    HW2 2892   1.546   6.174   6.300
  665SOL     OW 2893   3.937   5.193   1.338
  665SOL    HW1 2894   3.946   5.224   1.244
  665SOL    HW2 2895   3.878   5.113   1.341
  666SOL     OW 2896   3.901   1.554   0.216
  666SOL    HW1 2897   3.922   1.493   0.140
  666SOL    HW2 2898   3.974   1.548   0.284
  667SOL     OW 2899   0.666   2.882   3.594
  667SOL    HW1 2900   0.754   2.926   3.574
  667SOL    HW2 2901   0.592   2.937   3.557
  668SOL     OW 2902   4.439   6.690   6.997
  668SOL    HW1 2903   4.374   6.646   6.935
  668SOL    HW2 2904   4.461   6.627   0.046
  669SOL     OW 2905   0.711   6.870   3.793
  669SOL    HW1 2906   0.674   6.883   3.885
  669SOL    HW2 2907   0.638   6.839   3.732
  670SOL     OW 2908   3.581   3.641   3.040
  670SOL    HW1 2909   3.548   3.557   2.997
  670SOL    HW2 2910   3.503   3.700   3.062
  671SOL     OW 2911   1.549   6.149   5.781
  671SOL    HW1 2912   1.486   6.226   5.793
  671SOL    HW2 2913   1.569   6.108   5.870
  672SOL     OW 2914   1.357   3.273   4.798
  672SOL    HW1 2915   1.425   3.344   4.815
  672SOL    HW2 2916   1.265   3.313   4.806
  673SOL     OW 2917   4.915   0.600   0.255
  673SOL    HW1 2918   4.868   0.559   0.177
  673SOL    HW2 2919   4.880   0.560   0.340
  674SOL     OW 2920   0.731   2.487   3.646
  674SOL    HW1 2921   0.741   2.566   3.585
  674SOL    HW2 2922   0.814   2.478   3.702
  675SOL     OW 2923   0.510   2.686   4.881
  675SOL    HW1 2924   0.551   2.737   4.805
  675SOL    HW2 2925   0.581   2.632   4.927
  676SOL     OW 2926   2.467   4.810   4.661
  676SOL    HW1 2927   2.453   4.714   4.640
  676SOL    HW2 2928   2.565   4.827   4.676
  677SOL     OW 2929   6.281   0.389   0.865
  677SOL    HW1 2930   6.209   0.420   0.927
  677SOL    HW2 2931   6.305   0.294   0.887
  678SOL     OW 2932   2.786   0.949   5.693
  678SOL    HW1 2933   2.841   0.901   5.625
  678SOL    HW2 2934   2.689   0.941   5.669
  679SOL     OW 2935   3.541   0.880   3.188
  679SOL    HW1 2936   3.596   0.810   3.232
  679SOL    HW2 2937   3.511   0.947   3.256
  680SOL     OW 2938   5.517   3.844   5.634
  680SOL    HW1 2939   5.549   3.759   5.677
  680SOL    HW2 2940   5.436   3.825   5.579
  681SOL     OW 2941   6.664   6.628   1.139
  681SOL    HW1 2942   6.605   6.567   1.086
  681SOL    HW2 2943   6.727   6.676   1.077
  682SOL     OW 2944   1.948   6.881   6.854
  682SOL    HW1 2945   1.973   6.914   6.763
  682SOL    HW2 2946   1.982   6.945   6.923
  683SOL     OW 2947   3.696   1.421   6.235
  683SOL    HW1 2948   3.614   1.456   6.279
  683SOL    HW2 2949   3.763   1.396   6.304
  684SOL     OW 2950   0.503   6.658   6.022
  684SOL    HW1 2951   0.476   6.660   6.118
  684SOL    HW2 2952   0.588   6.606   6.011
  685SOL     OW 2953   4.733   0.246   6.588
  685SOL    HW1 2954   4.675   0.197   6.523
  685SOL    HW2 2955   4.798   0.182   6.629
  686SOL     OW 2956   5.325   2.504   3.534
  686SOL    HW1 2957   5.275   2.580   3.576
  686SOL    HW2 2958   5.278   2.476   3.450
  687SOL     OW 2959   6.656   3.087   6.495
  687SOL    HW1 2960   6.645   2.988   6.504
  687SOL    HW2 2961   6.590   3.134   6.553
  688SOL     OW 2962   1.905   3.739   6.919
  688SOL    HW1 2963   1.920   3.830   6.880
  688SOL    HW2 2964   1.938   3.669   6.855
  689SOL     OW 2965   0.417   4.061   6.559
  689SOL    HW1 2966   0.494   3.997   6.558
  689SOL    HW2 2967   0.379   4.069   6.467
  690SOL     OW 2968   1.242   2.065   3.842
  690SOL    HW1 2969   1.328   2.109   3.816
  690SOL    HW2 2970   1.254   2.015   3.927
  691SOL     OW 2971   1.290   2.697   6.425
  691SOL    HW1 2972   1.383   2.677   6.394
  691SOL    HW2 2973   1.281   2.672   6.521
  692SOL     OW 2974   2.592   6.920   2.991
  692SOL    HW1 2975   2.534   6.894   2.914
  692SOL    HW2 2976   2.663   6.983   2.960
  693SOL     OW 2977   6.607   2.488   2.575
  693SOL    HW1 2978   6.509   2.501   2.557
  693SOL    HW2 2979   6.645   2.424   2.507
  694SOL     OW 2980   3.194   5.427   1.131
  694SOL    HW1 2981   3.132   5.475   1.192
  694SOL    HW2 2982   3.183   5.462   1.038
  695SOL     OW 2983   5.323   5.433   5.110
  695SOL    HW1 2984   5.325   5.372   5.031
  695SOL    HW2 2985   5.270   5.391   5.184
  696SOL     OW 2986   3.349   5.136   2.444
  696SOL    HW1 2987   3.270   5.162   2.389
  696SOL    HW2 2988   3.382   5.046   2.414
  697SOL     OW 2989   0.829   3.192   4.897
  697SOL    HW1 2990   0.882   3.191   4.981
  697SOL    HW2 2991   0.808   3.286   4.872
  698SOL     OW 2992   4.475   0.569   3.432
  698SOL    HW1 2993   4.557   0.527   3.471
  698SOL    HW2 2994   4.500   0.653   3.385
  699SOL     OW 2995   1.547   4.533   0.945
  699SOL    HW1 2996   1.614   4.464   0.970
  699SOL    HW2 2997   1.457   4.507   0.982
  700SOL     OW 2998   2.680   2.314   3.956
  700SOL    HW1 2999   2.660   2.342   4.050
  700SOL    HW2 3000   2.620   2.362   3.893
  701SOL     OW 3001   0.713   4.617   0.026
  701SOL    HW1 3002   0.660   4.538   7.019
  701SOL    HW2 3003   0.671   4.652   0.110
  702SOL     OW 3004   5.148   6.388   5.172
  702SOL    HW1 3005   5.191   6.433   5.094
  702SOL    HW2 3006   5.056   6.360   5.147
  703SOL     OW 3007   4.332   3.519   6.590
  703SOL    HW1 3008   4.376   3.576   6.660
  703SOL    HW2 3009   4.253   3.567   6.552
  704SOL     OW 3010   1.412   0.858   6.491
  704SOL    HW1 3011   1.345   0.809   6.435
  704SOL    HW2 3012   1.456   0.793   6.554
  705SOL     OW 3013   5.277   0.599   3.341
  705SOL    HW1 3014   5.351   0.545   3.382
  705SOL    HW2 3015   5.305   0.631   3.251
  706SOL     OW 3016   3.538   1.972   4.131
  706SOL    HW1 3017   3.551   1.902   4.202
  706SOL    HW2 3018   3.443   1.973   4.103
  707SOL     OW 3019   4.508   0.641   1.231
  707SOL    HW1 3020   4.455   0.695   1.165
  707SOL    HW2 3021   4.461   0.642   1.319
  708SOL     OW 3022   4.773   0.381   1.456
  708SOL    HW1 3023   4.706   0.428   1.400
  708SOL    HW2 3024   4.729   0.342   1.537
  709SOL     OW 3025   0.856   4.997   0.756
  709SOL    HW1 3026   0.953   4.983   0.779
  709SOL    HW2 3027   0.804   4.916   0.785
  710SOL     OW 3028   3.276   4.106   2.465
  710SOL    HW1 3029   3.287   4.092   2.563
  710SOL    HW2 3030   3.207   4.177   2.448
  711SOL     OW 3031   6.645   2.463   5.115
  711SOL    HW1 3032   6.641   2.556   5.080
  711SOL    HW2 3033   6.694   2.462   5.202
  712SOL     OW 3034   0.959   3.639   1.094
  712SOL    HW1 3035   0.993   3.729   1.068
  712SOL    HW2 3036   0.860   3.636   1.085
  713SOL     OW 3037   3.517   3.372   2.173
  713SOL    HW1 3038   3.584   3.319   2.120
  713SOL    HW2 3039   3.536   3.361   2.271
  714SOL     OW 3040   5.573   4.396   5.445
  714SOL    HW1 3041   5.541   4.407   5.539
  714SOL    HW2 3042   5.497   4.409   5.382
  715SOL     OW 3043   4.309   5.643   6.545
  715SOL    HW1 3044   4.399   5.626   6.504
  715SOL    HW2 3045   4.318   5.713   6.616
  716SOL     OW 3046   0.485   5.422   1.357
  716SOL    HW1 3047   0.477   5.513   1.396
  716SOL    HW2 3048   0.582   5.397   1.351
  717SOL     OW 3049   6.159   4.131   6.923
  717SOL    HW1 3050   6.124   4.169   7.009
  717SOL    HW2 3051   6.248   4.087   6.940
  718SOL     OW 3052   3.546   2.874   5.679
  718SOL    HW1 3053   3.552   2.972   5.660
  718SOL    HW2 3054   3.567   2.857   5.775
  719SOL     OW 3055   6.747   2.693   1.438
  719SOL    HW1 3056   6.846   2.693   1.445
  719SOL    HW2 3057   6.709   2.757   1.504
  720SOL     OW 3058   2.201   1.844   5.287
  720SOL    HW1 3059   2.141   1.917   5.319
  720SOL    HW2 3060   2.176   1.758   5.332
  721SOL     OW 3061   1.574   0.403   5.349
  721SOL    HW1 3062   1.646   0.431   5.412
  721SOL    HW2 3063   1.588   0.308   5.322
  722SOL     OW 3064   4.144   6.803   5.031
  722SOL    HW1 3065   4.231   6.850   5.012
  722SOL    HW2 3066   4.149   6.709   4.998
  723SOL     OW 3067   2.189   2.515   2.346
  723SOL    HW1 3068   2.289   2.513   2.347
  723SOL    HW2 3069   2.154   2.422   2.334
  724SOL     OW 3070   0.663   1.583   5.003
  724SOL    HW1 3071   0.620   1.652   4.944
  724SOL    HW2 3072   0.610   1.573   5.087
  725SOL     OW 3073   2.755   5.192   1.957
  725SOL    HW1 3074   2.814   5.148   1.890
  725SOL    HW2 3075   2.709   5.270   1.915
  726SOL     OW 3076   3.150   5.352   6.511
  726SOL    HW1 3077   3.204   5.311   6.437
  726SOL    HW2 3078   3.053   5.333   6.496
  727SOL     OW 3079   3.608   5.761   4.447
  727SOL    HW1 3080   3.706   5.746   4.440
  727SOL    HW2 3081   3.566   5.754   4.356
  728SOL     OW 3082   0.361   3.801   5.555
  728SOL    HW1 3083   0.267   3.834   5.559
  728SOL    HW2 3084   0.370   3.733   5.483
  729SOL     OW 3085   2.157   1.211   0.477
  729SOL    HW1 3086   2.097   1.232   0.554
  729SOL    HW2 3087   2.200   1.122   0.491
  730SOL     OW 3088   6.033   0.204   3.581
  730SOL    HW1 3089   6.082   0.291   3.593
  730SOL    HW2 3090   6.026   0.183   3.483
  731SOL     OW 3091   5.315   3.094   4.861
  731SOL    HW1 3092   5.253   3.019   4.840
  731SOL    HW2 3093   5.266   3.166   4.909
  732SOL     OW 3094   0.647   2.579   1.291
  732SOL    HW1 3095   0.684   2.620   1.375
  732SOL    HW2 3096   0.681   2.485   1.283
  733SOL     OW 3097   5.023   4.450   3.789
  733SOL    HW1 3098   5.028   4.462   3.690
  733SOL    HW2 3099   4.928   4.454   3.819
  734SOL     OW 3100   0.317   4.158   1.678
  734SOL    HW1 3101   0.268   4.071   1.672
  734SOL    HW2 3102   0.355   4.180   1.588
  735SOL     OW 3103   1.734   3.381   0.488
  735SOL    HW1 3104   1.689   3.295   0.515
  735SOL    HW2 3105   1.733   3.388   0.388
  736SOL     OW 3106   6.230   6.635   2.921
  736SOL    HW1 3107   6.180   6.554   2.891
  736SOL    HW2 3108   6.246   6.696   2.843
  737SOL     OW 3109   4.704   3.755   1.376
  737SOL    HW1 3110   4.678   3.850   1.389
  737SOL    HW2 3111   4.738   3.742   1.283
  738SOL     OW 3112   0.304   4.472   4.223
  738SOL    HW1 3113   0.317   4.391   4.279
  738SOL    HW2 3114   0.352   4.549   4.264
  739SOL     OW 3115   4.541   6.897   6.052
  739SOL    HW1 3116   4.614   6.941   6.000
  739SOL    HW2 3117   4.453   6.918   6.009
  740SOL     OW 3118   5.625   0.503   0.789
  740SOL    HW1 3119   5.641   0.410   0.755
  740SOL    HW2 3120   5.542   0.505   0.843
  741SOL     OW 3121   1.077   6.338   3.273
  741SOL    HW1 3122   1.066   6.258   3.333
  741SOL    HW2 3123   1.108   6.416   3.328
  742SOL     OW 3124   1.884   6.439   3.194
  742SOL    HW1 3125   1.885   6.396   3.284
  742SOL    HW2 3126   1.877   6.539   3.206
  743SOL     OW 3127   1.083   4.425   4.065
  743SOL    HW1 3128   1.084   4.504   4.128
  743SOL    HW2 3129   1.177   4.394   4.051
  744SOL     OW 3130   6.806   6.035   6.895
  744SOL    HW1 3131   6.855   5.957   6.856
  744SOL    HW2 3132   6.707   6.019   6.890
  745SOL     OW 3133   1.062   5.417   3.763
  745SOL    HW1 3134   1.041   5.415   3.861
  745SOL    HW2 3135   1.161   5.418   3.750
  746SOL     OW 3136   0.501   6.611   5.270
  746SOL    HW1 3137   0.507   6.690   5.209
  746SOL    HW2 3138   0.573   6.546   5.247
  747SOL     OW 3139   4.375   4.601   3.891
  747SOL    HW1 3140   4.309   4.646   3.951
  747SOL    HW2 3141   4.380   4.651   3.804
  748SOL     OW 3142   4.640   4.544   1.024
  748SOL    HW1 3143   4.625   4.565   0.928
  748SOL    HW2 3144   4.552   4.525   1.069
  749SOL     OW 3145   6.977   2.828   5.056
  749SOL    HW1 3146   6.900   2.866   5.107
  749SOL    HW2 3147   7.000   2.888   4.979
  750SOL     OW 3148   3.088   2.844   1.041
  750SOL    HW1 3149   3.066   2.926   0.988
  750SOL    HW2 3150   3.098   2.868   1.137
  751SOL     OW 3151   4.150   1.372   0.658
  751SOL    HW1 3152   4.154   1.403   0.753
  751SOL    HW2 3153   4.101   1.285   0.654
  752SOL     OW 3154   4.514   2.464   2.043
  752SOL    HW1 3155   4.566   2.425   1.968
  752SOL    HW2 3156   4.533   2.562   2.050
  753SOL     OW 3157   1.898   3.532   5.048
  753SOL    HW1 3158   1.880   3.438   5.078
  753SOL    HW2 3159   1.996   3.548   5.045
  754SOL     OW 3160   5.115   4.031   6.884
  754SOL    HW1 3161   5.127   3.982   6.798
  754SOL    HW2 3162   5.087   4.125   6.865
  755SOL     OW 3163   0.550   5.928   6.629
  755SOL    HW1 3164   0.510   5.837   6.626
  755SOL    HW2 3165   0.534   5.968   6.720
  756SOL     OW 3166   4.899   0.864   2.539
  756SOL    HW1 3167   4.838   0.791   2.511
  756SOL    HW2 3168   4.921   0.921   2.459
  757SOL     OW 3169   0.586   6.731   4.169
  757SOL    HW1 3170   0.585   6.721   4.269
  757SOL    HW2 3171   0.493   6.720   4.133
  758SOL     OW 3172   3.623   1.985   1.314
  758SOL    HW1 3173   3.526   1.961   1.310
  758SOL    HW2 3174   3.634   2.082   1.291
  759SOL     OW 3175   0.843   1.061   0.304
  759SOL    HW1 3176   0.922   1.046   0.246
  759SOL    HW2 3177   0.768   1.100   0.250
  760SOL     OW 3178   4.586   1.641   6.568
  760SOL    HW1 3179   4.508   1.578   6.569
  760SOL    HW2 3180   4.563   1.722   6.514
  761SOL     OW 3181   5.973   3.501   0.488
  761SOL    HW1 3182   5.929   3.490   0.578
  761SOL    HW2 3183   6.070   3.479   0.497
  762SOL     OW 3184   2.157   6.286   3.842
  762SOL    HW1 3185   2.158   6.295   3.942
  762SOL    HW2 3186   2.245   6.250   3.811
  763SOL     OW 3187   4.141   5.770   6.889
  763SOL    HW1 3188   4.064   5.768   6.826
  763SOL    HW2 3189   4.117   5.723   6.974
  764SOL     OW 3190   3.110   1.136   3.221
  764SOL    HW1 3191   3.055   1.218   3.206
  764SOL    HW2 3192   3.122   1.123   3.320
  765SOL     OW 3193   0.883   6.267   1.397
  765SOL    HW1 3194   0.798   6.274   1.450
  765SOL    HW2 3195   0.875   6.191   1.332
  766SOL     OW 3196   6.842   0.660   6.803
  766SOL    HW1 3197   6.842   0.756   6.828
  766SOL    HW2 3198   6.901   0.646   6.723
  767SOL     OW 3199   0.416   6.351   1.781
  767SOL    HW1 3200   0.511   6.376   1.798
  767SOL    HW2 3201   0.359   6.434   1.787
  768SOL     OW 3202   2.148   0.341   2.615
  768SOL    HW1 3203   2.056   0.304   2.616
  768SOL    HW2 3204   2.148   0.432   2.574
  769SOL     OW 3205   3.403   0.491   4.609
  769SOL    HW1 3206   3.478   0.430   4.634
  769SOL    HW2 3207   3.344   0.447   4.542
  770SOL     OW 3208   2.869   5.769   3.490
  770SOL    HW1 3209   2.920   5.773   3.404
  770SOL    HW2 3210   2.787   5.713   3.477
  771SOL     OW 3211   1.916   5.417   2.664
  771SOL    HW1 3212   1.902   5.343   2.730
  771SOL    HW2 3213   1.863   5.497   2.692
  772SOL     OW 3214   6.951   4.260   0.425
  772SOL    HW1 3215   6.939   4.360   0.418
  772SOL    HW2 3216   6.873   4.215   0.381
  773SOL     OW 3217   6.960   2.848   3.398
  773SOL    HW1 3218   6.896   2.809   3.465
  773SOL    HW2 3219   0.018   2.878   3.445
  774SOL     OW 3220   1.644   1.918   2.024
  774SOL    HW1 3221   1.582   1.840   2.016
  774SOL    HW2 3222   1.632   1.961   2.113
  775SOL     OW 3223   1.145   2.025   4.195
  775SOL    HW1 3224   1.130   2.068   4.283
  775SOL    HW2 3225   1.057   2.003   4.152
  776SOL     OW 3226   1.079   6.626   5.786
  776SOL    HW1 3227   1.081   6.635   5.886
  776SOL    HW2 3228   0.996   6.669   5.751
  777SOL     OW 3229   3.563   1.033   1.318
  777SOL    HW1 3230   3.638   0.969   1.331
  777SOL    HW2 3231   3.599   1.121   1.284
  778SOL     OW 3232   4.055   0.697   3.465
  778SOL    HW1 3233   4.136   0.737   3.423
  778SOL    HW2 3234   3.990   0.671   3.394
  779SOL     OW 3235   0.200   1.635   2.100
  779SOL    HW1 3236   0.264   1.696   2.146
  779SOL    HW2 3237   0.189   1.664   2.005
  780SOL     OW 3238   5.939   2.647   4.251
  780SOL    HW1 3239   6.022   2.636   4.307
  780SOL    HW2 3240   5.868   2.586   4.286
  781SOL     OW 3241   6.097   1.251   6.010
  781SOL    HW1 3242   6.004   1.285   6.023
  781SOL    HW2 3243   6.152   1.321   5.965
  782SOL     OW 3244   0.704   3.685   0.937
  782SOL    HW1 3245   0.677   3.639   0.853
  782SOL    HW2 3246   0.663   3.638   1.015
  783SOL     OW 3247   2.863   5.520   6.970
  783SOL    HW1 3248   2.815   5.590   7.024
  783SOL    HW2 3249   2.954   5.506   7.007
  784SOL     OW 3250   4.389   0.400   5.469
  784SOL    HW1 3251   4.432   0.384   5.380
  784SOL    HW2 3252   4.459   0.427   5.535
  785SOL     OW 3253   6.179   1.515   2.503
  785SOL    HW1 3254   6.253   1.582   2.507
  785SOL    HW2 3255   6.214   1.429   2.468
  786SOL     OW 3256   6.997   0.587   0.366
  786SOL    HW1 3257   0.031   0.555   0.292
  786SOL    HW2 3258   0.027   0.622   0.441
  787SOL     OW 3259   2.860   1.412   5.903
  787SOL    HW1 3260   2.899   1.329   5.863
  787SOL    HW2 3261   2.763   1.419   5.877
  788SOL     OW 3262   2.080   3.597   4.457
  788SOL    HW1 3263   1.992   3.565   4.421
  788SOL    HW2 3264   2.115   3.671   4.399
  789SOL     OW 3265   6.292   4.455   2.064
  789SOL    HW1 3266   6.372   4.456   2.124
  789SOL    HW2 3267   6.319   4.482   1.971
  790SOL     OW 3268   2.351   1.406   4.371
  790SOL    HW1 3269   2.342   1.435   4.276
  790SOL    HW2 3270   2.411   1.327   4.377
  791SOL     OW 3271   4.334   0.570   3.805
  791SOL    HW1 3272   4.329   0.656   3.754
  791SOL    HW2 3273   4.404   0.577   3.876
  792SOL     OW 3274   6.138   0.052   2.178
  792SOL    HW1 3275   6.127   6.984   2.144
  792SOL    HW2 3276   6.091   0.061   2.266
  793SOL     OW 3277   4.916   6.376   1.755
  793SOL    HW1 3278   4.947   6.384   1.850
  793SOL    HW2 3279   4.954   6.294   1.714
  794SOL     OW 3280   2.753   4.945   5.581
  794SOL    HW1 3281   2.698   4.915   5.659
  794SOL    HW2 3282   2.731   4.889   5.501
  795SOL     OW 3283   3.599   5.106   5.803
  795SOL    HW1 3284   3.549   5.181   5.761
  795SOL    HW2 3285   3.587   5.023   5.749
  796SOL     OW 3286   0.184   2.308   5.768
  796SOL    HW1 3287   0.257   2.249   5.803
  796SOL    HW2 3288   0.186   2.308   5.668
  797SOL     OW 3289   4.971   2.410   2.422
  797SOL    HW1 3290   5.050   2.461   2.392
  797SOL    HW2 3291   4.903   2.406   2.348
  798SOL     OW 3292   4.627   0.518   0.899
  798SOL    HW1 3293   4.718   0.479   0.882
  798SOL    HW2 3294   4.631   0.618   0.889
  799SOL     OW 3295   6.368   2.056   3.289
  799SOL    HW1 3296   6.438   1.994   3.253
  799SOL    HW2 3297   6.288   2.052   3.230
  800SOL     OW 3298   5.544   0.728   1.976
  800SOL    HW1 3299   5.472   0.769   2.031
  800SOL    HW2 3300   5.504   0.666   1.909
  801SOL     OW 3301   1.221   2.809   3.361
  801SOL    HW1 3302   1.189   2.715   3.344
  801SOL    HW2 3303   1.260   2.815   3.453
  802SOL     OW 3304   4.450   1.422   0.341
  802SOL    HW1 3305   4.398   1.352   0.292
  802SOL    HW2 3306   4.540   1.433   0.299
  803SOL     OW 3307   6.034   6.071   4.431
  803SOL    HW1 3308   5.936   6.076   4.452
  803SOL    HW2 3309   6.063   5.976   4.432
  804SOL     OW 3310   6.752   6.785   0.288
  804SOL    HW1 3311   6.699   6.708   0.323
  804SOL    HW2 3312   6.806   6.755   0.209
  805SOL     OW 3313   4.467   2.807   5.809
  805SOL    HW1 3314   4.456   2.709   5.793
  805SOL    HW2 3315   4.505   2.851   5.727
  806SOL     OW 3316   3.891   1.247   5.576
  806SOL    HW1 3317   3.988   1.229   5.556
  806SOL    HW2 3318   3.856   1.316   5.513
  807SOL     OW 3319   1.154   0.905   3.611
  807SOL    HW1 3320   1.083   0.974   3.626
  807SOL    HW2 3321   1.230   0.947   3.560
  808SOL     OW 3322   4.888   3.278   5.988
  808SOL    HW1 3323   4.835   3.359   5.964
  808SOL    HW2 3324   4.881   3.261   6.086
  809SOL     OW 3325   1.092   4.886   0.875
  809SOL    HW1 3326   1.099   4.857   0.970
  809SOL    HW2 3327   1.166   4.845   0.822
  810SOL     OW 3328   4.360   3.561   1.283
  810SOL    HW1 3329   4.268   3.534   1.312
  810SOL    HW2 3330   4.406   3.609   1.358
  811SOL     OW 3331   4.852   5.599   3.601
  811SOL    HW1 3332   4.872   5.556   3.513
  811SOL    HW2 3333   4.786   5.542   3.651
  812SOL     OW 3334   0.077   0.504   1.540
  812SOL    HW1 3335   0.082   0.408   1.568
  812SOL    HW2 3336   7.024   0.518   1.479
  813SOL     OW 3337   4.536   6.197   3.448
  813SOL    HW1 3338   4.595   6.218   3.370
  813SOL    HW2 3339   4.443   6.229   3.429
  814SOL     OW 3340   5.433   6.360   2.729
  814SOL    HW1 3341   5.339   6.327   2.721
  814SOL    HW2 3342   5.459   6.363   2.825
  815SOL     OW 3343   6.140   2.301   1.893
  815SOL    HW1 3344   6.061   2.279   1.836
  815SOL    HW2 3345   6.161   2.223   1.952
  816SOL     OW 3346   6.444   6.017   0.264
  816SOL    HW1 3347   6.400   5.964   0.336
  816SOL    HW2 3348   6.409   5.988   0.175
  817SOL     OW 3349   1.750   4.443   2.606
  817SOL    HW1 3350   1.770   4.482   2.516
  817SOL    HW2 3351   1.828   4.457   2.667
  818SOL     OW 3352   6.169   2.911   0.479
  818SOL    HW1 3353   6.201   2.857   0.556
  818SOL    HW2 3354   6.124   2.851   0.412
  819SOL     OW 3355   6.155   2.605   4.541
  819SOL    HW1 3356   6.200   2.649   4.463
  819SOL    HW2 3357   6.192   2.513   4.554
  820SOL     OW 3358   1.517   2.908   4.778
  820SOL    HW1 3359   1.427   2.946   4.754
  820SOL    HW2 3360   1.513   2.871   4.871
  821SOL     OW 3361   1.892   4.882   0.647
  821SOL    HW1 3362   1.820   4.846   0.588
  821SOL    HW2 3363   1.851   4.918   0.731
  822SOL     OW 3364   0.883   4.494   4.959
  822SOL    HW1 3365   0.843   4.452   4.878
  822SOL    HW2 3366   0.905   4.590   4.940
  823SOL     OW 3367   4.917   4.330   6.091
  823SOL    HW1 3368   4.875   4.373   6.011
  823SOL    HW2 3369   4.918   4.396   6.166
  824SOL     OW 3370   4.698   1.546   5.166
  824SOL    HW1 3371   4.766   1.600   5.117
  824SOL    HW2 3372   4.681   1.587   5.256
  825SOL     OW 3373   2.194   2.962   2.214
  825SOL    HW1 3374   2.274   2.978   2.271
  825SOL    HW2 3375   2.153   3.050   2.189
  826SOL     OW 3376   5.788   3.501   0.681
  826SOL    HW1 3377   5.719   3.478   0.613
  826SOL    HW2 3378   5.747   3.498   0.772
  827SOL     OW 3379   3.623   5.660   6.244
  827SOL    HW1 3380   3.545   5.685   6.301
  827SOL    HW2 3381   3.600   5.674   6.148
  828SOL     OW 3382   6.338   0.432   5.012
  828SOL    HW1 3383   6.381   0.447   5.101
  828SOL    HW2 3384   6.407   0.437   4.940
  829SOL     OW 3385   3.053   3.105   3.979
  829SOL    HW1 3386   3.034   3.038   4.051
  829SOL    HW2 3387   3.071   3.194   4.020
  830SOL     OW 3388   5.164   4.911   5.597
  830SOL    HW1 3389   5.114   4.863   5.669
  830SOL    HW2 3390   5.201   4.845   5.532
  831SOL     OW 3391   6.896   6.728   4.581
  831SOL    HW1 3392   6.833   6.736   4.504
  831SOL    HW2 3393   6.987   6.760   4.553
  832SOL     OW 3394   2.539   1.473   0.325
  832SOL    HW1 3395   2.560   1.558   0.373
  832SOL    HW2 3396   2.556   1.395   0.385
  833SOL     OW 3397   6.239   6.546   6.545
  833SOL    HW1 3398   6.159   6.530   6.602
  833SOL    HW2 3399   6.234   6.487   6.463
  834SOL     OW 3400   3.181   3.678   3.360
  834SOL    HW1 3401   3.107   3.703   3.298
  834SOL    HW2 3402   3.202   3.756   3.420
  835SOL     OW 3403   4.074   6.936   3.689
  835SOL    HW1 3404   4.162   6.890   3.691
  835SOL    HW2 3405   4.024   6.917   3.773
  836SOL     OW 3406   3.643   6.558   6.637
  836SOL    HW1 3407   3.721   6.559   6.574
  836SOL    HW2 3408   3.657   6.626   6.709
  837SOL     OW 3409   5.398   0.434   0.050
  837SOL    HW1 3410   5.319   0.484   0.013
  837SOL    HW2 3411   5.408   0.455   0.147
  838SOL     OW 3412   1.300   6.638   5.096
  838SOL    HW1 3413   1.227   6.655   5.029
  838SOL    HW2 3414   1.369   6.577   5.055
  839SOL     OW 3415   2.727   1.486   3.506
  839SOL    HW1 3416   2.728   1.560   3.439
  839SOL    HW2 3417   2.821   1.465   3.535
  840SOL     OW 3418   0.956   1.088   6.840
  840SOL    HW1 3419   1.030   1.023   6.828
  840SOL    HW2 3420   0.875   1.041   6.876
  841SOL     OW 3421   6.400   3.964   0.003
  841SOL    HW1 3422   6.428   3.921   6.943
  841SOL    HW2 3423   6.338   3.903   0.053
  842SOL     OW 3424   3.993   5.479   3.108
  842SOL    HW1 3425   4.003   5.406   3.175
  842SOL    HW2 3426   4.071   5.541   3.113
  843SOL     OW 3427   5.901   2.513   1.147
  843SOL    HW1 3428   5.891   2.612   1.139
  843SOL    HW2 3429   5.845   2.468   1.078
  844SOL     OW 3430   5.061   6.240   0.842
  844SOL    HW1 3431   5.129   6.202   0.905
  844SOL    HW2 3432   5.038   6.333   0.870
  845SOL     OW 3433   6.028   3.554   5.104
  845SOL    HW1 3434   6.044   3.508   5.191
  845SOL    HW2 3435   5.930   3.553   5.083
  846SOL     OW 3436   6.049   1.599   0.285
  846SOL    HW1 3437   5.969   1.548   0.255
  846SOL    HW2 3438   6.055   1.598   0.385
  847SOL     OW 3439   6.243   3.507   0.867
  847SOL    HW1 3440   6.314   3.497   0.937
  847SOL    HW2 3441   6.155   3.481   0.905
  848SOL     OW 3442   6.522   0.284   6.194
  848SOL    HW1 3443   6.515   0.216   6.121
  848SOL    HW2 3444   6.443   0.344   6.192
  849SOL     OW 3445   0.549   6.130   5.153
  849SOL    HW1 3446   0.501   6.191   5.089
  849SOL    HW2 3447   0.598   6.186   5.220
  850SOL     OW 3448   4.516   0.859   3.368
  850SOL    HW1 3449   4.521   0.838   3.271
  850SOL    HW2 3450   4.508   0.958   3.381
  851SOL     OW 3451   0.272   1.354   6.772
  851SOL    HW1 3452   0.247   1.259   6.753
  851SOL    HW2 3453   0.223   1.414   6.709
  852SOL     OW 3454   2.563   2.657   6.853
  852SOL    HW1 3455   2.581   2.609   6.767
  852SOL    HW2 3456   2.617   2.616   6.926
  853SOL     OW 3457   1.086   2.914   2.205
  853SOL    HW1 3458   0.999   2.884   2.246
  853SOL    HW2 3459   1.109   2.853   2.129
  854SOL     OW 3460   5.815   6.496   2.996
  854SOL    HW1 3461   5.835   6.421   3.059
  854SOL    HW2 3462   5.763   6.567   3.043
  855SOL     OW 3463   5.406   0.532   1.835
  855SOL    HW1 3464   5.327   0.540   1.773
  855SOL    HW2 3465   5.436   0.437   1.838
  856SOL     OW 3466   1.824   0.440   5.559
  856SOL    HW1 3467   1.874   0.514   5.515
  856SOL    HW2 3468   1.855   0.352   5.524
  857SOL     OW 3469   6.068   3.964   0.990
  857SOL    HW1 3470   6.008   3.989   1.067
  857SOL    HW2 3471   6.017   3.904   0.928
  858SOL     OW 3472   2.838   4.864   1.407
  858SOL    HW1 3473   2.870   4.906   1.322
  858SOL    HW2 3474   2.916   4.836   1.462
  859SOL     OW 3475   6.077   4.783   6.682
  859SOL    HW1 3476   6.067   4.845   6.760
  859SOL    HW2 3477   6.086   4.689   6.715
  860SOL     OW 3478   3.494   4.586   0.047
  860SOL    HW1 3479   3.466   4.596   0.142
  860SOL    HW2 3480   3.559   4.510   0.039
  861SOL     OW 3481   3.075   6.682   4.914
  861SOL    HW1 3482   3.073   6.665   5.012
  861SOL    HW2 3483   3.153   6.634   4.873
  862SOL     OW 3484   6.332   4.521   4.982
  862SOL    HW1 3485   6.288   4.544   5.068
  862SOL    HW2 3486   6.349   4.604   4.928
  863SOL     OW 3487   0.589   0.817   0.745
  863SOL    HW1 3488   0.574   0.868   0.661
  863SOL    HW2 3489   0.678   0.843   0.784
  864SOL     OW 3490   5.119   4.148   3.343
  864SOL    HW1 3491   5.143   4.164   3.248
  864SOL    HW2 3492   5.023   4.124   3.350
  865SOL     OW 3493   1.291   0.014   3.966
  865SOL    HW1 3494   1.326   0.068   4.043
  865SOL    HW2 3495   1.369   7.005   3.912
  866SOL     OW 3496   2.667   1.491   2.085
  866SOL    HW1 3497   2.609   1.498   2.003
  866SOL    HW2 3498   2.762   1.509   2.060
  867SOL     OW 3499   3.090   2.926   6.956
  867SOL    HW1 3500   3.112   3.022   6.972
  867SOL    HW2 3501   3.008   2.901   7.009
  868SOL     OW 3502   5.658   0.104   2.980
  868SOL    HW1 3503   5.570   0.137   3.015
  868SOL    HW2 3504   5.665   0.125   2.883
  869SOL     OW 3505   6.415   5.972   2.430
  869SOL    HW1 3506   6.359   5.936   2.505
  869SOL    HW2 3507   6.511   5.971   2.456
  870SOL     OW 3508   0.465   2.775   1.477
  870SOL    HW1 3509   0.522   2.831   1.417
  870SOL    HW2 3510   0.370   2.806   1.470
  871SOL     OW 3511   6.684   2.463   2.161
  871SOL    HW1 3512   6.615   2.534   2.171
  871SOL    HW2 3513   6.767   2.490   2.209
  872SOL     OW 3514   6.339   2.889   4.904
  872SOL    HW1 3515   6.303   2.978   4.934
  872SOL    HW2 3516   6.359   2.892   4.806
  873SOL     OW 3517   3.983   6.706   3.183
  873SOL    HW1 3518   4.032   6.786   3.218
  873SOL    HW2 3519   3.976   6.637   3.256
  874SOL     OW 3520   1.593   4.437   5.096
  874SOL    HW1 3521   1.691   4.424   5.106
  874SOL    HW2 3522   1.573   4.482   5.010
  875SOL     OW 3523   5.198   4.479   0.691
  875SOL    HW1 3524   5.159   4.409   0.631
  875SOL    HW2 3525   5.238   4.435   0.772
  876SOL     OW 3526   6.625   3.876   2.489
  876SOL    HW1 3527   6.547   3.894   2.550
  876SOL    HW2 3528   6.629   3.946   2.418
  877SOL     OW 3529   5.055   5.307   6.881
  877SOL    HW1 3530   5.132   5.352   6.835
  877SOL    HW2 3531   5.049   5.338   6.975
  878SOL     OW 3532   3.152   5.170   0.205
  878SOL    HW1 3533   3.086   5.147   0.134
  878SOL    HW2 3534   3.231   5.109   0.198
  879SOL     OW 3535   4.691   2.048   2.668
  879SOL    HW1 3536   4.757   2.013   2.734
  879SOL    HW2 3537   4.601   2.058   2.711
  880SOL     OW 3538   3.724   4.542   0.268
  880SOL    HW1 3539   3.782   4.539   0.349
  880SOL    HW2 3540   3.667   4.460   0.265
  881SOL     OW 3541   4.498   4.813   4.548
  881SOL    HW1 3542   4.543   4.822   4.460
  881SOL    HW2 3543   4.517   4.723   4.586
  882SOL     OW 3544   1.062   0.718   4.647
  882SOL    HW1 3545   1.104   0.795   4.695
  882SOL    HW2 3546   0.962   0.728   4.651
  883SOL     OW 3547   3.445   5.138   6.590
  883SOL    HW1 3548   3.429   5.222   6.640
  883SOL    HW2 3549   3.408   5.146   6.497
  884SOL     OW 3550   6.212   3.570   2.104
  884SOL    HW1 3551   6.206   3.670   2.109
  884SOL    HW2 3552   6.197   3.531   2.194
  885SOL     OW 3553   6.085   6.490   0.241
  885SOL    HW1 3554   5.997   6.444   0.227
  885SOL    HW2 3555   6.072   6.569   0.301
  886SOL     OW 3556   3.842   0.905   0.177
  886SOL    HW1 3557   3.871   0.829   0.235
  886SOL    HW2 3558   3.918   0.933   0.118
  887SOL     OW 3559   4.018   0.428   6.253
  887SOL    HW1 3560   4.015   0.461   6.159
  887SOL    HW2 3561   3.976   0.495   6.314
  888SOL     OW 3562   6.880   6.629   3.699
  888SOL    HW1 3563   6.793   6.580   3.702
  888SOL    HW2 3564   6.870   6.712   3.643
  889SOL     OW 3565   0.292   6.336   5.314
  889SOL    HW1 3566   0.204   6.366   5.352
  889SOL    HW2 3567   0.366   6.378   5.366
  890SOL     OW 3568   2.685   4.749   2.157
  890SOL    HW1 3569   2.676   4.834   2.105
  890SOL    HW2 3570   2.716   4.676   2.096
  891SOL     OW 3571   5.536   2.733   1.127
  891SOL    HW1 3572   5.619   2.771   1.169
  891SOL    HW2 3573   5.495   2.666   1.188
  892SOL     OW 3574   2.516   3.521   0.968
  892SOL    HW1 3575   2.465   3.442   1.003
  892SOL    HW2 3576   2.614   3.504   0.976
  893SOL     OW 3577   1.479   0.606   0.457
  893SOL    HW1 3578   1.500   0.541   0.531
  893SOL    HW2 3579   1.395   0.655   0.479
  894SOL     OW 3580   1.099   5.715   4.338
  894SOL    HW1 3581   1.110   5.616   4.348
  894SOL    HW2 3582   1.162   5.762   4.399
  895SOL     OW 3583   2.284   0.240   4.255
  895SOL    HW1 3584   2.251   0.174   4.187
  895SOL    HW2 3585   2.305   0.192   4.341
  896SOL     OW 3586   5.964   6.494   3.447
  896SOL    HW1 3587   6.052   6.518   3.408
  896SOL    HW2 3588   5.907   6.576   3.455
  897SOL     OW 3589   5.088   2.799   6.496
  897SOL    HW1 3590   4.990   2.797   6.473
  897SOL    HW2 3591   5.131   2.716   6.462
  898SOL     OW 3592   5.371   6.427   3.757
  898SOL    HW1 3593   5.441   6.403   3.689
  898SOL    HW2 3594   5.334   6.343   3.797
  899SOL     OW 3595   0.247   5.050   6.671
  899SOL    HW1 3596   0.214   4.957   6.651
  899SOL    HW2 3597   0.183   5.096   6.733
  900SOL     OW 3598   0.289   6.233   3.419
  900SOL    HW1 3599   0.285   6.142   3.460
  900SOL    HW2 3600   0.360   6.287   3.463
  901SOL     OW 3601   6.633   1.212   4.026
  901SOL    HW1 3602   6.639   1.196   3.927
  901SOL    HW2 3603   6.625   1.310   4.043
  902SOL     OW 3604   6.765   0.273   6.317
  902SOL    HW1 3605   6.748   0.255   6.413
  902SOL    HW2 3606   6.678   0.282   6.269
  903SOL     OW 3607   0.351   4.821   0.967
  903SOL    HW1 3608   0.402   4.857   1.045
  903SOL    HW2 3609   0.335   4.893   0.901
  904SOL     OW 3610   1.789   1.809   3.506
  904SOL    HW1 3611   1.801   1.741   3.433
  904SOL    HW2 3612   1.783   1.762   3.594
  905SOL     OW 3613   5.213   2.326   5.542
  905SOL    HW1 3614   5.164   2.414   5.543
  905SOL    HW2 3615   5.147   2.251   5.536
  906SOL     OW 3616   0.161   4.254   6.153
  906SOL    HW1 3617   0.121   4.210   6.072
  906SOL    HW2 3618   0.137   4.351   6.152
  907SOL     OW 3619   6.231   2.298   2.490
  907SOL    HW1 3620   6.137   2.301   2.525
  907SOL    HW2 3621   6.293   2.274   2.565
  908SOL     OW 3622   1.773   0.066   3.925
  908SOL    HW1 3623   1.704   0.052   3.996
  908SOL    HW2 3624   1.736   0.127   3.855
  909SOL     OW 3625   3.360   0.867   1.274
  909SOL    HW1 3626   3.319   0.884   1.185
  909SOL    HW2 3627   3.440   0.926   1.285
  910SOL     OW 3628   1.974   1.345   0.625
  910SOL    HW1 3629   1.891   1.292   0.609
  910SOL    HW2 3630   1.996   1.397   0.542
  911SOL     OW 3631   0.448   4.388   1.251
  911SOL    HW1 3632   0.429   4.310   1.191
  911SOL    HW2 3633   0.527   4.437   1.216
  912SOL     OW 3634   6.922   0.872   6.031
  912SOL    HW1 3635   6.829   0.905   6.041
  912SOL    HW2 3636   6.928   0.777   6.063
  913SOL     OW 3637   2.616   0.913   2.519
  913SOL    HW1 3638   2.566   0.982   2.466
  913SOL    HW2 3639   2.615   0.939   2.616
  914SOL     OW 3640   2.766   6.080   3.695
  914SOL    HW1 3641   2.836   6.024   3.651
  914SOL    HW2 3642   2.806   6.167   3.722
  915SOL     OW 3643   0.567   2.783   0.038
  915SOL    HW1 3644   0.541   2.722   6.989
  915SOL    HW2 3645   0.487   2.808   0.092
  916SOL     OW 3646   2.754   2.349   2.978
  916SOL    HW1 3647   2.800   2.397   2.903
  916SOL    HW2 3648   2.705   2.415   3.035
  917SOL     OW 3649   4.299   1.583   1.417
  917SOL    HW1 3650   4.218   1.630   1.451
  917SOL    HW2 3651   4.289   1.565   1.319
  918SOL     OW 3652   2.413   6.119   6.489
  918SOL    HW1 3653   2.452   6.051   6.426
  918SOL    HW2 3654   2.408   6.079   6.581
  919SOL     OW 3655   1.455   5.853   1.593
  919SOL    HW1 3656   1.487   5.846   1.498
  919SOL    HW2 3657   1.476   5.944   1.629
  920SOL     OW 3658   2.747   0.504   3.274
  920SOL    HW1 3659   2.797   0.427   3.313
  920SOL    HW2 3660   2.734   0.490   3.176
  921SOL     OW 3661   5.824   5.118   4.364
  921SOL    HW1 3662   5.855   5.151   4.453
  921SOL    HW2 3663   5.773   5.033   4.375
  922SOL     OW 3664   3.200   3.505   6.764
  922SOL    HW1 3665   3.166   3.599   6.762
  922SOL    HW2 3666   3.245   3.487   6.851
  923SOL     OW 3667   3.165   6.634   6.485
  923SOL    HW1 3668   3.249   6.654   6.536
  923SOL    HW2 3669   3.164   6.689   6.401
  924SOL     OW 3670   6.136   3.949   2.435
  924SOL    HW1 3671   6.144   4.046   2.409
  924SOL    HW2 3672   6.100   3.943   2.528
  925SOL     OW 3673   0.115   2.163   5.081
  925SOL    HW1 3674   0.153   2.195   5.167
  925SOL    HW2 3675   0.149   2.219   5.006
  926SOL     OW 3676   5.173   6.172   0.280
  926SOL    HW1 3677   5.099   6.219   0.327
  926SOL    HW2 3678   5.135   6.116   0.206
  927SOL     OW 3679   4.684   4.421   4.290
  927SOL    HW1 3680   4.675   4.334   4.338
  927SOL    HW2 3681   4.638   4.414   4.201
  928SOL     OW 3682   2.078   0.818   1.503
  928SOL    HW1 3683   2.016   0.811   1.425
  928SOL    HW2 3684   2.039   0.770   1.581
  929SOL     OW 3685   0.114   2.740   2.798
  929SOL    HW1 3686   0.026   2.788   2.810
  929SOL    HW2 3687   0.147   2.755   2.705
  930SOL     OW 3688   5.438   4.969   4.193
  930SOL    HW1 3689   5.465   4.983   4.098
  930SOL    HW2 3690   5.519   4.943   4.247
  931SOL     OW 3691   1.292   2.311   2.438
  931SOL    HW1 3692   1.194   2.327   2.436
  931SOL    HW2 3693   1.331   2.353   2.520
  932SOL     OW 3694   4.495   5.981   1.129
  932SOL    HW1 3695   4.447   5.946   1.210
  932SOL    HW2 3696   4.494   5.911   1.057
  933SOL     OW 3697   1.675   5.056   2.692
  933SOL    HW1 3698   1.772   5.056   2.666
  933SOL    HW2 3699   1.633   5.142   2.663
  934SOL     OW 3700   3.397   1.555   5.013
  934SOL    HW1 3701   3.462   1.503   5.070
  934SOL    HW2 3702   3.342   1.491   4.959
  935SOL     OW 3703   3.906   2.959   6.247
  935SOL    HW1 3704   3.879   3.022   6.320
  935SOL    HW2 3705   3.937   3.011   6.168
  936SOL     OW 3706   0.619   0.533   0.661
  936SOL    HW1 3707   0.550   0.503   0.595
  936SOL    HW2 3708   0.607   0.630   0.680
  937SOL     OW 3709   4.289   1.586   4.708
  937SOL    HW1 3710   4.278   1.627   4.617
  937SOL    HW2 3711   4.201   1.553   4.740
  938SOL     OW 3712   0.726   3.010   6.187
  938SOL    HW1 3713   0.653   2.998   6.254
  938SOL    HW2 3714   0.734   2.928   6.130
  939SOL     OW 3715   5.357   1.371   5.793
  939SOL    HW1 3716   5.316   1.293   5.745
  939SOL    HW2 3717   5.384   1.441   5.726
  940SOL     OW 3718   6.867   1.090   3.687
  940SOL    HW1 3719   6.888   1.034   3.767
  940SOL    HW2 3720   6.778   1.134   3.700
  941SOL     OW 3721   5.610   1.658   3.677
  941SOL    HW1 3722   5.574   1.590   3.613
  941SOL    HW2 3723   5.671   1.613   3.743
  942SOL     OW 3724   4.876   6.671   5.436
  942SOL    HW1 3725   4.778   6.664   5.452
  942SOL    HW2 3726   4.917   6.580   5.441
  943SOL     OW 3727   5.877   2.315   1.538
  943SOL    HW1 3728   5.942   2.341   1.467
  943SOL    HW2 3729   5.912   2.235   1.587
  944SOL     OW 3730   5.777   3.774   4.531
  944SOL    HW1 3731   5.862   3.789   4.480
  944SOL    HW2 3732   5.785   3.691   4.587
  945SOL     OW 3733   5.473   4.461   4.036
  945SOL    HW1 3734   5.382   4.483   4.000
  945SOL    HW2 3735   5.528   4.419   3.963
  946SOL     OW 3736   5.973   3.061   5.833
  946SOL    HW1 3737   6.024   3.062   5.920
  946SOL    HW2 3738   5.972   2.968   5.797
  947SOL     OW 3739   3.330   2.578   6.430
  947SOL    HW1 3740   3.373   2.502   6.381
  947SOL    HW2 3741   3.398   2.648   6.449
  948SOL     OW 3742   3.949   1.770   0.940
  948SOL    HW1 3743   4.020   1.824   0.895
  948SOL    HW2 3744   3.945   1.795   1.037
  949SOL     OW 3745   6.228   5.227   6.596
  949SOL    HW1 3746   6.198   5.290   6.524
  949SOL    HW2 3747   6.148   5.186   6.639
  950SOL     OW 3748   4.210   5.597   0.941
  950SOL    HW1 3749   4.140   5.530   0.965
  950SOL    HW2 3750   4.266   5.562   0.866
  951SOL     OW 3751   0.952   0.845   1.612
  951SOL    HW1 3752   0.906   0.759   1.590
  951SOL    HW2 3753   1.045   0.826   1.643
  952SOL     OW 3754   5.396   1.008   2.998
  952SOL    HW1 3755   5.338   0.933   3.027
  952SOL    HW2 3756   5.404   1.009   2.898
  953SOL     OW 3757   4.437   5.854   6.108
  953SOL    HW1 3758   4.395   5.912   6.039
  953SOL    HW2 3759   4.386   5.861   6.194
  954SOL     OW 3760   5.903   0.240   1.326
  954SOL    HW1 3761   5.954   0.253   1.411
  954SOL    HW2 3762   5.864   0.328   1.297
  955SOL     OW 3763   1.105   6.017   3.234
  955SOL    HW1 3764   1.047   6.045   3.310
  955SOL    HW2 3765   1.200   6.040   3.253
  956SOL     OW 3766   1.798   2.184   1.032
  956SOL    HW1 3767   1.867   2.235   0.981
  956SOL    HW2 3768   1.722   2.162   0.972
  957SOL     OW 3769   1.861   4.851   4.898
  957SOL    HW1 3770   1.857   4.889   4.806
  957SOL    HW2 3771   1.857   4.751   4.893
  958SOL     OW 3772   5.467   1.943   1.355
  958SOL    HW1 3773   5.503   2.015   1.414
  958SOL    HW2 3774   5.370   1.931   1.372
  959SOL     OW 3775   3.177   4.866   3.118
  959SOL    HW1 3776   3.105   4.821   3.065
  959SOL    HW2 3777   3.208   4.948   3.070
  960SOL     OW 3778   1.936   5.628   4.387
  960SOL    HW1 3779   1.896   5.691   4.453
  960SOL    HW2 3780   2.028   5.603   4.416
  961SOL     OW 3781   4.306   6.771   1.623
  961SOL    HW1 3782   4.265   6.813   1.541
  961SOL    HW2 3783   4.234   6.749   1.689
  962SOL     OW 3784   1.715   0.948   3.505
  962SOL    HW1 3785   1.662   0.876   3.461
  962SOL    HW2 3786   1.687   0.956   3.601
  963SOL     OW 3787   6.511   0.953   1.619
  963SOL    HW1 3788   6.454   1.026   1.581
  963SOL    HW2 3789   6.460   0.904   1.689
  964SOL     OW 3790   5.317   3.697   1.835
  964SOL    HW1 3791   5.379   3.654   1.769
  964SOL    HW2 3792   5.351   3.788   1.857
  965SOL     OW 3793   0.305   1.571   0.437
  965SOL    HW1 3794   0.358   1.639   0.489
  965SOL    HW2 3795   0.207   1.588   0.451
  966SOL     OW 3796   6.221   1.198   2.763
  966SOL    HW1 3797   6.237   1.109   2.805
  966SOL    HW2 3798   6.230   1.190   2.663
  967SOL     OW 3799   0.699   5.549   0.424
  967SOL    HW1 3800   0.723   5.518   0.515
  967SOL    HW2 3801   0.714   5.475   0.358
  968SOL     OW 3802   4.737   2.739   2.228
  968SOL    HW1 3803   4.677   2.681   2.284
  968SOL    HW2 3804   4.761   2.822   2.279
  969SOL     OW 3805   4.769   6.473   5.959
  969SOL    HW1 3806   4.838   6.511   5.898
  969SOL    HW2 3807   4.784   6.375   5.970
  970SOL     OW 3808   4.375   1.974   5.454
  970SOL    HW1 3809   4.453   1.932   5.408
  970SOL    HW2 3810   4.302   1.907   5.463
  971SOL     OW 3811   6.909   1.430   1.927
  971SOL    HW1 3812   6.842   1.496   1.893
  971SOL    HW2 3813   6.981   1.418   1.858
  972SOL     OW 3814   6.475   5.159   0.596
  972SOL    HW1 3815   6.521   5.089   0.650
  972SOL    HW2 3816   6.517   5.165   0.505
  973SOL     OW 3817   6.530   4.609   6.537
  973SOL    HW1 3818   6.465   4.541   6.572
  973SOL    HW2 3819   6.613   4.608   6.594
  974SOL     OW 3820   3.088   0.439   3.287
  974SOL    HW1 3821   3.100   0.534   3.257
  974SOL    HW2 3822   3.077   0.380   3.207
  975SOL     OW 3823   2.555   6.164   5.622
  975SOL    HW1 3824   2.595   6.073   5.612
  975SOL    HW2 3825   2.592   6.209   5.704
  976SOL     OW 3826   6.641   3.084   3.188
  976SOL    HW1 3827   6.638   2.985   3.200
  976SOL    HW2 3828   6.649   3.105   3.090
  977SOL     OW 3829   1.677   1.045   3.766
  977SOL    HW1 3830   1.708   1.077   3.856
  977SOL    HW2 3831   1.661   0.947   3.768
  978SOL     OW 3832   5.636   4.073   4.054
  978SOL    HW1 3833   5.546   4.098   4.017
  978SOL    HW2 3834   5.625   4.006   4.127
  979SOL     OW 3835   6.289   0.585   3.473
  979SOL    HW1 3836   6.225   0.529   3.419
  979SOL    HW2 3837   6.350   0.635   3.411
  980SOL     OW 3838   5.192   2.376   4.037
  980SOL    HW1 3839   5.262   2.442   4.010
  980SOL    HW2 3840   5.236   2.293   4.071
  981SOL     OW 3841   1.229   1.451   4.316
  981SOL    HW1 3842   1.258   1.465   4.221
  981SOL    HW2 3843   1.298   1.397   4.364
  982SOL     OW 3844   1.197   2.388   1.700
  982SOL    HW1 3845   1.131   2.313   1.693
  982SOL    HW2 3846   1.167   2.464   1.644
  983SOL     OW 3847   6.138   1.865   3.204
  983SOL    HW1 3848   6.081   1.943   3.229
  983SOL    HW2 3849   6.149   1.804   3.283
  984SOL     OW 3850   4.552   1.575   5.393
  984SOL    HW1 3851   4.485   1.606   5.460
  984SOL    HW2 3852   4.549   1.476   5.386
  985SOL     OW 3853   3.129   5.537   0.863
  985SOL    HW1 3854   3.031   5.538   0.841
  985SOL    HW2 3855   3.179   5.489   0.791
  986SOL     OW 3856   4.880   5.299   6.247
  986SOL    HW1 3857   4.880   5.356   6.329
  986SOL    HW2 3858   4.794   5.247   6.242
  987SOL     OW 3859   3.012   6.394   1.565
  987SOL    HW1 3860   3.109   6.390   1.592
  987SOL    HW2 3861   2.993   6.481   1.521
  988SOL     OW 3862   3.929   2.789   0.773
  988SOL    HW1 3863   3.833   2.767   0.753
  988SOL    HW2 3864   3.984   2.779   0.690
  989SOL     OW 3865   0.925   0.357   5.920
  989SOL    HW1 3866   0.949   0.383   5.826
  989SOL    HW2 3867   0.862   0.279   5.918
  990SOL     OW 3868   4.897   0.383   4.127
  990SOL    HW1 3869   4.881   0.441   4.207
  990SOL    HW2 3870   4.846   0.298   4.137
  991SOL     OW 3871   1.086   2.375   4.809
  991SOL    HW1 3872   1.162   2.395   4.748
  991SOL    HW2 3873   1.062   2.278   4.803
  992SOL     OW 3874   0.300   3.054   6.571
  992SOL    HW1 3875   0.209   3.031   6.537
  992SOL    HW2 3876   0.325   2.992   6.646
  993SOL     OW 3877   3.334   4.884   2.652
  993SOL    HW1 3878   3.391   4.896   2.571
  993SOL    HW2 3879   3.245   4.848   2.625
  994SOL     OW 3880   3.853   3.496   2.234
  994SOL    HW1 3881   3.827   3.591   2.216
  994SOL    HW2 3882   3.836   3.440   2.153
  995SOL     OW 3883   1.828   2.919   6.148
  995SOL    HW1 3884   1.819   2.985   6.073
  995SOL    HW2 3885   1.807   2.964   6.235
  996SOL     OW 3886   1.952   3.563   2.887
  996SOL    HW1 3887   1.982   3.637   2.827
  996SOL    HW2 3888   1.995   3.478   2.858
  997SOL     OW 3889   0.407   0.990   1.119
  997SOL    HW1 3890   0.467   1.017   1.194
  997SOL    HW2 3891   0.447   0.912   1.071
  998SOL     OW 3892   4.112   6.846   1.903
  998SOL    HW1 3893   4.196   6.835   1.957
  998SOL    HW2 3894   4.037   6.871   1.964
  999SOL     OW 3895   6.027   5.739   0.659
  999SOL    HW1 3896   5.969   5.765   0.583
  999SOL    HW2 3897   6.081   5.818   0.689
 1000SOL     OW 3898   2.359   2.504   3.490
 1000SOL    HW1 3899   2.348   2.422   3.546
 1000SOL    HW2 3900   2.364   2.478   3.393
 1001SOL     OW 3901   4.628   6.774   6.530
 1001SOL    HW1 3902   4.544   6.755   6.478
 1001SOL    HW2 3903   4.604   6.823   6.614
 1002SOL     OW 3904   5.673   1.768   6.646
 1002SOL    HW1 3905   5.614   1.704   6.596
 1002SOL    HW2 3906   5.632   1.859   6.646
 1003SOL     OW 3907   2.905   6.093   2.564
 1003SOL    HW1 3908   2.898   6.119   2.660
 1003SOL    HW2 3909   2.882   5.996   2.553
 1004SOL     OW 3910   6.803   0.189   6.587
 1004SOL    HW1 3911   6.735   0.116   6.582
 1004SOL    HW2 3912   6.887   0.154   6.629
 1005SOL     OW 3913   0.525   0.243   2.672
 1005SOL    HW1 3914   0.579   0.195   2.742
 1005SOL    HW2 3915   0.471   0.177   2.620
 1006SOL     OW 3916   2.262   5.376   1.657
 1006SOL    HW1 3917   2.304   5.380   1.567
 1006SOL    HW2 3918   2.172   5.333   1.650
 1007SOL     OW 3919   6.586   1.260   3.449
 1007SOL    HW1 3920   6.532   1.215   3.377
 1007SOL    HW2 3921   6.606   1.354   3.422
 1008SOL     OW 3922   0.985   2.462   3.823
 1008SOL    HW1 3923   0.961   2.455   3.920
 1008SOL    HW2 3924   1.045   2.541   3.809
 1009SOL     OW 3925   6.851   5.642   4.326
 1009SOL    HW1 3926   6.861   5.595   4.239
 1009SOL    HW2 3927   6.940   5.653   4.369
 1010SOL     OW 3928   4.301   1.993   0.448
 1010SOL    HW1 3929   4.391   1.952   0.462
 1010SOL    HW2 3930   4.247   1.934   0.388
 1011SOL     OW 3931   2.626   5.557   3.999
 1011SOL    HW1 3932   2.615   5.572   4.097
 1011SOL    HW2 3933   2.723   5.549   3.977
 1012SOL     OW 3934   6.270   5.174   0.251
 1012SOL    HW1 3935   6.225   5.090   0.281
 1012SOL    HW2 3936   6.364   5.155   0.224
 1013SOL     OW 3937   1.284   0.939   6.911
 1013SOL    HW1 3938   1.295   1.033   6.881
 1013SOL    HW2 3939   1.370   0.889   6.902
 1014SOL     OW 3940   4.430   5.591   6.011
 1014SOL    HW1 3941   4.377   5.581   5.927
 1014SOL    HW2 3942   4.435   5.688   6.036
 1015SOL     OW 3943   3.633   6.392   5.152
 1015SOL    HW1 3944   3.582   6.377   5.068
 1015SOL    HW2 3945   3.704   6.461   5.136
 1016SOL     OW 3946   3.574   2.541   1.169
 1016SOL    HW1 3947   3.503   2.569   1.104
 1016SOL    HW2 3948   3.583   2.609   1.241
 1017SOL     OW 3949   4.842   2.438   0.681
 1017SOL    HW1 3950   4.820   2.484   0.595
 1017SOL    HW2 3951   4.839   2.504   0.756
 1018SOL     OW 3952   1.626   3.041   3.490
 1018SOL    HW1 3953   1.613   2.950   3.451
 1018SOL    HW2 3954   1.667   3.033   3.581
 1019SOL     OW 3955   0.262   1.507   7.005
 1019SOL    HW1 3956   0.306   1.436   0.034
 1019SOL    HW2 3957   0.262   1.480   6.909
 1020SOL     OW 3958   2.336   0.393   0.999
 1020SOL    HW1 3959   2.239   0.381   1.022
 1020SOL    HW2 3960   2.363   0.324   0.933
 1021SOL     OW 3961   6.723   1.127   1.955
 1021SOL    HW1 3962   6.764   1.076   1.881
 1021SOL    HW2 3963   6.668   1.202   1.918
 1022SOL     OW 3964   4.195   3.402   6.262
 1022SOL    HW1 3965   4.227   3.381   6.169
 1022SOL    HW2 3966   4.101   3.434   6.258
 1023SOL     OW 3967   5.776   0.366   2.505
 1023SOL    HW1 3968   5.712   0.327   2.440
 1023SOL    HW2 3969   5.781   0.465   2.493
 1024SOL     OW 3970   6.319   1.856   4.360
 1024SOL    HW1 3971   6.403   1.910   4.361
 1024SOL    HW2 3972   6.341   1.759   4.352
 1025SOL     OW 3973   3.215   4.573   0.723
 1025SOL    HW1 3974   3.164   4.655   0.749
 1025SOL    HW2 3975   3.151   4.499   0.703
 1026SOL     OW 3976   1.875   1.930   0.519
 1026SOL    HW1 3977   1.909   1.853   0.573
 1026SOL    HW2 3978   1.922   1.932   0.431
 1027SOL     OW 3979   2.918   5.045   1.754
 1027SOL    HW1 3980   2.860   5.090   1.686
 1027SOL    HW2 3981   2.882   4.953   1.773
 1028SOL     OW 3982   1.956   5.887   6.954
 1028SOL    HW1 3983   1.897   5.813   6.920
 1028SOL    HW2 3984   2.050   5.872   6.923
 1029SOL     OW 3985   1.670   0.416   0.219
 1029SOL    HW1 3986   1.608   0.491   0.197
 1029SOL    HW2 3987   1.636   0.366   0.298
 1030SOL     OW 3988   3.600   3.456   4.841
 1030SOL    HW1 3989   3.662   3.519   4.794
 1030SOL    HW2 3990   3.625   3.362   4.821
 1031SOL     OW 3991   3.425   5.067   1.370
 1031SOL    HW1 3992   3.481   5.007   1.314
 1031SOL    HW2 3993   3.403   5.150   1.318
 1032SOL     OW 3994   1.826   1.609   5.333
 1032SOL    HW1 3995   1.818   1.521   5.286
 1032SOL    HW2 3996   1.917   1.617   5.374
 1033SOL     OW 3997   1.978   5.541   1.820
 1033SOL    HW1 3998   1.937   5.560   1.909
 1033SOL    HW2 3999   1.978   5.625   1.764
 1034SOL     OW 4000   2.230   5.844   4.024
 1034SOL    HW1 4001   2.309   5.904   4.016
 1034SOL    HW2 4002   2.246   5.776   4.096
 1035SOL     OW 4003   2.862   1.648   4.768
 1035SOL    HW1 4004   2.911   1.700   4.698
 1035SOL    HW2 4005   2.822   1.566   4.726
 1036SOL     OW 4006   4.529   1.998   1.260
 1036SOL    HW1 4007   4.608   2.043   1.219
 1036SOL    HW2 4008   4.499   2.050   1.340
 1037SOL     OW 4009   1.151   0.973   0.906
 1037SOL    HW1 4010   1.199   0.975   0.818
 1037SOL    HW2 4011   1.080   1.044   0.908
 1038SOL     OW 4012   1.131   1.134   5.430
 1038SOL    HW1 4013   1.183   1.163   5.350
 1038SOL    HW2 4014   1.194   1.124   5.508
 1039SOL     OW 4015   3.686   1.442   4.593
 1039SOL    HW1 4016   3.677   1.398   4.503
 1039SOL    HW2 4017   3.751   1.518   4.586
 1040SOL     OW 4018   6.102   3.272   2.782
 1040SOL    HW1 4019   6.022   3.245   2.835
 1040SOL    HW2 4020   6.076   3.290   2.687
 1041SOL     OW 4021   6.809   0.406   4.078
 1041SOL    HW1 4022   6.877   0.434   4.011
 1041SOL    HW2 4023   6.768   0.488   4.119
 1042SOL     OW 4024   4.719   5.178   1.302
 1042SOL    HW1 4025   4.807   5.204   1.262
 1042SOL    HW2 4026   4.731   5.098   1.360
 1043SOL     OW 4027   3.727   1.599   6.552
 1043SOL    HW1 4028   3.639   1.558   6.527
 1043SOL    HW2 4029   3.723   1.631   6.646
 1044SOL     OW 4030   3.770   2.507   1.427
 1044SOL    HW1 4031   3.685   2.558   1.441
 1044SOL    HW2 4032   3.775   2.434   1.495
 1045SOL     OW 4033   3.217   1.128   2.387
 1045SOL    HW1 4034   3.281   1.071   2.336
 1045SOL    HW2 4035   3.256   1.220   2.398
 1046SOL     OW 4036   3.116   0.111   0.145
 1046SOL    HW1 4037   3.102   0.069   0.234
 1046SOL    HW2 4038   3.184   0.183   0.153
 1047SOL     OW 4039   1.455   5.227   3.084
 1047SOL    HW1 4040   1.503   5.308   3.053
 1047SOL    HW2 4041   1.520   5.165   3.129
 1048SOL     OW 4042   5.287   5.236   4.892
 1048SOL    HW1 4043   5.211   5.298   4.874
 1048SOL    HW2 4044   5.251   5.149   4.926
 1049SOL     OW 4045   6.894   4.090   5.109
 1049SOL    HW1 4046   6.796   4.106   5.102
 1049SOL    HW2 4047   6.929   4.058   5.020
 1050SOL     OW 4048   3.744   7.006   6.646
 1050SOL    HW1 4049   3.756   0.070   6.688
 1050SOL    HW2 4050   3.818   6.988   6.582
 1051SOL     OW 4051   4.015   5.058   0.497
 1051SOL    HW1 4052   4.080   5.070   0.422
 1051SOL    HW2 4053   4.014   4.961   0.525
 1052SOL     OW 4054   4.176   0.051   4.678
 1052SOL    HW1 4055   4.137   0.022   4.590
 1052SOL    HW2 4056   4.103   0.073   4.742
 1053SOL     OW 4057   4.940   5.334   3.812
 1053SOL    HW1 4058   4.866   5.342   3.745
 1053SOL    HW2 4059   4.902   5.314   3.902
 1054SOL     OW 4060   3.028   5.157   5.459
 1054SOL    HW1 4061   3.090   5.218   5.409
 1054SOL    HW2 4062   3.055   5.154   5.555
 1055SOL     OW 4063   5.052   5.295   4.703
 1055SOL    HW1 4064   5.094   5.253   4.623
 1055SOL    HW2 4065   5.006   5.224   4.757
 1056SOL     OW 4066   1.774   5.992   4.991
 1056SOL    HW1 4067   1.707   5.993   5.065
 1056SOL    HW2 4068   1.753   5.919   4.927
 1057SOL     OW 4069   2.987   3.242   2.941
 1057SOL    HW1 4070   2.923   3.313   2.972
 1057SOL    HW2 4071   3.048   3.218   3.017
 1058SOL     OW 4072   3.967   1.618   2.324
 1058SOL    HW1 4073   3.891   1.633   2.387
 1058SOL    HW2 4074   4.034   1.691   2.335
 1059SOL     OW 4075   4.486   1.221   2.026
 1059SOL    HW1 4076   4.393   1.249   2.003
 1059SOL    HW2 4077   4.518   1.155   1.958
 1060SOL     OW 4078   0.811   3.647   5.421
 1060SOL    HW1 4079   0.890   3.641   5.360
 1060SOL    HW2 4080   0.782   3.555   5.446
 1061SOL     OW 4081   3.162   5.217   1.735
 1061SOL    HW1 4082   3.076   5.169   1.755
 1061SOL    HW2 4083   3.177   5.217   1.636
 1062SOL     OW 4084   6.668   5.609   5.426
 1062SOL    HW1 4085   6.723   5.553   5.488
 1062SOL    HW2 4086   6.728   5.648   5.355
 1063SOL     OW 4087   1.525   3.369   1.601
 1063SOL    HW1 4088   1.614   3.359   1.556
 1063SOL    HW2 4089   1.462   3.414   1.539
 1064SOL     OW 4090   1.395   3.388   2.248
 1064SOL    HW1 4091   1.347   3.457   2.301
 1064SOL    HW2 4092   1.483   3.425   2.217
 1065SOL     OW 4093   5.483   0.220   4.095
 1065SOL    HW1 4094   5.392   0.257   4.108
 1065SOL    HW2 4095   5.490   0.131   4.141
 1066SOL     OW 4096   4.787   0.584   4.316
 1066SOL    HW1 4097   4.884   0.606   4.329
 1066SOL    HW2 4098   4.740   0.664   4.278
 1067SOL     OW 4099   1.807   2.453   1.576
 1067SOL    HW1 4100   1.746   2.524   1.539
 1067SOL    HW2 4101   1.758   2.367   1.584
 1068SOL     OW 4102   0.384   3.837   2.182
 1068SOL    HW1 4103   0.424   3.807   2.095
 1068SOL    HW2 4104   0.451   3.823   2.255
 1069SOL     OW 4105   3.975   4.501   0.789
 1069SOL    HW1 4106   4.065   4.506   0.745
 1069SOL    HW2 4107   3.970   4.419   0.846
 1070SOL     OW 4108   1.959   0.652   0.128
 1070SOL    HW1 4109   1.895   0.659   0.205
 1070SOL    HW2 4110   1.987   0.557   0.117
 1071SOL     OW 4111   4.389   6.418   2.838
 1071SOL    HW1 4112   4.437   6.504   2.819
 1071SOL    HW2 4113   4.361   6.376   2.752
 1072SOL     OW 4114   3.096   6.448   2.924
 1072SOL    HW1 4115   3.142   6.391   2.856
 1072SOL    HW2 4116   3.001   6.465   2.895
 1073SOL     OW 4117   3.063   4.810   2.466
 1073SOL    HW1 4118   2.971   4.794   2.431
 1073SOL    HW2 4119   3.109   4.723   2.482
 1074SOL     OW 4120   1.344   5.068   1.549
 1074SOL    HW1 4121   1.424   5.018   1.515
 1074SOL    HW2 4122   1.364   5.105   1.640
 1075SOL     OW 4123   5.681   4.484   3.404
 1075SOL    HW1 4124   5.769   4.440   3.420
 1075SOL    HW2 4125   5.684   4.578   3.437
 1076SOL     OW 4126   0.671   4.386   4.562
 1076SOL    HW1 4127   0.635   4.372   4.654
 1076SOL    HW2 4128   0.749   4.325   4.548
 1077SOL     OW 4129   5.394   0.329   1.185
 1077SOL    HW1 4130   5.379   0.231   1.192
 1077SOL    HW2 4131   5.354   0.375   1.264
 1078SOL     OW 4132   1.387   1.835   1.328
 1078SOL    HW1 4133   1.377   1.905   1.399
 1078SOL    HW2 4134   1.437   1.757   1.366
 1079SOL     OW 4135   2.384   5.835   3.548
 1079SOL    HW1 4136   2.308   5.897   3.567
 1079SOL    HW2 4137   2.426   5.807   3.635
 1080SOL     OW 4138   2.216   5.588   3.509
 1080SOL    HW1 4139   2.284   5.661   3.501
 1080SOL    HW2 4140   2.226   5.542   3.597
 1081SOL     OW 4141   1.563   0.821   6.202
 1081SOL    HW1 4142   1.528   0.802   6.111
 1081SOL    HW2 4143   1.520   0.903   6.239
 1082SOL     OW 4144   1.126   0.269   5.412
 1082SOL    HW1 4145   1.159   0.356   5.377
 1082SOL    HW2 4146   1.130   0.200   5.340
 1083SOL     OW 4147   3.710   3.226   2.012
 1083SOL    HW1 4148   3.690   3.147   2.070
 1083SOL    HW2 4149   3.795   3.209   1.961
 1084SOL     OW 4150   6.200   4.718   1.311
 1084SOL    HW1 4151   6.225   4.638   1.257
 1084SOL    HW2 4152   6.281   4.775   1.324
 1085SOL     OW 4153   1.881   5.110   3.935
 1085SOL    HW1 4154   1.788   5.144   3.918
 1085SOL    HW2 4155   1.913   5.143   4.024
 1086SOL     OW 4156   5.222   6.042   3.134
 1086SOL    HW1 4157   5.259   5.967   3.079
 1086SOL    HW2 4158   5.294   6.111   3.149
 1087SOL     OW 4159   4.910   2.838   5.283
 1087SOL    HW1 4160   4.889   2.760   5.342
 1087SOL    HW2 4161   4.975   2.898   5.329
 1088SOL     OW 4162   5.542   4.957   3.422
 1088SOL    HW1 4163   5.556   5.056   3.429
 1088SOL    HW2 4164   5.457   4.938   3.374
 1089SOL     OW 4165   0.138   0.325   4.911
 1089SOL    HW1 4166   0.153   0.308   5.008
 1089SOL    HW2 4167   0.079   0.405   4.900
 1090SOL     OW 4168   1.696   1.439   6.015
 1090SOL    HW1 4169   1.770   1.372   6.002
 1090SOL    HW2 4170   1.731   1.531   5.996
 1091SOL     OW 4171   1.280   1.811   4.585
 1091SOL    HW1 4172   1.346   1.749   4.627
 1091SOL    HW2 4173   1.313   1.841   4.496
 1092SOL     OW 4174   2.340   4.307   1.368
 1092SOL    HW1 4175   2.279   4.232   1.341
 1092SOL    HW2 4176   2.432   4.270   1.386
 1093SOL     OW 4177   1.062   2.687   2.446
 1093SOL    HW1 4178   1.072   2.601   2.496
 1093SOL    HW2 4179   1.129   2.753   2.479
 1094SOL     OW 4180   0.391   6.609   1.361
 1094SOL    HW1 4181   0.309   6.652   1.398
 1094SOL    HW2 4182   0.468   6.672   1.368
 1095SOL     OW 4183   6.129   3.306   6.553
 1095SOL    HW1 4184   6.100   3.260   6.469
 1095SOL    HW2 4185   6.119   3.405   6.543
 1096SOL     OW 4186   3.204   4.682   1.536
 1096SOL    HW1 4187   3.167   4.692   1.628
 1096SOL    HW2 4188   3.289   4.630   1.540
 1097SOL     OW 4189   1.323   4.808   5.002
 1097SOL    HW1 4190   1.273   4.787   5.086
 1097SOL    HW2 4191   1.312   4.733   4.937
 1098SOL     OW 4192   4.664   2.328   1.825
 1098SOL    HW1 4193   4.674   2.326   1.726
 1098SOL    HW2 4194   4.645   2.235   1.858
 1099SOL     OW 4195   4.318   2.104   4.010
 1099SOL    HW1 4196   4.325   2.076   4.106
 1099SOL    HW2 4197   4.410   2.108   3.970
 1100SOL     OW 4198   1.658   1.020   6.500
 1100SOL    HW1 4199   1.710   0.949   6.451
 1100SOL    HW2 4200   1.560   1.002   6.489
 1101SOL     OW 4201   5.070   3.322   1.179
 1101SOL    HW1 4202   5.122   3.375   1.113
 1101SOL    HW2 4203   4.976   3.356   1.183
 1102SOL     OW 4204   0.435   4.088   4.252
 1102SOL    HW1 4205   0.361   4.129   4.198
 1102SOL    HW2 4206   0.513   4.070   4.192
 1103SOL     OW 4207   1.534   1.793   1.702
 1103SOL    HW1 4208   1.555   1.762   1.609
 1103SOL    HW2 4209   1.610   1.849   1.736
 1104SOL     OW 4210   2.964   4.952   6.157
 1104SOL    HW1 4211   3.043   4.937   6.216
 1104SOL    HW2 4212   2.943   4.867   6.108
 1105SOL     OW 4213   4.742   4.172   6.928
 1105SOL    HW1 4214   4.816   4.135   6.985
 1105SOL    HW2 4215   4.686   4.234   6.983
 1106SOL     OW 4216   6.819   2.595   5.595
 1106SOL    HW1 4217   6.767   2.534   5.655
 1106SOL    HW2 4218   6.917   2.582   5.611
 1107SOL     OW 4219   0.832   0.381   0.544
 1107SOL    HW1 4220   0.781   0.303   0.508
 1107SOL    HW2 4221   0.770   0.438   0.599
 1108SOL     OW 4222   1.908   0.712   6.246
 1108SOL    HW1 4223   1.902   0.653   6.166
 1108SOL    HW2 4224   1.821   0.711   6.295
 1109SOL     OW 4225   4.109   6.388   4.020
 1109SOL    HW1 4226   4.104   6.291   4.043
 1109SOL    HW2 4227   4.067   6.403   3.930
 1110SOL     OW 4228   2.718   2.827   1.667
 1110SOL    HW1 4229   2.768   2.773   1.735
 1110SOL    HW2 4230   2.620   2.823   1.687
 1111SOL     OW 4231   5.759   0.882   6.912
 1111SOL    HW1 4232   5.708   0.856   6.831
 1111SOL    HW2 4233   5.740   0.817   6.986
 1112SOL     OW 4234   6.330   0.311   2.408
 1112SOL    HW1 4235   6.371   0.221   2.418
 1112SOL    HW2 4236   6.355   0.368   2.487
 1113SOL     OW 4237   6.531   3.381   2.810
 1113SOL    HW1 4238   6.510   3.466   2.859
 1113SOL    HW2 4239   6.474   3.374   2.728
 1114SOL     OW 4240   4.595   0.345   6.189
 1114SOL    HW1 4241   4.656   0.306   6.120
 1114SOL    HW2 4242   4.596   0.444   6.183
 1115SOL     OW 4243   3.577   3.156   1.058
 1115SOL    HW1 4244   3.540   3.075   1.011
 1115SOL    HW2 4245   3.513   3.186   1.129
 1116SOL     OW 4246   4.652   5.589   4.369
 1116SOL    HW1 4247   4.589   5.667   4.373
 1116SOL    HW2 4248   4.734   5.616   4.318
 1117SOL     OW 4249   2.448   2.579   1.496
 1117SOL    HW1 4250   2.462   2.486   1.530
 1117SOL    HW2 4251   2.523   2.604   1.435
 1118SOL     OW 4252   2.312   4.971   3.228
 1118SOL    HW1 4253   2.392   4.944   3.173
 1118SOL    HW2 4254   2.336   4.968   3.325
 1119SOL     OW 4255   4.205   4.159   1.704
 1119SOL    HW1 4256   4.243   4.166   1.612
 1119SOL    HW2 4257   4.272   4.192   1.771
 1120SOL     OW 4258   5.290   0.075   6.065
 1120SOL    HW1 4259   5.230   0.088   5.986
 1120SOL    HW2 4260   5.259   0.131   6.141
 1121SOL     OW 4261   5.016   2.987   1.923
 1121SOL    HW1 4262   4.938   3.010   1.981
 1121SOL    HW2 4263   4.990   2.996   1.827
 1122SOL     OW 4264   5.762   3.131   6.813
 1122SOL    HW1 4265   5.748   3.155   6.717
 1122SOL    HW2 4266   5.696   3.181   6.870
 1123SOL     OW 4267   4.776   0.950   1.862
 1123SOL    HW1 4268   4.719   0.965   1.781
 1123SOL    HW2 4269   4.859   1.006   1.855
 1124SOL     OW 4270   6.540   3.468   5.188
 1124SOL    HW1 4271   6.613   3.433   5.129
 1124SOL    HW2 4272   6.529   3.566   5.174
 1125SOL     OW 4273   2.967   2.760   5.368
 1125SOL    HW1 4274   2.923   2.847   5.351
 1125SOL    HW2 4275   2.961   2.737   5.466
 1126SOL     OW 4276   4.907   0.018   0.700
 1126SOL    HW1 4277   4.898   0.082   0.777
 1126SOL    HW2 4278   4.997   0.029   0.658
 1127SOL     OW 4279   2.756   4.892   0.630
 1127SOL    HW1 4280   2.779   4.931   0.719
 1127SOL    HW2 4281   2.779   4.794   0.630
 1128SOL     OW 4282   3.396   2.051   3.743
 1128SOL    HW1 4283   3.374   2.081   3.650
 1128SOL    HW2 4284   3.466   1.980   3.739
 1129SOL     OW 4285   4.631   0.610   6.852
 1129SOL    HW1 4286   4.645   0.666   6.770
 1129SOL    HW2 4287   4.713   0.612   6.909
 1130SOL     OW 4288   1.398   3.868   0.824
 1130SOL    HW1 4289   1.460   3.794   0.850
 1130SOL    HW2 4290   1.340   3.837   0.749
 1131SOL     OW 4291   0.631   6.186   5.424
 1131SOL    HW1 4292   0.715   6.168   5.476
 1131SOL    HW2 4293   0.554   6.191   5.487
 1132SOL     OW 4294   5.218   0.194   5.539
 1132SOL    HW1 4295   5.129   0.213   5.498
 1132SOL    HW2 4296   5.241   0.267   5.604
 1133SOL     OW 4297   0.998   2.921   1.500
 1133SOL    HW1 4298   1.091   2.952   1.519
 1133SOL    HW2 4299   0.966   2.959   1.413
 1134SOL     OW 4300   5.736   2.609   6.888
 1134SOL    HW1 4301   5.653   2.663   6.903
 1134SOL    HW2 4302   5.812   2.650   6.938
 1135SOL     OW 4303   3.098   2.224   3.600
 1135SOL    HW1 4304   3.065   2.240   3.693
 1135SOL    HW2 4305   3.033   2.167   3.550
 1136SOL     OW 4306   2.601   5.686   3.504
 1136SOL    HW1 4307   2.582   5.604   3.450
 1136SOL    HW2 4308   2.530   5.754   3.486
 1137SOL     OW 4309   1.420   2.162   6.732
 1137SOL    HW1 4310   1.381   2.084   6.684
 1137SOL    HW2 4311   1.436   2.236   6.667
 1138SOL     OW 4312   2.268   3.393   6.309
 1138SOL    HW1 4313   2.240   3.488   6.325
 1138SOL    HW2 4314   2.343   3.370   6.371
 1139SOL     OW 4315   1.369   6.876   2.721
 1139SOL    HW1 4316   1.413   6.787   2.722
 1139SOL    HW2 4317   1.427   6.942   2.673
 1140SOL     OW 4318   3.167   1.496   3.323
 1140SOL    HW1 4319   3.190   1.544   3.408
 1140SOL    HW2 4320   3.175   1.560   3.246
 1141SOL     OW 4321   5.551   5.633   5.135
 1141SOL    HW1 4322   5.613   5.617   5.059
 1141SOL    HW2 4323   5.472   5.571   5.128
 1142SOL     OW 4324   5.485   0.506   4.353
 1142SOL    HW1 4325   5.549   0.496   4.277
 1142SOL    HW2 4326   5.533   0.541   4.434
 1143SOL     OW 4327   3.828   2.126   3.330
 1143SOL    HW1 4328   3.919   2.148   3.296
 1143SOL    HW2 4329   3.832   2.106   3.428
 1144SOL     OW 4330   0.858   4.305   4.129
 1144SOL    HW1 4331   0.789   4.372   4.157
 1144SOL    HW2 4332   0.943   4.353   4.104
 1145SOL     OW 4333   7.003   5.389   4.414
 1145SOL    HW1 4334   7.024   5.471   4.361
 1145SOL    HW2 4335   7.018   5.308   4.358
 1146SOL     OW 4336   6.009   2.148   0.850
 1146SOL    HW1 4337   6.064   2.133   0.932
 1146SOL    HW2 4338   6.003   2.062   0.798
 1147SOL     OW 4339   0.227   4.037   2.279
 1147SOL    HW1 4340   0.298   4.047   2.348
 1147SOL    HW2 4341   0.246   3.958   2.222
 1148SOL     OW 4342   3.738   6.188   6.335
 1148SOL    HW1 4343   3.689   6.266   6.375
 1148SOL    HW2 4344   3.672   6.126   6.293
 1149SOL     OW 4345   6.398   3.563   2.989
 1149SOL    HW1 4346   6.311   3.515   2.981
 1149SOL    HW2 4347   6.382   3.655   3.026
 1150SOL     OW 4348   2.056   5.175   0.849
 1150SOL    HW1 4349   2.104   5.087   0.843
 1150SOL    HW2 4350   2.101   5.242   0.789
 1151SOL     OW 4351   5.960   4.987   6.397
 1151SOL    HW1 4352   5.887   4.925   6.371
 1151SOL    HW2 4353   6.048   4.948   6.370
 1152SOL     OW 4354   1.198   0.171   4.696
 1152SOL    HW1 4355   1.280   0.210   4.656
 1152SOL    HW2 4356   1.165   0.232   4.769
 1153SOL     OW 4357   2.275   5.717   2.941
 1153SOL    HW1 4358   2.232   5.788   2.997
 1153SOL    HW2 4359   2.367   5.700   2.974
 1154SOL     OW 4360   0.830   3.678   1.916
 1154SOL    HW1 4361   0.897   3.723   1.857
 1154SOL    HW2 4362   0.842   3.711   2.010
 1155SOL     OW 4363   3.205   6.032   1.376
 1155SOL    HW1 4364   3.246   6.073   1.458
 1155SOL    HW2 4365   3.238   6.080   1.295
 1156SOL     OW 4366   2.697   0.716   4.140
 1156SOL    HW1 4367   2.767   0.655   4.103
 1156SOL    HW2 4368   2.632   0.664   4.196
 1157SOL     OW 4369   0.205   2.328   4.246
 1157SOL    HW1 4370   0.204   2.408   4.187
 1157SOL    HW2 4371   0.158   2.252   4.201
 1158SOL     OW 4372   5.622   4.693   5.900
 1158SOL    HW1 4373   5.703   4.717   5.847
 1158SOL    HW2 4374   5.555   4.649   5.840
 1159SOL     OW 4375   3.552   5.729   2.648
 1159SOL    HW1 4376   3.534   5.633   2.627
 1159SOL    HW2 4377   3.598   5.736   2.736
 1160SOL     OW 4378   4.166   3.461   2.582
 1160SOL    HW1 4379   4.196   3.533   2.644
 1160SOL    HW2 4380   4.132   3.383   2.635
 1161SOL     OW 4381   5.590   0.288   3.538
 1161SOL    HW1 4382   5.681   0.330   3.533
 1161SOL    HW2 4383   5.573   0.258   3.632
 1162SOL     OW 4384   3.259   3.780   1.793
 1162SOL    HW1 4385   3.332   3.755   1.856
 1162SOL    HW2 4386   3.211   3.697   1.764
 1163SOL     OW 4387   4.816   2.544   1.965
 1163SOL    HW1 4388   4.773   2.488   1.894
 1163SOL    HW2 4389   4.769   2.632   1.972
 1164SOL     OW 4390   5.564   2.572   3.145
 1164SOL    HW1 4391   5.539   2.628   3.223
 1164SOL    HW2 4392   5.564   2.475   3.171
 1165SOL     OW 4393   0.953   3.284   3.449
 1165SOL    HW1 4394   1.021   3.215   3.474
 1165SOL    HW2 4395   0.998   3.373   3.438
 1166SOL     OW 4396   4.149   2.340   6.458
 1166SOL    HW1 4397   4.233   2.301   6.495
 1166SOL    HW2 4398   4.091   2.267   6.423
 1167SOL     OW 4399   4.429   0.659   5.236
 1167SOL    HW1 4400   4.413   0.758   5.243
 1167SOL    HW2 4401   4.386   0.624   5.153
 1168SOL     OW 4402   6.994   6.450   3.531
 1168SOL    HW1 4403   6.950   6.367   3.565
 1168SOL    HW2 4404   6.970   6.527   3.589
 1169SOL     OW 4405   0.887   3.603   1.535
 1169SOL    HW1 4406   0.932   3.669   1.475
 1169SOL    HW2 4407   0.955   3.561   1.595
 1170SOL     OW 4408   3.614   1.340   2.625
 1170SOL    HW1 4409   3.598   1.265   2.561
 1170SOL    HW2 4410   3.528   1.386   2.646
 1171SOL     OW 4411   3.001   5.598   1.368
 1171SOL    HW1 4412   2.948   5.526   1.413
 1171SOL    HW2 4413   3.047   5.654   1.438
 1172SOL     OW 4414   3.229   3.632   4.314
 1172SOL    HW1 4415   3.132   3.619   4.336
 1172SOL    HW2 4416   3.265   3.709   4.366
 1173SOL     OW 4417   3.147   0.746   5.722
 1173SOL    HW1 4418   3.110   0.814   5.785
 1173SOL    HW2 4419   3.183   0.669   5.774
 1174SOL     OW 4420   2.713   6.028   0.719
 1174SOL    HW1 4421   2.676   6.008   0.628
 1174SOL    HW2 4422   2.641   6.020   0.787
 1175SOL     OW 4423   6.354   4.766   6.120
 1175SOL    HW1 4424   6.368   4.827   6.042
 1175SOL    HW2 4425   6.366   4.671   6.091
 1176SOL     OW 4426   5.963   4.716   1.157
 1176SOL    HW1 4427   5.888   4.651   1.165
 1176SOL    HW2 4428   6.031   4.698   1.228
 1177SOL     OW 4429   6.961   2.932   6.028
 1177SOL    HW1 4430   7.000   2.971   6.111
 1177SOL    HW2 4431   6.947   3.005   5.961
 1178SOL     OW 4432   5.540   3.438   2.425
 1178SOL    HW1 4433   5.601   3.518   2.427
 1178SOL    HW2 4434   5.554   3.388   2.340
 1179SOL     OW 4435   1.689   4.440   0.260
 1179SOL    HW1 4436   1.733   4.528   0.274
 1179SOL    HW2 4437   1.751   4.367   0.290
 1180SOL     OW 4438   2.164   1.772   3.797
 1180SOL    HW1 4439   2.091   1.775   3.865
 1180SOL    HW2 4440   2.222   1.693   3.814
 1181SOL     OW 4441   1.372   4.370   3.886
 1181SOL    HW1 4442   1.326   4.284   3.864
 1181SOL    HW2 4443   1.319   4.446   3.848
 1182SOL     OW 4444   1.759   4.477   3.956
 1182SOL    HW1 4445   1.782   4.513   3.865
 1182SOL    HW2 4446   1.697   4.540   4.002
 1183SOL     OW 4447   4.319   5.944   1.699
 1183SOL    HW1 4448   4.268   6.028   1.715
 1183SOL    HW2 4449   4.398   5.963   1.640
 1184SOL     OW 4450   3.163   2.984   5.318
 1184SOL    HW1 4451   3.196   2.985   5.413
 1184SOL    HW2 4452   3.116   2.898   5.299
 1185SOL     OW 4453   2.026   0.133   0.319
 1185SOL    HW1 4454   2.112   0.119   0.269
 1185SOL    HW2 4455   1.967   0.194   0.267
 1186SOL     OW 4456   5.902   0.669   4.803
 1186SOL    HW1 4457   5.861   0.646   4.714
 1186SOL    HW2 4458   5.986   0.617   4.815
 1187SOL     OW 4459   6.036   6.668   4.809
 1187SOL    HW1 4460   6.023   6.625   4.719
 1187SOL    HW2 4461   5.974   6.745   4.818
 1188SOL     OW 4462   1.737   6.610   5.915
 1188SOL    HW1 4463   1.837   6.610   5.911
 1188SOL    HW2 4464   1.708   6.596   6.010
 1189SOL     OW 4465   5.888   1.257   1.427
 1189SOL    HW1 4466   5.850   1.166   1.444
 1189SOL    HW2 4467   5.904   1.303   1.514
 1190SOL     OW 4468   4.305   5.446   3.326
 1190SOL    HW1 4469   4.356   5.360   3.316
 1190SOL    HW2 4470   4.211   5.426   3.354
 1191SOL     OW 4471   3.193   5.556   5.695
 1191SOL    HW1 4472   3.203   5.596   5.604
 1191SOL    HW2 4473   3.113   5.596   5.740
 1192SOL     OW 4474   6.087   4.770   2.802
 1192SOL    HW1 4475   6.186   4.755   2.799
 1192SOL    HW2 4476   6.040   4.682   2.793
 1193SOL     OW 4477   4.990   0.312   4.529
 1193SOL    HW1 4478   5.077   0.360   4.516
 1193SOL    HW2 4479   4.920   0.353   4.470
 1194SOL     OW 4480   6.613   0.899   0.894
 1194SOL    HW1 4481   6.624   0.809   0.937
 1194SOL    HW2 4482   6.529   0.942   0.928
 1195SOL     OW 4483   5.346   0.741   6.125
 1195SOL    HW1 4484   5.446   0.736   6.118
 1195SOL    HW2 4485   5.313   0.669   6.185
 1196SOL     OW 4486   0.224   5.207   2.614
 1196SOL    HW1 4487   0.314   5.239   2.584
 1196SOL    HW2 4488   0.202   5.121   2.568
 1197SOL     OW 4489   3.867   5.756   5.734
 1197SOL    HW1 4490   3.805   5.778   5.659
 1197SOL    HW2 4491   3.951   5.810   5.726
 1198SOL     OW 4492   3.445   2.004   2.961
 1198SOL    HW1 4493   3.504   2.051   3.027
 1198SOL    HW2 4494   3.354   2.044   2.963
 1199SOL     OW 4495   3.045   3.968   1.858
 1199SOL    HW1 4496   3.063   3.971   1.957
 1199SOL    HW2 4497   3.110   3.905   1.815
 1200SOL     OW 4498   3.910   4.111   6.387
 1200SOL    HW1 4499   3.981   4.099   6.318
 1200SOL    HW2 4500   3.830   4.155   6.345
 1201SOL     OW 4501   1.012   1.810   4.521
 1201SOL    HW1 4502   0.989   1.812   4.423
 1201SOL    HW2 4503   1.109   1.789   4.532
 1202SOL     OW 4504   5.138   0.467   4.866
 1202SOL    HW1 4505   5.226   0.514   4.862
 1202SOL    HW2 4506   5.064   0.533   4.851
 1203SOL     OW 4507   5.430   0.524   0.970
 1203SOL    HW1 4508   5.417   0.469   1.053
 1203SOL    HW2 4509   5.362   0.498   0.902
 1204SOL     OW 4510   3.567   0.936   0.475
 1204SOL    HW1 4511   3.586   0.839   0.461
 1204SOL    HW2 4512   3.472   0.949   0.500
 1205SOL     OW 4513   6.175   2.454   5.798
 1205SOL    HW1 4514   6.090   2.466   5.849
 1205SOL    HW2 4515   6.244   2.517   5.832
 1206SOL     OW 4516   1.796   1.664   4.851
 1206SOL    HW1 4517   1.894   1.674   4.838
 1206SOL    HW2 4518   1.772   1.568   4.857
 1207SOL     OW 4519   5.508   0.135   0.067
 1207SOL    HW1 4520   5.601   0.146   0.032
 1207SOL    HW2 4521   5.464   0.225   0.072
 1208SOL     OW 4522   3.699   4.096   2.666
 1208SOL    HW1 4523   3.767   4.074   2.596
 1208SOL    HW2 4524   3.728   4.056   2.753
 1209SOL     OW 4525   5.909   5.462   4.793
 1209SOL    HW1 4526   5.901   5.471   4.694
 1209SOL    HW2 4527   6.006   5.464   4.819
 1210SOL     OW 4528   4.466   0.345   2.696
 1210SOL    HW1 4529   4.480   0.294   2.782
 1210SOL    HW2 4530   4.384   0.400   2.704
 1211SOL     OW 4531   1.443   3.749   3.683
 1211SOL    HW1 4532   1.378   3.776   3.611
 1211SOL    HW2 4533   1.419   3.796   3.768
 1212SOL     OW 4534   1.198   4.337   4.697
 1212SOL    HW1 4535   1.284   4.297   4.726
 1212SOL    HW2 4536   1.122   4.276   4.722
 1213SOL     OW 4537   6.492   3.013   5.285
 1213SOL    HW1 4538   6.414   2.952   5.272
 1213SOL    HW2 4539   6.571   2.976   5.237
 1214SOL     OW 4540   1.760   3.601   3.936
 1214SOL    HW1 4541   1.731   3.511   3.903
 1214SOL    HW2 4542   1.847   3.625   3.895
 1215SOL     OW 4543   1.873   4.452   3.183
 1215SOL    HW1 4544   1.904   4.415   3.270
 1215SOL    HW2 4545   1.811   4.529   3.198
 1216SOL     OW 4546   1.150   6.670   1.471
 1216SOL    HW1 4547   1.144   6.724   1.386
 1216SOL    HW2 4548   1.212   6.593   1.457
 1217SOL     OW 4549   1.151   6.491   0.442
 1217SOL    HW1 4550   1.161   6.575   0.495
 1217SOL    HW2 4551   1.238   6.469   0.397
 1218SOL     OW 4552   0.616   3.678   4.458
 1218SOL    HW1 4553   0.517   3.696   4.460
 1218SOL    HW2 4554   0.665   3.765   4.467
 1219SOL     OW 4555   3.724   5.851   0.828
 1219SOL    HW1 4556   3.768   5.774   0.875
 1219SOL    HW2 4557   3.690   5.916   0.896
 1220SOL     OW 4558   5.744   2.639   2.981
 1220SOL    HW1 4559   5.705   2.712   2.924
 1220SOL    HW2 4560   5.678   2.613   3.051
 1221SOL     OW 4561   5.282   3.412   1.005
 1221SOL    HW1 4562   5.373   3.413   1.047
 1221SOL    HW2 4563   5.291   3.416   0.906
 1222SOL     OW 4564   0.090   6.761   0.644
 1222SOL    HW1 4565   7.019   6.784   0.628
 1222SOL    HW2 4566   0.130   6.724   0.560
 1223SOL     OW 4567   6.011   0.206   6.250
 1223SOL    HW1 4568   6.020   0.169   6.342
 1223SOL    HW2 4569   5.998   0.132   6.185
 1224SOL     OW 4570   4.431   5.893   0.644
 1224SOL    HW1 4571   4.333   5.888   0.659
 1224SOL    HW2 4572   4.456   5.987   0.620
 1225SOL     OW 4573   4.537   1.822   0.488
 1225SOL    HW1 4574   4.616   1.773   0.523
 1225SOL    HW2 4575   4.468   1.756   0.457
 1226SOL     OW 4576   6.032   6.032   1.351
 1226SOL    HW1 4577   5.945   6.012   1.396
 1226SOL    HW2 4578   6.102   6.048   1.421
 1227SOL     OW 4579   5.777   4.070   5.625
 1227SOL    HW1 4580   5.811   4.160   5.596
 1227SOL    HW2 4581   5.681   4.077   5.651
 1228SOL     OW 4582   3.557   3.342   2.429
 1228SOL    HW1 4583   3.530   3.434   2.456
 1228SOL    HW2 4584   3.542   3.278   2.504
 1229SOL     OW 4585   1.900   6.108   2.528
 1229SOL    HW1 4586   1.990   6.108   2.572
 1229SOL    HW2 4587   1.901   6.046   2.450
 1230SOL     OW 4588   4.862   4.978   2.141
 1230SOL    HW1 4589   4.876   5.016   2.232
 1230SOL    HW2 4590   4.764   4.971   2.122
 1231SOL     OW 4591   1.596   2.263   6.370
 1231SOL    HW1 4592   1.683   2.284   6.323
 1231SOL    HW2 4593   1.532   2.222   6.305
 1232SOL     OW 4594   3.218   0.393   5.333
 1232SOL    HW1 4595   3.254   0.483   5.357
 1232SOL    HW2 4596   3.207   0.387   5.233
 1233SOL     OW 4597   0.165   5.200   4.018
 1233SOL    HW1 4598   0.087   5.243   3.972
 1233SOL    HW2 4599   0.196   5.121   3.964
 1234SOL     OW 4600   0.039   3.267   6.434
 1234SOL    HW1 4601   6.981   3.299   6.479
 1234SOL    HW2 4602   0.118   3.288   6.492
 1235SOL     OW 4603   5.796   4.603   0.375
 1235SOL    HW1 4604   5.740   4.577   0.455
 1235SOL    HW2 4605   5.788   4.701   0.360
 1236SOL     OW 4606   2.302   1.031   1.337
 1236SOL    HW1 4607   2.364   0.953   1.329
 1236SOL    HW2 4608   2.351   1.115   1.316
 1237SOL     OW 4609   1.443   0.355   4.686
 1237SOL    HW1 4610   1.488   0.349   4.776
 1237SOL    HW2 4611   1.364   0.417   4.693
 1238SOL     OW 4612   0.179   6.837   3.844
 1238SOL    HW1 4613   0.261   6.890   3.821
 1238SOL    HW2 4614   0.137   6.803   3.759
 1239SOL     OW 4615   5.739   5.733   4.295
 1239SOL    HW1 4616   5.764   5.689   4.381
 1239SOL    HW2 4617   5.674   5.675   4.245
 1240SOL     OW 4618   5.762   4.960   2.702
 1240SOL    HW1 4619   5.736   5.017   2.779
 1240SOL    HW2 4620   5.707   4.985   2.622
 1241SOL     OW 4621   5.800   5.042   3.816
 1241SOL    HW1 4622   5.706   5.072   3.832
 1241SOL    HW2 4623   5.861   5.121   3.817
 1242SOL     OW 4624   1.550   3.957   6.849
 1242SOL    HW1 4625   1.454   3.958   6.822
 1242SOL    HW2 4626   1.608   3.975   6.769
 1243SOL     OW 4627   1.153   3.907   5.021
 1243SOL    HW1 4628   1.176   3.811   5.009
 1243SOL    HW2 4629   1.234   3.964   5.004
 1244SOL     OW 4630   5.459   6.623   4.735
 1244SOL    HW1 4631   5.432   6.719   4.729
 1244SOL    HW2 4632   5.551   6.616   4.774
 1245SOL     OW 4633   5.331   6.511   1.717
 1245SOL    HW1 4634   5.248   6.544   1.763
 1245SOL    HW2 4635   5.332   6.543   1.623
 1246SOL     OW 4636   4.751   1.705   0.572
 1246SOL    HW1 4637   4.735   1.654   0.657
 1246SOL    HW2 4638   4.849   1.719   0.559
 1247SOL     OW 4639   6.636   6.487   3.686
 1247SOL    HW1 4640   6.563   6.533   3.636
 1247SOL    HW2 4641   6.686   6.426   3.625
 1248SOL     OW 4642   0.320   0.039   4.915
 1248SOL    HW1 4643   0.280   0.032   5.006
 1248SOL    HW2 4644   0.382   0.117   4.912
 1249SOL     OW 4645   0.403   4.358   0.776
 1249SOL    HW1 4646   0.306   4.335   0.784
 1249SOL    HW2 4647   0.440   4.316   0.694
 1250SOL     OW 4648   5.734   3.308   5.293
 1250SOL    HW1 4649   5.691   3.219   5.306
 1250SOL    HW2 4650   5.829   3.304   5.325
 1251SOL     OW 4651   2.586   0.368   2.481
 1251SOL    HW1 4652   2.575   0.449   2.423
 1251SOL    HW2 4653   2.683   0.342   2.483
 1252SOL     OW 4654   2.053   5.384   0.142
 1252SOL    HW1 4655   2.067   5.370   0.240
 1252SOL    HW2 4656   2.068   5.480   0.120
 1253SOL     OW 4657   3.258   0.945   1.049
 1253SOL    HW1 4658   3.197   0.926   0.972
 1253SOL    HW2 4659   3.331   1.007   1.019
 1254SOL     OW 4660   6.304   1.151   2.504
 1254SOL    HW1 4661   6.401   1.165   2.485
 1254SOL    HW2 4662   6.249   1.193   2.432
 1255SOL     OW 4663   5.076   1.881   4.863
 1255SOL    HW1 4664   5.041   1.819   4.794
 1255SOL    HW2 4665   5.072   1.836   4.953
 1256SOL     OW 4666   0.056   6.007   4.345
 1256SOL    HW1 4667   7.003   5.968   4.297
 1256SOL    HW2 4668   0.124   6.037   4.278
 1257SOL     OW 4669   0.407   4.632   3.774
 1257SOL    HW1 4670   0.418   4.725   3.738
 1257SOL    HW2 4671   0.487   4.607   3.829
 1258SOL     OW 4672   3.203   6.442   4.589
 1258SOL    HW1 4673   3.257   6.416   4.509
 1258SOL    HW2 4674   3.144   6.365   4.615
 1259SOL     OW 4675   5.257   0.250   4.981
 1259SOL    HW1 4676   5.209   0.323   4.934
 1259SOL    HW2 4677   5.267   0.273   5.078
 1260SOL     OW 4678   1.771   0.256   2.367
 1260SOL    HW1 4679   1.808   0.325   2.305
 1260SOL    HW2 4680   1.840   0.185   2.382
 1261SOL     OW 4681   6.766   4.702   6.325
 1261SOL    HW1 4682   6.801   4.686   6.417
 1261SOL    HW2 4683   6.670   4.732   6.331
 1262SOL     OW 4684   5.131   5.257   0.910
 1262SOL    HW1 4685   5.084   5.173   0.937
 1262SOL    HW2 4686   5.136   5.319   0.988
 1263SOL     OW 4687   0.681   2.329   1.144
 1263SOL    HW1 4688   0.750   2.356   1.077
 1263SOL    HW2 4689   0.702   2.238   1.179
 1264SOL     OW 4690   1.015   3.287   3.102
 1264SOL    HW1 4691   1.032   3.369   3.157
 1264SOL    HW2 4692   0.964   3.220   3.156
 1265SOL     OW 4693   6.979   4.407   4.714
 1265SOL    HW1 4694   6.918   4.465   4.660
 1265SOL    HW2 4695   0.043   4.400   4.669
 1266SOL     OW 4696   3.181   1.767   5.054
 1266SOL    HW1 4697   3.248   1.692   5.051
 1266SOL    HW2 4698   3.096   1.737   5.012
 1267SOL     OW 4699   0.134   4.854   3.423
 1267SOL    HW1 4700   0.170   4.765   3.452
 1267SOL    HW2 4701   0.195   4.927   3.455
 1268SOL     OW 4702   5.394   2.901   6.083
 1268SOL    HW1 4703   5.332   2.847   6.139
 1268SOL    HW2 4704   5.357   2.908   5.990
 1269SOL     OW 4705   6.855   5.847   5.329
 1269SOL    HW1 4706   6.896   5.936   5.311
 1269SOL    HW2 4707   6.788   5.826   5.258
 1270SOL     OW 4708   2.152   3.778   4.723
 1270SOL    HW1 4709   2.193   3.735   4.642
 1270SOL    HW2 4710   2.059   3.744   4.735
 1271SOL     OW 4711   3.129   1.545   2.614
 1271SOL    HW1 4712   3.104   1.549   2.517
 1271SOL    HW2 4713   3.146   1.638   2.647
 1272SOL     OW 4714   6.557   5.439   1.392
 1272SOL    HW1 4715   6.566   5.532   1.428
 1272SOL    HW2 4716   6.519   5.443   1.300
 1273SOL     OW 4717   2.538   4.624   6.780
 1273SOL    HW1 4718   2.602   4.679   6.835
 1273SOL    HW2 4719   2.590   4.568   6.715
 1274SOL     OW 4720   6.955   2.510   1.580
 1274SOL    HW1 4721   6.941   2.600   1.623
 1274SOL    HW2 4722   6.946   2.439   1.649
 1275SOL     OW 4723   4.493   0.835   4.964
 1275SOL    HW1 4724   4.444   0.905   4.913
 1275SOL    HW2 4725   4.491   0.856   5.061
 1276SOL     OW 4726   6.911   0.461   2.078
 1276SOL    HW1 4727   6.874   0.549   2.109
 1276SOL    HW2 4728   6.908   0.395   2.153
 1277SOL     OW 4729   0.117   0.698   4.614
 1277SOL    HW1 4730   0.137   0.608   4.575
 1277SOL    HW2 4731   0.184   0.764   4.580
 1278SOL     OW 4732   1.761   2.018   5.579
 1278SOL    HW1 4733   1.759   2.086   5.506
 1278SOL    HW2 4734   1.722   1.932   5.546
 1279SOL     OW 4735   2.713   6.296   0.700
 1279SOL    HW1 4736   2.721   6.198   0.716
 1279SOL    HW2 4737   2.805   6.336   0.694
 1280SOL     OW 4738   2.096   0.123   3.043
 1280SOL    HW1 4739   1.999   0.099   3.036
 1280SOL    HW2 4740   2.144   0.090   2.961
 1281SOL     OW 4741   1.608   6.259   2.947
 1281SOL    HW1 4742   1.585   6.292   2.856
 1281SOL    HW2 4743   1.611   6.336   3.011
 1282SOL     OW 4744   0.793   1.341   1.171
 1282SOL    HW1 4745   0.851   1.401   1.227
 1282SOL    HW2 4746   0.728   1.397   1.119
 1283SOL     OW 4747   5.557   4.172   5.746
 1283SOL    HW1 4748   5.565   4.265   5.712
 1283SOL    HW2 4749   5.515   4.173   5.837
 1284SOL     OW 4750   2.743   2.524   1.713
 1284SOL    HW1 4751   2.648   2.520   1.746
 1284SOL    HW2 4752   2.802   2.475   1.777
 1285SOL     OW 4753   4.675   3.023   5.975
 1285SOL    HW1 4754   4.774   3.028   5.987
 1285SOL    HW2 4755   4.646   2.928   5.984
 1286SOL     OW 4756   5.383   4.074   2.209
 1286SOL    HW1 4757   5.390   3.977   2.182
 1286SOL    HW2 4758   5.405   4.083   2.306
 1287SOL     OW 4759   6.060   5.693   6.671
 1287SOL    HW1 4760   6.105   5.740   6.747
 1287SOL    HW2 4761   6.057   5.595   6.690
 1288SOL     OW 4762   0.411   2.595   6.894
 1288SOL    HW1 4763   0.335   2.573   6.832
 1288SOL    HW2 4764   0.468   2.514   6.906
 1289SOL     OW 4765   6.834   6.219   2.407
 1289SOL    HW1 4766   6.807   6.187   2.316
 1289SOL    HW2 4767   6.928   6.192   2.426
 1290SOL     OW 4768   0.348   0.367   6.745
 1290SOL    HW1 4769   0.256   0.350   6.711
 1290SOL    HW2 4770   0.370   0.464   6.735
 1291SOL     OW 4771   1.353   5.227   6.402
 1291SOL    HW1 4772   1.452   5.218   6.412
 1291SOL    HW2 4773   1.332   5.278   6.320
 1292SOL     OW 4774   6.733   4.710   1.307
 1292SOL    HW1 4775   6.778   4.669   1.386
 1292SOL    HW2 4776   6.802   4.746   1.244
 1293SOL     OW 4777   2.354   1.902   6.743
 1293SOL    HW1 4778   2.303   1.969   6.689
 1293SOL    HW2 4779   2.320   1.810   6.724
 1294SOL     OW 4780   0.504   3.385   2.450
 1294SOL    HW1 4781   0.458   3.469   2.479
 1294SOL    HW2 4782   0.596   3.382   2.489
 1295SOL     OW 4783   5.528   2.923   2.416
 1295SOL    HW1 4784   5.459   2.911   2.345
 1295SOL    HW2 4785   5.498   2.878   2.500
 1296SOL     OW 4786   3.794   2.276   6.273
 1296SOL    HW1 4787   3.890   2.284   6.247
 1296SOL    HW2 4788   3.769   2.352   6.332
 1297SOL     OW 4789   6.454   1.407   5.475
 1297SOL    HW1 4790   6.501   1.493   5.493
 1297SOL    HW2 4791   6.519   1.338   5.444
 1298SOL     OW 4792   5.181   3.303   2.862
 1298SOL    HW1 4793   5.091   3.278   2.897
 1298SOL    HW2 4794   5.227   3.363   2.927
 1299SOL     OW 4795   1.917   4.380   3.462
 1299SOL    HW1 4796   1.861   4.368   3.544
 1299SOL    HW2 4797   1.991   4.445   3.482
 1300SOL     OW 4798   2.908   3.436   1.622
 1300SOL    HW1 4799   2.975   3.373   1.583
 1300SOL    HW2 4800   2.849   3.387   1.687
 1301SOL     OW 4801   0.944   6.803   3.657
 1301SOL    HW1 4802   0.914   6.741   3.584
 1301SOL    HW2 4803   0.869   6.819   3.720
 1302SOL     OW 4804   2.256   6.448   5.466
 1302SOL    HW1 4805   2.258   6.370   5.529
 1302SOL    HW2 4806   2.294   6.421   5.378
 1303SOL     OW 4807   3.914   1.680   1.273
 1303SOL    HW1 4808   3.875   1.760   1.227
 1303SOL    HW2 4809   4.012   1.674   1.255
 1304SOL     OW 4810   1.645   0.413   6.361
 1304SOL    HW1 4811   1.634   0.422   6.460
 1304SOL    HW2 4812   1.623   0.319   6.334
 1305SOL     OW 4813   4.746   6.375   4.447
 1305SOL    HW1 4814   4.727   6.466   4.408
 1305SOL    HW2 4815   4.719   6.305   4.381
 1306SOL     OW 4816   1.434   4.190   4.775
 1306SOL    HW1 4817   1.480   4.119   4.723
 1306SOL    HW2 4818   1.438   4.169   4.872
 1307SOL     OW 4819   1.659   3.347   5.197
 1307SOL    HW1 4820   1.566   3.313   5.184
 1307SOL    HW2 4821   1.711   3.336   5.113
 1308SOL     OW 4822   4.220   5.614   4.193
 1308SOL    HW1 4823   4.154   5.541   4.180
 1308SOL    HW2 4824   4.279   5.621   4.112
 1309SOL     OW 4825   5.310   2.952   5.189
 1309SOL    HW1 4826   5.356   3.020   5.132
 1309SOL    HW2 4827   5.225   2.991   5.224
 1310SOL     OW 4828   6.048   4.096   4.293
 1310SOL    HW1 4829   5.966   4.129   4.339
 1310SOL    HW2 4830   6.060   4.146   4.207
 1311SOL     OW 4831   6.039   6.922   4.285
 1311SOL    HW1 4832   6.044   6.926   4.185
 1311SOL    HW2 4833   6.132   6.927   4.323
 1312SOL     OW 4834   0.809   0.310   6.810
 1312SOL    HW1 4835   0.713   0.297   6.788
 1312SOL    HW2 4836   0.852   0.221   6.828
 1313SOL     OW 4837   3.032   5.792   4.840
 1313SOL    HW1 4838   3.036   5.708   4.894
 1313SOL    HW2 4839   3.016   5.769   4.744
 1314SOL     OW 4840   1.160   1.566   5.845
 1314SOL    HW1 4841   1.158   1.511   5.762
 1314SOL    HW2 4842   1.246   1.551   5.893
 1315SOL     OW 4843   1.843   1.273   1.212
 1315SOL    HW1 4844   1.914   1.258   1.281
 1315SOL    HW2 4845   1.836   1.192   1.153
 1316SOL     OW 4846   2.118   0.293   3.347
 1316SOL    HW1 4847   2.037   0.265   3.296
 1316SOL    HW2 4848   2.090   0.348   3.426
 1317SOL     OW 4849   0.904   4.246   4.491
 1317SOL    HW1 4850   0.894   4.164   4.435
 1317SOL    HW2 4851   0.995   4.284   4.480
 1318SOL     OW 4852   0.288   1.054   0.476
 1318SOL    HW1 4853   0.276   1.149   0.504
 1318SOL    HW2 4854   0.217   1.029   0.410
 1319SOL     OW 4855   0.083   1.203   0.850
 1319SOL    HW1 4856   0.086   1.115   0.804
 1319SOL    HW2 4857   0.175   1.243   0.851
 1320SOL     OW 4858   5.759   4.446   6.298
 1320SOL    HW1 4859   5.746   4.361   6.249
 1320SOL    HW2 4860   5.849   4.446   6.343
 1321SOL     OW 4861   4.383   3.484   6.977
 1321SOL    HW1 4862   4.443   3.515   6.903
 1321SOL    HW2 4863   4.325   3.410   6.944
 1322SOL     OW 4864   6.190   0.836   3.547
 1322SOL    HW1 4865   6.169   0.859   3.452
 1322SOL    HW2 4866   6.222   0.741   3.552
 1323SOL     OW 4867   6.492   1.370   5.203
 1323SOL    HW1 4868   6.441   1.455   5.211
 1323SOL    HW2 4869   6.443   1.297   5.250
 1324SOL     OW 4870   1.621   2.600   1.447
 1324SOL    HW1 4871   1.528   2.566   1.435
 1324SOL    HW2 4872   1.635   2.679   1.386
 1325SOL     OW 4873   1.834   6.032   3.447
 1325SOL    HW1 4874   1.868   5.999   3.535
 1325SOL    HW2 4875   1.876   5.980   3.373
 1326SOL     OW 4876   5.020   2.481   4.690
 1326SOL    HW1 4877   5.086   2.524   4.751
 1326SOL    HW2 4878   5.069   2.424   4.624
 1327SOL     OW 4879   2.625   5.269   2.758
 1327SOL    HW1 4880   2.527   5.288   2.759
 1327SOL    HW2 4881   2.663   5.280   2.850
 1328SOL     OW 4882   1.843   2.225   6.072
 1328SOL    HW1 4883   1.765   2.279   6.040
 1328SOL    HW2 4884   1.865   2.251   6.165
 1329SOL     OW 4885   0.764   1.463   0.348
 1329SOL    HW1 4886   0.802   1.462   0.256
 1329SOL    HW2 4887   0.779   1.554   0.389
 1330SOL     OW 4888   6.534   0.648   0.968
 1330SOL    HW1 4889   6.547   0.602   1.057
 1330SOL    HW2 4890   6.591   0.603   0.899
 1331SOL     OW 4891   6.067   0.950   2.463
 1331SOL    HW1 4892   5.976   0.982   2.437
 1331SOL    HW2 4893   6.114   0.913   2.382
 1332SOL     OW 4894   4.264   2.076   1.497
 1332SOL    HW1 4895   4.194   2.045   1.432
 1332SOL    HW2 4896   4.284   2.002   1.561
 1333SOL     OW 4897   3.887   3.903   4.699
 1333SOL    HW1 4898   3.986   3.884   4.705
 1333SOL    HW2 4899   3.854   3.934   4.788
 1334SOL     OW 4900   1.629   3.885   4.953
 1334SOL    HW1 4901   1.617   3.794   4.994
 1334SOL    HW2 4902   1.725   3.912   4.961
 1335SOL     OW 4903   2.252   6.196   2.860
 1335SOL    HW1 4904   2.250   6.203   2.760
 1335SOL    HW2 4905   2.166   6.228   2.898
 1336SOL     OW 4906   1.442   1.749   6.709
 1336SOL    HW1 4907   1.386   1.817   6.661
 1336SOL    HW2 4908   1.472   1.786   6.797
 1337SOL     OW 4909   1.871   2.380   6.305
 1337SOL    HW1 4910   1.889   2.458   6.245
 1337SOL    HW2 4911   1.916   2.394   6.393
 1338SOL     OW 4912   4.504   4.359   6.535
 1338SOL    HW1 4913   4.412   4.330   6.561
 1338SOL    HW2 4914   4.569   4.286   6.554
 1339SOL     OW 4915   0.042   4.534   6.158
 1339SOL    HW1 4916   0.059   4.606   6.091
 1339SOL    HW2 4917   6.972   4.506   6.153
 1340SOL     OW 4918   1.260   2.426   0.294
 1340SOL    HW1 4919   1.331   2.439   0.363
 1340SOL    HW2 4920   1.200   2.507   0.293
 1341SOL     OW 4921   3.804   1.040   4.429
 1341SOL    HW1 4922   3.804   0.963   4.365
 1341SOL    HW2 4923   3.778   1.007   4.520
 1342SOL     OW 4924   1.160   6.318   6.318
 1342SOL    HW1 4925   1.220   6.356   6.246
 1342SOL    HW2 4926   1.212   6.310   6.403
 1343SOL     OW 4927   3.539   6.382   2.345
 1343SOL    HW1 4928   3.639   6.384   2.334
 1343SOL    HW2 4929   3.516   6.377   2.442
 1344SOL     OW 4930   6.327   1.701   2.680
 1344SOL    HW1 4931   6.381   1.656   2.751
 1344SOL    HW2 4932   6.300   1.792   2.711
 1345SOL     OW 4933   0.660   1.172   3.165
 1345SOL    HW1 4934   0.727   1.221   3.221
 1345SOL    HW2 4935   0.687   1.178   3.069
 1346SOL     OW 4936   0.103   6.783   3.504
 1346SOL    HW1 4937   0.135   6.736   3.587
 1346SOL    HW2 4938   0.179   6.792   3.440
 1347SOL     OW 4939   6.502   6.486   3.267
 1347SOL    HW1 4940   6.516   6.575   3.223
 1347SOL    HW2 4941   6.487   6.416   3.197
 1348SOL     OW 4942   5.730   4.743   4.089
 1348SOL    HW1 4943   5.824   4.767   4.065
 1348SOL    HW2 4944   5.699   4.667   4.033
 1349SOL     OW 4945   4.243   2.802   0.057
 1349SOL    HW1 4946   4.256   2.901   0.060
 1349SOL    HW2 4947   4.196   2.777   6.997
 1350SOL     OW 4948   2.961   5.765   6.622
 1350SOL    HW1 4949   2.914   5.767   6.710
 1350SOL    HW2 4950   3.047   5.715   6.631
 1351SOL     OW 4951   0.087   0.424   4.319
 1351SOL    HW1 4952   0.099   0.387   4.226
 1351SOL    HW2 4953   0.065   0.521   4.313
 1352SOL     OW 4954   6.784   0.796   3.113
 1352SOL    HW1 4955   6.795   0.894   3.131
 1352SOL    HW2 4956   6.713   0.782   3.044
 1353SOL     OW 4957   0.283   4.453   4.939
 1353SOL    HW1 4958   0.319   4.467   5.032
 1353SOL    HW2 4959   0.184   4.463   4.940
 1354SOL     OW 4960   0.284   0.543   1.372
 1354SOL    HW1 4961   0.276   0.642   1.380
 1354SOL    HW2 4962   0.208   0.500   1.422
 1355SOL     OW 4963   5.367   4.246   0.238
 1355SOL    HW1 4964   5.355   4.178   0.167
 1355SOL    HW2 4965   5.438   4.216   0.302
 1356SOL     OW 4966   3.348   4.037   2.718
 1356SOL    HW1 4967   3.404   4.100   2.773
 1356SOL    HW2 4968   3.376   3.943   2.737
 1357SOL     OW 4969   2.478   3.205   6.634
 1357SOL    HW1 4970   2.385   3.166   6.635
 1357SOL    HW2 4971   2.492   3.256   6.549
 1358SOL     OW 4972   2.372   2.768   6.484
 1358SOL    HW1 4973   2.420   2.848   6.518
 1358SOL    HW2 4974   2.331   2.719   6.560
 1359SOL     OW 4975   6.328   3.395   1.508
 1359SOL    HW1 4976   6.398   3.463   1.528
 1359SOL    HW2 4977   6.267   3.430   1.437
 1360SOL     OW 4978   3.673   3.555   3.308
 1360SOL    HW1 4979   3.637   3.565   3.215
 1360SOL    HW2 4980   3.692   3.645   3.346
 1361SOL     OW 4981   0.828   6.595   6.586
 1361SOL    HW1 4982   0.826   6.504   6.546
 1361SOL    HW2 4983   0.908   6.604   6.645
 1362SOL     OW 4984   2.908   3.406   5.865
 1362SOL    HW1 4985   2.864   3.319   5.843
 1362SOL    HW2 4986   2.839   3.474   5.888
 1363SOL     OW 4987   6.812   5.956   3.287
 1363SOL    HW1 4988   6.881   5.986   3.221
 1363SOL    HW2 4989   6.725   5.942   3.241
 1364SOL     OW 4990   0.091   3.237   0.904
 1364SOL    HW1 4991   0.023   3.175   0.943
 1364SOL    HW2 4992   0.102   3.216   0.806
 1365SOL     OW 4993   1.222   3.380   5.841
 1365SOL    HW1 4994   1.174   3.329   5.913
 1365SOL    HW2 4995   1.156   3.432   5.787
 1366SOL     OW 4996   6.991   2.480   0.991
 1366SOL    HW1 4997   6.975   2.395   0.939
 1366SOL    HW2 4998   0.063   2.496   0.999
 1367SOL     OW 4999   0.843   4.166   3.836
 1367SOL    HW1 5000   0.914   4.136   3.900
 1367SOL    HW2 5001   0.863   4.131   3.745
 1368SOL     OW 5002   6.740   6.951   4.421
 1368SOL    HW1 5003   6.690   0.009   4.444
 1368SOL    HW2 5004   6.688   6.898   4.354
 1369SOL     OW 5005   1.708   6.128   2.279
 1369SOL    HW1 5006   1.688   6.030   2.281
 1369SOL    HW2 5007   1.718   6.161   2.372
 1370SOL     OW 5008   6.879   2.366   4.231
 1370SOL    HW1 5009   6.828   2.339   4.149
 1370SOL    HW2 5010   6.940   2.442   4.209
 1371SOL     OW 5011   5.893   1.182   4.560
 1371SOL    HW1 5012   5.839   1.258   4.522
 1371SOL    HW2 5013   5.978   1.174   4.510
 1372SOL     OW 5014   6.426   2.941   0.365
 1372SOL    HW1 5015   6.481   2.954   0.447
 1372SOL    HW2 5016   6.329   2.941   0.390
 1373SOL     OW 5017   4.494   2.469   1.542
 1373SOL    HW1 5018   4.564   2.533   1.573
 1373SOL    HW2 5019   4.538   2.385   1.509
 1374SOL     OW 5020   4.879   3.547   0.906
 1374SOL    HW1 5021   4.898   3.597   0.990
 1374SOL    HW2 5022   4.780   3.539   0.894
 1375SOL     OW 5023   6.952   6.001   5.600
 1375SOL    HW1 5024   0.008   5.953   5.567
 1375SOL    HW2 5025   6.871   5.962   5.557
 1376SOL     OW 5026   2.940   5.220   6.220
 1376SOL    HW1 5027   2.957   5.131   6.179
 1376SOL    HW2 5028   2.968   5.219   6.317
 1377SOL     OW 5029   1.176   2.667   3.793
 1377SOL    HW1 5030   1.139   2.740   3.735
 1377SOL    HW2 5031   1.219   2.708   3.873
 1378SOL     OW 5032   4.143   2.224   4.620
 1378SOL    HW1 5033   4.211   2.290   4.588
 1378SOL    HW2 5034   4.061   2.272   4.651
 1379SOL     OW 5035   5.018   5.152   1.891
 1379SOL    HW1 5036   5.047   5.190   1.979
 1379SOL    HW2 5037   4.981   5.061   1.905
 1380SOL     OW 5038   6.586   6.401   1.468
 1380SOL    HW1 5039   6.513   6.469   1.463
 1380SOL    HW2 5040   6.564   6.334   1.539
 1381SOL     OW 5041   5.916   2.403   5.921
 1381SOL    HW1 5042   5.921   2.496   5.958
 1381SOL    HW2 5043   5.896   2.339   5.995
 1382SOL     OW 5044   4.661   2.690   1.594
 1382SOL    HW1 5045   4.657   2.712   1.496
 1382SOL    HW2 5046   4.582   2.730   1.640
 1383SOL     OW 5047   1.514   6.807   2.262
 1383SOL    HW1 5048   1.582   6.756   2.316
 1383SOL    HW2 5049   1.559   6.884   2.217
 1384SOL     OW 5050   4.838   0.416   0.457
 1384SOL    HW1 5051   4.810   0.320   0.455
 1384SOL    HW2 5052   4.772   0.468   0.512
 1385SOL     OW 5053   1.644   4.718   3.221
 1385SOL    HW1 5054   1.643   4.663   3.304
 1385SOL    HW2 5055   1.739   4.729   3.189
 1386SOL     OW 5056   2.905   6.515   3.985
 1386SOL    HW1 5057   2.995   6.477   3.962
 1386SOL    HW2 5058   2.903   6.613   3.963
 1387SOL     OW 5059   3.913   5.716   1.183
 1387SOL    HW1 5060   3.820   5.737   1.211
 1387SOL    HW2 5061   3.962   5.801   1.161
 1388SOL     OW 5062   5.732   0.576   1.779
 1388SOL    HW1 5063   5.637   0.593   1.808
 1388SOL    HW2 5064   5.770   0.500   1.833
 1389SOL     OW 5065   6.127   0.872   3.289
 1389SOL    HW1 5066   6.057   0.804   3.267
 1389SOL    HW2 5067   6.107   0.957   3.241
 1390SOL     OW 5068   1.144   3.444   6.648
 1390SOL    HW1 5069   1.124   3.522   6.708
 1390SOL    HW2 5070   1.063   3.422   6.594
 1391SOL     OW 5071   0.029   1.395   3.843
 1391SOL    HW1 5072   0.046   1.385   3.745
 1391SOL    HW2 5073   0.026   1.304   3.886
 1392SOL     OW 5074   5.543   5.112   6.146
 1392SOL    HW1 5075   5.577   5.060   6.067
 1392SOL    HW2 5076   5.503   5.049   6.212
 1393SOL     OW 5077   6.242   5.912   5.481
 1393SOL    HW1 5078   6.297   5.884   5.560
 1393SOL    HW2 5079   6.218   5.832   5.427
 1394SOL     OW 5080   2.948   5.758   5.371
 1394SOL    HW1 5081   2.943   5.856   5.356
 1394SOL    HW2 5082   2.936   5.710   5.284
 1395SOL     OW 5083   2.988   4.733   5.775
 1395SOL    HW1 5084   2.895   4.708   5.799
 1395SOL    HW2 5085   3.032   4.777   5.854
 1396SOL     OW 5086   1.149   0.327   3.869
 1396SOL    HW1 5087   1.236   0.372   3.890
 1396SOL    HW2 5088   1.165   0.233   3.842
 1397SOL     OW 5089   6.786   0.643   4.485
 1397SOL    HW1 5090   6.834   0.555   4.488
 1397SOL    HW2 5091   6.814   0.700   4.561
 1398SOL     OW 5092   1.517   0.754   5.473
 1398SOL    HW1 5093   1.453   0.826   5.446
 1398SOL    HW2 5094   1.470   0.666   5.474
 1399SOL     OW 5095   3.688   6.687   1.313
 1399SOL    HW1 5096   3.647   6.654   1.228
 1399SOL    HW2 5097   3.684   6.614   1.382
 1400SOL     OW 5098   0.281   2.084   2.726
 1400SOL    HW1 5099   0.371   2.114   2.756
 1400SOL    HW2 5100   0.288   1.996   2.679
 1401SOL     OW 5101   0.211   1.479   5.255
 1401SOL    HW1 5102   0.233   1.576   5.259
 1401SOL    HW2 5103   0.117   1.467   5.224
 1402SOL     OW 5104   0.102   3.876   6.839
 1402SOL    HW1 5105   0.188   3.869   6.890
 1402SOL    HW2 5106   0.112   3.944   6.766
 1403SOL     OW 5107   3.268   1.262   1.850
 1403SOL    HW1 5108   3.212   1.199   1.903
 1403SOL    HW2 5109   3.223   1.351   1.846
 1404SOL     OW 5110   5.832   0.333   0.241
 1404SOL    HW1 5111   5.808   0.281   0.160
 1404SOL    HW2 5112   5.753   0.388   0.270
 1405SOL     OW 5113   2.370   4.172   0.948
 1405SOL    HW1 5114   2.460   4.174   0.991
 1405SOL    HW2 5115   2.322   4.258   0.968
 1406SOL     OW 5116   1.449   5.201   1.760
 1406SOL    HW1 5117   1.527   5.223   1.701
 1406SOL    HW2 5118   1.482   5.163   1.846
 1407SOL     OW 5119   0.146   1.693   1.821
 1407SOL    HW1 5120   0.237   1.720   1.791
 1407SOL    HW2 5121   0.121   1.606   1.779
 1408SOL     OW 5122   5.158   0.638   5.946
 1408SOL    HW1 5123   5.222   0.566   5.922
 1408SOL    HW2 5124   5.166   0.659   6.043
 1409SOL     OW 5125   0.617   7.008   5.583
 1409SOL    HW1 5126   0.602   6.909   5.580
 1409SOL    HW2 5127   0.704   0.002   5.628
 1410SOL     OW 5128   1.985   3.666   6.444
 1410SOL    HW1 5129   1.965   3.661   6.346
 1410SOL    HW2 5130   2.046   3.743   6.462
 1411SOL     OW 5131   2.683   6.300   3.094
 1411SOL    HW1 5132   2.634   6.213   3.095
 1411SOL    HW2 5133   2.630   6.367   3.042
 1412SOL     OW 5134   0.524   2.112   0.006
 1412SOL    HW1 5135   0.583   2.192   0.020
 1412SOL    HW2 5136   0.579   2.034   7.003
 1413SOL     OW 5137   1.849   0.765   4.896
 1413SOL    HW1 5138   1.940   0.784   4.931
 1413SOL    HW2 5139   1.847   0.777   4.797
 1414SOL     OW 5140   2.723   0.887   1.733
 1414SOL    HW1 5141   2.744   0.807   1.790
 1414SOL    HW2 5142   2.784   0.962   1.757
 1415SOL     OW 5143   2.791   0.386   4.265
 1415SOL    HW1 5144   2.766   0.387   4.169
 1415SOL    HW2 5145   2.727   0.327   4.315
 1416SOL     OW 5146   4.544   4.523   3.559
 1416SOL    HW1 5147   4.484   4.451   3.523
 1416SOL    HW2 5148   4.488   4.590   3.608
 1417SOL     OW 5149   2.336   2.477   0.336
 1417SOL    HW1 5150   2.294   2.456   0.247
 1417SOL    HW2 5151   2.326   2.398   0.396
 1418SOL     OW 5152   2.986   3.257   3.397
 1418SOL    HW1 5153   2.992   3.349   3.435
 1418SOL    HW2 5154   2.972   3.191   3.470
 1419SOL     OW 5155   3.329   6.522   4.833
 1419SOL    HW1 5156   3.396   6.595   4.822
 1419SOL    HW2 5157   3.285   6.505   4.745
 1420SOL     OW 5158   1.863   6.448   1.901
 1420SOL    HW1 5159   1.862   6.349   1.914
 1420SOL    HW2 5160   1.831   6.470   1.808
 1421SOL     OW 5161   1.881   2.859   3.113
 1421SOL    HW1 5162   1.961   2.800   3.120
 1421SOL    HW2 5163   1.801   2.804   3.087
 1422SOL     OW 5164   2.552   4.624   1.832
 1422SOL    HW1 5165   2.496   4.541   1.835
 1422SOL    HW2 5166   2.635   4.608   1.886
 1423SOL     OW 5167   5.031   6.358   2.277
 1423SOL    HW1 5168   5.024   6.344   2.375
 1423SOL    HW2 5169   5.071   6.448   2.259
 1424SOL     OW 5170   6.747   4.265   4.807
 1424SOL    HW1 5171   6.745   4.261   4.907
 1424SOL    HW2 5172   6.842   4.279   4.776
 1425SOL     OW 5173   1.614   6.331   4.474
 1425SOL    HW1 5174   1.576   6.412   4.518
 1425SOL    HW2 5175   1.602   6.339   4.375
 1426SOL     OW 5176   1.005   2.598   5.681
 1426SOL    HW1 5177   1.006   2.610   5.581
 1426SOL    HW2 5178   1.070   2.662   5.722
 1427SOL     OW 5179   0.208   6.739   2.863
 1427SOL    HW1 5180   0.242   6.669   2.800
 1427SOL    HW2 5181   0.245   6.722   2.955
 1428SOL     OW 5182   5.677   2.456   1.030
 1428SOL    HW1 5183   5.610   2.530   1.019
 1428SOL    HW2 5184   5.635   2.381   1.082
 1429SOL     OW 5185   6.255   2.112   6.980
 1429SOL    HW1 5186   6.185   2.108   6.909
 1429SOL    HW2 5187   6.281   2.019   7.006
 1430SOL     OW 5188   1.838   4.545   3.695
 1430SOL    HW1 5189   1.741   4.551   3.671
 1430SOL    HW2 5190   1.892   4.597   3.629
 1431SOL     OW 5191   2.292   1.961   1.316
 1431SOL    HW1 5192   2.214   1.933   1.260
 1431SOL    HW2 5193   2.269   2.045   1.365
 1432SOL     OW 5194   2.816   1.544   3.135
 1432SOL    HW1 5195   2.865   1.583   3.057
 1432SOL    HW2 5196   2.725   1.514   3.105
 1433SOL     OW 5197   4.427   1.350   4.058
 1433SOL    HW1 5198   4.347   1.304   4.096
 1433SOL    HW2 5199   4.508   1.329   4.113
 1434SOL     OW 5200   6.670   0.743   5.575
 1434SOL    HW1 5201   6.708   0.826   5.615
 1434SOL    HW2 5202   6.728   0.713   5.499
 1435SOL     OW 5203   5.737   0.853   2.128
 1435SOL    HW1 5204   5.714   0.885   2.220
 1435SOL    HW2 5205   5.671   0.784   2.099
 1436SOL     OW 5206   5.107   4.045   0.546
 1436SOL    HW1 5207   5.195   4.012   0.511
 1436SOL    HW2 5208   5.105   4.145   0.540
 1437SOL     OW 5209   2.537   2.469   3.778
 1437SOL    HW1 5210   2.449   2.425   3.759
 1437SOL    HW2 5211   2.522   2.559   3.818
 1438SOL     OW 5212   3.391   6.430   1.471
 1438SOL    HW1 5213   3.324   6.498   1.499
 1438SOL    HW2 5214   3.373   6.344   1.518
 1439SOL     OW 5215   6.921   5.762   1.597
 1439SOL    HW1 5216   6.946   5.780   1.692
 1439SOL    HW2 5217   7.001   5.730   1.547
 1440SOL     OW 5218   3.213   3.735   1.243
 1440SOL    HW1 5219   3.205   3.688   1.331
 1440SOL    HW2 5220   3.123   3.741   1.200
 1441SOL     OW 5221   6.042   0.694   2.256
 1441SOL    HW1 5222   6.099   0.775   2.241
 1441SOL    HW2 5223   6.036   0.641   2.171
 1442SOL     OW 5224   6.542   5.697   0.057
 1442SOL    HW1 5225   6.513   5.602   0.070
 1442SOL    HW2 5226   6.583   5.731   0.142
 1443SOL     OW 5227   0.511   2.450   2.425
 1443SOL    HW1 5228   0.604   2.418   2.405
 1443SOL    HW2 5229   0.474   2.499   2.347
 1444SOL     OW 5230   5.611   0.324   0.445
 1444SOL    HW1 5231   5.574   0.265   0.517
 1444SOL    HW2 5232   5.571   0.415   0.453
 1445SOL     OW 5233   0.828   3.284   2.748
 1445SOL    HW1 5234   0.880   3.213   2.795
 1445SOL    HW2 5235   0.791   3.248   2.663
 1446SOL     OW 5236   6.952   0.564   6.568
 1446SOL    HW1 5237   6.988   0.491   6.509
 1446SOL    HW2 5238   6.873   0.607   6.524
 1447SOL     OW 5239   5.865   5.118   3.479
 1447SOL    HW1 5240   5.932   5.100   3.407
 1447SOL    HW2 5241   5.906   5.100   3.569
 1448SOL     OW 5242   6.605   2.729   4.919
 1448SOL    HW1 5243   6.688   2.728   4.863
 1448SOL    HW2 5244   6.529   2.689   4.867
 1449SOL     OW 5245   0.717   3.895   5.325
 1449SOL    HW1 5246   0.792   3.889   5.259
 1449SOL    HW2 5247   0.719   3.814   5.384
 1450SOL     OW 5248   0.988   2.759   6.225
 1450SOL    HW1 5249   1.068   2.722   6.178
 1450SOL    HW2 5250   0.917   2.783   6.158
 1451SOL     OW 5251   1.235   6.304   2.612
 1451SOL    HW1 5252   1.136   6.296   2.602
 1451SOL    HW2 5253   1.280   6.260   2.534
 1452SOL     OW 5254   4.315   2.625   5.392
 1452SOL    HW1 5255   4.250   2.627   5.316
 1452SOL    HW2 5256   4.269   2.654   5.476
 1453SOL     OW 5257   0.661   4.433   5.337
 1453SOL    HW1 5258   0.643   4.336   5.351
 1453SOL    HW2 5259   0.575   4.482   5.326
 1454SOL     OW 5260   2.081   2.333   3.151
 1454SOL    HW1 5261   2.168   2.379   3.129
 1454SOL    HW2 5262   2.005   2.395   3.131
 1455SOL     OW 5263   1.346   6.565   2.517
 1455SOL    HW1 5264   1.307   6.485   2.563
 1455SOL    HW2 5265   1.426   6.537   2.464
 1456SOL     OW 5266   6.053   6.133   5.912
 1456SOL    HW1 5267   6.072   6.057   5.850
 1456SOL    HW2 5268   5.955   6.151   5.915
 1457SOL     OW 5269   0.745   4.393   0.400
 1457SOL    HW1 5270   0.725   4.407   0.304
 1457SOL    HW2 5271   0.711   4.470   0.453
 1458SOL     OW 5272   5.365   5.260   5.436
 1458SOL    HW1 5273   5.291   5.198   5.461
 1458SOL    HW2 5274   5.410   5.226   5.353
 1459SOL     OW 5275   4.299   6.570   6.167
 1459SOL    HW1 5276   4.224   6.516   6.129
 1459SOL    HW2 5277   4.382   6.553   6.115
 1460SOL     OW 5278   1.864   7.011   4.740
 1460SOL    HW1 5279   1.823   0.041   4.814
 1460SOL    HW2 5280   1.843   6.915   4.755
 1461SOL     OW 5281   0.371   3.756   3.271
 1461SOL    HW1 5282   0.281   3.748   3.226
 1461SOL    HW2 5283   0.426   3.824   3.222
 1462SOL     OW 5284   1.186   0.623   6.606
 1462SOL    HW1 5285   1.116   0.676   6.653
 1462SOL    HW2 5286   1.234   0.681   6.540
 1463SOL     OW 5287   1.034   4.814   5.853
 1463SOL    HW1 5288   0.943   4.853   5.864
 1463SOL    HW2 5289   1.073   4.792   5.943
 1464SOL     OW 5290   6.916   4.488   3.249
 1464SOL    HW1 5291   6.915   4.486   3.349
 1464SOL    HW2 5292   7.005   4.521   3.217
 1465SOL     OW 5293   1.911   2.137   4.156
 1465SOL    HW1 5294   1.841   2.201   4.126
 1465SOL    HW2 5295   1.888   2.102   4.247
 1466SOL     OW 5296   4.100   2.248   2.191
 1466SOL    HW1 5297   4.074   2.228   2.096
 1466SOL    HW2 5298   4.025   2.221   2.252
 1467SOL     OW 5299   2.032   1.467   4.008
 1467SOL    HW1 5300   2.088   1.516   3.941
 1467SOL    HW2 5301   2.067   1.374   4.019
 1468SOL     OW 5302   2.071   5.234   2.013
 1468SOL    HW1 5303   2.066   5.237   1.913
 1468SOL    HW2 5304   2.025   5.314   2.051
 1469SOL     OW 5305   6.916   5.993   2.843
 1469SOL    HW1 5306   6.947   6.007   2.937
 1469SOL    HW2 5307   6.888   6.081   2.804
 1470SOL     OW 5308   0.270   2.154   1.349
 1470SOL    HW1 5309   0.195   2.137   1.285
 1470SOL    HW2 5310   0.233   2.189   1.435
 1471SOL     OW 5311   1.042   0.221   0.449
 1471SOL    HW1 5312   1.029   0.170   0.535
 1471SOL    HW2 5313   0.977   0.297   0.445
 1472SOL     OW 5314   2.592   6.309   6.771
 1472SOL    HW1 5315   2.561   6.332   6.679
 1472SOL    HW2 5316   2.681   6.352   6.788
 1473SOL     OW 5317   2.564   5.662   4.505
 1473SOL    HW1 5318   2.631   5.696   4.571
 1473SOL    HW2 5319   2.513   5.587   4.546
 1474SOL     OW 5320   4.001   4.685   1.484
 1474SOL    HW1 5321   4.050   4.746   1.422
 1474SOL    HW2 5322   4.057   4.605   1.505
 1475SOL     OW 5323   4.797   1.452   6.962
 1475SOL    HW1 5324   4.733   1.505   6.907
 1475SOL    HW2 5325   4.803   1.360   6.926
 1476SOL     OW 5326   2.919   1.065   1.341
 1476SOL    HW1 5327   2.984   1.112   1.281
 1476SOL    HW2 5328   2.840   1.125   1.356
 1477SOL     OW 5329   4.017   0.378   0.426
 1477SOL    HW1 5330   3.988   0.300   0.481
 1477SOL    HW2 5331   4.115   0.372   0.408
 1478SOL     OW 5332   5.308   6.431   5.590
 1478SOL    HW1 5333   5.210   6.415   5.578
 1478SOL    HW2 5334   5.324   6.528   5.609
 1479SOL     OW 5335   3.565   3.594   1.510
 1479SOL    HW1 5336   3.541   3.666   1.575
 1479SOL    HW2 5337   3.632   3.631   1.444
 1480SOL     OW 5338   2.280   0.027   6.352
 1480SOL    HW1 5339   2.217   0.067   6.418
 1480SOL    HW2 5340   2.372   0.060   6.370
 1481SOL     OW 5341   5.718   3.133   5.877
 1481SOL    HW1 5342   5.815   3.109   5.868
 1481SOL    HW2 5343   5.662   3.056   5.845
 1482SOL     OW 5344   4.461   0.810   0.925
 1482SOL    HW1 5345   4.361   0.810   0.928
 1482SOL    HW2 5346   4.492   0.801   0.830
 1483SOL     OW 5347   5.585   2.468   5.195
 1483SOL    HW1 5348   5.640   2.390   5.224
 1483SOL    HW2 5349   5.525   2.497   5.270
 1484SOL     OW 5350   4.246   5.326   3.742
 1484SOL    HW1 5351   4.192   5.286   3.816
 1484SOL    HW2 5352   4.327   5.270   3.726
 1485SOL     OW 5353   5.395   0.652   3.758
 1485SOL    HW1 5354   5.434   0.611   3.675
 1485SOL    HW2 5355   5.297   0.667   3.745
 1486SOL     OW 5356   4.982   6.840   3.626
 1486SOL    HW1 5357   5.052   6.770   3.609
 1486SOL    HW2 5358   5.013   6.901   3.699
 1487SOL     OW 5359   0.525   0.812   6.551
 1487SOL    HW1 5360   0.494   0.895   6.505
 1487SOL    HW2 5361   0.588   0.835   6.625
 1488SOL     OW 5362   5.843   0.415   3.201
 1488SOL    HW1 5363   5.864   0.327   3.245
 1488SOL    HW2 5364   5.875   0.413   3.106
 1489SOL     OW 5365   3.829   4.681   6.018
 1489SOL    HW1 5366   3.900   4.751   6.010
 1489SOL    HW2 5367   3.745   4.713   5.973
 1490SOL     OW 5368   0.411   2.951   1.051
 1490SOL    HW1 5369   0.451   3.018   0.988
 1490SOL    HW2 5370   0.334   2.906   1.007
 1491SOL     OW 5371   6.907   4.300   2.070
 1491SOL    HW1 5372   6.914   4.256   1.980
 1491SOL    HW2 5373   6.998   4.305   2.112
 1492SOL     OW 5374   6.521   0.249   1.884
 1492SOL    HW1 5375   6.493   0.289   1.971
 1492SOL    HW2 5376   6.510   0.316   1.811
 1493SOL     OW 5377   3.730   1.304   6.671
 1493SOL    HW1 5378   3.684   1.246   6.738
 1493SOL    HW2 5379   3.665   1.329   6.599
 1494SOL     OW 5380   5.432   2.876   6.686
 1494SOL    HW1 5381   5.470   2.785   6.670
 1494SOL    HW2 5382   5.457   2.907   6.778
 1495SOL     OW 5383   6.518   3.716   3.712
 1495SOL    HW1 5384   6.529   3.692   3.616
 1495SOL    HW2 5385   6.606   3.744   3.750
 1496SOL     OW 5386   6.933   0.141   0.098
 1496SOL    HW1 5387   6.852   0.200   0.091
 1496SOL    HW2 5388   6.933   0.095   0.186
 1497SOL     OW 5389   4.985   3.183   2.439
 1497SOL    HW1 5390   5.077   3.169   2.476
 1497SOL    HW2 5391   4.927   3.223   2.509
 1498SOL     OW 5392   2.914   4.723   0.932
 1498SOL    HW1 5393   2.888   4.817   0.952
 1498SOL    HW2 5394   2.954   4.681   1.014
 1499SOL     OW 5395   0.544   3.810   5.919
 1499SOL    HW1 5396   0.539   3.904   5.952
 1499SOL    HW2 5397   0.639   3.787   5.897
 1500SOL     OW 5398   1.251   6.069   6.656
 1500SOL    HW1 5399   1.265   6.083   6.754
 1500SOL    HW2 5400   1.323   6.008   6.620
 1501SOL     OW 5401   6.116   1.830   6.717
 1501SOL    HW1 5402   6.170   1.767   6.774
 1501SOL    HW2 5403   6.046   1.778   6.668
 1502SOL     OW 5404   5.741   1.595   6.312
 1502SOL    HW1 5405   5.662   1.633   6.265
 1502SOL    HW2 5406   5.814   1.663   6.315
 1503SOL     OW 5407   0.807   2.924   2.400
 1503SOL    HW1 5408   0.777   2.865   2.475
 1503SOL    HW2 5409   0.806   2.872   2.314
 1504SOL     OW 5410   0.579   0.152   3.544
 1504SOL    HW1 5411   0.583   0.250   3.567
 1504SOL    HW2 5412   0.517   0.138   3.468
 1505SOL     OW 5413   5.057   6.453   5.890
 1505SOL    HW1 5414   5.079   6.376   5.950
 1505SOL    HW2 5415   5.141   6.501   5.865
 1506SOL     OW 5416   1.529   0.431   0.651
 1506SOL    HW1 5417   1.600   0.434   0.722
 1506SOL    HW2 5418   1.456   0.370   0.680
 1507SOL     OW 5419   0.408   1.608   4.086
 1507SOL    HW1 5420   0.312   1.591   4.063
 1507SOL    HW2 5421   0.435   1.549   4.162
 1508SOL     OW 5422   0.373   1.622   0.820
 1508SOL    HW1 5423   0.293   1.566   0.841
 1508SOL    HW2 5424   0.408   1.663   0.904
 1509SOL     OW 5425   5.024   1.197   5.080
 1509SOL    HW1 5426   4.960   1.213   5.155
 1509SOL    HW2 5427   4.978   1.146   5.007
 1510SOL     OW 5428   4.531   0.065   4.202
 1510SOL    HW1 5429   4.626   0.033   4.208
 1510SOL    HW2 5430   4.469   7.012   4.211
 1511SOL     OW 5431   3.227   3.947   4.163
 1511SOL    HW1 5432   3.306   3.913   4.112
 1511SOL    HW2 5433   3.258   3.996   4.244
 1512SOL     OW 5434   5.947   5.554   1.515
 1512SOL    HW1 5435   6.047   5.550   1.513
 1512SOL    HW2 5436   5.911   5.463   1.532
 1513SOL     OW 5437   3.570   0.278   4.649
 1513SOL    HW1 5438   3.656   0.324   4.668
 1513SOL    HW2 5439   3.583   0.212   4.574
 1514SOL     OW 5440   3.545   2.262   5.721
 1514SOL    HW1 5441   3.521   2.184   5.779
 1514SOL    HW2 5442   3.581   2.229   5.634
 1515SOL     OW 5443   6.532   1.219   2.271
 1515SOL    HW1 5444   6.534   1.310   2.231
 1515SOL    HW2 5445   6.545   1.226   2.370
 1516SOL     OW 5446   5.951   5.660   5.238
 1516SOL    HW1 5447   5.962   5.561   5.246
 1516SOL    HW2 5448   5.903   5.682   5.153
 1517SOL     OW 5449   4.210   0.010   3.015
 1517SOL    HW1 5450   4.157   0.059   2.946
 1517SOL    HW2 5451   4.175   6.942   3.025
 1518SOL     OW 5452   6.310   3.244   0.737
 1518SOL    HW1 5453   6.277   3.326   0.786
 1518SOL    HW2 5454   6.309   3.262   0.639
 1519SOL     OW 5455   6.574   4.747   0.820
 1519SOL    HW1 5456   6.534   4.764   0.910
 1519SOL    HW2 5457   6.504   4.757   0.749
 1520SOL     OW 5458   0.718   4.704   1.815
 1520SOL    HW1 5459   0.657   4.678   1.890
 1520SOL    HW2 5460   0.776   4.626   1.791
 1521SOL     OW 5461   1.915   4.772   0.233
 1521SOL    HW1 5462   2.006   4.785   0.273
 1521SOL    HW2 5463   1.892   4.850   0.175
 1522SOL     OW 5464   5.373   5.253   4.235
 1522SOL    HW1 5465   5.407   5.331   4.289
 1522SOL    HW2 5466   5.419   5.170   4.264
 1523SOL     OW 5467   3.487   6.915   6.720
 1523SOL    HW1 5468   3.463   6.975   6.796
 1523SOL    HW2 5469   3.571   6.948   6.677
 1524SOL     OW 5470   2.912   1.888   2.221
 1524SOL    HW1 5471   2.881   1.896   2.127
 1524SOL    HW2 5472   2.926   1.980   2.260
 1525SOL     OW 5473   6.141   2.770   1.338
 1525SOL    HW1 5474   6.114   2.677   1.365
 1525SOL    HW2 5475   6.075   2.836   1.374
 1526SOL     OW 5476   0.441   1.056   6.457
 1526SOL    HW1 5477   0.461   1.010   6.370
 1526SOL    HW2 5478   0.380   1.133   6.441
 1527SOL     OW 5479   3.990   0.763   4.767
 1527SOL    HW1 5480   3.893   0.755   4.748
 1527SOL    HW2 5481   4.042   0.703   4.707
 1528SOL     OW 5482   4.108   4.860   1.330
 1528SOL    HW1 5483   4.071   4.905   1.249
 1528SOL    HW2 5484   4.155   4.928   1.387
 1529SOL     OW 5485   4.826   1.208   6.854
 1529SOL    HW1 5486   4.773   1.138   6.902
 1529SOL    HW2 5487   4.864   1.171   6.770
 1530SOL     OW 5488   3.093   0.714   1.493
 1530SOL    HW1 5489   3.004   0.758   1.489
 1530SOL    HW2 5490   3.093   0.633   1.434
 1531SOL     OW 5491   4.713   0.549   4.584
 1531SOL    HW1 5492   4.725   0.526   4.487
 1531SOL    HW2 5493   4.644   0.621   4.593
 1532SOL     OW 5494   3.500   4.474   5.722
 1532SOL    HW1 5495   3.473   4.564   5.757
 1532SOL    HW2 5496   3.559   4.485   5.642
 1533SOL     OW 5497   5.676   5.764   0.292
 1533SOL    HW1 5498   5.650   5.669   0.304
 1533SOL    HW2 5499   5.620   5.805   0.220
 1534SOL     OW 5500   3.773   5.428   6.814
 1534SOL    HW1 5501   3.769   5.516   6.862
 1534SOL    HW2 5502   3.829   5.438   6.731
 1535SOL     OW 5503   5.418   5.912   4.990
 1535SOL    HW1 5504   5.338   5.969   4.972
 1535SOL    HW2 5505   5.391   5.815   4.985
 1536SOL     OW 5506   3.686   5.036   0.122
 1536SOL    HW1 5507   3.744   5.095   0.065
 1536SOL    HW2 5508   3.647   4.963   0.066
 1537SOL     OW 5509   4.125   5.770   3.635
 1537SOL    HW1 5510   4.211   5.727   3.665
 1537SOL    HW2 5511   4.048   5.714   3.664
 1538SOL     OW 5512   3.140   1.001   0.243
 1538SOL    HW1 5513   3.211   0.993   0.173
 1538SOL    HW2 5514   3.050   0.993   0.201
 1539SOL     OW 5515   4.901   3.288   2.169
 1539SOL    HW1 5516   4.853   3.221   2.113
 1539SOL    HW2 5517   4.923   3.248   2.258
 1540SOL     OW 5518   0.999   6.857   5.346
 1540SOL    HW1 5519   1.085   6.815   5.376
 1540SOL    HW2 5520   0.923   6.796   5.369
 1541SOL     OW 5521   2.986   3.325   4.363
 1541SOL    HW1 5522   3.001   3.253   4.431
 1541SOL    HW2 5523   3.018   3.293   4.274
 1542SOL     OW 5524   6.434   6.965   2.040
 1542SOL    HW1 5525   6.343   6.995   2.068
 1542SOL    HW2 5526   6.457   7.006   1.952
 1543SOL     OW 5527   3.769   4.958   6.170
 1543SOL    HW1 5528   3.713   5.009   6.104
 1543SOL    HW2 5529   3.783   5.015   6.251
 1544SOL     OW 5530   3.014   3.947   3.771
 1544SOL    HW1 5531   3.082   4.020   3.764
 1544SOL    HW2 5532   2.990   3.933   3.867
 1545SOL     OW 5533   5.737   0.855   2.885
 1545SOL    HW1 5534   5.805   0.929   2.891
 1545SOL    HW2 5535   5.673   0.863   2.961
 1546SOL     OW 5536   5.511   5.895   6.263
 1546SOL    HW1 5537   5.425   5.846   6.264
 1546SOL    HW2 5538   5.586   5.832   6.281
 1547SOL     OW 5539   1.631   3.827   1.361
 1547SOL    HW1 5540   1.611   3.920   1.393
 1547SOL    HW2 5541   1.720   3.827   1.314
 1548SOL     OW 5542   5.530   3.661   0.190
 1548SOL    HW1 5543   5.491   3.675   0.281
 1548SOL    HW2 5544   5.583   3.576   0.189
 1549SOL     OW 5545   4.610   1.505   3.685
 1549SOL    HW1 5546   4.592   1.416   3.644
 1549SOL    HW2 5547   4.613   1.496   3.784
 1550SOL     OW 5548   3.171   3.392   1.309
 1550SOL    HW1 5549   3.188   3.469   1.370
 1550SOL    HW2 5550   3.119   3.422   1.229
 1551SOL     OW 5551   1.154   5.535   6.866
 1551SOL    HW1 5552   1.083   5.506   6.931
 1551SOL    HW2 5553   1.244   5.513   6.904
 1552SOL     OW 5554   1.632   5.395   0.554
 1552SOL    HW1 5555   1.719   5.350   0.577
 1552SOL    HW2 5556   1.649   5.490   0.530
 1553SOL     OW 5557   0.036   1.462   6.425
 1553SOL    HW1 5558   7.006   1.386   6.459
 1553SOL    HW2 5559   0.071   1.514   6.502
 1554SOL     OW 5560   2.932   2.071   3.372
 1554SOL    HW1 5561   2.976   1.988   3.338
 1554SOL    HW2 5562   2.892   2.121   3.295
 1555SOL     OW 5563   5.945   3.494   6.874
 1555SOL    HW1 5564   5.856   3.509   6.830
 1555SOL    HW2 5565   5.972   3.398   6.862
 1556SOL     OW 5566   1.868   1.246   5.877
 1556SOL    HW1 5567   1.805   1.255   5.801
 1556SOL    HW2 5568   1.935   1.175   5.857
 1557SOL     OW 5569   2.192   4.102   6.030
 1557SOL    HW1 5570   2.136   4.128   6.109
 1557SOL    HW2 5571   2.175   4.165   5.955
 1558SOL     OW 5572   6.666   0.640   4.192
 1558SOL    HW1 5573   6.734   0.709   4.167
 1558SOL    HW2 5574   6.605   0.677   4.262
 1559SOL     OW 5575   1.769   3.493   6.573
 1559SOL    HW1 5576   1.673   3.509   6.596
 1559SOL    HW2 5577   1.812   3.579   6.547
 1560SOL     OW 5578   0.242   0.356   6.243
 1560SOL    HW1 5579   0.265   0.345   6.146
 1560SOL    HW2 5580   0.321   0.329   6.299
 1561SOL     OW 5581   4.962   6.316   3.750
 1561SOL    HW1 5582   4.979   6.402   3.702
 1561SOL    HW2 5583   5.038   6.298   3.812
 1562SOL     OW 5584   4.866   6.178   2.476
 1562SOL    HW1 5585   4.835   6.118   2.549
 1562SOL    HW2 5586   4.796   6.182   2.404
 1563SOL     OW 5587   2.783   0.546   5.494
 1563SOL    HW1 5588   2.849   0.471   5.499
 1563SOL    HW2 5589   2.830   0.633   5.510
 1564SOL     OW 5590   1.043   0.560   3.159
 1564SOL    HW1 5591   0.973   0.509   3.209
 1564SOL    HW2 5592   1.098   0.613   3.224
 1565SOL     OW 5593   4.725   4.311   2.905
 1565SOL    HW1 5594   4.666   4.365   2.844
 1565SOL    HW2 5595   4.775   4.243   2.851
 1566SOL     OW 5596   5.744   3.483   3.117
 1566SOL    HW1 5597   5.760   3.407   3.054
 1566SOL    HW2 5598   5.762   3.453   3.211
 1567SOL     OW 5599   5.890   5.935   0.166
 1567SOL    HW1 5600   5.815   5.886   0.211
 1567SOL    HW2 5601   5.859   6.025   0.138
 1568SOL     OW 5602   1.646   7.011   0.490
 1568SOL    HW1 5603   1.576   0.027   0.548
 1568SOL    HW2 5604   1.622   7.024   0.394
 1569SOL     OW 5605   4.547   6.023   3.658
 1569SOL    HW1 5606   4.526   6.084   3.582
 1569SOL    HW2 5607   4.646   6.017   3.671
 1570SOL     OW 5608   2.563   0.745   0.884
 1570SOL    HW1 5609   2.579   0.838   0.918
 1570SOL    HW2 5610   2.633   0.684   0.922
 1571SOL     OW 5611   5.869   3.716   0.999
 1571SOL    HW1 5612   5.909   3.656   1.069
 1571SOL    HW2 5613   5.892   3.681   0.909
 1572SOL     OW 5614   0.350   0.537   2.635
 1572SOL    HW1 5615   0.442   0.513   2.605
 1572SOL    HW2 5616   0.319   0.470   2.703
 1573SOL     OW 5617   5.247   0.898   1.722
 1573SOL    HW1 5618   5.222   0.845   1.641
 1573SOL    HW2 5619   5.178   0.886   1.793
 1574SOL     OW 5620   0.567   2.087   1.359
 1574SOL    HW1 5621   0.559   2.164   1.423
 1574SOL    HW2 5622   0.480   2.073   1.312
 1575SOL     OW 5623   2.620   2.042   0.472
 1575SOL    HW1 5624   2.582   2.029   0.564
 1575SOL    HW2 5625   2.689   2.113   0.475
 1576SOL     OW 5626   6.171   6.278   4.276
 1576SOL    HW1 5627   6.258   6.300   4.319
 1576SOL    HW2 5628   6.134   6.194   4.316
 1577SOL     OW 5629   2.249   1.556   4.663
 1577SOL    HW1 5630   2.324   1.613   4.629
 1577SOL    HW2 5631   2.204   1.510   4.586
 1578SOL     OW 5632   5.848   3.613   5.516
 1578SOL    HW1 5633   5.909   3.537   5.490
 1578SOL    HW2 5634   5.805   3.650   5.434
 1579SOL     OW 5635   0.217   1.613   3.151
 1579SOL    HW1 5636   0.128   1.568   3.157
 1579SOL    HW2 5637   0.272   1.568   3.081
 1580SOL     OW 5638   2.732   4.004   5.302
 1580SOL    HW1 5639   2.803   3.968   5.241
 1580SOL    HW2 5640   2.642   3.975   5.268
 1581SOL     OW 5641   6.907   4.315   4.372
 1581SOL    HW1 5642   6.978   4.245   4.375
 1581SOL    HW2 5643   6.949   4.405   4.366
 1582SOL     OW 5644   1.003   5.229   4.457
 1582SOL    HW1 5645   0.917   5.213   4.409
 1582SOL    HW2 5646   1.065   5.153   4.440
 1583SOL     OW 5647   1.811   2.556   4.083
 1583SOL    HW1 5648   1.898   2.545   4.130
 1583SOL    HW2 5649   1.741   2.585   4.149
 1584SOL     OW 5650   2.198   6.838   5.100
 1584SOL    HW1 5651   2.135   6.805   5.030
 1584SOL    HW2 5652   2.154   6.910   5.154
 1585SOL     OW 5653   5.223   1.682   3.448
 1585SOL    HW1 5654   5.267   1.771   3.437
 1585SOL    HW2 5655   5.233   1.629   3.364
 1586SOL     OW 5656   4.107   3.811   2.108
 1586SOL    HW1 5657   4.132   3.737   2.045
 1586SOL    HW2 5658   4.167   3.890   2.092
 1587SOL     OW 5659   2.791   5.351   5.803
 1587SOL    HW1 5660   2.881   5.391   5.823
 1587SOL    HW2 5661   2.798   5.293   5.722
 1588SOL     OW 5662   4.742   1.783   3.125
 1588SOL    HW1 5663   4.775   1.874   3.100
 1588SOL    HW2 5664   4.665   1.791   3.188
 1589SOL     OW 5665   5.730   3.812   3.547
 1589SOL    HW1 5666   5.672   3.868   3.606
 1589SOL    HW2 5667   5.824   3.816   3.579
 1590SOL     OW 5668   1.704   6.523   6.648
 1590SOL    HW1 5669   1.627   6.528   6.585
 1590SOL    HW2 5670   1.683   6.457   6.721
 1591SOL     OW 5671   0.947   4.851   2.852
 1591SOL    HW1 5672   1.028   4.794   2.834
 1591SOL    HW2 5673   0.908   4.883   2.765
 1592SOL     OW 5674   2.903   3.717   1.229
 1592SOL    HW1 5675   2.902   3.684   1.323
 1592SOL    HW2 5676   2.906   3.639   1.166
 1593SOL     OW 5677   1.138   6.230   4.686
 1593SOL    HW1 5678   1.156   6.299   4.615
 1593SOL    HW2 5679   1.165   6.267   4.775
 1594SOL     OW 5680   0.129   5.293   3.259
 1594SOL    HW1 5681   0.169   5.237   3.187
 1594SOL    HW2 5682   0.048   5.246   3.296
 1595SOL     OW 5683   0.069   4.806   6.602
 1595SOL    HW1 5684   0.079   4.752   6.518
 1595SOL    HW2 5685   0.028   4.749   6.673
 1596SOL     OW 5686   1.410   4.256   5.159
 1596SOL    HW1 5687   1.497   4.296   5.131
 1596SOL    HW2 5688   1.335   4.311   5.124
 1597SOL     OW 5689   2.784   5.696   1.055
 1597SOL    HW1 5690   2.865   5.744   1.087
 1597SOL    HW2 5691   2.710   5.761   1.039
 1598SOL     OW 5692   0.531   3.921   0.380
 1598SOL    HW1 5693   0.440   3.945   0.346
 1598SOL    HW2 5694   0.598   3.987   0.344
 1599SOL     OW 5695   4.335   3.424   6.025
 1599SOL    HW1 5696   4.387   3.352   6.071
 1599SOL    HW2 5697   4.325   3.401   5.929
 1600SOL     OW 5698   5.204   1.513   4.785
 1600SOL    HW1 5699   5.257   1.584   4.831
 1600SOL    HW2 5700   5.122   1.493   4.839
 1601SOL     OW 5701   1.822   4.779   4.100
 1601SOL    HW1 5702   1.758   4.829   4.158
 1601SOL    HW2 5703   1.806   4.803   4.004
 1602SOL     OW 5704   1.591   5.709   3.322
 1602SOL    HW1 5705   1.634   5.619   3.332
 1602SOL    HW2 5706   1.493   5.702   3.338
 1603SOL     OW 5707   1.187   6.794   1.863
 1603SOL    HW1 5708   1.100   6.761   1.826
 1603SOL    HW2 5709   1.211   6.741   1.945
 1604SOL     OW 5710   5.905   5.091   6.644
 1604SOL    HW1 5711   5.846   5.162   6.607
 1604SOL    HW2 5712   5.950   5.042   6.570
 1605SOL     OW 5713   6.480   0.082   2.466
 1605SOL    HW1 5714   6.543   0.091   2.389
 1605SOL    HW2 5715   6.461   7.010   2.482
 1606SOL     OW 5716   4.539   0.855   5.541
 1606SOL    HW1 5717   4.482   0.782   5.578
 1606SOL    HW2 5718   4.599   0.890   5.614
 1607SOL     OW 5719   4.775   2.649   0.903
 1607SOL    HW1 5720   4.814   2.611   0.987
 1607SOL    HW2 5721   4.802   2.745   0.895
 1608SOL     OW 5722   1.221   0.352   6.272
 1608SOL    HW1 5723   1.290   0.418   6.241
 1608SOL    HW2 5724   1.267   0.277   6.319
 1609SOL     OW 5725   5.864   2.193   6.109
 1609SOL    HW1 5726   5.963   2.187   6.118
 1609SOL    HW2 5727   5.822   2.111   6.147
 1610SOL     OW 5728   5.730   4.186   4.821
 1610SOL    HW1 5729   5.756   4.112   4.759
 1610SOL    HW2 5730   5.809   4.216   4.873
 1611SOL     OW 5731   3.433   3.075   2.314
 1611SOL    HW1 5732   3.448   3.172   2.298
 1611SOL    HW2 5733   3.378   3.037   2.239
 1612SOL     OW 5734   2.175   1.552   5.354
 1612SOL    HW1 5735   2.190   1.480   5.286
 1612SOL    HW2 5736   2.182   1.513   5.446
 1613SOL     OW 5737   2.292   5.816   0.945
 1613SOL    HW1 5738   2.330   5.749   0.881
 1613SOL    HW2 5739   2.214   5.862   0.903
 1614SOL     OW 5740   6.817   3.282   0.342
 1614SOL    HW1 5741   6.900   3.292   0.397
 1614SOL    HW2 5742   6.781   3.372   0.320
 1615SOL     OW 5743   6.995   5.072   0.987
 1615SOL    HW1 5744   0.018   5.074   1.075
 1615SOL    HW2 5745   0.027   5.027   0.918
 1616SOL     OW 5746   4.388   2.270   6.537
 1616SOL    HW1 5747   4.415   2.349   6.592
 1616SOL    HW2 5748   4.405   2.186   6.588
 1617SOL     OW 5749   6.030   0.108   2.427
 1617SOL    HW1 5750   6.014   0.109   2.526
 1617SOL    HW2 5751   6.034   0.203   2.394
 1618SOL     OW 5752   0.091   3.539   1.650
 1618SOL    HW1 5753   0.137   3.621   1.686
 1618SOL    HW2 5754   0.160   3.472   1.624
 1619SOL     OW 5755   1.275   3.562   4.524
 1619SOL    HW1 5756   1.348   3.498   4.549
 1619SOL    HW2 5757   1.204   3.513   4.473
 1620SOL     OW 5758   2.026   5.885   0.639
 1620SOL    HW1 5759   1.928   5.905   0.634
 1620SOL    HW2 5760   2.075   5.944   0.576
 1621SOL     OW 5761   0.408   0.647   6.758
 1621SOL    HW1 5762   0.489   0.645   6.816
 1621SOL    HW2 5763   0.414   0.723   6.693
 1622SOL     OW 5764   1.309   2.288   4.555
 1622SOL    HW1 5765   1.342   2.234   4.632
 1622SOL    HW2 5766   1.239   2.236   4.505
 1623SOL     OW 5767   2.743   2.634   6.283
 1623SOL    HW1 5768   2.832   2.588   6.291
 1623SOL    HW2 5769   2.741   2.686   6.198
 1624SOL     OW 5770   2.407   0.892   6.643
 1624SOL    HW1 5771   2.397   0.873   6.545
 1624SOL    HW2 5772   2.359   0.977   6.665
 1625SOL     OW 5773   1.244   5.373   1.906
 1625SOL    HW1 5774   1.186   5.294   1.927
 1625SOL    HW2 5775   1.337   5.342   1.887
 1626SOL     OW 5776   2.227   2.368   0.030
 1626SOL    HW1 5777   2.160   2.294   0.028
 1626SOL    HW2 5778   2.283   2.365   6.973
 1627SOL     OW 5779   6.433   1.616   4.310
 1627SOL    HW1 5780   6.518   1.624   4.257
 1627SOL    HW2 5781   6.440   1.537   4.371
 1628SOL     OW 5782   3.508   4.824   0.404
 1628SOL    HW1 5783   3.454   4.900   0.369
 1628SOL    HW2 5784   3.597   4.858   0.436
 1629SOL     OW 5785   3.060   2.206   4.653
 1629SOL    HW1 5786   3.152   2.185   4.620
 1629SOL    HW2 5787   3.056   2.302   4.680
 1630SOL     OW 5788   0.717   5.770   5.133
 1630SOL    HW1 5789   0.697   5.827   5.213
 1630SOL    HW2 5790   0.810   5.733   5.141
 1631SOL     OW 5791   6.940   0.498   5.872
 1631SOL    HW1 5792   6.853   0.547   5.865
 1631SOL    HW2 5793   6.962   0.484   5.969
 1632SOL     OW 5794   0.474   1.062   6.897
 1632SOL    HW1 5795   0.405   1.048   6.827
 1632SOL    HW2 5796   0.500   1.158   6.901
 1633SOL     OW 5797   5.871   2.780   2.613
 1633SOL    HW1 5798   5.814   2.705   2.579
 1633SOL    HW2 5799   5.874   2.853   2.545
 1634SOL     OW 5800   4.214   5.417   6.102
 1634SOL    HW1 5801   4.240   5.324   6.130
 1634SOL    HW2 5802   4.293   5.462   6.060
 1635SOL     OW 5803   6.517   5.931   4.642
 1635SOL    HW1 5804   6.495   5.997   4.714
 1635SOL    HW2 5805   6.559   5.979   4.564
 1636SOL     OW 5806   2.605   4.994   1.474
 1636SOL    HW1 5807   2.689   4.951   1.441
 1636SOL    HW2 5808   2.568   4.941   1.551
 1637SOL     OW 5809   6.900   2.399   2.634
 1637SOL    HW1 5810   6.890   2.331   2.561
 1637SOL    HW2 5811   6.880   2.490   2.598
 1638SOL     OW 5812   6.696   2.726   3.960
 1638SOL    HW1 5813   6.692   2.657   3.888
 1638SOL    HW2 5814   6.653   2.810   3.928
 1639SOL     OW 5815   5.542   5.839   3.202
 1639SOL    HW1 5816   5.641   5.850   3.195
 1639SOL    HW2 5817   5.505   5.912   3.259
 1640SOL     OW 5818   5.988   2.071   0.445
 1640SOL    HW1 5819   5.905   2.018   0.466
 1640SOL    HW2 5820   5.963   2.153   0.395
 1641SOL     OW 5821   5.359   2.923   3.451
 1641SOL    HW1 5822   5.284   2.966   3.401
 1641SOL    HW2 5823   5.407   2.993   3.504
 1642SOL     OW 5824   6.996   3.470   0.171
 1642SOL    HW1 5825   6.925   3.403   0.148
 1642SOL    HW2 5826   6.961   3.563   0.154
 1643SOL     OW 5827   3.655   6.870   5.013
 1643SOL    HW1 5828   3.706   6.950   4.980
 1643SOL    HW2 5829   3.621   6.817   4.935
 1644SOL     OW 5830   2.839   2.360   1.525
 1644SOL    HW1 5831   2.776   2.305   1.471
 1644SOL    HW2 5832   2.788   2.428   1.578
 1645SOL     OW 5833   2.794   6.177   5.793
 1645SOL    HW1 5834   2.757   6.130   5.873
 1645SOL    HW2 5835   2.831   6.266   5.821
 1646SOL     OW 5836   2.828   5.075   1.234
 1646SOL    HW1 5837   2.742   5.122   1.254
 1646SOL    HW2 5838   2.871   5.117   1.154
 1647SOL     OW 5839   6.065   2.851   3.429
 1647SOL    HW1 5840   5.990   2.905   3.468
 1647SOL    HW2 5841   6.047   2.754   3.442
 1648SOL     OW 5842   5.314   6.709   2.194
 1648SOL    HW1 5843   5.333   6.611   2.183
 1648SOL    HW2 5844   5.401   6.759   2.190
 1649SOL     OW 5845   3.140   0.435   2.709
 1649SOL    HW1 5846   3.046   0.406   2.692
 1649SOL    HW2 5847   3.185   0.456   2.622
 1650SOL     OW 5848   2.891   0.027   3.939
 1650SOL    HW1 5849   2.884   0.079   3.854
 1650SOL    HW2 5850   2.939   0.082   4.008
 1651SOL     OW 5851   0.334   0.228   0.383
 1651SOL    HW1 5852   0.240   0.251   0.362
 1651SOL    HW2 5853   0.339   0.136   0.421
 1652SOL     OW 5854   2.731   1.930   1.040
 1652SOL    HW1 5855   2.664   1.901   1.109
 1652SOL    HW2 5856   2.768   2.020   1.066
 1653SOL     OW 5857   0.090   5.138   1.220
 1653SOL    HW1 5858   0.013   5.155   1.282
 1653SOL    HW2 5859   0.142   5.059   1.253
 1654SOL     OW 5860   6.775   2.994   2.408
 1654SOL    HW1 5861   6.717   3.037   2.477
 1654SOL    HW2 5862   6.738   3.013   2.317
 1655SOL     OW 5863   5.615   4.662   6.155
 1655SOL    HW1 5864   5.644   4.569   6.176
 1655SOL    HW2 5865   5.632   4.681   6.058
 1656SOL     OW 5866   1.687   4.089   3.847
 1656SOL    HW1 5867   1.752   4.013   3.856
 1656SOL    HW2 5868   1.638   4.102   3.933
 1657SOL     OW 5869   1.131   1.123   5.841
 1657SOL    HW1 5870   1.058   1.062   5.813
 1657SOL    HW2 5871   1.152   1.108   5.938
 1658SOL     OW 5872   6.380   6.318   3.070
 1658SOL    HW1 5873   6.301   6.291   3.126
 1658SOL    HW2 5874   6.406   6.241   3.011
 1659SOL     OW 5875   3.615   2.131   6.602
 1659SOL    HW1 5876   3.576   2.056   6.656
 1659SOL    HW2 5877   3.542   2.189   6.567
 1660SOL     OW 5878   0.597   5.320   3.663
 1660SOL    HW1 5879   0.641   5.407   3.683
 1660SOL    HW2 5880   0.594   5.305   3.564
 1661SOL     OW 5881   3.190   1.802   2.317
 1661SOL    HW1 5882   3.210   1.705   2.303
 1661SOL    HW2 5883   3.114   1.829   2.257
 1662SOL     OW 5884   6.378   1.746   3.148
 1662SOL    HW1 5885   6.422   1.802   3.077
 1662SOL    HW2 5886   6.300   1.796   3.185
 1663SOL     OW 5887   3.090   0.304   3.570
 1663SOL    HW1 5888   3.131   0.351   3.492
 1663SOL    HW2 5889   3.006   0.258   3.541
 1664SOL     OW 5890   1.903   0.292   4.240
 1664SOL    HW1 5891   1.887   0.391   4.240
 1664SOL    HW2 5892   1.954   0.267   4.322
 1665SOL     OW 5893   0.022   1.536   2.809
 1665SOL    HW1 5894   6.967   1.479   2.792
 1665SOL    HW2 5895   0.099   1.478   2.834
 1666SOL     OW 5896   6.000   3.244   6.838
 1666SOL    HW1 5897   6.050   3.218   6.756
 1666SOL    HW2 5898   5.918   3.188   6.846
 1667SOL     OW 5899   6.002   6.763   0.167
 1667SOL    HW1 5900   6.079   6.708   0.134
 1667SOL    HW2 5901   5.972   6.825   0.095
 1668SOL     OW 5902   4.780   0.044   4.808
 1668SOL    HW1 5903   4.782   7.002   4.882
 1668SOL    HW2 5904   4.851   0.112   4.822
 1669SOL     OW 5905   5.546   5.965   0.102
 1669SOL    HW1 5906   5.585   6.032   0.165
 1669SOL    HW2 5907   5.521   6.009   0.016
 1670SOL     OW 5908   6.561   5.545   5.882
 1670SOL    HW1 5909   6.575   5.537   5.981
 1670SOL    HW2 5910   6.541   5.455   5.844
 1671SOL     OW 5911   4.491   2.811   1.076
 1671SOL    HW1 5912   4.395   2.796   1.100
 1671SOL    HW2 5913   4.532   2.724   1.048
 1672SOL     OW 5914   1.990   4.478   2.716
 1672SOL    HW1 5915   2.074   4.511   2.672
 1672SOL    HW2 5916   1.999   4.485   2.816
 1673SOL     OW 5917   6.445   2.785   5.138
 1673SOL    HW1 5918   6.376   2.852   5.110
 1673SOL    HW2 5919   6.512   2.773   5.065
 1674SOL     OW 5920   1.415   4.143   0.892
 1674SOL    HW1 5921   1.490   4.125   0.956
 1674SOL    HW2 5922   1.400   4.062   0.835
 1675SOL     OW 5923   4.262   0.620   6.596
 1675SOL    HW1 5924   4.340   0.586   6.544
 1675SOL    HW2 5925   4.251   0.566   6.680
 1676SOL     OW 5926   2.222   1.261   2.435
 1676SOL    HW1 5927   2.321   1.274   2.443
 1676SOL    HW2 5928   2.198   1.242   2.340
 1677SOL     OW 5929   5.834   2.201   5.243
 1677SOL    HW1 5930   5.894   2.122   5.257
 1677SOL    HW2 5931   5.750   2.189   5.295
 1678SOL     OW 5932   5.449   5.577   3.224
 1678SOL    HW1 5933   5.491   5.507   3.167
 1678SOL    HW2 5934   5.494   5.665   3.209
 1679SOL     OW 5935   1.829   3.927   5.515
 1679SOL    HW1 5936   1.789   3.943   5.424
 1679SOL    HW2 5937   1.858   3.831   5.521
 1680SOL     OW 5938   0.810   1.722   3.962
 1680SOL    HW1 5939   0.781   1.627   3.967
 1680SOL    HW2 5940   0.829   1.746   3.867
 1681SOL     OW 5941   6.348   5.242   0.945
 1681SOL    HW1 5942   6.332   5.148   0.977
 1681SOL    HW2 5943   6.418   5.241   0.873
 1682SOL     OW 5944   0.289   3.298   4.756
 1682SOL    HW1 5945   0.350   3.232   4.801
 1682SOL    HW2 5946   0.233   3.250   4.688
 1683SOL     OW 5947   4.036   4.933   0.969
 1683SOL    HW1 5948   4.012   4.844   0.930
 1683SOL    HW2 5949   3.958   4.995   0.961
 1684SOL     OW 5950   0.617   6.588   4.923
 1684SOL    HW1 5951   0.651   6.495   4.934
 1684SOL    HW2 5952   0.658   6.647   4.992
 1685SOL     OW 5953   2.034   1.312   6.465
 1685SOL    HW1 5954   1.999   1.308   6.559
 1685SOL    HW2 5955   1.960   1.340   6.404
 1686SOL     OW 5956   1.477   5.461   5.613
 1686SOL    HW1 5957   1.574   5.451   5.635
 1686SOL    HW2 5958   1.435   5.526   5.676
 1687SOL     OW 5959   1.833   3.858   2.006
 1687SOL    HW1 5960   1.895   3.813   2.071
 1687SOL    HW2 5961   1.786   3.934   2.052
 1688SOL     OW 5962   1.487   1.754   3.086
 1688SOL    HW1 5963   1.416   1.687   3.066
 1688SOL    HW2 5964   1.458   1.812   3.162
 1689SOL     OW 5965   3.314   2.047   1.963
 1689SOL    HW1 5966   3.349   2.117   1.900
 1689SOL    HW2 5967   3.358   1.960   1.943
 1690SOL     OW 5968   1.711   2.017   2.899
 1690SOL    HW1 5969   1.804   2.023   2.935
 1690SOL    HW2 5970   1.699   1.928   2.854
 1691SOL     OW 5971   5.460   3.946   3.085
 1691SOL    HW1 5972   5.540   3.954   3.144
 1691SOL    HW2 5973   5.444   4.033   3.038
 1692SOL     OW 5974   6.743   0.171   1.213
 1692SOL    HW1 5975   6.696   0.214   1.290
 1692SOL    HW2 5976   6.816   0.113   1.247
 1693SOL     OW 5977   1.817   2.339   3.692
 1693SOL    HW1 5978   1.734   2.345   3.637
 1693SOL    HW2 5979   1.897   2.343   3.633
 1694SOL     OW 5980   4.313   6.275   4.858
 1694SOL    HW1 5981   4.276   6.190   4.820
 1694SOL    HW2 5982   4.386   6.252   4.923
 1695SOL     OW 5983   2.058   2.062   5.367
 1695SOL    HW1 5984   1.969   2.048   5.325
 1695SOL    HW2 5985   2.093   2.152   5.343
 1696SOL     OW 5986   4.932   5.532   0.247
 1696SOL    HW1 5987   4.966   5.439   0.231
 1696SOL    HW2 5988   4.902   5.540   0.342
 1697SOL     OW 5989   0.677   6.877   0.926
 1697SOL    HW1 5990   0.680   6.848   1.021
 1697SOL    HW2 5991   0.736   6.819   0.871
 1698SOL     OW 5992   4.844   1.789   1.209
 1698SOL    HW1 5993   4.846   1.716   1.277
 1698SOL    HW2 5994   4.826   1.750   1.118
 1699SOL     OW 5995   2.545   2.548   1.204
 1699SOL    HW1 5996   2.498   2.474   1.252
 1699SOL    HW2 5997   2.643   2.532   1.207
 1700SOL     OW 5998   6.630   2.479   3.494
 1700SOL    HW1 5999   6.654   2.384   3.513
 1700SOL    HW2 6000   6.657   2.502   3.400
 1701SOL     OW 6001   5.566   2.620   4.966
 1701SOL    HW1 6002   5.581   2.584   5.058
 1701SOL    HW2 6003   5.642   2.594   4.907
 1702SOL     OW 6004   6.678   3.868   1.504
 1702SOL    HW1 6005   6.588   3.897   1.538
 1702SOL    HW2 6006   6.706   3.785   1.551
 1703SOL     OW 6007   2.871   3.863   1.642
 1703SOL    HW1 6008   2.918   3.889   1.727
 1703SOL    HW2 6009   2.855   3.945   1.587
 1704SOL     OW 6010   0.649   1.302   0.520
 1704SOL    HW1 6011   0.698   1.359   0.455
 1704SOL    HW2 6012   0.707   1.225   0.548
 1705SOL     OW 6013   3.537   2.276   1.233
 1705SOL    HW1 6014   3.582   2.358   1.196
 1705SOL    HW2 6015   3.469   2.303   1.300
 1706SOL     OW 6016   4.285   0.453   1.300
 1706SOL    HW1 6017   4.343   0.493   1.229
 1706SOL    HW2 6018   4.319   0.481   1.390
 1707SOL     OW 6019   4.320   1.657   2.360
 1707SOL    HW1 6020   4.345   1.598   2.437
 1707SOL    HW2 6021   4.353   1.750   2.376
 1708SOL     OW 6022   6.625   6.081   3.065
 1708SOL    HW1 6023   6.646   6.036   2.978
 1708SOL    HW2 6024   6.654   6.177   3.061
 1709SOL     OW 6025   2.584   7.005   2.531
 1709SOL    HW1 6026   2.630   6.975   2.448
 1709SOL    HW2 6027   2.513   0.046   2.508
 1710SOL     OW 6028   0.237   3.893   3.557
 1710SOL    HW1 6029   0.301   3.854   3.623
 1710SOL    HW2 6030   0.289   3.928   3.478
 1711SOL     OW 6031   1.210   4.403   5.084
 1711SOL    HW1 6032   1.196   4.429   5.179
 1711SOL    HW2 6033   1.122   4.402   5.036
 1712SOL     OW 6034   0.700   4.362   6.881
 1712SOL    HW1 6035   0.628   4.317   6.828
 1712SOL    HW2 6036   0.790   4.335   6.845
 1713SOL     OW 6037   1.997   2.351   1.363
 1713SOL    HW1 6038   2.000   2.404   1.278
 1713SOL    HW2 6039   1.961   2.408   1.437
 1714SOL     OW 6040   3.668   1.846   6.934
 1714SOL    HW1 6041   3.605   1.792   6.989
 1714SOL    HW2 6042   3.727   1.900   6.995
 1715SOL     OW 6043   6.760   3.095   3.615
 1715SOL    HW1 6044   6.799   3.076   3.705
 1715SOL    HW2 6045   6.715   3.013   3.580
 1716SOL     OW 6046   5.924   6.983   1.237
 1716SOL    HW1 6047   5.910   0.042   1.288
 1716SOL    HW2 6048   5.962   6.913   1.297
 1717SOL     OW 6049   2.273   5.995   6.899
 1717SOL    HW1 6050   2.270   5.916   6.838
 1717SOL    HW2 6051   2.330   5.973   6.978
 1718SOL     OW 6052   2.188   3.281   0.288
 1718SOL    HW1 6053   2.196   3.220   0.209
 1718SOL    HW2 6054   2.128   3.239   0.357
 1719SOL     OW 6055   2.122   3.281   1.485
 1719SOL    HW1 6056   2.195   3.247   1.545
 1719SOL    HW2 6057   2.160   3.348   1.421
 1720SOL     OW 6058   6.552   2.104   0.956
 1720SOL    HW1 6059   6.566   2.146   1.046
 1720SOL    HW2 6060   6.469   2.048   0.959
 1721SOL     OW 6061   1.510   6.350   2.703
 1721SOL    HW1 6062   1.547   6.443   2.705
 1721SOL    HW2 6063   1.411   6.354   2.689
 1722SOL     OW 6064   5.694   0.147   2.695
 1722SOL    HW1 6065   5.637   0.068   2.672
 1722SOL    HW2 6066   5.730   0.188   2.611
 1723SOL     OW 6067   6.284   2.491   3.184
 1723SOL    HW1 6068   6.265   2.584   3.152
 1723SOL    HW2 6069   6.312   2.494   3.280
 1724SOL     OW 6070   5.853   1.010   0.315
 1724SOL    HW1 6071   5.892   1.100   0.295
 1724SOL    HW2 6072   5.753   1.015   0.310
 1725SOL     OW 6073   3.639   4.361   0.021
 1725SOL    HW1 6074   3.711   4.297   0.049
 1725SOL    HW2 6075   3.596   4.328   6.962
 1726SOL     OW 6076   6.792   4.698   4.666
 1726SOL    HW1 6077   6.737   4.689   4.583
 1726SOL    HW2 6078   6.749   4.647   4.740
 1727SOL     OW 6079   3.829   3.560   4.714
 1727SOL    HW1 6080   3.792   3.574   4.622
 1727SOL    HW2 6081   3.913   3.507   4.708
 1728SOL     OW 6082   4.935   4.521   4.388
 1728SOL    HW1 6083   4.992   4.482   4.316
 1728SOL    HW2 6084   4.843   4.483   4.382
 1729SOL     OW 6085   1.798   4.107   3.130
 1729SOL    HW1 6086   1.837   4.049   3.059
 1729SOL    HW2 6087   1.865   4.119   3.203
 1730SOL     OW 6088   6.598   1.294   4.976
 1730SOL    HW1 6089   6.567   1.329   5.065
 1730SOL    HW2 6090   6.698   1.296   4.973
 1731SOL     OW 6091   1.706   4.865   2.103
 1731SOL    HW1 6092   1.701   4.776   2.150
 1731SOL    HW2 6093   1.766   4.857   2.023
 1732SOL     OW 6094   2.222   4.636   0.110
 1732SOL    HW1 6095   2.279   4.614   0.031
 1732SOL    HW2 6096   2.190   4.551   0.153
 1733SOL     OW 6097   1.486   3.734   2.244
 1733SOL    HW1 6098   1.547   3.664   2.281
 1733SOL    HW2 6099   1.510   3.752   2.149
 1734SOL     OW 6100   4.626   2.741   1.330
 1734SOL    HW1 6101   4.541   2.695   1.304
 1734SOL    HW2 6102   4.634   2.827   1.279
 1735SOL     OW 6103   5.777   5.940   1.450
 1735SOL    HW1 6104   5.794   5.881   1.529
 1735SOL    HW2 6105   5.796   5.890   1.366
 1736SOL     OW 6106   4.782   2.687   6.893
 1736SOL    HW1 6107   4.730   2.718   6.814
 1736SOL    HW2 6108   4.878   2.677   6.867
 1737SOL     OW 6109   2.211   0.252   3.788
 1737SOL    HW1 6110   2.290   0.299   3.828
 1737SOL    HW2 6111   2.242   0.174   3.735
 1738SOL     OW 6112   2.022   3.034   3.351
 1738SOL    HW1 6113   2.015   2.947   3.399
 1738SOL    HW2 6114   2.028   3.019   3.253
 1739SOL     OW 6115   4.381   2.228   4.924
 1739SOL    HW1 6116   4.351   2.143   4.967
 1739SOL    HW2 6117   4.304   2.292   4.919
 1740SOL     OW 6118   6.902   1.078   6.587
 1740SOL    HW1 6119   6.873   1.167   6.622
 1740SOL    HW2 6120   6.970   1.091   6.516
 1741SOL     OW 6121   1.828   0.811   2.772
 1741SOL    HW1 6122   1.866   0.718   2.763
 1741SOL    HW2 6123   1.746   0.808   2.828
 1742SOL     OW 6124   4.833   6.611   6.205
 1742SOL    HW1 6125   4.755   6.670   6.224
 1742SOL    HW2 6126   4.810   6.548   6.130
 1743SOL     OW 6127   1.603   0.997   1.850
 1743SOL    HW1 6128   1.589   1.082   1.901
 1743SOL    HW2 6129   1.516   0.951   1.837
 1744SOL     OW 6130   2.084   0.360   1.780
 1744SOL    HW1 6131   2.142   0.437   1.809
 1744SOL    HW2 6132   2.017   0.392   1.713
 1745SOL     OW 6133   6.651   1.603   4.140
 1745SOL    HW1 6134   6.628   1.688   4.093
 1745SOL    HW2 6135   6.700   1.543   4.077
 1746SOL     OW 6136   2.759   6.028   6.016
 1746SOL    HW1 6137   2.847   6.017   6.062
 1746SOL    HW2 6138   2.689   5.976   6.064
 1747SOL     OW 6139   4.996   6.595   1.925
 1747SOL    HW1 6140   4.959   6.589   1.832
 1747SOL    HW2 6141   5.069   6.664   1.928
 1748SOL     OW 6142   6.280   1.800   3.938
 1748SOL    HW1 6143   6.255   1.848   3.854
 1748SOL    HW2 6144   6.360   1.844   3.979
 1749SOL     OW 6145   3.833   6.749   5.922
 1749SOL    HW1 6146   3.846   6.810   5.843
 1749SOL    HW2 6147   3.804   6.802   6.001
 1750SOL     OW 6148   5.237   1.345   2.993
 1750SOL    HW1 6149   5.303   1.420   2.983
 1750SOL    HW2 6150   5.247   1.304   3.084
 1751SOL     OW 6151   2.698   4.730   4.798
 1751SOL    HW1 6152   2.765   4.702   4.866
 1751SOL    HW2 6153   2.633   4.655   4.782
 1752SOL     OW 6154   6.624   2.460   0.920
 1752SOL    HW1 6155   6.675   2.378   0.893
 1752SOL    HW2 6156   6.678   2.513   0.986
 1753SOL     OW 6157   0.439   0.377   6.999
 1753SOL    HW1 6158   0.408   0.371   6.905
 1753SOL    HW2 6159   0.426   0.288   0.019
 1754SOL     OW 6160   3.715   3.789   1.151
 1754SOL    HW1 6161   3.625   3.805   1.111
 1754SOL    HW2 6162   3.723   3.693   1.177
 1755SOL     OW 6163   5.302   4.665   1.726
 1755SOL    HW1 6164   5.250   4.686   1.809
 1755SOL    HW2 6165   5.327   4.750   1.680
 1756SOL     OW 6166   5.979   4.766   4.730
 1756SOL    HW1 6167   5.897   4.757   4.787
 1756SOL    HW2 6168   6.006   4.676   4.695
 1757SOL     OW 6169   1.902   6.590   4.977
 1757SOL    HW1 6170   1.855   6.651   5.041
 1757SOL    HW2 6171   1.920   6.638   4.892
 1758SOL     OW 6172   2.817   1.101   3.363
 1758SOL    HW1 6173   2.862   1.022   3.323
 1758SOL    HW2 6174   2.877   1.181   3.356
 1759SOL     OW 6175   0.573   4.860   6.421
 1759SOL    HW1 6176   0.663   4.859   6.464
 1759SOL    HW2 6177   0.554   4.951   6.385
 1760SOL     OW 6178   6.222   1.780   1.424
 1760SOL    HW1 6179   6.130   1.815   1.406
 1760SOL    HW2 6180   6.288   1.826   1.364
 1761SOL     OW 6181   6.674   0.525   0.772
 1761SOL    HW1 6182   6.643   0.505   0.679
 1761SOL    HW2 6183   6.657   0.446   0.831
 1762SOL     OW 6184   6.383   1.654   5.237
 1762SOL    HW1 6185   6.338   1.743   5.249
 1762SOL    HW2 6186   6.436   1.655   5.153
 1763SOL     OW 6187   1.875   4.105   4.441
 1763SOL    HW1 6188   1.812   4.167   4.394
 1763SOL    HW2 6189   1.841   4.012   4.435
 1764SOL     OW 6190   1.680   4.181   2.522
 1764SOL    HW1 6191   1.706   4.269   2.561
 1764SOL    HW2 6192   1.759   4.138   2.479
 1765SOL     OW 6193   3.067   1.087   6.910
 1765SOL    HW1 6194   3.133   1.079   6.985
 1765SOL    HW2 6195   3.015   1.172   6.921
 1766SOL     OW 6196   5.673   2.447   4.551
 1766SOL    HW1 6197   5.599   2.396   4.596
 1766SOL    HW2 6198   5.752   2.451   4.612
 1767SOL     OW 6199   5.153   4.124   2.790
 1767SOL    HW1 6200   5.222   4.184   2.749
 1767SOL    HW2 6201   5.156   4.034   2.747
 1768SOL     OW 6202   4.358   0.071   4.869
 1768SOL    HW1 6203   4.433   0.118   4.822
 1768SOL    HW2 6204   4.277   0.069   4.810
 1769SOL     OW 6205   4.148   2.198   4.309
 1769SOL    HW1 6206   4.231   2.143   4.301
 1769SOL    HW2 6207   4.140   2.259   4.230
 1770SOL     OW 6208   1.557   5.674   4.582
 1770SOL    HW1 6209   1.618   5.691   4.660
 1770SOL    HW2 6210   1.511   5.759   4.557
 1771SOL     OW 6211   2.678   5.872   6.514
 1771SOL    HW1 6212   2.709   5.882   6.608
 1771SOL    HW2 6213   2.674   5.962   6.470
 1772SOL     OW 6214   3.700   0.323   4.045
 1772SOL    HW1 6215   3.771   0.370   4.097
 1772SOL    HW2 6216   3.662   0.386   3.977
 1773SOL     OW 6217   2.749   5.217   5.532
 1773SOL    HW1 6218   2.762   5.118   5.534
 1773SOL    HW2 6219   2.720   5.245   5.440
 1774SOL     OW 6220   4.381   5.764   1.894
 1774SOL    HW1 6221   4.436   5.690   1.857
 1774SOL    HW2 6222   4.366   5.833   1.823
 1775SOL     OW 6223   1.486   3.796   3.273
 1775SOL    HW1 6224   1.395   3.795   3.232
 1775SOL    HW2 6225   1.520   3.891   3.277
 1776SOL     OW 6226   3.708   6.372   4.602
 1776SOL    HW1 6227   3.664   6.460   4.586
 1776SOL    HW2 6228   3.802   6.374   4.568
 1777SOL     OW 6229   3.854   5.426   6.529
 1777SOL    HW1 6230   3.949   5.415   6.499
 1777SOL    HW2 6231   3.793   5.404   6.453
 1778SOL     OW 6232   4.530   3.616   5.795
 1778SOL    HW1 6233   4.542   3.671   5.712
 1778SOL    HW2 6234   4.459   3.548   5.779
 1779SOL     OW 6235   4.566   0.415   4.811
 1779SOL    HW1 6236   4.592   0.340   4.750
 1779SOL    HW2 6237   4.644   0.437   4.870
 1780SOL     OW 6238   3.737   2.997   6.937
 1780SOL    HW1 6239   3.780   2.921   6.886
 1780SOL    HW2 6240   3.683   2.960   7.012
 1781SOL     OW 6241   3.903   6.141   2.576
 1781SOL    HW1 6242   3.961   6.168   2.653
 1781SOL    HW2 6243   3.959   6.118   2.497
 1782SOL     OW 6244   2.948   1.584   2.903
 1782SOL    HW1 6245   2.977   1.495   2.868
 1782SOL    HW2 6246   2.862   1.611   2.859
 1783SOL     OW 6247   1.952   6.009   5.987
 1783SOL    HW1 6248   1.951   6.041   5.892
 1783SOL    HW2 6249   2.040   5.966   6.007
 1784SOL     OW 6250   3.910   1.420   6.403
 1784SOL    HW1 6251   3.868   1.448   6.489
 1784SOL    HW2 6252   3.980   1.350   6.421
 1785SOL     OW 6253   6.432   4.105   2.993
 1785SOL    HW1 6254   6.411   4.007   2.995
 1785SOL    HW2 6255   6.530   4.118   2.977
 1786SOL     OW 6256   2.180   2.850   6.961
 1786SOL    HW1 6257   2.141   2.919   7.021
 1786SOL    HW2 6258   2.173   2.760   7.004
 1787SOL     OW 6259   2.574   1.331   5.022
 1787SOL    HW1 6260   2.503   1.370   4.964
 1787SOL    HW2 6261   2.545   1.241   5.055
 1788SOL     OW 6262   2.765   3.467   6.690
 1788SOL    HW1 6263   2.827   3.471   6.611
 1788SOL    HW2 6264   2.754   3.371   6.718
 1789SOL     OW 6265   5.760   1.699   2.408
 1789SOL    HW1 6266   5.690   1.764   2.436
 1789SOL    HW2 6267   5.850   1.736   2.430
 1790SOL     OW 6268   4.246   6.587   3.823
 1790SOL    HW1 6269   4.166   6.528   3.816
 1790SOL    HW2 6270   4.231   6.657   3.893
 1791SOL     OW 6271   6.133   0.463   3.656
 1791SOL    HW1 6272   6.144   0.497   3.749
 1791SOL    HW2 6273   6.212   0.488   3.601
 1792SOL     OW 6274   6.202   3.434   5.323
 1792SOL    HW1 6275   6.212   3.490   5.405
 1792SOL    HW2 6276   6.280   3.372   5.315
 1793SOL     OW 6277   6.063   6.954   3.710
 1793SOL    HW1 6278   6.050   0.024   3.686
 1793SOL    HW2 6279   6.096   6.903   3.630
 1794SOL     OW 6280   5.060   6.419   5.454
 1794SOL    HW1 6281   5.075   6.321   5.442
 1794SOL    HW2 6282   5.114   6.470   5.386
 1795SOL     OW 6283   0.965   2.263   1.496
 1795SOL    HW1 6284   0.986   2.349   1.449
 1795SOL    HW2 6285   1.027   2.192   1.463
 1796SOL     OW 6286   2.712   0.890   5.288
 1796SOL    HW1 6287   2.771   0.964   5.321
 1796SOL    HW2 6288   2.635   0.930   5.238
 1797SOL     OW 6289   1.589   0.122   0.766
 1797SOL    HW1 6290   1.515   0.175   0.806
 1797SOL    HW2 6291   1.677   0.155   0.802
 1798SOL     OW 6292   4.716   2.269   3.675
 1798SOL    HW1 6293   4.800   2.317   3.650
 1798SOL    HW2 6294   4.663   2.327   3.737
 1799SOL     OW 6295   6.811   2.810   5.435
 1799SOL    HW1 6296   6.812   2.716   5.469
 1799SOL    HW2 6297   6.871   2.866   5.492
 1800SOL     OW 6298   4.060   4.561   1.781
 1800SOL    HW1 6299   3.979   4.504   1.776
 1800SOL    HW2 6300   4.039   4.653   1.748
 1801SOL     OW 6301   0.305   6.909   1.786
 1801SOL    HW1 6302   0.367   6.953   1.851
 1801SOL    HW2 6303   0.293   6.968   1.706
 1802SOL     OW 6304   5.136   5.393   4.187
 1802SOL    HW1 6305   5.216   5.335   4.205
 1802SOL    HW2 6306   5.076   5.391   4.267
 1803SOL     OW 6307   6.988   5.541   6.265
 1803SOL    HW1 6308   6.951   5.448   6.270
 1803SOL    HW2 6309   0.032   5.546   6.193
 1804SOL     OW 6310   2.473   3.696   5.358
 1804SOL    HW1 6311   2.490   3.705   5.456
 1804SOL    HW2 6312   2.528   3.763   5.308
 1805SOL     OW 6313   5.673   4.223   6.162
 1805SOL    HW1 6314   5.680   4.124   6.175
 1805SOL    HW2 6315   5.727   4.250   6.082
 1806SOL     OW 6316   0.336   7.019   6.773
 1806SOL    HW1 6317   0.270   0.013   6.846
 1806SOL    HW2 6318   0.422   0.040   6.793
 1807SOL     OW 6319   5.139   2.925   4.600
 1807SOL    HW1 6320   5.061   2.877   4.640
 1807SOL    HW2 6321   5.215   2.862   4.587
 1808SOL     OW 6322   0.389   4.296   5.552
 1808SOL    HW1 6323   0.429   4.243   5.628
 1808SOL    HW2 6324   0.339   4.375   5.589
 1809SOL     OW 6325   1.997   2.516   5.021
 1809SOL    HW1 6326   2.092   2.543   5.008
 1809SOL    HW2 6327   1.940   2.562   4.953
 1810SOL     OW 6328   2.781   6.784   3.644
 1810SOL    HW1 6329   2.843   6.806   3.570
 1810SOL    HW2 6330   2.687   6.781   3.609
 1811SOL     OW 6331   5.838   5.925   3.325
 1811SOL    HW1 6332   5.855   5.828   3.312
 1811SOL    HW2 6333   5.772   5.938   3.399
 1812SOL     OW 6334   4.219   5.864   4.901
 1812SOL    HW1 6335   4.249   5.936   4.963
 1812SOL    HW2 6336   4.119   5.863   4.897
 1813SOL     OW 6337   6.239   4.174   0.909
 1813SOL    HW1 6338   6.185   4.118   0.972
 1813SOL    HW2 6339   6.336   4.151   0.919
 1814SOL     OW 6340   5.455   0.010   2.265
 1814SOL    HW1 6341   5.492   6.970   2.199
 1814SOL    HW2 6342   5.355   0.014   2.257
 1815SOL     OW 6343   0.785   1.857   2.545
 1815SOL    HW1 6344   0.696   1.900   2.532
 1815SOL    HW2 6345   0.851   1.925   2.577
 1816SOL     OW 6346   2.959   3.449   1.076
 1816SOL    HW1 6347   2.962   3.443   0.977
 1816SOL    HW2 6348   2.921   3.364   1.114
 1817SOL     OW 6349   2.511   6.686   2.524
 1817SOL    HW1 6350   2.504   6.755   2.453
 1817SOL    HW2 6351   2.607   6.659   2.535
 1818SOL     OW 6352   1.199   7.016   3.143
 1818SOL    HW1 6353   1.209   0.090   3.147
 1818SOL    HW2 6354   1.166   6.989   3.053
 1819SOL     OW 6355   1.021   4.166   1.961
 1819SOL    HW1 6356   0.994   4.244   2.018
 1819SOL    HW2 6357   1.010   4.189   1.865
 1820SOL     OW 6358   3.672   1.034   2.732
 1820SOL    HW1 6359   3.618   1.067   2.655
 1820SOL    HW2 6360   3.766   1.017   2.702
 1821SOL     OW 6361   0.566   1.398   2.280
 1821SOL    HW1 6362   0.508   1.420   2.358
 1821SOL    HW2 6363   0.638   1.467   2.270
 1822SOL     OW 6364   3.184   2.159   1.245
 1822SOL    HW1 6365   3.104   2.216   1.225
 1822SOL    HW2 6366   3.245   2.208   1.308
 1823SOL     OW 6367   3.902   6.121   3.526
 1823SOL    HW1 6368   3.919   6.080   3.436
 1823SOL    HW2 6369   3.967   6.195   3.541
 1824SOL     OW 6370   3.942   2.185   1.050
 1824SOL    HW1 6371   3.902   2.263   1.097
 1824SOL    HW2 6372   4.025   2.155   1.097
 1825SOL     OW 6373   1.342   0.290   2.201
 1825SOL    HW1 6374   1.385   0.299   2.291
 1825SOL    HW2 6375   1.291   0.373   2.180
 1826SOL     OW 6376   3.151   1.330   1.434
 1826SOL    HW1 6377   3.175   1.246   1.482
 1826SOL    HW2 6378   3.151   1.313   1.335
 1827SOL     OW 6379   0.550   5.024   2.331
 1827SOL    HW1 6380   0.618   4.987   2.267
 1827SOL    HW2 6381   0.575   5.118   2.354
 1828SOL     OW 6382   0.275   2.333   6.896
 1828SOL    HW1 6383   0.281   2.257   6.831
 1828SOL    HW2 6384   0.208   2.400   6.864
 1829SOL     OW 6385   4.738   0.132   3.263
 1829SOL    HW1 6386   4.746   0.131   3.362
 1829SOL    HW2 6387   4.664   0.071   3.235
 1830SOL     OW 6388   5.422   5.784   3.782
 1830SOL    HW1 6389   5.339   5.732   3.765
 1830SOL    HW2 6390   5.502   5.728   3.759
 1831SOL     OW 6391   5.881   6.505   2.729
 1831SOL    HW1 6392   5.862   6.594   2.687
 1831SOL    HW2 6393   5.866   6.511   2.827
 1832SOL     OW 6394   5.328   2.009   0.776
 1832SOL    HW1 6395   5.416   2.050   0.802
 1832SOL    HW2 6396   5.254   2.059   0.819
 1833SOL     OW 6397   5.517   0.910   4.687
 1833SOL    HW1 6398   5.613   0.901   4.715
 1833SOL    HW2 6399   5.513   0.926   4.589
 1834SOL     OW 6400   3.505   3.743   0.006
 1834SOL    HW1 6401   3.580   3.737   6.964
 1834SOL    HW2 6402   3.520   3.822   0.065
 1835SOL     OW 6403   1.284   4.541   1.697
 1835SOL    HW1 6404   1.373   4.586   1.686
 1835SOL    HW2 6405   1.222   4.570   1.623
 1836SOL     OW 6406   6.827   2.061   1.319
 1836SOL    HW1 6407   6.891   2.110   1.260
 1836SOL    HW2 6408   6.872   1.980   1.356
 1837SOL     OW 6409   0.628   2.076   3.547
 1837SOL    HW1 6410   0.611   2.166   3.508
 1837SOL    HW2 6411   0.640   2.084   3.646
 1838SOL     OW 6412   0.239   1.707   3.392
 1838SOL    HW1 6413   0.242   1.680   3.296
 1838SOL    HW2 6414   0.159   1.764   3.409
 1839SOL     OW 6415   4.619   2.694   5.042
 1839SOL    HW1 6416   4.665   2.628   5.101
 1839SOL    HW2 6417   4.540   2.651   4.999
 1840SOL     OW 6418   3.288   6.223   1.597
 1840SOL    HW1 6419   3.368   6.176   1.635
 1840SOL    HW2 6420   3.238   6.268   1.671
 1841SOL     OW 6421   1.928   3.599   4.770
 1841SOL    HW1 6422   1.841   3.562   4.735
 1841SOL    HW2 6423   1.936   3.578   4.867
 1842SOL     OW 6424   0.584   5.738   0.642
 1842SOL    HW1 6425   0.639   5.731   0.559
 1842SOL    HW2 6426   0.532   5.823   0.641
 1843SOL     OW 6427   1.997   2.480   4.245
 1843SOL    HW1 6428   2.041   2.565   4.273
 1843SOL    HW2 6429   1.983   2.422   4.325
 1844SOL     OW 6430   3.567   1.384   5.330
 1844SOL    HW1 6431   3.639   1.422   5.272
 1844SOL    HW2 6432   3.493   1.451   5.338
 1845SOL     OW 6433   2.289   0.452   6.339
 1845SOL    HW1 6434   2.365   0.514   6.351
 1845SOL    HW2 6435   2.313   0.381   6.273
 1846SOL     OW 6436   4.127   1.897   6.690
 1846SOL    HW1 6437   4.197   1.839   6.732
 1846SOL    HW2 6438   4.042   1.846   6.683
 1847SOL     OW 6439   1.697   0.752   6.406
 1847SOL    HW1 6440   1.651   0.705   6.481
 1847SOL    HW2 6441   1.630   0.777   6.336
 1848SOL     OW 6442   1.872   5.929   2.744
 1848SOL    HW1 6443   1.932   5.941   2.823
 1848SOL    HW2 6444   1.914   5.969   2.663
 1849SOL     OW 6445   4.074   1.120   0.528
 1849SOL    HW1 6446   3.983   1.085   0.507
 1849SOL    HW2 6447   4.139   1.087   0.460
 1850SOL     OW 6448   6.221   1.940   2.788
 1850SOL    HW1 6449   6.149   1.913   2.851
 1850SOL    HW2 6450   6.184   1.947   2.695
 1851SOL     OW 6451   0.361   1.238   1.055
 1851SOL    HW1 6452   0.375   1.238   0.956
 1851SOL    HW2 6453   0.377   1.146   1.090
 1852SOL     OW 6454   4.611   3.761   1.072
 1852SOL    HW1 6455   4.632   3.670   1.108
 1852SOL    HW2 6456   4.554   3.752   0.990
 1853SOL     OW 6457   0.765   3.428   1.907
 1853SOL    HW1 6458   0.795   3.523   1.915
 1853SOL    HW2 6459   0.676   3.425   1.861
 1854SOL     OW 6460   2.957   6.147   4.211
 1854SOL    HW1 6461   2.966   6.048   4.206
 1854SOL    HW2 6462   2.872   6.175   4.166
 1855SOL     OW 6463   4.576   4.572   0.152
 1855SOL    HW1 6464   4.640   4.588   0.227
 1855SOL    HW2 6465   4.541   4.659   0.118
 1856SOL     OW 6466   6.189   3.291   5.707
 1856SOL    HW1 6467   6.224   3.347   5.782
 1856SOL    HW2 6468   6.109   3.240   5.738
 1857SOL     OW 6469   3.708   1.049   5.531
 1857SOL    HW1 6470   3.797   1.094   5.537
 1857SOL    HW2 6471   3.702   0.978   5.602
 1858SOL     OW 6472   5.903   2.986   3.592
 1858SOL    HW1 6473   5.951   3.029   3.669
 1858SOL    HW2 6474   5.848   2.909   3.627
 1859SOL     OW 6475   3.956   1.539   3.725
 1859SOL    HW1 6476   3.999   1.514   3.639
 1859SOL    HW2 6477   3.985   1.477   3.797
 1860SOL     OW 6478   6.858   1.249   3.451
 1860SOL    HW1 6479   6.892   1.190   3.523
 1860SOL    HW2 6480   6.764   1.222   3.428
 1861SOL     OW 6481   4.817   6.429   2.108
 1861SOL    HW1 6482   4.855   6.505   2.056
 1861SOL    HW2 6483   4.889   6.385   2.161
 1862SOL     OW 6484   2.295   6.848   6.931
 1862SOL    HW1 6485   2.265   6.830   7.025
 1862SOL    HW2 6486   2.216   6.850   6.870
 1863SOL     OW 6487   2.606   2.493   0.589
 1863SOL    HW1 6488   2.643   2.530   0.674
 1863SOL    HW2 6489   2.607   2.564   0.519
 1864SOL     OW 6490   0.834   0.402   5.374
 1864SOL    HW1 6491   0.869   0.469   5.440
 1864SOL    HW2 6492   0.859   0.431   5.281
 1865SOL     OW 6493   3.965   0.663   5.466
 1865SOL    HW1 6494   3.915   0.732   5.414
 1865SOL    HW2 6495   3.911   0.579   5.473
 1866SOL     OW 6496   4.576   4.720   2.222
 1866SOL    HW1 6497   4.605   4.638   2.271
 1866SOL    HW2 6498   4.487   4.703   2.179
 1867SOL     OW 6499   0.885   3.905   0.501
 1867SOL    HW1 6500   0.809   3.880   0.441
 1867SOL    HW2 6501   0.925   3.822   0.540
 1868SOL     OW 6502   5.307   4.848   0.141
 1868SOL    HW1 6503   5.318   4.783   0.066
 1868SOL    HW2 6504   5.242   4.919   0.113
 1869SOL     OW 6505   6.398   2.250   4.777
 1869SOL    HW1 6506   6.359   2.163   4.747
 1869SOL    HW2 6507   6.459   2.234   4.855
 1870SOL     OW 6508   2.023   4.471   5.717
 1870SOL    HW1 6509   2.074   4.396   5.760
 1870SOL    HW2 6510   2.084   4.550   5.706
 1871SOL     OW 6511   1.148   6.761   0.554
 1871SOL    HW1 6512   1.074   6.774   0.621
 1871SOL    HW2 6513   1.151   6.841   0.493
 1872SOL     OW 6514   3.585   4.275   6.772
 1872SOL    HW1 6515   3.592   4.175   6.765
 1872SOL    HW2 6516   3.648   4.317   6.707
 1873SOL     OW 6517   4.540   1.283   5.407
 1873SOL    HW1 6518   4.525   1.212   5.477
 1873SOL    HW2 6519   4.543   1.240   5.317
 1874SOL     OW 6520   2.578   1.483   1.287
 1874SOL    HW1 6521   2.507   1.530   1.340
 1874SOL    HW2 6522   2.666   1.528   1.303
 1875SOL     OW 6523   0.972   0.744   6.745
 1875SOL    HW1 6524   0.996   0.698   6.830
 1875SOL    HW2 6525   0.888   0.705   6.708
 1876SOL     OW 6526   3.426   0.557   5.638
 1876SOL    HW1 6527   3.404   0.646   5.598
 1876SOL    HW2 6528   3.396   0.555   5.734
 1877SOL     OW 6529   0.513   0.444   3.306
 1877SOL    HW1 6530   0.547   0.385   3.233
 1877SOL    HW2 6531   0.501   0.537   3.271
 1878SOL     OW 6532   6.901   2.013   3.853
 1878SOL    HW1 6533   6.858   1.996   3.764
 1878SOL    HW2 6534   6.955   1.933   3.879
 1879SOL     OW 6535   1.264   3.975   4.297
 1879SOL    HW1 6536   1.253   4.073   4.283
 1879SOL    HW2 6537   1.180   3.928   4.273
 1880SOL     OW 6538   0.152   0.929   4.821
 1880SOL    HW1 6539   0.079   0.998   4.826
 1880SOL    HW2 6540   0.235   0.965   4.863
 1881SOL     OW 6541   5.841   2.345   2.071
 1881SOL    HW1 6542   5.782   2.414   2.028
 1881SOL    HW2 6543   5.790   2.260   2.082
 1882SOL     OW 6544   1.223   4.328   6.392
 1882SOL    HW1 6545   1.312   4.371   6.377
 1882SOL    HW2 6546   1.155   4.399   6.411
 1883SOL     OW 6547   6.389   2.228   2.700
 1883SOL    HW1 6548   6.465   2.179   2.657
 1883SOL    HW2 6549   6.424   2.310   2.746
 1884SOL     OW 6550   1.458   1.897   1.076
 1884SOL    HW1 6551   1.431   1.844   1.157
 1884SOL    HW2 6552   1.436   1.846   0.994
 1885SOL     OW 6553   1.808   1.898   6.173
 1885SOL    HW1 6554   1.784   1.953   6.093
 1885SOL    HW2 6555   1.877   1.946   6.227
 1886SOL     OW 6556   1.910   7.002   1.838
 1886SOL    HW1 6557   1.990   6.953   1.803
 1886SOL    HW2 6558   1.827   6.960   1.801
 1887SOL     OW 6559   0.816   5.627   5.806
 1887SOL    HW1 6560   0.883   5.694   5.772
 1887SOL    HW2 6561   0.812   5.632   5.906
 1888SOL     OW 6562   3.042   2.046   6.636
 1888SOL    HW1 6563   3.068   2.070   6.542
 1888SOL    HW2 6564   3.106   2.089   6.700
 1889SOL     OW 6565   0.210   3.424   4.269
 1889SOL    HW1 6566   0.308   3.413   4.289
 1889SOL    HW2 6567   0.198   3.503   4.208
 1890SOL     OW 6568   0.882   5.758   3.790
 1890SOL    HW1 6569   0.973   5.759   3.832
 1890SOL    HW2 6570   0.824   5.826   3.834
 1891SOL     OW 6571   4.409   2.800   1.687
 1891SOL    HW1 6572   4.423   2.898   1.706
 1891SOL    HW2 6573   4.323   2.771   1.728
 1892SOL     OW 6574   0.243   0.299   1.945
 1892SOL    HW1 6575   0.193   0.319   2.030
 1892SOL    HW2 6576   0.266   0.385   1.900
 1893SOL     OW 6577   3.433   2.891   1.889
 1893SOL    HW1 6578   3.480   2.810   1.925
 1893SOL    HW2 6579   3.500   2.956   1.853
 1894SOL     OW 6580   3.450   3.876   3.985
 1894SOL    HW1 6581   3.483   3.793   4.031
 1894SOL    HW2 6582   3.520   3.947   3.989
 1895SOL     OW 6583   4.231   6.979   0.562
 1895SOL    HW1 6584   4.262   7.011   0.472
 1895SOL    HW2 6585   4.283   7.025   0.634
 1896SOL     OW 6586   6.291   1.438   0.579
 1896SOL    HW1 6587   6.286   1.394   0.490
 1896SOL    HW2 6588   6.351   1.385   0.639
 1897SOL     OW 6589   1.851   5.055   2.307
 1897SOL    HW1 6590   1.866   5.018   2.215
 1897SOL    HW2 6591   1.852   5.155   2.303
 1898SOL     OW 6592   2.220   4.547   2.578
 1898SOL    HW1 6593   2.250   4.561   2.483
 1898SOL    HW2 6594   2.277   4.477   2.620
 1899SOL     OW 6595   0.678   1.169   0.093
 1899SOL    HW1 6596   0.592   1.196   0.049
 1899SOL    HW2 6597   0.739   1.247   0.099
 1900SOL     OW 6598   2.376   0.792   6.886
 1900SOL    HW1 6599   2.457   0.744   6.918
 1900SOL    HW2 6600   2.389   0.822   6.791
 1901SOL     OW 6601   2.555   2.306   0.940
 1901SOL    HW1 6602   2.471   2.273   0.897
 1901SOL    HW2 6603   2.552   2.289   1.038
 1902SOL     OW 6604   2.777   0.606   4.466
 1902SOL    HW1 6605   2.760   0.564   4.377
 1902SOL    HW2 6606   2.799   0.703   4.453
 1903SOL     OW 6607   0.773   3.492   2.934
 1903SOL    HW1 6608   0.760   3.467   3.030
 1903SOL    HW2 6609   0.760   3.411   2.877
 1904SOL     OW 6610   5.515   5.313   3.142
 1904SOL    HW1 6611   5.437   5.255   3.165
 1904SOL    HW2 6612   5.599   5.259   3.148
 1905SOL     OW 6613   0.820   0.447   3.273
 1905SOL    HW1 6614   0.773   0.473   3.357
 1905SOL    HW2 6615   0.799   0.351   3.251
 1906SOL     OW 6616   2.877   0.845   5.932
 1906SOL    HW1 6617   2.976   0.864   5.927
 1906SOL    HW2 6618   2.835   0.866   5.843
 1907SOL     OW 6619   4.886   2.621   1.352
 1907SOL    HW1 6620   4.863   2.554   1.422
 1907SOL    HW2 6621   4.822   2.697   1.355
 1908SOL     OW 6622   3.901   6.346   6.147
 1908SOL    HW1 6623   3.990   6.299   6.144
 1908SOL    HW2 6624   3.852   6.318   6.230
 1909SOL     OW 6625   0.744   3.214   3.633
 1909SOL    HW1 6626   0.808   3.262   3.572
 1909SOL    HW2 6627   0.795   3.164   3.702
 1910SOL     OW 6628   6.778   6.242   5.455
 1910SOL    HW1 6629   6.730   6.321   5.492
 1910SOL    HW2 6630   6.712   6.171   5.428
 1911SOL     OW 6631   0.085   3.866   4.648
 1911SOL    HW1 6632   0.019   3.886   4.721
 1911SOL    HW2 6633   0.141   3.947   4.631
 1912SOL     OW 6634   2.780   5.480   2.620
 1912SOL    HW1 6635   2.721   5.421   2.674
 1912SOL    HW2 6636   2.724   5.540   2.563
 1913SOL     OW 6637   2.490   6.981   4.594
 1913SOL    HW1 6638   2.499   0.040   4.646
 1913SOL    HW2 6639   2.579   6.936   4.587
 1914SOL     OW 6640   4.142   3.758   0.039
 1914SOL    HW1 6641   4.135   3.756   0.139
 1914SOL    HW2 6642   4.221   3.812   0.012
 1915SOL     OW 6643   4.926   2.953   5.564
 1915SOL    HW1 6644   4.937   2.897   5.646
 1915SOL    HW2 6645   4.836   2.998   5.566
 1916SOL     OW 6646   4.478   6.332   1.153
 1916SOL    HW1 6647   4.421   6.363   1.229
 1916SOL    HW2 6648   4.422   6.279   1.089
 1917SOL     OW 6649   2.841   3.517   0.229
 1917SOL    HW1 6650   2.891   3.500   0.315
 1917SOL    HW2 6651   2.787   3.437   0.206
 1918SOL     OW 6652   0.957   1.158   4.502
 1918SOL    HW1 6653   1.000   1.103   4.431
 1918SOL    HW2 6654   0.967   1.255   4.480
 1919SOL     OW 6655   1.529   1.573   0.916
 1919SOL    HW1 6656   1.454   1.554   0.979
 1919SOL    HW2 6657   1.611   1.522   0.946
 1920SOL     OW 6658   6.036   2.997   2.484
 1920SOL    HW1 6659   5.954   3.055   2.486
 1920SOL    HW2 6660   6.072   2.987   2.577
 1921SOL     OW 6661   0.954   2.830   6.950
 1921SOL    HW1 6662   0.973   2.737   6.981
 1921SOL    HW2 6663   0.986   2.842   6.856
 1922SOL     OW 6664   3.151   3.315   1.917
 1922SOL    HW1 6665   3.212   3.289   1.842
 1922SOL    HW2 6666   3.095   3.237   1.943
 1923SOL     OW 6667   4.450   0.930   0.387
 1923SOL    HW1 6668   4.528   0.933   0.450
 1923SOL    HW2 6669   4.407   0.840   0.392
 1924SOL     OW 6670   4.612   0.050   0.734
 1924SOL    HW1 6671   4.603   0.080   0.829
 1924SOL    HW2 6672   4.709   0.045   0.710
 1925SOL     OW 6673   0.883   4.488   1.721
 1925SOL    HW1 6674   0.961   4.426   1.724
 1925SOL    HW2 6675   0.803   4.439   1.688
 1926SOL     OW 6676   3.498   0.273   1.935
 1926SOL    HW1 6677   3.533   0.293   1.844
 1926SOL    HW2 6678   3.399   0.258   1.930
 1927SOL     OW 6679   2.337   3.912   0.853
 1927SOL    HW1 6680   2.278   3.854   0.909
 1927SOL    HW2 6681   2.344   4.003   0.894
 1928SOL     OW 6682   4.965   4.888   4.076
 1928SOL    HW1 6683   4.955   4.959   4.146
 1928SOL    HW2 6684   4.905   4.811   4.099
 1929SOL     OW 6685   2.457   0.584   2.337
 1929SOL    HW1 6686   2.423   0.643   2.410
 1929SOL    HW2 6687   2.549   0.612   2.311
 1930SOL     OW 6688   5.206   3.415   6.663
 1930SOL    HW1 6689   5.269   3.343   6.692
 1930SOL    HW2 6690   5.113   3.392   6.690
 1931SOL     OW 6691   1.008   1.820   6.709
 1931SOL    HW1 6692   1.048   1.798   6.798
 1931SOL    HW2 6693   0.996   1.735   6.657
 1932SOL     OW 6694   4.540   2.561   3.182
 1932SOL    HW1 6695   4.562   2.548   3.279
 1932SOL    HW2 6696   4.450   2.521   3.163
 1933SOL     OW 6697   0.686   1.804   0.568
 1933SOL    HW1 6698   0.682   1.706   0.590
 1933SOL    HW2 6699   0.600   1.847   0.592
 1934SOL     OW 6700   0.537   0.461   5.528
 1934SOL    HW1 6701   0.561   0.378   5.478
 1934SOL    HW2 6702   0.488   0.437   5.612
 1935SOL     OW 6703   4.534   4.438   4.037
 1935SOL    HW1 6704   4.471   4.499   3.990
 1935SOL    HW2 6705   4.554   4.358   3.979
 1936SOL     OW 6706   5.205   3.818   3.750
 1936SOL    HW1 6707   5.301   3.808   3.773
 1936SOL    HW2 6708   5.190   3.903   3.700
 1937SOL     OW 6709   4.559   6.170   6.700
 1937SOL    HW1 6710   4.556   6.228   6.619
 1937SOL    HW2 6711   4.582   6.076   6.672
 1938SOL     OW 6712   1.472   2.811   6.876
 1938SOL    HW1 6713   1.522   2.834   6.959
 1938SOL    HW2 6714   1.387   2.863   6.873
 1939SOL     OW 6715   0.330   5.486   4.653
 1939SOL    HW1 6716   0.416   5.474   4.603
 1939SOL    HW2 6717   0.254   5.489   4.587
 1940SOL     OW 6718   5.931   4.538   1.989
 1940SOL    HW1 6719   5.909   4.565   1.896
 1940SOL    HW2 6720   5.909   4.614   2.052
 1941SOL     OW 6721   0.359   2.630   3.560
 1941SOL    HW1 6722   0.285   2.565   3.580
 1941SOL    HW2 6723   0.403   2.605   3.474
 1942SOL     OW 6724   5.554   3.839   2.725
 1942SOL    HW1 6725   5.553   3.920   2.783
 1942SOL    HW2 6726   5.612   3.856   2.645
 1943SOL     OW 6727   1.059   1.436   2.367
 1943SOL    HW1 6728   1.065   1.535   2.354
 1943SOL    HW2 6729   1.145   1.401   2.402
 1944SOL     OW 6730   6.909   3.454   0.809
 1944SOL    HW1 6731   6.835   3.387   0.810
 1944SOL    HW2 6732   6.996   3.408   0.826
 1945SOL     OW 6733   4.089   6.649   0.885
 1945SOL    HW1 6734   4.087   6.549   0.883
 1945SOL    HW2 6735   4.020   6.682   0.948
 1946SOL     OW 6736   5.949   6.289   1.262
 1946SOL    HW1 6737   5.983   6.264   1.172
 1946SOL    HW2 6738   5.955   6.210   1.323
 1947SOL     OW 6739   6.390   5.274   3.742
 1947SOL    HW1 6740   6.328   5.210   3.788
 1947SOL    HW2 6741   6.413   5.349   3.803
 1948SOL     OW 6742   6.104   3.953   2.696
 1948SOL    HW1 6743   6.111   3.858   2.728
 1948SOL    HW2 6744   6.101   4.015   2.775
 1949SOL     OW 6745   3.818   4.226   0.413
 1949SOL    HW1 6746   3.790   4.176   0.495
 1949SOL    HW2 6747   3.852   4.316   0.438
 1950SOL     OW 6748   3.789   3.382   3.832
 1950SOL    HW1 6749   3.806   3.394   3.930
 1950SOL    HW2 6750   3.816   3.289   3.805
 1951SOL     OW 6751   6.721   4.427   5.652
 1951SOL    HW1 6752   6.649   4.368   5.615
 1951SOL    HW2 6753   6.780   4.457   5.577
 1952SOL     OW 6754   5.079   4.176   1.425
 1952SOL    HW1 6755   5.154   4.243   1.420
 1952SOL    HW2 6756   5.069   4.131   1.337
 1953SOL     OW 6757   0.116   1.072   6.429
 1953SOL    HW1 6758   0.118   0.977   6.459
 1953SOL    HW2 6759   0.141   1.077   6.332
 1954SOL     OW 6760   5.437   1.087   1.700
 1954SOL    HW1 6761   5.451   1.130   1.790
 1954SOL    HW2 6762   5.374   1.010   1.710
 1955SOL     OW 6763   0.521   1.564   1.940
 1955SOL    HW1 6764   0.596   1.497   1.937
 1955SOL    HW2 6765   0.441   1.523   1.984
 1956SOL     OW 6766   5.538   0.702   2.741
 1956SOL    HW1 6767   5.619   0.737   2.788
 1956SOL    HW2 6768   5.493   0.777   2.692
 1957SOL     OW 6769   4.942   2.926   3.664
 1957SOL    HW1 6770   4.968   3.016   3.700
 1957SOL    HW2 6771   5.022   2.867   3.659
 1958SOL     OW 6772   4.427   1.544   0.776
 1958SOL    HW1 6773   4.467   1.503   0.859
 1958SOL    HW2 6774   4.414   1.472   0.707
 1959SOL     OW 6775   6.583   0.158   3.871
 1959SOL    HW1 6776   6.541   0.234   3.821
 1959SOL    HW2 6777   6.564   0.168   3.969
 1960SOL     OW 6778   6.169   2.760   2.997
 1960SOL    HW1 6779   6.078   2.750   2.958
 1960SOL    HW2 6780   6.236   2.771   2.923
 1961SOL     OW 6781   6.372   4.737   4.847
 1961SOL    HW1 6782   6.412   4.693   4.766
 1961SOL    HW2 6783   6.446   4.778   4.902
 1962SOL     OW 6784   1.282   5.968   2.948
 1962SOL    HW1 6785   1.354   5.984   3.015
 1962SOL    HW2 6786   1.194   5.996   2.986
 1963SOL     OW 6787   0.891   1.087   1.772
 1963SOL    HW1 6788   0.792   1.077   1.763
 1963SOL    HW2 6789   0.935   0.998   1.758
 1964SOL     OW 6790   5.593   4.715   1.834
 1964SOL    HW1 6791   5.505   4.677   1.806
 1964SOL    HW2 6792   5.587   4.746   1.929
 1965SOL     OW 6793   1.007   3.998   3.999
 1965SOL    HW1 6794   0.948   3.925   3.963
 1965SOL    HW2 6795   1.065   3.961   4.071
 1966SOL     OW 6796   1.351   4.954   1.059
 1966SOL    HW1 6797   1.312   5.031   1.008
 1966SOL    HW2 6798   1.277   4.906   1.108
 1967SOL     OW 6799   6.735   2.381   4.000
 1967SOL    HW1 6800   6.782   2.345   3.919
 1967SOL    HW2 6801   6.640   2.400   3.978
 1968SOL     OW 6802   2.528   0.853   5.570
 1968SOL    HW1 6803   2.436   0.876   5.603
 1968SOL    HW2 6804   2.530   0.858   5.471
 1969SOL     OW 6805   2.971   0.532   1.814
 1969SOL    HW1 6806   2.930   0.473   1.884
 1969SOL    HW2 6807   3.005   0.616   1.856
 1970SOL     OW 6808   6.355   6.649   5.260
 1970SOL    HW1 6809   6.299   6.692   5.189
 1970SOL    HW2 6810   6.450   6.679   5.250
 1971SOL     OW 6811   1.307   6.917   5.669
 1971SOL    HW1 6812   1.350   6.840   5.717
 1971SOL    HW2 6813   1.253   6.970   5.735
 1972SOL     OW 6814   5.796   2.818   1.221
 1972SOL    HW1 6815   5.862   2.810   1.296
 1972SOL    HW2 6816   5.763   2.912   1.216
 1973SOL     OW 6817   2.597   3.644   1.348
 1973SOL    HW1 6818   2.560   3.555   1.322
 1973SOL    HW2 6819   2.592   3.706   1.269
 1974SOL     OW 6820   3.987   6.367   4.575
 1974SOL    HW1 6821   4.003   6.277   4.614
 1974SOL    HW2 6822   4.073   6.418   4.573
 1975SOL     OW 6823   2.144   2.867   3.709
 1975SOL    HW1 6824   2.052   2.858   3.671
 1975SOL    HW2 6825   2.183   2.955   3.680
 1976SOL     OW 6826   6.242   0.167   6.700
 1976SOL    HW1 6827   6.289   0.238   6.752
 1976SOL    HW2 6828   6.256   0.182   6.602
 1977SOL     OW 6829   2.839   3.512   6.428
 1977SOL    HW1 6830   2.847   3.415   6.406
 1977SOL    HW2 6831   2.757   3.550   6.385
 1978SOL     OW 6832   2.512   6.157   2.664
 1978SOL    HW1 6833   2.488   6.249   2.694
 1978SOL    HW2 6834   2.609   6.140   2.683
 1979SOL     OW 6835   5.969   5.218   6.887
 1979SOL    HW1 6836   5.961   5.162   6.805
 1979SOL    HW2 6837   5.946   5.163   6.967
 1980SOL     OW 6838   2.558   0.474   2.028
 1980SOL    HW1 6839   2.546   0.538   1.952
 1980SOL    HW2 6840   2.468   0.450   2.066
 1981SOL     OW 6841   4.954   2.644   2.930
 1981SOL    HW1 6842   4.879   2.696   2.970
 1981SOL    HW2 6843   4.933   2.546   2.933
 1982SOL     OW 6844   6.480   3.575   3.936
 1982SOL    HW1 6845   6.534   3.495   3.911
 1982SOL    HW2 6846   6.464   3.632   3.855
 1983SOL     OW 6847   0.534   0.216   0.788
 1983SOL    HW1 6848   0.525   0.181   0.694
 1983SOL    HW2 6849   0.611   0.172   0.833
 1984SOL     OW 6850   5.135   2.535   5.148
 1984SOL    HW1 6851   5.062   2.590   5.107
 1984SOL    HW2 6852   5.205   2.596   5.185
 1985SOL     OW 6853   6.406   4.875   1.333
 1985SOL    HW1 6854   6.502   4.901   1.332
 1985SOL    HW2 6855   6.349   4.957   1.332
 1986SOL     OW 6856   3.070   1.012   6.364
 1986SOL    HW1 6857   3.057   1.036   6.268
 1986SOL    HW2 6858   3.167   0.996   6.382
 1987SOL     OW 6859   1.459   1.122   4.161
 1987SOL    HW1 6860   1.492   1.028   4.153
 1987SOL    HW2 6861   1.425   1.153   4.072
 1988SOL     OW 6862   0.533   1.638   1.300
 1988SOL    HW1 6863   0.459   1.590   1.346
 1988SOL    HW2 6864   0.610   1.649   1.363
 1989SOL     OW 6865   2.730   5.767   4.685
 1989SOL    HW1 6866   2.716   5.745   4.782
 1989SOL    HW2 6867   2.809   5.715   4.651
 1990SOL     OW 6868   4.194   0.563   0.109
 1990SOL    HW1 6869   4.155   0.634   0.167
 1990SOL    HW2 6870   4.268   0.602   0.053
 1991SOL     OW 6871   2.757   5.765   0.085
 1991SOL    HW1 6872   2.768   5.775   0.184
 1991SOL    HW2 6873   2.663   5.737   0.064
 1992SOL     OW 6874   6.791   6.454   0.004
 1992SOL    HW1 6875   6.722   6.419   0.067
 1992SOL    HW2 6876   6.825   6.379   6.973
 1993SOL     OW 6877   2.154   2.758   4.721
 1993SOL    HW1 6878   2.236   2.713   4.686
 1993SOL    HW2 6879   2.179   2.849   4.756
 1994SOL     OW 6880   4.244   3.195   0.834
 1994SOL    HW1 6881   4.209   3.107   0.801
 1994SOL    HW2 6882   4.332   3.215   0.789
 1995SOL     OW 6883   5.452   1.967   4.814
 1995SOL    HW1 6884   5.366   1.995   4.771
 1995SOL    HW2 6885   5.527   2.020   4.775
 1996SOL     OW 6886   3.372   1.940   1.233
 1996SOL    HW1 6887   3.317   2.021   1.215
 1996SOL    HW2 6888   3.311   1.862   1.250
 1997SOL     OW 6889   3.305   1.629   3.803
 1997SOL    HW1 6890   3.351   1.618   3.891
 1997SOL    HW2 6891   3.281   1.725   3.790
 1998SOL     OW 6892   1.254   3.148   1.591
 1998SOL    HW1 6893   1.353   3.138   1.597
 1998SOL    HW2 6894   1.216   3.151   1.683
 1999SOL     OW 6895   0.446   0.217   5.208
 1999SOL    HW1 6896   0.358   0.263   5.224
 1999SOL    HW2 6897   0.491   0.200   5.296
 2000SOL     OW 6898   3.872   3.463   6.276
 2000SOL    HW1 6899   3.833   3.494   6.363
 2000SOL    HW2 6900   3.893   3.543   6.219
 2001SOL     OW 6901   1.819   1.822   6.707
 2001SOL    HW1 6902   1.754   1.797   6.635
 2001SOL    HW2 6903   1.910   1.791   6.681
 2002SOL     OW 6904   0.175   5.520   0.945
 2002SOL    HW1 6905   0.091   5.487   0.902
 2002SOL    HW2 6906   0.193   5.614   0.915
 2003SOL     OW 6907   6.533   5.178   1.993
 2003SOL    HW1 6908   6.516   5.234   1.912
 2003SOL    HW2 6909   6.488   5.219   2.073
 2004SOL     OW 6910   3.639   0.326   3.593
 2004SOL    HW1 6911   3.600   0.238   3.568
 2004SOL    HW2 6912   3.739   0.318   3.598
 2005SOL     OW 6913   0.190   6.017   0.390
 2005SOL    HW1 6914   0.100   6.026   0.432
 2005SOL    HW2 6915   0.184   6.040   0.292
 2006SOL     OW 6916   5.292   0.437   4.143
 2006SOL    HW1 6917   5.310   0.463   4.238
 2006SOL    HW2 6918   5.344   0.496   4.081
 2007SOL     OW 6919   4.806   4.315   1.033
 2007SOL    HW1 6920   4.773   4.409   1.045
 2007SOL    HW2 6921   4.774   4.258   1.109
 2008SOL     OW 6922   2.141   3.860   3.832
 2008SOL    HW1 6923   2.225   3.900   3.868
 2008SOL    HW2 6924   2.141   3.865   3.733
 2009SOL     OW 6925   6.389   6.348   1.712
 2009SOL    HW1 6926   6.347   6.386   1.795
 2009SOL    HW2 6927   6.421   6.255   1.732
 2010SOL     OW 6928   1.351   2.490   1.423
 2010SOL    HW1 6929   1.402   2.404   1.431
 2010SOL    HW2 6930   1.264   2.473   1.379
 2011SOL     OW 6931   0.068   6.702   5.523
 2011SOL    HW1 6932   0.047   6.702   5.621
 2011SOL    HW2 6933   0.038   6.788   5.483
 2012SOL     OW 6934   1.661   3.519   2.230
 2012SOL    HW1 6935   1.634   3.556   2.142
 2012SOL    HW2 6936   1.755   3.485   2.225
 2013SOL     OW 6937   0.367   2.840   3.217
 2013SOL    HW1 6938   0.372   2.937   3.238
 2013SOL    HW2 6939   0.361   2.827   3.118
 2014SOL     OW 6940   3.011   0.612   3.619
 2014SOL    HW1 6941   2.966   0.645   3.536
 2014SOL    HW2 6942   3.006   0.513   3.623
 2015SOL     OW 6943   3.687   0.952   1.798
 2015SOL    HW1 6944   3.619   1.025   1.794
 2015SOL    HW2 6945   3.671   0.887   1.723
 2016SOL     OW 6946   1.599   6.136   5.411
 2016SOL    HW1 6947   1.575   6.127   5.314
 2016SOL    HW2 6948   1.564   6.222   5.447
 2017SOL     OW 6949   4.393   6.767   3.033
 2017SOL    HW1 6950   4.400   6.841   3.100
 2017SOL    HW2 6951   4.303   6.772   2.989
 2018SOL     OW 6952   0.157   2.416   3.387
 2018SOL    HW1 6953   0.149   2.356   3.307
 2018SOL    HW2 6954   0.085   2.485   3.383
 2019SOL     OW 6955   6.220   4.892   6.347
 2019SOL    HW1 6956   6.275   4.929   6.423
 2019SOL    HW2 6957   6.280   4.841   6.285
 2020SOL     OW 6958   1.779   6.170   5.601
 2020SOL    HW1 6959   1.721   6.177   5.682
 2020SOL    HW2 6960   1.724   6.144   5.522
 2021SOL     OW 6961   6.174   6.216   3.527
 2021SOL    HW1 6962   6.222   6.148   3.583
 2021SOL    HW2 6963   6.140   6.290   3.586
 2022SOL     OW 6964   2.235   4.216   5.059
 2022SOL    HW1 6965   2.275   4.125   5.064
 2022SOL    HW2 6966   2.144   4.215   5.102
 2023SOL     OW 6967   0.090   0.513   6.858
 2023SOL    HW1 6968   7.016   0.527   6.852
 2023SOL    HW2 6969   0.114   0.422   6.825
 2024SOL     OW 6970   0.338   5.605   4.352
 2024SOL    HW1 6971   0.409   5.545   4.391
 2024SOL    HW2 6972   0.343   5.603   4.253
 2025SOL     OW 6973   2.353   1.085   4.383
 2025SOL    HW1 6974   2.289   1.079   4.306
 2025SOL    HW2 6975   2.374   0.993   4.415
 2026SOL     OW 6976   5.717   0.996   6.494
 2026SOL    HW1 6977   5.682   0.939   6.569
 2026SOL    HW2 6978   5.641   1.042   6.449
 2027SOL     OW 6979   0.568   5.798   1.437
 2027SOL    HW1 6980   0.611   5.725   1.383
 2027SOL    HW2 6981   0.486   5.763   1.482
 2028SOL     OW 6982   3.634   6.059   2.633
 2028SOL    HW1 6983   3.600   5.968   2.613
 2028SOL    HW2 6984   3.728   6.068   2.602
 2029SOL     OW 6985   0.127   1.869   6.497
 2029SOL    HW1 6986   0.203   1.809   6.523
 2029SOL    HW2 6987   0.163   1.950   6.451
 2030SOL     OW 6988   3.280   6.135   3.615
 2030SOL    HW1 6989   3.208   6.067   3.625
 2030SOL    HW2 6990   3.288   6.162   3.519
 2031SOL     OW 6991   6.849   5.713   2.849
 2031SOL    HW1 6992   6.769   5.666   2.889
 2031SOL    HW2 6993   6.826   5.809   2.833
 2032SOL     OW 6994   3.296   1.448   6.756
 2032SOL    HW1 6995   3.371   1.426   6.818
 2032SOL    HW2 6996   3.214   1.468   6.809
 2033SOL     OW 6997   1.505   0.986   0.821
 2033SOL    HW1 6998   1.424   0.982   0.763
 2033SOL    HW2 6999   1.517   1.079   0.855
 2034SOL     OW 7000   1.213   5.350   5.608
 2034SOL    HW1 7001   1.309   5.374   5.618
 2034SOL    HW2 7002   1.173   5.333   5.698
 2035SOL     OW 7003   6.316   6.693   1.980
 2035SOL    HW1 7004   6.378   6.770   1.996
 2035SOL    HW2 7005   6.329   6.657   1.888
 2036SOL     OW 7006   1.103   3.371   2.663
 2036SOL    HW1 7007   1.114   3.466   2.690
 2036SOL    HW2 7008   1.019   3.335   2.703
 2037SOL     OW 7009   0.009   2.828   6.403
 2037SOL    HW1 7010   0.028   2.919   6.364
 2037SOL    HW2 7011   6.961   2.784   6.352
 2038SOL     OW 7012   2.528   1.593   0.000
 2038SOL    HW1 7013   2.534   1.547   0.089
 2038SOL    HW2 7014   2.556   1.688   0.009
 2039SOL     OW 7015   0.131   5.974   2.642
 2039SOL    HW1 7016   0.044   5.954   2.686
 2039SOL    HW2 7017   0.200   5.909   2.673
 2040SOL     OW 7018   2.519   2.836   0.131
 2040SOL    HW1 7019   2.558   2.919   0.092
 2040SOL    HW2 7020   2.494   2.773   0.057
 2041SOL     OW 7021   1.619   6.899   5.898
 2041SOL    HW1 7022   1.633   6.938   5.807
 2041SOL    HW2 7023   1.661   6.808   5.903
 2042SOL     OW 7024   4.745   0.478   6.422
 2042SOL    HW1 7025   4.754   0.395   6.477
 2042SOL    HW2 7026   4.835   0.507   6.390
 2043SOL     OW 7027   0.028   2.641   1.372
 2043SOL    HW1 7028   0.075   2.575   1.314
 2043SOL    HW2 7029   0.005   2.597   1.460
 2044SOL     OW 7030   5.028   1.493   0.689
 2044SOL    HW1 7031   5.047   1.478   0.592
 2044SOL    HW2 7032   5.095   1.558   0.726
 2045SOL     OW 7033   1.672   5.876   5.946
 2045SOL    HW1 7034   1.745   5.941   5.967
 2045SOL    HW2 7035   1.683   5.793   6.001
 2046SOL     OW 7036   0.932   1.405   5.472
 2046SOL    HW1 7037   0.892   1.314   5.459
 2046SOL    HW2 7038   0.931   1.454   5.384
 2047SOL     OW 7039   6.364   2.490   0.289
 2047SOL    HW1 7040   6.313   2.556   0.233
 2047SOL    HW2 7041   6.437   2.537   0.338
 2048SOL     OW 7042   0.871   1.189   4.103
 2048SOL    HW1 7043   0.971   1.192   4.100
 2048SOL    HW2 7044   0.840   1.101   4.068
 2049SOL     OW 7045   4.552   1.564   4.754
 2049SOL    HW1 7046   4.453   1.573   4.748
 2049SOL    HW2 7047   4.587   1.514   4.675
 2050SOL     OW 7048   0.741   1.431   4.057
 2050SOL    HW1 7049   0.648   1.393   4.062
 2050SOL    HW2 7050   0.806   1.365   4.096
 2051SOL     OW 7051   3.399   6.742   0.897
 2051SOL    HW1 7052   3.318   6.787   0.935
 2051SOL    HW2 7053   3.381   6.716   0.802
 2052SOL     OW 7054   1.988   4.175   0.033
 2052SOL    HW1 7055   1.902   4.128   0.013
 2052SOL    HW2 7056   2.043   4.181   6.974
 2053SOL     OW 7057   1.139   5.768   3.949
 2053SOL    HW1 7058   1.071   5.778   4.022
 2053SOL    HW2 7059   1.225   5.808   3.978
 2054SOL     OW 7060   3.167   3.481   3.047
 2054SOL    HW1 7061   3.128   3.398   3.086
 2054SOL    HW2 7062   3.098   3.528   2.993
 2055SOL     OW 7063   1.460   2.541   4.557
 2055SOL    HW1 7064   1.392   2.468   4.548
 2055SOL    HW2 7065   1.451   2.604   4.479
 2056SOL     OW 7066   3.785   5.034   0.922
 2056SOL    HW1 7067   3.736   5.079   0.847
 2056SOL    HW2 7068   3.776   4.935   0.912
 2057SOL     OW 7069   5.454   2.312   4.714
 2057SOL    HW1 7070   5.542   2.265   4.722
 2057SOL    HW2 7071   5.406   2.309   4.802
 2058SOL     OW 7072   0.999   6.888   3.308
 2058SOL    HW1 7073   1.051   6.942   3.242
 2058SOL    HW2 7074   1.046   6.890   3.397
 2059SOL     OW 7075   2.428   0.275   5.679
 2059SOL    HW1 7076   2.466   0.203   5.621
 2059SOL    HW2 7077   2.350   0.317   5.633
 2060SOL     OW 7078   1.366   3.322   0.194
 2060SOL    HW1 7079   1.353   3.227   0.166
 2060SOL    HW2 7080   1.408   3.373   0.118
 2061SOL     OW 7081   2.153   2.169   2.547
 2061SOL    HW1 7082   2.102   2.174   2.633
 2061SOL    HW2 7083   2.102   2.218   2.476
 2062SOL     OW 7084   6.410   5.745   5.091
 2062SOL    HW1 7085   6.415   5.736   4.992
 2062SOL    HW2 7086   6.420   5.655   5.133
 2063SOL     OW 7087   1.636   0.144   5.356
 2063SOL    HW1 7088   1.628   0.100   5.267
 2063SOL    HW2 7089   1.594   0.086   5.426
 2064SOL     OW 7090   0.731   3.082   4.118
 2064SOL    HW1 7091   0.640   3.116   4.095
 2064SOL    HW2 7092   0.726   3.023   4.198
 2065SOL     OW 7093   4.608   2.886   5.541
 2065SOL    HW1 7094   4.608   2.980   5.575
 2065SOL    HW2 7095   4.601   2.887   5.441
 2066SOL     OW 7096   5.629   3.322   5.705
 2066SOL    HW1 7097   5.694   3.312   5.630
 2066SOL    HW2 7098   5.669   3.286   5.790
 2067SOL     OW 7099   6.912   4.700   1.553
 2067SOL    HW1 7100   6.833   4.645   1.578
 2067SOL    HW2 7101   6.922   4.776   1.617
 2068SOL     OW 7102   3.976   0.910   3.637
 2068SOL    HW1 7103   4.067   0.952   3.631
 2068SOL    HW2 7104   3.974   0.828   3.580
 2069SOL     OW 7105   6.665   1.878   4.084
 2069SOL    HW1 7106   6.669   1.876   3.984
 2069SOL    HW2 7107   6.756   1.896   4.120
 2070SOL     OW 7108   1.158   3.486   1.627
 2070SOL    HW1 7109   1.223   3.457   1.557
 2070SOL    HW2 7110   1.203   3.552   1.688
 2071SOL     OW 7111   6.370   1.321   5.750
 2071SOL    HW1 7112   6.347   1.413   5.782
 2071SOL    HW2 7113   6.424   1.327   5.666
 2072SOL     OW 7114   3.813   4.578   5.385
 2072SOL    HW1 7115   3.850   4.503   5.331
 2072SOL    HW2 7116   3.883   4.649   5.395
 2073SOL     OW 7117   3.785   6.103   0.018
 2073SOL    HW1 7118   3.868   6.052   0.041
 2073SOL    HW2 7119   3.790   6.194   0.059
 2074SOL     OW 7120   1.971   3.651   5.752
 2074SOL    HW1 7121   2.040   3.656   5.679
 2074SOL    HW2 7122   1.913   3.571   5.737
 2075SOL     OW 7123   0.117   2.220   1.870
 2075SOL    HW1 7124   0.096   2.125   1.847
 2075SOL    HW2 7125   0.033   2.268   1.897
 2076SOL     OW 7126   5.384   6.354   4.708
 2076SOL    HW1 7127   5.425   6.441   4.736
 2076SOL    HW2 7128   5.421   6.328   4.618
 2077SOL     OW 7129   0.216   3.315   1.528
 2077SOL    HW1 7130   0.294   3.261   1.496
 2077SOL    HW2 7131   0.150   3.325   1.453
 2078SOL     OW 7132   2.407   4.808   5.629
 2078SOL    HW1 7133   2.472   4.736   5.606
 2078SOL    HW2 7134   2.322   4.766   5.663
 2079SOL     OW 7135   5.326   1.495   1.592
 2079SOL    HW1 7136   5.380   1.566   1.547
 2079SOL    HW2 7137   5.258   1.459   1.528
 2080SOL     OW 7138   2.744   2.325   5.208
 2080SOL    HW1 7139   2.809   2.370   5.270
 2080SOL    HW2 7140   2.793   2.283   5.132
 2081SOL     OW 7141   0.033   6.993   2.945
 2081SOL    HW1 7142   0.033   6.900   2.910
 2081SOL    HW2 7143   6.965   7.023   2.960
 2082SOL     OW 7144   0.326   5.954   2.372
 2082SOL    HW1 7145   0.421   5.923   2.360
 2082SOL    HW2 7146   0.310   5.973   2.469
 2083SOL     OW 7147   6.731   6.079   4.281
 2083SOL    HW1 7148   6.767   6.132   4.204
 2083SOL    HW2 7149   6.639   6.112   4.304
 2084SOL     OW 7150   0.736   1.670   2.314
 2084SOL    HW1 7151   0.782   1.703   2.397
 2084SOL    HW2 7152   0.760   1.728   2.237
 2085SOL     OW 7153   5.216   5.750   6.791
 2085SOL    HW1 7154   5.300   5.774   6.742
 2085SOL    HW2 7155   5.230   5.760   6.889
 2086SOL     OW 7156   4.750   0.241   6.946
 2086SOL    HW1 7157   4.684   0.278   6.881
 2086SOL    HW2 7158   4.832   0.210   6.897
 2087SOL     OW 7159   3.988   2.062   0.113
 2087SOL    HW1 7160   3.931   2.038   0.191
 2087SOL    HW2 7161   4.035   2.149   0.132
 2088SOL     OW 7162   0.277   5.737   5.334
 2088SOL    HW1 7163   0.181   5.750   5.311
 2088SOL    HW2 7164   0.334   5.785   5.268
 2089SOL     OW 7165   2.702   3.336   6.098
 2089SOL    HW1 7166   2.693   3.326   5.999
 2089SOL    HW2 7167   2.710   3.433   6.121
 2090SOL     OW 7168   4.494   3.500   5.351
 2090SOL    HW1 7169   4.564   3.529   5.287
 2090SOL    HW2 7170   4.517   3.410   5.388
 2091SOL     OW 7171   6.427   5.977   1.405
 2091SOL    HW1 7172   6.487   5.934   1.473
 2091SOL    HW2 7173   6.434   5.928   1.318
 2092SOL     OW 7174   4.538   3.467   1.087
 2092SOL    HW1 7175   4.483   3.470   1.003
 2092SOL    HW2 7176   4.487   3.509   1.162
 2093SOL     OW 7177   3.717   2.144   2.875
 2093SOL    HW1 7178   3.695   2.122   2.970
 2093SOL    HW2 7179   3.651   2.210   2.840
 2094SOL     OW 7180   5.631   2.859   0.008
 2094SOL    HW1 7181   5.720   2.866   6.989
 2094SOL    HW2 7182   5.640   2.880   0.105
 2095SOL     OW 7183   5.689   6.360   3.827
 2095SOL    HW1 7184   5.645   6.377   3.739
 2095SOL    HW2 7185   5.704   6.262   3.839
 2096SOL     OW 7186   4.393   6.402   2.061
 2096SOL    HW1 7187   4.437   6.477   2.012
 2096SOL    HW2 7188   4.457   6.325   2.069
 2097SOL     OW 7189   2.118   4.665   6.732
 2097SOL    HW1 7190   2.046   4.604   6.698
 2097SOL    HW2 7191   2.103   4.682   6.830
 2098SOL     OW 7192   3.845   6.280   3.257
 2098SOL    HW1 7193   3.761   6.233   3.229
 2098SOL    HW2 7194   3.822   6.362   3.309
 2099SOL     OW 7195   5.029   1.314   0.072
 2099SOL    HW1 7196   5.060   1.246   0.005
 2099SOL    HW2 7197   4.977   1.386   0.025
 2100SOL     OW 7198   5.568   1.020   0.629
 2100SOL    HW1 7199   5.666   1.022   0.651
 2100SOL    HW2 7200   5.532   1.113   0.633
 2101SOL     OW 7201   0.380   6.359   1.511
 2101SOL    HW1 7202   0.388   6.364   1.611
 2101SOL    HW2 7203   0.372   6.452   1.474
 2102SOL     OW 7204   4.316   3.562   0.965
 2102SOL    HW1 7205   4.269   3.486   0.919
 2102SOL    HW2 7206   4.286   3.567   1.060
 2103SOL     OW 7207   2.879   5.842   6.872
 2103SOL    HW1 7208   2.832   5.809   6.954
 2103SOL    HW2 7209   2.833   5.923   6.837
 2104SOL     OW 7210   0.830   4.843   3.164
 2104SOL    HW1 7211   0.878   4.923   3.200
 2104SOL    HW2 7212   0.762   4.873   3.097
 2105SOL     OW 7213   5.304   4.623   7.017
 2105SOL    HW1 7214   5.280   4.558   6.944
 2105SOL    HW2 7215   5.333   4.572   0.073
 2106SOL     OW 7216   4.975   3.793   2.170
 2106SOL    HW1 7217   4.909   3.721   2.147
 2106SOL    HW2 7218   5.067   3.762   2.150
 2107SOL     OW 7219   5.426   4.083   5.182
 2107SOL    HW1 7220   5.478   4.056   5.263
 2107SOL    HW2 7221   5.471   4.049   5.100
 2108SOL     OW 7222   6.033   6.831   5.856
 2108SOL    HW1 7223   6.014   6.929   5.863
 2108SOL    HW2 7224   5.964   6.780   5.907
 2109SOL     OW 7225   3.278   5.708   3.365
 2109SOL    HW1 7226   3.313   5.633   3.310
 2109SOL    HW2 7227   3.198   5.748   3.319
 2110SOL     OW 7228   3.499   0.651   6.703
 2110SOL    HW1 7229   3.453   0.737   6.682
 2110SOL    HW2 7230   3.432   0.584   6.736
 2111SOL     OW 7231   1.224   3.145   5.653
 2111SOL    HW1 7232   1.258   3.184   5.739
 2111SOL    HW2 7233   1.299   3.135   5.589
 2112SOL     OW 7234   0.448   1.857   0.696
 2112SOL    HW1 7235   0.432   1.762   0.724
 2112SOL    HW2 7236   0.462   1.914   0.777
 2113SOL     OW 7237   2.095   0.300   4.667
 2113SOL    HW1 7238   2.100   0.201   4.675
 2113SOL    HW2 7239   2.152   0.331   4.591
 2114SOL     OW 7240   1.798   2.753   6.897
 2114SOL    HW1 7241   1.757   2.662   6.901
 2114SOL    HW2 7242   1.887   2.748   6.853
 2115SOL     OW 7243   0.344   5.510   3.314
 2115SOL    HW1 7244   0.267   5.456   3.279
 2115SOL    HW2 7245   0.378   5.570   3.242
 2116SOL     OW 7246   0.932   2.064   0.030
 2116SOL    HW1 7247   0.954   1.974   0.068
 2116SOL    HW2 7248   0.933   2.058   6.955
 2117SOL     OW 7249   5.653   1.633   2.130
 2117SOL    HW1 7250   5.677   1.650   2.226
 2117SOL    HW2 7251   5.554   1.620   2.122
 2118SOL     OW 7252   6.377   3.340   2.570
 2118SOL    HW1 7253   6.456   3.368   2.515
 2118SOL    HW2 7254   6.299   3.322   2.509
 2119SOL     OW 7255   2.786   0.430   7.007
 2119SOL    HW1 7256   2.780   0.354   0.047
 2119SOL    HW2 7257   2.796   0.393   6.915
 2120SOL     OW 7258   5.987   1.687   0.793
 2120SOL    HW1 7259   6.010   1.781   0.769
 2120SOL    HW2 7260   5.982   1.678   0.892
 2121SOL     OW 7261   2.362   0.893   6.315
 2121SOL    HW1 7262   2.459   0.886   6.289
 2121SOL    HW2 7263   2.330   0.987   6.298
 2122SOL     OW 7264   6.073   0.448   5.237
 2122SOL    HW1 7265   6.107   0.541   5.225
 2122SOL    HW2 7266   6.140   0.395   5.290
 2123SOL     OW 7267   0.978   6.397   2.885
 2123SOL    HW1 7268   0.985   6.331   2.810
 2123SOL    HW2 7269   1.027   6.480   2.861
 2124SOL     OW 7270   3.247   2.830   5.660
 2124SOL    HW1 7271   3.345   2.844   5.645
 2124SOL    HW2 7272   3.208   2.909   5.707
 2125SOL     OW 7273   1.703   6.020   2.952
 2125SOL    HW1 7274   1.739   6.006   2.860
 2125SOL    HW2 7275   1.649   6.104   2.954
 2126SOL     OW 7276   3.807   3.803   6.930
 2126SOL    HW1 7277   3.858   3.737   6.876
 2126SOL    HW2 7278   3.776   3.878   6.872
 2127SOL     OW 7279   0.405   2.749   5.889
 2127SOL    HW1 7280   0.425   2.661   5.845
 2127SOL    HW2 7281   0.307   2.768   5.883
 2128SOL     OW 7282   5.144   3.292   1.847
 2128SOL    HW1 7283   5.151   3.290   1.747
 2128SOL    HW2 7284   5.189   3.212   1.885
 2129SOL     OW 7285   5.593   4.372   3.795
 2129SOL    HW1 7286   5.644   4.308   3.737
 2129SOL    HW2 7287   5.522   4.416   3.741
 2130SOL     OW 7288   1.741   0.867   2.510
 2130SOL    HW1 7289   1.682   0.798   2.468
 2130SOL    HW2 7290   1.745   0.852   2.609
 2131SOL     OW 7291   5.700   1.894   5.708
 2131SOL    HW1 7292   5.714   1.854   5.618
 2131SOL    HW2 7293   5.719   1.826   5.778
 2132SOL     OW 7294   2.622   1.832   6.597
 2132SOL    HW1 7295   2.695   1.886   6.556
 2132SOL    HW2 7296   2.553   1.893   6.636
 2133SOL     OW 7297   2.144   2.074   1.975
 2133SOL    HW1 7298   2.161   1.987   2.021
 2133SOL    HW2 7299   2.140   2.147   2.043
 2134SOL     OW 7300   0.790   6.371   4.826
 2134SOL    HW1 7301   0.849   6.422   4.888
 2134SOL    HW2 7302   0.824   6.277   4.817
 2135SOL     OW 7303   0.595   1.184   3.471
 2135SOL    HW1 7304   0.572   1.279   3.447
 2135SOL    HW2 7305   0.575   1.170   3.568
 2136SOL     OW 7306   0.580   3.171   4.600
 2136SOL    HW1 7307   0.563   3.136   4.692
 2136SOL    HW2 7308   0.588   3.271   4.603
 2137SOL     OW 7309   1.476   6.987   4.970
 2137SOL    HW1 7310   1.535   6.914   4.935
 2137SOL    HW2 7311   1.448   6.964   5.064
 2138SOL     OW 7312   0.185   2.569   0.686
 2138SOL    HW1 7313   0.206   2.471   0.696
 2138SOL    HW2 7314   0.199   2.597   0.591
 2139SOL     OW 7315   3.081   0.253   4.714
 2139SOL    HW1 7316   3.148   0.180   4.703
 2139SOL    HW2 7317   3.081   0.311   4.632
 2140SOL     OW 7318   2.409   6.177   3.818
 2140SOL    HW1 7319   2.437   6.123   3.897
 2140SOL    HW2 7320   2.483   6.239   3.792
 2141SOL     OW 7321   5.872   2.397   0.786
 2141SOL    HW1 7322   5.903   2.310   0.824
 2141SOL    HW2 7323   5.797   2.433   0.841
 2142SOL     OW 7324   1.929   1.965   3.737
 2142SOL    HW1 7325   2.002   1.897   3.737
 2142SOL    HW2 7326   1.863   1.943   3.809
 2143SOL     OW 7327   3.146   0.110   1.624
 2143SOL    HW1 7328   3.168   0.206   1.608
 2143SOL    HW2 7329   3.062   0.086   1.576
 2144SOL     OW 7330   0.898   0.864   3.198
 2144SOL    HW1 7331   0.939   0.944   3.154
 2144SOL    HW2 7332   0.970   0.808   3.238
 2145SOL     OW 7333   3.531   5.192   3.546
 2145SOL    HW1 7334   3.619   5.146   3.535
 2145SOL    HW2 7335   3.537   5.285   3.509
 2146SOL     OW 7336   3.165   2.909   1.884
 2146SOL    HW1 7337   3.263   2.892   1.887
 2146SOL    HW2 7338   3.118   2.825   1.855
 2147SOL     OW 7339   0.766   1.706   6.170
 2147SOL    HW1 7340   0.787   1.616   6.131
 2147SOL    HW2 7341   0.823   1.721   6.251
 2148SOL     OW 7342   4.974   3.807   3.307
 2148SOL    HW1 7343   4.919   3.772   3.231
 2148SOL    HW2 7344   5.059   3.845   3.272
 2149SOL     OW 7345   3.954   1.066   2.250
 2149SOL    HW1 7346   4.012   1.075   2.169
 2149SOL    HW2 7347   3.998   1.003   2.315
 2150SOL     OW 7348   3.324   2.147   3.472
 2150SOL    HW1 7349   3.309   2.160   3.374
 2150SOL    HW2 7350   3.249   2.190   3.523
 2151SOL     OW 7351   3.665   2.616   5.632
 2151SOL    HW1 7352   3.612   2.691   5.672
 2151SOL    HW2 7353   3.762   2.641   5.633
 2152SOL     OW 7354   6.232   6.515   2.182
 2152SOL    HW1 7355   6.285   6.532   2.265
 2152SOL    HW2 7356   6.264   6.575   2.109
 2153SOL     OW 7357   4.554   1.822   3.857
 2153SOL    HW1 7358   4.487   1.795   3.788
 2153SOL    HW2 7359   4.642   1.779   3.836
 2154SOL     OW 7360   2.585   6.134   4.591
 2154SOL    HW1 7361   2.534   6.053   4.560
 2154SOL    HW2 7362   2.580   6.140   4.691
 2155SOL     OW 7363   1.589   4.068   0.241
 2155SOL    HW1 7364   1.569   3.997   0.308
 2155SOL    HW2 7365   1.536   4.150   0.263
 2156SOL     OW 7366   1.529   0.483   2.654
 2156SOL    HW1 7367   1.431   0.487   2.635
 2156SOL    HW2 7368   1.543   0.457   2.749
 2157SOL     OW 7369   0.397   1.107   4.800
 2157SOL    HW1 7370   0.461   1.037   4.770
 2157SOL    HW2 7371   0.354   1.150   4.721
 2158SOL     OW 7372   3.990   7.004   0.990
 2158SOL    HW1 7373   3.951   6.936   1.052
 2158SOL    HW2 7374   4.079   0.009   1.025
 2159SOL     OW 7375   1.495   6.949   4.686
 2159SOL    HW1 7376   1.452   0.000   4.733
 2159SOL    HW2 7377   1.465   6.863   4.727
 2160SOL     OW 7378   3.060   4.649   1.144
 2160SOL    HW1 7379   3.064   4.749   1.146
 2160SOL    HW2 7380   3.151   4.612   1.160
 2161SOL     OW 7381   4.969   3.266   3.305
 2161SOL    HW1 7382   4.934   3.184   3.350
 2161SOL    HW2 7383   4.955   3.346   3.364
 2162SOL     OW 7384   1.985   1.023   6.883
 2162SOL    HW1 7385   1.952   0.970   6.805
 2162SOL    HW2 7386   2.081   0.999   6.902
 2163SOL     OW 7387   1.509   1.066   0.507
 2163SOL    HW1 7388   1.551   0.980   0.536
 2163SOL    HW2 7389   1.508   1.071   0.407
 2164SOL     OW 7390   1.940   0.877   6.628
 2164SOL    HW1 7391   2.018   0.844   6.576
 2164SOL    HW2 7392   1.881   0.932   6.569
 2165SOL     OW 7393   1.683   6.964   3.283
 2165SOL    HW1 7394   1.618   6.933   3.353
 2165SOL    HW2 7395   1.732   0.019   3.317
 2166SOL     OW 7396   1.490   2.634   5.243
 2166SOL    HW1 7397   1.474   2.560   5.177
 2166SOL    HW2 7398   1.528   2.595   5.327
 2167SOL     OW 7399   3.565   0.880   2.054
 2167SOL    HW1 7400   3.587   0.931   2.137
 2167SOL    HW2 7401   3.619   0.915   1.978
 2168SOL     OW 7402   5.916   3.679   4.192
 2168SOL    HW1 7403   5.945   3.735   4.270
 2168SOL    HW2 7404   5.821   3.652   4.204
 2169SOL     OW 7405   4.738   2.590   6.330
 2169SOL    HW1 7406   4.778   2.681   6.343
 2169SOL    HW2 7407   4.657   2.596   6.271
 2170SOL     OW 7408   4.824   4.799   4.733
 2170SOL    HW1 7409   4.789   4.754   4.815
 2170SOL    HW2 7410   4.896   4.743   4.693
 2171SOL     OW 7411   6.960   2.933   0.263
 2171SOL    HW1 7412   0.011   2.993   0.287
 2171SOL    HW2 7413   6.898   2.981   0.201
 2172SOL     OW 7414   2.895   0.891   1.122
 2172SOL    HW1 7415   2.897   0.961   1.050
 2172SOL    HW2 7416   2.880   0.935   1.210
 2173SOL     OW 7417   5.112   1.640   5.620
 2173SOL    HW1 7418   5.025   1.635   5.570
 2173SOL    HW2 7419   5.106   1.585   5.703
 2174SOL     OW 7420   6.812   4.856   4.997
 2174SOL    HW1 7421   6.880   4.911   5.045
 2174SOL    HW2 7422   6.746   4.916   4.952
 2175SOL     OW 7423   2.707   0.423   4.024
 2175SOL    HW1 7424   2.740   0.338   3.982
 2175SOL    HW2 7425   2.709   0.496   3.955
 2176SOL     OW 7426   2.121   2.649   3.201
 2176SOL    HW1 7427   2.203   2.603   3.167
 2176SOL    HW2 7428   2.101   2.617   3.293
 2177SOL     OW 7429   0.430   2.432   0.663
 2177SOL    HW1 7430   0.378   2.372   0.724
 2177SOL    HW2 7431   0.415   2.527   0.689
 2178SOL     OW 7432   0.909   4.213   0.250
 2178SOL    HW1 7433   0.869   4.262   0.327
 2178SOL    HW2 7434   0.992   4.165   0.280
 2179SOL     OW 7435   1.666   5.163   4.183
 2179SOL    HW1 7436   1.760   5.135   4.204
 2179SOL    HW2 7437   1.656   5.261   4.203
 2180SOL     OW 7438   3.061   3.948   2.694
 2180SOL    HW1 7439   3.158   3.966   2.714
 2180SOL    HW2 7440   3.052   3.919   2.599
 2181SOL     OW 7441   5.553   5.880   5.921
 2181SOL    HW1 7442   5.552   5.909   5.825
 2181SOL    HW2 7443   5.475   5.820   5.938
 2182SOL     OW 7444   0.056   3.079   6.249
 2182SOL    HW1 7445   0.053   3.157   6.312
 2182SOL    HW2 7446   0.139   3.084   6.193
 2183SOL     OW 7447   3.604   2.895   0.772
 2183SOL    HW1 7448   3.603   2.808   0.722
 2183SOL    HW2 7449   3.670   2.957   0.731
 2184SOL     OW 7450   4.056   2.169   6.258
 2184SOL    HW1 7451   4.100   2.157   6.169
 2184SOL    HW2 7452   4.046   2.081   6.303
 2185SOL     OW 7453   1.829   0.836   1.374
 2185SOL    HW1 7454   1.798   0.895   1.448
 2185SOL    HW2 7455   1.766   0.842   1.297
 2186SOL     OW 7456   0.436   5.820   3.098
 2186SOL    HW1 7457   0.472   5.737   3.054
 2186SOL    HW2 7458   0.507   5.891   3.098
 2187SOL     OW 7459   6.792   1.597   0.238
 2187SOL    HW1 7460   6.790   1.529   0.311
 2187SOL    HW2 7461   6.882   1.596   0.194
 2188SOL     OW 7462   5.648   6.918   3.441
 2188SOL    HW1 7463   5.550   6.929   3.424
 2188SOL    HW2 7464   5.671   6.956   3.531
 2189SOL     OW 7465   2.004   6.650   5.944
 2189SOL    HW1 7466   2.083   6.711   5.939
 2189SOL    HW2 7467   1.997   6.611   6.036
 2190SOL     OW 7468   5.655   2.174   1.450
 2190SOL    HW1 7469   5.629   2.174   1.547
 2190SOL    HW2 7470   5.734   2.233   1.437
 2191SOL     OW 7471   3.002   2.723   6.422
 2191SOL    HW1 7472   2.946   2.805   6.418
 2191SOL    HW2 7473   3.030   2.706   6.517
 2192SOL     OW 7474   4.612   5.419   5.200
 2192SOL    HW1 7475   4.673   5.499   5.202
 2192SOL    HW2 7476   4.517   5.450   5.210
 2193SOL     OW 7477   0.748   5.396   5.294
 2193SOL    HW1 7478   0.741   5.329   5.367
 2193SOL    HW2 7479   0.661   5.403   5.245
 2194SOL     OW 7480   2.188   6.430   0.889
 2194SOL    HW1 7481   2.285   6.428   0.864
 2194SOL    HW2 7482   2.171   6.361   0.960
 2195SOL     OW 7483   1.093   5.212   2.775
 2195SOL    HW1 7484   1.009   5.175   2.736
 2195SOL    HW2 7485   1.109   5.172   2.865
 2196SOL     OW 7486   3.605   2.269   6.068
 2196SOL    HW1 7487   3.664   2.305   6.140
 2196SOL    HW2 7488   3.628   2.312   5.980
 2197SOL     OW 7489   5.007   5.004   1.486
 2197SOL    HW1 7490   4.977   5.071   1.554
 2197SOL    HW2 7491   4.929   4.974   1.431
 2198SOL     OW 7492   6.811   3.547   0.554
 2198SOL    HW1 7493   6.720   3.556   0.595
 2198SOL    HW2 7494   6.874   3.510   0.622
 2199SOL     OW 7495   4.542   0.252   1.305
 2199SOL    HW1 7496   4.513   0.336   1.350
 2199SOL    HW2 7497   4.465   0.211   1.256
 2200SOL     OW 7498   3.768   0.790   4.310
 2200SOL    HW1 7499   3.681   0.772   4.357
 2200SOL    HW2 7500   3.760   0.763   4.214
 2201SOL     OW 7501   5.840   3.521   2.218
 2201SOL    HW1 7502   5.850   3.567   2.130
 2201SOL    HW2 7503   5.926   3.476   2.243
 2202SOL     OW 7504   4.501   5.784   3.829
 2202SOL    HW1 7505   4.437   5.710   3.810
 2202SOL    HW2 7506   4.475   5.865   3.776
 2203SOL     OW 7507   3.557   1.961   3.374
 2203SOL    HW1 7508   3.502   2.028   3.424
 2203SOL    HW2 7509   3.502   1.880   3.354
 2204SOL     OW 7510   3.182   2.362   0.586
 2204SOL    HW1 7511   3.104   2.410   0.546
 2204SOL    HW2 7512   3.267   2.396   0.545
 2205SOL     OW 7513   3.158   6.970   0.916
 2205SOL    HW1 7514   3.143   0.043   0.926
 2205SOL    HW2 7515   3.150   6.926   1.005
 2206SOL     OW 7516   2.598   3.061   7.011
 2206SOL    HW1 7517   2.574   3.153   0.018
 2206SOL    HW2 7518   2.532   3.032   6.943
 2207SOL     OW 7519   0.988   4.567   6.152
 2207SOL    HW1 7520   0.920   4.517   6.099
 2207SOL    HW2 7521   0.992   4.530   6.244
 2208SOL     OW 7522   0.129   3.538   2.128
 2208SOL    HW1 7523   0.070   3.494   2.060
 2208SOL    HW2 7524   0.203   3.476   2.152
 2209SOL     OW 7525   0.969   5.533   6.488
 2209SOL    HW1 7526   0.924   5.559   6.573
 2209SOL    HW2 7527   0.914   5.463   6.441
 2210SOL     OW 7528   1.035   6.261   4.267
 2210SOL    HW1 7529   0.995   6.336   4.320
 2210SOL    HW2 7530   1.030   6.283   4.169
 2211SOL     OW 7531   6.113   1.205   5.696
 2211SOL    HW1 7532   6.196   1.248   5.732
 2211SOL    HW2 7533   6.124   1.105   5.698
 2212SOL     OW 7534   1.442   0.530   6.211
 2212SOL    HW1 7535   1.530   0.527   6.260
 2212SOL    HW2 7536   1.459   0.540   6.113
 2213SOL     OW 7537   3.780   1.915   3.510
 2213SOL    HW1 7538   3.707   1.934   3.445
 2213SOL    HW2 7539   3.848   1.855   3.467
 2214SOL     OW 7540   5.178   0.005   4.820
 2214SOL    HW1 7541   5.210   0.007   4.725
 2214SOL    HW2 7542   5.192   0.095   4.862
 2215SOL     OW 7543   6.537   2.207   4.998
 2215SOL    HW1 7544   6.534   2.116   5.038
 2215SOL    HW2 7545   6.597   2.266   5.052
 2216SOL     OW 7546   1.345   6.471   1.430
 2216SOL    HW1 7547   1.420   6.510   1.483
 2216SOL    HW2 7548   1.353   6.372   1.428
 2217SOL     OW 7549   4.049   0.363   1.367
 2217SOL    HW1 7550   4.001   0.363   1.279
 2217SOL    HW2 7551   4.148   0.373   1.351
 2218SOL     OW 7552   0.462   5.673   6.644
 2218SOL    HW1 7553   0.396   5.633   6.581
 2218SOL    HW2 7554   0.443   5.640   6.737
 2219SOL     OW 7555   2.105   3.744   3.180
 2219SOL    HW1 7556   2.086   3.683   3.103
 2219SOL    HW2 7557   2.105   3.692   3.265
 2220SOL     OW 7558   0.514   1.441   6.081
 2220SOL    HW1 7559   0.446   1.374   6.110
 2220SOL    HW2 7560   0.471   1.530   6.068
 2221SOL     OW 7561   6.440   2.279   1.494
 2221SOL    HW1 7562   6.444   2.276   1.594
 2221SOL    HW2 7563   6.474   2.367   1.462
 2222SOL     OW 7564   4.909   7.007   2.543
 2222SOL    HW1 7565   4.900   6.970   2.635
 2222SOL    HW2 7566   4.819   0.011   2.510
 2223SOL     OW 7567   5.748   5.436   3.507
 2223SOL    HW1 7568   5.783   5.486   3.587
 2223SOL    HW2 7569   5.819   5.430   3.438
 2224SOL     OW 7570   1.490   4.772   1.332
 2224SOL    HW1 7571   1.421   4.802   1.265
 2224SOL    HW2 7572   1.510   4.676   1.317
 2225SOL     OW 7573   6.355   5.237   2.222
 2225SOL    HW1 7574   6.316   5.217   2.132
 2225SOL    HW2 7575   6.282   5.249   2.288
 2226SOL     OW 7576   3.651   4.095   0.934
 2226SOL    HW1 7577   3.602   4.017   0.973
 2226SOL    HW2 7578   3.668   4.163   1.005
 2227SOL     OW 7579   6.652   4.235   5.069
 2227SOL    HW1 7580   6.553   4.239   5.082
 2227SOL    HW2 7581   6.697   4.298   5.132
 2228SOL     OW 7582   3.491   4.593   6.035
 2228SOL    HW1 7583   3.506   4.649   6.116
 2228SOL    HW2 7584   3.533   4.637   5.955
 2229SOL     OW 7585   4.247   0.837   3.343
 2229SOL    HW1 7586   4.336   0.855   3.384
 2229SOL    HW2 7587   4.229   0.904   3.271
 2230SOL     OW 7588   1.155   6.640   6.090
 2230SOL    HW1 7589   1.057   6.640   6.110
 2230SOL    HW2 7590   1.201   6.701   6.155
 2231SOL     OW 7591   2.173   6.917   1.788
 2231SOL    HW1 7592   2.206   7.011   1.783
 2231SOL    HW2 7593   2.188   6.881   1.880
 2232SOL     OW 7594   6.368   2.507   2.402
 2232SOL    HW1 7595   6.316   2.586   2.433
 2232SOL    HW2 7596   6.321   2.423   2.429
 2233SOL     OW 7597   3.628   0.067   0.028
 2233SOL    HW1 7598   3.686   7.015   0.054
 2233SOL    HW2 7599   3.684   0.139   7.013
 2234SOL     OW 7600   3.861   1.315   0.703
 2234SOL    HW1 7601   3.843   1.342   0.609
 2234SOL    HW2 7602   3.851   1.394   0.763
 2235SOL     OW 7603   1.276   6.745   0.926
 2235SOL    HW1 7604   1.215   6.704   0.859
 2235SOL    HW2 7605   1.301   6.838   0.897
 2236SOL     OW 7606   0.692   4.015   1.313
 2236SOL    HW1 7607   0.735   3.925   1.310
 2236SOL    HW2 7608   0.738   4.076   1.247
 2237SOL     OW 7609   6.083   2.903   4.542
 2237SOL    HW1 7610   6.102   2.809   4.569
 2237SOL    HW2 7611   6.111   2.917   4.447
 2238SOL     OW 7612   0.757   5.661   1.994
 2238SOL    HW1 7613   0.689   5.604   1.948
 2238SOL    HW2 7614   0.735   5.668   2.091
 2239SOL     OW 7615   4.455   5.211   3.354
 2239SOL    HW1 7616   4.534   5.184   3.409
 2239SOL    HW2 7617   4.378   5.150   3.375
 2240SOL     OW 7618   5.664   4.997   2.383
 2240SOL    HW1 7619   5.607   5.077   2.399
 2240SOL    HW2 7620   5.703   5.001   2.291
 2241SOL     OW 7621   0.261   6.997   2.149
 2241SOL    HW1 7622   0.343   7.014   2.094
 2241SOL    HW2 7623   0.180   7.008   2.092
 2242SOL     OW 7624   4.954   2.042   2.810
 2242SOL    HW1 7625   4.894   2.039   2.890
 2242SOL    HW2 7626   5.006   2.127   2.811
 2243SOL     OW 7627   2.426   5.845   4.950
 2243SOL    HW1 7628   2.419   5.844   5.050
 2243SOL    HW2 7629   2.482   5.923   4.921
 2244SOL     OW 7630   2.845   0.871   4.391
 2244SOL    HW1 7631   2.779   0.915   4.330
 2244SOL    HW2 7632   2.938   0.884   4.356
 2245SOL     OW 7633   1.094   1.168   2.325
 2245SOL    HW1 7634   1.052   1.257   2.345
 2245SOL    HW2 7635   1.137   1.171   2.235
 2246SOL     OW 7636   0.797   4.172   5.902
 2246SOL    HW1 7637   0.857   4.235   5.852
 2246SOL    HW2 7638   0.776   4.093   5.844
 2247SOL     OW 7639   2.044   2.575   6.164
 2247SOL    HW1 7640   2.024   2.585   6.066
 2247SOL    HW2 7641   2.105   2.648   6.193
 2248SOL     OW 7642   4.733   3.590   5.517
 2248SOL    HW1 7643   4.747   3.655   5.442
 2248SOL    HW2 7644   4.757   3.498   5.487
 2249SOL     OW 7645   4.951   5.619   3.958
 2249SOL    HW1 7646   4.956   5.533   3.908
 2249SOL    HW2 7647   5.009   5.687   3.913
 2250SOL     OW 7648   0.181   4.512   0.497
 2250SOL    HW1 7649   0.225   4.440   0.550
 2250SOL    HW2 7650   0.241   4.592   0.493
 2251SOL     OW 7651   5.675   1.136   7.004
 2251SOL    HW1 7652   5.603   1.154   6.936
 2251SOL    HW2 7653   5.717   1.048   6.984
 2252SOL     OW 7654   4.791   2.672   5.582
 2252SOL    HW1 7655   4.725   2.612   5.628
 2252SOL    HW2 7656   4.742   2.752   5.545
 2253SOL     OW 7657   2.565   3.369   0.024
 2253SOL    HW1 7658   2.531   3.350   0.116
 2253SOL    HW2 7659   2.581   3.467   0.014
 2254SOL     OW 7660   2.693   4.020   6.153
 2254SOL    HW1 7661   2.786   4.014   6.117
 2254SOL    HW2 7662   2.657   4.112   6.138
 2255SOL     OW 7663   6.161   2.617   1.674
 2255SOL    HW1 7664   6.226   2.598   1.748
 2255SOL    HW2 7665   6.179   2.555   1.598
 2256SOL     OW 7666   4.304   4.782   1.648
 2256SOL    HW1 7667   4.342   4.694   1.678
 2256SOL    HW2 7668   4.352   4.814   1.567
 2257SOL     OW 7669   1.882   4.243   4.061
 2257SOL    HW1 7670   1.842   4.320   4.011
 2257SOL    HW2 7671   1.823   4.219   4.138
 2258SOL     OW 7672   1.614   5.420   4.156
 2258SOL    HW1 7673   1.550   5.439   4.082
 2258SOL    HW2 7674   1.624   5.502   4.213
 2259SOL     OW 7675   4.836   3.783   0.004
 2259SOL    HW1 7676   4.877   3.873   0.019
 2259SOL    HW2 7677   4.904   3.722   6.989
 2260SOL     OW 7678   5.366   5.342   1.568
 2260SOL    HW1 7679   5.459   5.308   1.577
 2260SOL    HW2 7680   5.315   5.283   1.506
 2261SOL     OW 7681   5.435   6.375   6.990
 2261SOL    HW1 7682   5.342   6.369   6.954
 2261SOL    HW2 7683   5.487   6.442   6.936
 2262SOL     OW 7684   4.616   2.158   3.392
 2262SOL    HW1 7685   4.612   2.171   3.491
 2262SOL    HW2 7686   4.689   2.216   3.355
 2263SOL     OW 7687   0.728   5.180   5.657
 2263SOL    HW1 7688   0.758   5.142   5.570
 2263SOL    HW2 7689   0.781   5.139   5.732
 2264SOL     OW 7690   3.716   3.290   4.471
 2264SOL    HW1 7691   3.792   3.233   4.440
 2264SOL    HW2 7692   3.642   3.232   4.505
 2265SOL     OW 7693   0.015   6.810   1.815
 2265SOL    HW1 7694   6.979   6.888   1.822
 2265SOL    HW2 7695   0.105   6.841   1.784
 2266SOL     OW 7696   5.888   0.355   0.592
 2266SOL    HW1 7697   5.806   0.339   0.536
 2266SOL    HW2 7698   5.957   0.286   0.570
 2267SOL     OW 7699   6.227   2.823   5.851
 2267SOL    HW1 7700   6.219   2.899   5.915
 2267SOL    HW2 7701   6.139   2.810   5.804
 2268SOL     OW 7702   6.943   5.972   6.525
 2268SOL    HW1 7703   6.970   5.882   6.490
 2268SOL    HW2 7704   6.853   5.996   6.489
 2269SOL     OW 7705   6.525   5.093   5.684
 2269SOL    HW1 7706   6.473   5.071   5.602
 2269SOL    HW2 7707   6.619   5.062   5.674
 2270SOL     OW 7708   4.173   3.318   2.076
 2270SOL    HW1 7709   4.176   3.389   2.006
 2270SOL    HW2 7710   4.265   3.299   2.109
 2271SOL     OW 7711   6.654   4.719   2.041
 2271SOL    HW1 7712   6.746   4.757   2.026
 2271SOL    HW2 7713   6.586   4.781   2.004
 2272SOL     OW 7714   5.966   1.840   5.994
 2272SOL    HW1 7715   5.968   1.852   6.094
 2272SOL    HW2 7716   5.888   1.782   5.969
 2273SOL     OW 7717   0.742   1.642   2.936
 2273SOL    HW1 7718   0.781   1.730   2.962
 2273SOL    HW2 7719   0.650   1.635   2.975
 2274SOL     OW 7720   0.919   3.298   4.146
 2274SOL    HW1 7721   0.993   3.294   4.214
 2274SOL    HW2 7722   0.879   3.207   4.136
 2275SOL     OW 7723   5.019   6.812   3.958
 2275SOL    HW1 7724   5.025   6.745   4.032
 2275SOL    HW2 7725   4.924   6.816   3.926
 2276SOL     OW 7726   4.085   4.991   1.967
 2276SOL    HW1 7727   4.183   4.974   1.952
 2276SOL    HW2 7728   4.046   4.916   2.020
 2277SOL     OW 7729   3.664   3.293   0.145
 2277SOL    HW1 7730   3.619   3.244   0.220
 2277SOL    HW2 7731   3.746   3.242   0.117
 2278SOL     OW 7732   5.348   5.995   1.383
 2278SOL    HW1 7733   5.340   5.985   1.284
 2278SOL    HW2 7734   5.403   6.075   1.405
 2279SOL     OW 7735   5.758   3.470   4.722
 2279SOL    HW1 7736   5.658   3.466   4.727
 2279SOL    HW2 7737   5.798   3.421   4.799
 2280SOL     OW 7738   5.795   6.679   6.641
 2280SOL    HW1 7739   5.880   6.626   6.651
 2280SOL    HW2 7740   5.737   6.635   6.573
 2281SOL     OW 7741   3.854   2.709   1.211
 2281SOL    HW1 7742   3.771   2.709   1.267
 2281SOL    HW2 7743   3.876   2.616   1.182
 2282SOL     OW 7744   4.517   5.755   2.766
 2282SOL    HW1 7745   4.508   5.740   2.668
 2282SOL    HW2 7746   4.610   5.735   2.795
 2283SOL     OW 7747   0.114   2.957   3.199
 2283SOL    HW1 7748   0.197   2.901   3.212
 2283SOL    HW2 7749   0.059   2.954   3.282
 2284SOL     OW 7750   2.063   2.540   1.654
 2284SOL    HW1 7751   1.972   2.517   1.620
 2284SOL    HW2 7752   2.107   2.606   1.593
 2285SOL     OW 7753   1.730   4.240   0.736
 2285SOL    HW1 7754   1.820   4.209   0.768
 2285SOL    HW2 7755   1.679   4.163   0.699
 2286SOL     OW 7756   6.618   6.446   4.968
 2286SOL    HW1 7757   6.691   6.387   5.003
 2286SOL    HW2 7758   6.629   6.459   4.870
 2287SOL     OW 7759   2.115   2.571   1.930
 2287SOL    HW1 7760   2.137   2.540   1.837
 2287SOL    HW2 7761   2.143   2.667   1.940
 2288SOL     OW 7762   6.882   6.170   3.802
 2288SOL    HW1 7763   6.982   6.167   3.800
 2288SOL    HW2 7764   6.846   6.101   3.739
 2289SOL     OW 7765   5.366   1.835   2.319
 2289SOL    HW1 7766   5.357   1.859   2.223
 2289SOL    HW2 7767   5.305   1.891   2.374
 2290SOL     OW 7768   2.985   3.142   2.688
 2290SOL    HW1 7769   2.910   3.078   2.672
 2290SOL    HW2 7770   2.989   3.165   2.786
 2291SOL     OW 7771   1.874   2.557   0.410
 2291SOL    HW1 7772   1.972   2.549   0.426
 2291SOL    HW2 7773   1.827   2.478   0.450
 2292SOL     OW 7774   4.350   2.113   3.345
 2292SOL    HW1 7775   4.351   2.094   3.443
 2292SOL    HW2 7776   4.442   2.137   3.315
 2293SOL     OW 7777   6.143   1.403   6.769
 2293SOL    HW1 7778   6.079   1.379   6.842
 2293SOL    HW2 7779   6.199   1.324   6.746
 2294SOL     OW 7780   0.715   2.271   6.150
 2294SOL    HW1 7781   0.805   2.275   6.194
 2294SOL    HW2 7782   0.687   2.364   6.123
 2295SOL     OW 7783   5.875   6.638   1.722
 2295SOL    HW1 7784   5.926   6.724   1.720
 2295SOL    HW2 7785   5.939   6.561   1.712
 2296SOL     OW 7786   2.940   5.681   4.027
 2296SOL    HW1 7787   3.012   5.657   3.962
 2296SOL    HW2 7788   2.905   5.598   4.070
 2297SOL     OW 7789   4.114   4.591   5.400
 2297SOL    HW1 7790   4.124   4.543   5.312
 2297SOL    HW2 7791   4.205   4.612   5.436
 2298SOL     OW 7792   3.601   3.830   4.832
 2298SOL    HW1 7793   3.554   3.780   4.905
 2298SOL    HW2 7794   3.682   3.780   4.805
 2299SOL     OW 7795   5.376   2.806   4.912
 2299SOL    HW1 7796   5.444   2.743   4.950
 2299SOL    HW2 7797   5.404   2.900   4.931
 2300SOL     OW 7798   3.847   6.385   2.043
 2300SOL    HW1 7799   3.770   6.450   2.039
 2300SOL    HW2 7800   3.911   6.405   1.969
 2301SOL     OW 7801   3.404   3.660   4.553
 2301SOL    HW1 7802   3.389   3.575   4.503
 2301SOL    HW2 7803   3.363   3.653   4.644
 2302SOL     OW 7804   4.832   2.254   0.296
 2302SOL    HW1 7805   4.763   2.183   0.282
 2302SOL    HW2 7806   4.921   2.212   0.316
 2303SOL     OW 7807   3.422   2.199   0.972
 2303SOL    HW1 7808   3.451   2.206   1.067
 2303SOL    HW2 7809   3.473   2.125   0.928
 2304SOL     OW 7810   6.070   6.151   1.867
 2304SOL    HW1 7811   5.977   6.124   1.843
 2304SOL    HW2 7812   6.134   6.082   1.834
 2305SOL     OW 7813   1.928   1.119   5.076
 2305SOL    HW1 7814   1.906   1.205   5.122
 2305SOL    HW2 7815   1.870   1.108   4.996
 2306SOL     OW 7816   2.041   5.397   3.392
 2306SOL    HW1 7817   2.093   5.479   3.413
 2306SOL    HW2 7818   1.960   5.422   3.339
 2307SOL     OW 7819   0.648   2.024   5.315
 2307SOL    HW1 7820   0.744   2.034   5.289
 2307SOL    HW2 7821   0.633   2.067   5.404
 2308SOL     OW 7822   2.590   4.550   1.415
 2308SOL    HW1 7823   2.653   4.502   1.477
 2308SOL    HW2 7824   2.506   4.573   1.464
 2309SOL     OW 7825   1.318   6.135   4.941
 2309SOL    HW1 7826   1.399   6.081   4.916
 2309SOL    HW2 7827   1.347   6.224   4.976
 2310SOL     OW 7828   4.877   6.737   1.630
 2310SOL    HW1 7829   4.929   6.672   1.574
 2310SOL    HW2 7830   4.853   6.817   1.575
 2311SOL     OW 7831   2.462   6.305   1.191
 2311SOL    HW1 7832   2.372   6.272   1.162
 2311SOL    HW2 7833   2.519   6.323   1.110
 2312SOL     OW 7834   3.458   5.018   2.871
 2312SOL    HW1 7835   3.540   5.066   2.837
 2312SOL    HW2 7836   3.422   4.959   2.798
 2313SOL     OW 7837   5.028   5.102   2.343
 2313SOL    HW1 7838   5.116   5.084   2.298
 2313SOL    HW2 7839   5.041   5.101   2.443
 2314SOL     OW 7840   2.896   5.888   4.204
 2314SOL    HW1 7841   2.895   5.803   4.151
 2314SOL    HW2 7842   2.844   5.875   4.288
 2315SOL     OW 7843   4.176   3.251   6.940
 2315SOL    HW1 7844   4.139   3.343   6.935
 2315SOL    HW2 7845   4.216   3.226   6.852
 2316SOL     OW 7846   5.538   2.994   3.174
 2316SOL    HW1 7847   5.620   3.023   3.223
 2316SOL    HW2 7848   5.489   2.926   3.228
 2317SOL     OW 7849   1.487   4.874   3.537
 2317SOL    HW1 7850   1.425   4.881   3.459
 2317SOL    HW2 7851   1.472   4.950   3.600
 2318SOL     OW 7852   0.162   1.144   3.430
 2318SOL    HW1 7853   0.243   1.139   3.488
 2318SOL    HW2 7854   0.176   1.085   3.350
 2319SOL     OW 7855   1.380   3.884   3.930
 2319SOL    HW1 7856   1.408   3.979   3.939
 2319SOL    HW2 7857   1.436   3.827   3.991
 2320SOL     OW 7858   6.906   3.127   4.395
 2320SOL    HW1 7859   6.888   3.033   4.366
 2320SOL    HW2 7860   6.827   3.162   4.444
 2321SOL     OW 7861   3.280   6.577   5.378
 2321SOL    HW1 7862   3.193   6.619   5.353
 2321SOL    HW2 7863   3.327   6.634   5.446
 2322SOL     OW 7864   2.215   0.403   5.316
 2322SOL    HW1 7865   2.189   0.498   5.299
 2322SOL    HW2 7866   2.227   0.389   5.415
 2323SOL     OW 7867   4.520   5.235   1.960
 2323SOL    HW1 7868   4.546   5.160   2.021
 2323SOL    HW2 7869   4.519   5.321   2.010
 2324SOL     OW 7870   0.015   5.147   3.544
 2324SOL    HW1 7871   0.024   5.161   3.643
 2324SOL    HW2 7872   0.102   5.116   3.507
 2325SOL     OW 7873   0.304   3.574   0.881
 2325SOL    HW1 7874   0.256   3.662   0.890
 2325SOL    HW2 7875   0.272   3.511   0.951
 2326SOL     OW 7876   1.419   5.521   6.938
 2326SOL    HW1 7877   1.446   5.543   6.844
 2326SOL    HW2 7878   1.493   5.473   6.984
 2327SOL     OW 7879   4.675   2.742   4.353
 2327SOL    HW1 7880   4.701   2.838   4.347
 2327SOL    HW2 7881   4.730   2.689   4.288
 2328SOL     OW 7882   4.586   0.280   3.495
 2328SOL    HW1 7883   4.651   0.208   3.519
 2328SOL    HW2 7884   4.633   0.368   3.495
 2329SOL     OW 7885   0.667   6.412   3.752
 2329SOL    HW1 7886   0.648   6.322   3.789
 2329SOL    HW2 7887   0.716   6.467   3.820
 2330SOL     OW 7888   0.664   4.143   2.943
 2330SOL    HW1 7889   0.623   4.189   3.022
 2330SOL    HW2 7890   0.690   4.211   2.875
 2331SOL     OW 7891   0.925   4.405   5.248
 2331SOL    HW1 7892   0.846   4.450   5.290
 2331SOL    HW2 7893   0.910   4.396   5.149
 2332SOL     OW 7894   5.555   2.402   5.807
 2332SOL    HW1 7895   5.585   2.314   5.772
 2332SOL    HW2 7896   5.500   2.449   5.738
 2333SOL     OW 7897   1.211   5.994   3.598
 2333SOL    HW1 7898   1.120   5.971   3.563
 2333SOL    HW2 7899   1.256   5.912   3.633
 2334SOL     OW 7900   3.094   6.915   6.961
 2334SOL    HW1 7901   3.132   7.004   6.935
 2334SOL    HW2 7902   3.079   6.913   0.035
 2335SOL     OW 7903   5.043   6.731   4.288
 2335SOL    HW1 7904   5.092   6.647   4.308
 2335SOL    HW2 7905   5.001   6.766   4.372
 2336SOL     OW 7906   5.502   1.630   5.641
 2336SOL    HW1 7907   5.586   1.664   5.598
 2336SOL    HW2 7908   5.443   1.707   5.664
 2337SOL     OW 7909   5.380   6.887   3.402
 2337SOL    HW1 7910   5.367   6.928   3.492
 2337SOL    HW2 7911   5.346   6.949   3.331
 2338SOL     OW 7912   0.876   6.671   6.932
 2338SOL    HW1 7913   0.957   6.614   6.918
 2338SOL    HW2 7914   0.803   6.617   6.974
 2339SOL     OW 7915   3.491   4.013   0.440
 2339SOL    HW1 7916   3.579   4.024   0.487
 2339SOL    HW2 7917   3.506   3.997   0.343
 2340SOL     OW 7918   3.087   5.252   4.430
 2340SOL    HW1 7919   3.097   5.207   4.519
 2340SOL    HW2 7920   3.149   5.210   4.364
 2341SOL     OW 7921   5.316   5.306   0.734
 2341SOL    HW1 7922   5.346   5.219   0.695
 2341SOL    HW2 7923   5.231   5.292   0.785
 2342SOL     OW 7924   6.264   0.333   5.418
 2342SOL    HW1 7925   6.234   0.243   5.448
 2342SOL    HW2 7926   6.259   0.398   5.495
 2343SOL     OW 7927   1.180   6.815   1.250
 2343SOL    HW1 7928   1.195   6.777   1.159
 2343SOL    HW2 7929   1.114   6.890   1.244
 2344SOL     OW 7930   2.260   2.299   2.816
 2344SOL    HW1 7931   2.182   2.247   2.850
 2344SOL    HW2 7932   2.230   2.361   2.743
 2345SOL     OW 7933   1.884   1.402   4.630
 2345SOL    HW1 7934   1.911   1.311   4.658
 2345SOL    HW2 7935   1.962   1.450   4.590
 2346SOL     OW 7936   5.491   3.890   5.912
 2346SOL    HW1 7937   5.442   3.973   5.934
 2346SOL    HW2 7938   5.512   3.889   5.814
 2347SOL     OW 7939   1.724   3.023   1.946
 2347SOL    HW1 7940   1.669   3.091   1.995
 2347SOL    HW2 7941   1.799   2.992   2.005
 2348SOL     OW 7942   2.331   6.663   2.253
 2348SOL    HW1 7943   2.298   6.723   2.180
 2348SOL    HW2 7944   2.396   6.597   2.216
 2349SOL     OW 7945   5.525   5.974   5.668
 2349SOL    HW1 7946   5.476   6.049   5.622
 2349SOL    HW2 7947   5.579   5.924   5.600
 2350SOL     OW 7948   2.412   6.963   6.051
 2350SOL    HW1 7949   2.446   6.981   5.958
 2350SOL    HW2 7950   2.488   6.933   6.108
 2351SOL     OW 7951   2.200   5.576   4.495
 2351SOL    HW1 7952   2.195   5.485   4.534
 2351SOL    HW2 7953   2.220   5.643   4.567
 2352SOL     OW 7954   0.522   2.934   2.774
 2352SOL    HW1 7955   0.583   2.991   2.829
 2352SOL    HW2 7956   0.520   2.967   2.680
 2353SOL     OW 7957   3.106   4.497   5.804
 2353SOL    HW1 7958   3.066   4.581   5.766
 2353SOL    HW2 7959   3.038   4.453   5.864
 2354SOL     OW 7960   3.979   2.194   0.784
 2354SOL    HW1 7961   3.888   2.223   0.753
 2354SOL    HW2 7962   3.984   2.202   0.883
 2355SOL     OW 7963   0.434   6.350   0.822
 2355SOL    HW1 7964   0.524   6.332   0.783
 2355SOL    HW2 7965   0.442   6.362   0.921
 2356SOL     OW 7966   2.708   5.028   3.670
 2356SOL    HW1 7967   2.759   4.942   3.678
 2356SOL    HW2 7968   2.680   5.041   3.575
 2357SOL     OW 7969   6.650   4.211   1.564
 2357SOL    HW1 7970   6.571   4.271   1.575
 2357SOL    HW2 7971   6.665   4.160   1.649
 2358SOL     OW 7972   3.914   2.287   5.836
 2358SOL    HW1 7973   4.004   2.326   5.857
 2358SOL    HW2 7974   3.905   2.198   5.879
 2359SOL     OW 7975   1.412   1.760   5.733
 2359SOL    HW1 7976   1.476   1.684   5.739
 2359SOL    HW2 7977   1.321   1.729   5.759
 2360SOL     OW 7978   3.787   4.488   0.581
 2360SOL    HW1 7979   3.690   4.478   0.600
 2360SOL    HW2 7980   3.839   4.479   0.665
 2361SOL     OW 7981   3.805   6.077   1.742
 2361SOL    HW1 7982   3.820   6.016   1.664
 2361SOL    HW2 7983   3.819   6.026   1.827
 2362SOL     OW 7984   4.193   6.115   3.985
 2362SOL    HW1 7985   4.229   6.106   3.893
 2362SOL    HW2 7986   4.107   6.063   3.993
 2363SOL     OW 7987   3.308   3.876   0.748
 2363SOL    HW1 7988   3.302   3.857   0.650
 2363SOL    HW2 7989   3.335   3.971   0.762
 2364SOL     OW 7990   4.783   1.623   1.805
 2364SOL    HW1 7991   4.720   1.562   1.853
 2364SOL    HW2 7992   4.853   1.568   1.758
 2365SOL     OW 7993   4.859   3.793   3.876
 2365SOL    HW1 7994   4.781   3.837   3.832
 2365SOL    HW2 7995   4.921   3.864   3.910
 2366SOL     OW 7996   2.654   4.519   5.269
 2366SOL    HW1 7997   2.753   4.528   5.256
 2366SOL    HW2 7998   2.633   4.429   5.307
 2367SOL     OW 7999   0.416   4.480   5.766
 2367SOL    HW1 8000   0.425   4.546   5.841
 2367SOL    HW2 8001   0.444   4.522   5.680
 2368SOL     OW 8002   5.634   6.348   4.248
 2368SOL    HW1 8003   5.705   6.278   4.252
 2368SOL    HW2 8004   5.586   6.343   4.161
 2369SOL     OW 8005   3.186   1.872   3.764
 2369SOL    HW1 8006   3.259   1.939   3.757
 2369SOL    HW2 8007   3.100   1.918   3.788
 2370SOL     OW 8008   5.581   2.490   1.525
 2370SOL    HW1 8009   5.667   2.500   1.576
 2370SOL    HW2 8010   5.511   2.451   1.585
 2371SOL     OW 8011   0.938   6.831   2.899
 2371SOL    HW1 8012   0.888   6.815   2.813
 2371SOL    HW2 8013   0.881   6.803   2.976
 2372SOL     OW 8014   6.531   1.227   5.944
 2372SOL    HW1 8015   6.491   1.307   5.899
 2372SOL    HW2 8016   6.605   1.257   6.005
 2373SOL     OW 8017   5.715   6.545   6.343
 2373SOL    HW1 8018   5.653   6.499   6.279
 2373SOL    HW2 8019   5.734   6.638   6.310
 2374SOL     OW 8020   5.899   6.064   2.606
 2374SOL    HW1 8021   5.893   6.010   2.522
 2374SOL    HW2 8022   5.839   6.144   2.599
 2375SOL     OW 8023   1.195   0.729   4.114
 2375SOL    HW1 8024   1.201   0.645   4.062
 2375SOL    HW2 8025   1.219   0.711   4.209
 2376SOL     OW 8026   5.710   1.550   3.048
 2376SOL    HW1 8027   5.760   1.587   2.970
 2376SOL    HW2 8028   5.642   1.618   3.079
 2377SOL     OW 8029   4.040   4.966   6.063
 2377SOL    HW1 8030   4.069   5.054   6.100
 2377SOL    HW2 8031   3.943   4.951   6.084
 2378SOL     OW 8032   0.132   1.004   0.249
 2378SOL    HW1 8033   0.138   1.082   0.187
 2378SOL    HW2 8034   0.203   0.938   0.226
 2379SOL     OW 8035   6.612   5.204   1.079
 2379SOL    HW1 8036   6.683   5.273   1.064
 2379SOL    HW2 8037   6.528   5.249   1.109
 2380SOL     OW 8038   5.026   4.527   4.963
 2380SOL    HW1 8039   5.063   4.569   5.046
 2380SOL    HW2 8040   5.101   4.507   4.900
 2381SOL     OW 8041   2.838   5.429   4.735
 2381SOL    HW1 8042   2.804   5.346   4.691
 2381SOL    HW2 8043   2.777   5.454   4.811
 2382SOL     OW 8044   1.124   6.060   1.428
 2382SOL    HW1 8045   1.086   6.152   1.412
 2382SOL    HW2 8046   1.055   6.003   1.472
 2383SOL     OW 8047   5.067   5.598   5.258
 2383SOL    HW1 8048   5.086   5.658   5.336
 2383SOL    HW2 8049   5.111   5.510   5.272
 2384SOL     OW 8050   0.632   1.818   1.962
 2384SOL    HW1 8051   0.580   1.736   1.941
 2384SOL    HW2 8052   0.644   1.873   1.880
 2385SOL     OW 8053   0.996   1.921   1.120
 2385SOL    HW1 8054   1.004   1.890   1.025
 2385SOL    HW2 8055   0.901   1.918   1.148
 2386SOL     OW 8056   4.461   6.078   4.388
 2386SOL    HW1 8057   4.481   6.023   4.469
 2386SOL    HW2 8058   4.366   6.109   4.392
 2387SOL     OW 8059   1.751   1.351   3.996
 2387SOL    HW1 8060   1.695   1.362   4.078
 2387SOL    HW2 8061   1.847   1.368   4.020
 2388SOL     OW 8062   6.487   1.699   5.488
 2388SOL    HW1 8063   6.441   1.776   5.534
 2388SOL    HW2 8064   6.480   1.710   5.389
 2389SOL     OW 8065   5.933   4.441   4.322
 2389SOL    HW1 8066   5.918   4.540   4.322
 2389SOL    HW2 8067   5.849   4.394   4.297
 2390SOL     OW 8068   4.844   4.216   5.840
 2390SOL    HW1 8069   4.765   4.252   5.790
 2390SOL    HW2 8070   4.813   4.169   5.923
 2391SOL     OW 8071   3.622   3.664   6.289
 2391SOL    HW1 8072   3.569   3.598   6.236
 2391SOL    HW2 8073   3.664   3.619   6.367
 2392SOL     OW 8074   3.224   5.564   4.571
 2392SOL    HW1 8075   3.257   5.536   4.661
 2392SOL    HW2 8076   3.246   5.493   4.504
 2393SOL     OW 8077   3.050   5.246   1.479
 2393SOL    HW1 8078   2.974   5.300   1.445
 2393SOL    HW2 8079   3.029   5.149   1.470
 2394SOL     OW 8080   0.810   2.623   3.093
 2394SOL    HW1 8081   0.828   2.629   2.995
 2394SOL    HW2 8082   0.755   2.541   3.111
 2395SOL     OW 8083   0.039   2.526   5.416
 2395SOL    HW1 8084   0.122   2.535   5.470
 2395SOL    HW2 8085   0.053   2.457   5.345
 2396SOL     OW 8086   6.628   1.176   5.451
 2396SOL    HW1 8087   6.713   1.128   5.430
 2396SOL    HW2 8088   6.551   1.113   5.444
 2397SOL     OW 8089   0.249   5.329   4.941
 2397SOL    HW1 8090   0.345   5.330   4.912
 2397SOL    HW2 8091   0.201   5.258   4.890
 2398SOL     OW 8092   3.082   5.876   3.835
 2398SOL    HW1 8093   3.037   5.853   3.922
 2398SOL    HW2 8094   3.168   5.827   3.828
 2399SOL     OW 8095   2.950   2.277   3.836
 2399SOL    HW1 8096   2.854   2.304   3.847
 2399SOL    HW2 8097   2.955   2.179   3.820
 2400SOL     OW 8098   1.325   3.873   0.408
 2400SOL    HW1 8099   1.423   3.858   0.401
 2400SOL    HW2 8100   1.291   3.830   0.492
 2401SOL     OW 8101   3.491   0.285   5.657
 2401SOL    HW1 8102   3.531   0.274   5.748
 2401SOL    HW2 8103   3.485   0.382   5.635
 2402SOL     OW 8104   0.727   3.200   2.096
 2402SOL    HW1 8105   0.741   3.276   2.032
 2402SOL    HW2 8106   0.810   3.189   2.151
 2403SOL     OW 8107   3.407   4.122   3.142
 2403SOL    HW1 8108   3.333   4.056   3.133
 2403SOL    HW2 8109   3.427   4.139   3.238
 2404SOL     OW 8110   6.722   1.527   1.016
 2404SOL    HW1 8111   6.804   1.480   0.982
 2404SOL    HW2 8112   6.667   1.558   0.939
 2405SOL     OW 8113   2.596   3.857   0.700
 2405SOL    HW1 8114   2.529   3.829   0.630
 2405SOL    HW2 8115   2.548   3.903   0.774
 2406SOL     OW 8116   2.856   6.872   5.166
 2406SOL    HW1 8117   2.774   6.830   5.128
 2406SOL    HW2 8118   2.867   6.964   5.126
 2407SOL     OW 8119   3.622   1.378   3.782
 2407SOL    HW1 8120   3.691   1.326   3.732
 2407SOL    HW2 8121   3.611   1.339   3.874
 2408SOL     OW 8122   2.440   6.322   4.938
 2408SOL    HW1 8123   2.372   6.307   5.010
 2408SOL    HW2 8124   2.395   6.358   4.856
 2409SOL     OW 8125   2.520   2.684   0.962
 2409SOL    HW1 8126   2.479   2.775   0.965
 2409SOL    HW2 8127   2.527   2.648   1.055
 2410SOL     OW 8128   6.860   3.957   5.925
 2410SOL    HW1 8129   6.843   4.054   5.909
 2410SOL    HW2 8130   6.938   3.928   5.870
 2411SOL     OW 8131   2.529   3.634   7.015
 2411SOL    HW1 8132   2.536   3.610   6.918
 2411SOL    HW2 8133   2.445   3.686   0.005
 2412SOL     OW 8134   2.959   1.791   6.618
 2412SOL    HW1 8135   2.991   1.886   6.619
 2412SOL    HW2 8136   2.977   1.751   6.528
 2413SOL     OW 8137   0.410   2.374   6.450
 2413SOL    HW1 8138   0.473   2.444   6.483
 2413SOL    HW2 8139   0.461   2.293   6.422
 2414SOL     OW 8140   6.019   2.612   4.788
 2414SOL    HW1 8141   6.087   2.590   4.858
 2414SOL    HW2 8142   6.060   2.604   4.698
 2415SOL     OW 8143   3.029   6.015   0.657
 2415SOL    HW1 8144   2.934   6.031   0.685
 2415SOL    HW2 8145   3.089   6.081   0.702
 2416SOL     OW 8146   6.865   3.239   3.052
 2416SOL    HW1 8147   6.950   3.212   3.008
 2416SOL    HW2 8148   6.789   3.188   3.011
 2417SOL     OW 8149   3.978   3.812   1.029
 2417SOL    HW1 8150   3.896   3.845   1.074
 2417SOL    HW2 8151   3.991   3.715   1.049
 2418SOL     OW 8152   4.917   4.089   5.611
 2418SOL    HW1 8153   4.917   4.148   5.692
 2418SOL    HW2 8154   4.853   4.126   5.543
 2419SOL     OW 8155   2.213   6.248   4.113
 2419SOL    HW1 8156   2.310   6.227   4.116
 2419SOL    HW2 8157   2.186   6.295   4.198
 2420SOL     OW 8158   2.602   4.603   2.600
 2420SOL    HW1 8159   2.604   4.610   2.699
 2420SOL    HW2 8160   2.537   4.532   2.572
 2421SOL     OW 8161   3.214   6.880   4.425
 2421SOL    HW1 8162   3.291   6.910   4.368
 2421SOL    HW2 8163   3.145   6.838   4.366
 2422SOL     OW 8164   4.346   6.370   1.374
 2422SOL    HW1 8165   4.357   6.387   1.472
 2422SOL    HW2 8166   4.288   6.440   1.334
 2423SOL     OW 8167   2.021   4.572   2.114
 2423SOL    HW1 8168   1.925   4.568   2.087
 2423SOL    HW2 8169   2.077   4.601   2.036
 2424SOL     OW 8170   5.167   1.316   6.076
 2424SOL    HW1 8171   5.246   1.376   6.095
 2424SOL    HW2 8172   5.101   1.324   6.150
 2425SOL     OW 8173   4.461   5.318   5.698
 2425SOL    HW1 8174   4.515   5.299   5.616
 2425SOL    HW2 8175   4.452   5.233   5.751
 2426SOL     OW 8176   1.301   4.913   5.437
 2426SOL    HW1 8177   1.385   4.966   5.431
 2426SOL    HW2 8178   1.311   4.841   5.506
 2427SOL     OW 8179   4.995   0.968   6.259
 2427SOL    HW1 8180   4.934   1.006   6.189
 2427SOL    HW2 8181   5.089   0.973   6.227
 2428SOL     OW 8182   0.462   0.713   3.237
 2428SOL    HW1 8183   0.414   0.727   3.150
 2428SOL    HW2 8184   0.527   0.788   3.251
 2429SOL     OW 8185   5.597   5.632   2.479
 2429SOL    HW1 8186   5.501   5.608   2.492
 2429SOL    HW2 8187   5.605   5.695   2.402
 2430SOL     OW 8188   6.348   2.918   0.087
 2430SOL    HW1 8189   6.401   2.945   0.168
 2430SOL    HW2 8190   6.266   2.975   0.081
 2431SOL     OW 8191   6.784   1.941   0.996
 2431SOL    HW1 8192   6.796   1.900   0.905
 2431SOL    HW2 8193   6.717   2.015   0.990
 2432SOL     OW 8194   3.963   5.189   2.120
 2432SOL    HW1 8195   3.865   5.179   2.105
 2432SOL    HW2 8196   4.012   5.117   2.070
 2433SOL     OW 8197   6.681   3.851   0.212
 2433SOL    HW1 8198   6.665   3.916   0.285
 2433SOL    HW2 8199   6.637   3.883   0.128
 2434SOL     OW 8200   3.823   1.841   2.823
 2434SOL    HW1 8201   3.895   1.773   2.838
 2434SOL    HW2 8202   3.818   1.903   2.902
 2435SOL     OW 8203   5.235   6.952   6.663
 2435SOL    HW1 8204   5.151   6.897   6.664
 2435SOL    HW2 8205   5.313   6.893   6.639
 2436SOL     OW 8206   2.154   1.848   1.008
 2436SOL    HW1 8207   2.110   1.825   1.095
 2436SOL    HW2 8208   2.107   1.800   0.933
 2437SOL     OW 8209   6.856   5.952   1.808
 2437SOL    HW1 8210   6.940   5.979   1.854
 2437SOL    HW2 8211   6.833   6.020   1.738
 2438SOL     OW 8212   3.047   1.426   4.719
 2438SOL    HW1 8213   3.090   1.509   4.686
 2438SOL    HW2 8214   2.982   1.448   4.792
 2439SOL     OW 8215   0.318   5.637   0.096
 2439SOL    HW1 8216   0.368   5.718   0.067
 2439SOL    HW2 8217   0.354   5.605   0.183
 2440SOL     OW 8218   4.488   1.185   5.157
 2440SOL    HW1 8219   4.559   1.147   5.096
 2440SOL    HW2 8220   4.429   1.246   5.104
 2441SOL     OW 8221   5.649   0.279   6.734
 2441SOL    HW1 8222   5.586   0.224   6.788
 2441SOL    HW2 8223   5.741   0.240   6.742
 2442SOL     OW 8224   4.857   4.063   2.192
 2442SOL    HW1 8225   4.883   3.983   2.139
 2442SOL    HW2 8226   4.939   4.108   2.228
 2443SOL     OW 8227   2.166   2.082   0.605
 2443SOL    HW1 8228   2.197   1.994   0.568
 2443SOL    HW2 8229   2.076   2.071   0.646
 2444SOL     OW 8230   3.259   5.802   0.547
 2444SOL    HW1 8231   3.192   5.733   0.521
 2444SOL    HW2 8232   3.213   5.877   0.594
 2445SOL     OW 8233   0.832   2.067   0.645
 2445SOL    HW1 8234   0.775   2.016   0.581
 2445SOL    HW2 8235   0.929   2.056   0.621
 2446SOL     OW 8236   1.414   3.738   1.488
 2446SOL    HW1 8237   1.331   3.783   1.453
 2446SOL    HW2 8238   1.490   3.753   1.425
 2447SOL     OW 8239   2.461   0.586   1.155
 2447SOL    HW1 8240   2.441   0.552   1.247
 2447SOL    HW2 8241   2.418   0.526   1.088
 2448SOL     OW 8242   6.191   1.601   4.150
 2448SOL    HW1 8243   6.180   1.676   4.085
 2448SOL    HW2 8244   6.286   1.595   4.179
 2449SOL     OW 8245   1.555   4.262   2.154
 2449SOL    HW1 8246   1.634   4.279   2.095
 2449SOL    HW2 8247   1.522   4.349   2.191
 2450SOL     OW 8248   2.163   5.531   6.422
 2450SOL    HW1 8249   2.223   5.610   6.435
 2450SOL    HW2 8250   2.070   5.562   6.406
 2451SOL     OW 8251   1.142   0.068   4.282
 2451SOL    HW1 8252   1.217   0.029   4.230
 2451SOL    HW2 8253   1.135   0.022   4.370
 2452SOL     OW 8254   2.655   2.320   3.326
 2452SOL    HW1 8255   2.641   2.221   3.315
 2452SOL    HW2 8256   2.683   2.339   3.420
 2453SOL     OW 8257   0.388   1.737   6.955
 2453SOL    HW1 8258   0.404   1.790   0.013
 2453SOL    HW2 8259   0.333   1.656   6.976
 2454SOL     OW 8260   3.817   5.241   1.106
 2454SOL    HW1 8261   3.729   5.285   1.125
 2454SOL    HW2 8262   3.802   5.160   1.049
 2455SOL     OW 8263   3.856   0.941   0.514
 2455SOL    HW1 8264   3.905   0.853   0.507
 2455SOL    HW2 8265   3.759   0.927   0.498
 2456SOL     OW 8266   1.446   4.595   7.022
 2456SOL    HW1 8267   1.531   4.619   6.975
 2456SOL    HW2 8268   1.427   4.497   7.009
 2457SOL     OW 8269   5.465   1.646   5.296
 2457SOL    HW1 8270   5.418   1.599   5.221
 2457SOL    HW2 8271   5.533   1.709   5.258
 2458SOL     OW 8272   0.737   0.152   2.862
 2458SOL    HW1 8273   0.728   0.057   2.834
 2458SOL    HW2 8274   0.792   0.202   2.795
 2459SOL     OW 8275   2.413   6.159   0.457
 2459SOL    HW1 8276   2.484   6.108   0.408
 2459SOL    HW2 8277   2.435   6.256   0.457
 2460SOL     OW 8278   1.628   1.225   6.717
 2460SOL    HW1 8279   1.650   1.164   6.641
 2460SOL    HW2 8280   1.673   1.193   6.800
 2461SOL     OW 8281   4.133   0.445   4.068
 2461SOL    HW1 8282   4.197   0.483   4.002
 2461SOL    HW2 8283   4.157   0.476   4.160
 2462SOL     OW 8284   0.564   5.397   0.973
 2462SOL    HW1 8285   0.606   5.321   0.924
 2462SOL    HW2 8286   0.474   5.369   1.008
 2463SOL     OW 8287   6.851   0.971   0.271
 2463SOL    HW1 8288   6.948   0.976   0.293
 2463SOL    HW2 8289   6.836   1.002   0.177
 2464SOL     OW 8290   6.981   2.170   2.450
 2464SOL    HW1 8291   0.041   2.218   2.468
 2464SOL    HW2 8292   6.997   2.099   2.381
 2465SOL     OW 8293   0.249   5.207   5.956
 2465SOL    HW1 8294   0.269   5.257   6.041
 2465SOL    HW2 8295   0.318   5.230   5.887
 2466SOL     OW 8296   1.488   1.713   1.959
 2466SOL    HW1 8297   1.489   1.758   1.870
 2466SOL    HW2 8298   1.407   1.655   1.967
 2467SOL     OW 8299   4.755   1.728   6.105
 2467SOL    HW1 8300   4.771   1.675   6.188
 2467SOL    HW2 8301   4.663   1.709   6.071
 2468SOL     OW 8302   3.878   0.647   6.364
 2468SOL    HW1 8303   3.809   0.697   6.416
 2468SOL    HW2 8304   3.873   0.675   6.268
 2469SOL     OW 8305   4.321   2.560   5.826
 2469SOL    HW1 8306   4.388   2.512   5.882
 2469SOL    HW2 8307   4.238   2.505   5.818
 2470SOL     OW 8308   3.960   4.792   6.491
 2470SOL    HW1 8309   4.028   4.722   6.512
 2470SOL    HW2 8310   3.876   4.749   6.459
 2471SOL     OW 8311   3.653   6.617   0.688
 2471SOL    HW1 8312   3.693   6.703   0.719
 2471SOL    HW2 8313   3.720   6.565   0.636
 2472SOL     OW 8314   4.673   2.495   4.054
 2472SOL    HW1 8315   4.764   2.508   4.017
 2472SOL    HW2 8316   4.639   2.582   4.089
 2473SOL     OW 8317   0.953   4.032   5.191
 2473SOL    HW1 8318   0.995   4.094   5.257
 2473SOL    HW2 8319   1.023   3.972   5.152
 2474SOL     OW 8320   1.010   5.603   0.547
 2474SOL    HW1 8321   1.056   5.681   0.506
 2474SOL    HW2 8322   0.915   5.628   0.568
 2475SOL     OW 8323   5.035   0.484   0.636
 2475SOL    HW1 8324   5.110   0.551   0.646
 2475SOL    HW2 8325   5.026   0.458   0.540
 2476SOL     OW 8326   5.637   0.598   2.274
 2476SOL    HW1 8327   5.652   0.538   2.196
 2476SOL    HW2 8328   5.722   0.607   2.326
 2477SOL     OW 8329   3.913   0.304   3.583
 2477SOL    HW1 8330   3.979   0.233   3.558
 2477SOL    HW2 8331   3.959   0.392   3.586
 2478SOL     OW 8332   3.980   1.220   2.879
 2478SOL    HW1 8333   4.028   1.282   2.942
 2478SOL    HW2 8334   3.929   1.274   2.812
 2479SOL     OW 8335   0.486   2.738   1.737
 2479SOL    HW1 8336   0.503   2.747   1.639
 2479SOL    HW2 8337   0.543   2.665   1.774
 2480SOL     OW 8338   3.605   2.751   1.344
 2480SOL    HW1 8339   3.558   2.739   1.432
 2480SOL    HW2 8340   3.622   2.848   1.328
 2481SOL     OW 8341   3.213   0.301   1.882
 2481SOL    HW1 8342   3.183   0.283   1.788
 2481SOL    HW2 8343   3.170   0.235   1.944
 2482SOL     OW 8344   5.032   3.867   0.303
 2482SOL    HW1 8345   5.048   3.919   0.387
 2482SOL    HW2 8346   5.015   3.930   0.227
 2483SOL     OW 8347   1.038   2.317   0.000
 2483SOL    HW1 8348   1.029   2.321   6.926
 2483SOL    HW2 8349   1.009   2.227   0.032
 2484SOL     OW 8350   3.704   0.775   1.584
 2484SOL    HW1 8351   3.743   0.827   1.508
 2484SOL    HW2 8352   3.643   0.704   1.549
 2485SOL     OW 8353   5.814   2.357   7.005
 2485SOL    HW1 8354   5.744   2.350   0.050
 2485SOL    HW2 8355   5.794   2.435   6.945
 2486SOL     OW 8356   0.499   5.256   5.276
 2486SOL    HW1 8357   0.408   5.259   5.234
 2486SOL    HW2 8358   0.501   5.185   5.346
 2487SOL     OW 8359   4.112   6.366   0.896
 2487SOL    HW1 8360   4.182   6.326   0.955
 2487SOL    HW2 8361   4.070   6.294   0.841
 2488SOL     OW 8362   0.567   3.782   1.928
 2488SOL    HW1 8363   0.662   3.752   1.937
 2488SOL    HW2 8364   0.563   3.882   1.932
 2489SOL     OW 8365   0.710   6.559   3.998
 2489SOL    HW1 8366   0.670   6.632   4.053
 2489SOL    HW2 8367   0.764   6.498   4.057
 2490SOL     OW 8368   0.863   5.777   0.847
 2490SOL    HW1 8369   0.788   5.739   0.901
 2490SOL    HW2 8370   0.828   5.818   0.763
 2491SOL     OW 8371   3.940   4.202   1.648
 2491SOL    HW1 8372   3.896   4.130   1.594
 2491SOL    HW2 8373   4.032   4.174   1.673
 2492SOL     OW 8374   5.123   3.794   1.564
 2492SOL    HW1 8375   5.117   3.864   1.635
 2492SOL    HW2 8376   5.050   3.727   1.576
 2493SOL     OW 8377   6.951   0.324   1.059
 2493SOL    HW1 8378   7.025   0.327   1.127
 2493SOL    HW2 8379   6.879   0.263   1.091
 2494SOL     OW 8380   6.132   3.797   1.759
 2494SOL    HW1 8381   6.140   3.702   1.786
 2494SOL    HW2 8382   6.108   3.853   1.838
 2495SOL     OW 8383   5.063   5.864   3.261
 2495SOL    HW1 8384   5.130   5.936   3.244
 2495SOL    HW2 8385   4.988   5.901   3.317
 2496SOL     OW 8386   0.469   3.572   6.945
 2496SOL    HW1 8387   0.524   3.506   6.996
 2496SOL    HW2 8388   0.511   3.662   6.951
 2497SOL     OW 8389   0.624   0.224   0.455
 2497SOL    HW1 8390   0.571   0.140   0.461
 2497SOL    HW2 8391   0.563   0.303   0.457
 2498SOL     OW 8392   3.212   2.245   5.463
 2498SOL    HW1 8393   3.290   2.292   5.420
 2498SOL    HW2 8394   3.154   2.205   5.392
 2499SOL     OW 8395   6.163   2.698   2.044
 2499SOL    HW1 8396   6.209   2.615   2.013
 2499SOL    HW2 8397   6.212   2.778   2.009
 2500SOL     OW 8398   3.839   3.391   6.771
 2500SOL    HW1 8399   3.845   3.294   6.746
 2500SOL    HW2 8400   3.766   3.405   6.837
 2501SOL     OW 8401   5.319   5.787   0.052
 2501SOL    HW1 8402   5.405   5.836   0.063
 2501SOL    HW2 8403   5.313   5.714   0.120
 2502SOL     OW 8404   2.067   6.724   4.758
 2502SOL    HW1 8405   2.127   6.644   4.755
 2502SOL    HW2 8406   2.111   6.800   4.709
 2503SOL     OW 8407   3.520   6.761   5.290
 2503SOL    HW1 8408   3.531   6.785   5.194
 2503SOL    HW2 8409   3.605   6.725   5.326
 2504SOL     OW 8410   3.623   5.157   2.459
 2504SOL    HW1 8411   3.529   5.149   2.426
 2504SOL    HW2 8412   3.625   5.148   2.558
 2505SOL     OW 8413   0.630   6.013   3.087
 2505SOL    HW1 8414   0.645   6.058   2.999
 2505SOL    HW2 8415   0.630   6.082   3.160
 2506SOL     OW 8416   6.519   3.674   6.189
 2506SOL    HW1 8417   6.538   3.658   6.092
 2506SOL    HW2 8418   6.583   3.621   6.245
 2507SOL     OW 8419   0.442   3.592   0.342
 2507SOL    HW1 8420   0.385   3.545   0.409
 2507SOL    HW2 8421   0.432   3.548   0.253
 2508SOL     OW 8422   2.680   1.835   4.393
 2508SOL    HW1 8423   2.681   1.771   4.470
 2508SOL    HW2 8424   2.585   1.856   4.368
 2509SOL     OW 8425   6.695   4.589   0.265
 2509SOL    HW1 8426   6.769   4.574   0.330
 2509SOL    HW2 8427   6.707   4.679   0.221
 2510SOL     OW 8428   3.501   4.479   0.599
 2510SOL    HW1 8429   3.489   4.409   0.528
 2510SOL    HW2 8430   3.419   4.535   0.604
 2511SOL     OW 8431   2.092   1.227   4.810
 2511SOL    HW1 8432   2.052   1.155   4.867
 2511SOL    HW2 8433   2.094   1.197   4.715
 2512SOL     OW 8434   4.297   4.193   5.354
 2512SOL    HW1 8435   4.289   4.097   5.327
 2512SOL    HW2 8436   4.247   4.250   5.289
 2513SOL     OW 8437   2.004   5.474   4.988
 2513SOL    HW1 8438   1.992   5.402   4.920
 2513SOL    HW2 8439   2.062   5.440   5.062
 2514SOL     OW 8440   0.695   3.498   4.163
 2514SOL    HW1 8441   0.783   3.450   4.172
 2514SOL    HW2 8442   0.663   3.491   4.069
 2515SOL     OW 8443   1.871   6.669   1.103
 2515SOL    HW1 8444   1.839   6.609   1.030
 2515SOL    HW2 8445   1.971   6.678   1.097
 2516SOL     OW 8446   4.877   1.285   2.085
 2516SOL    HW1 8447   4.975   1.270   2.094
 2516SOL    HW2 8448   4.855   1.305   1.989
 2517SOL     OW 8449   1.457   0.426   5.942
 2517SOL    HW1 8450   1.524   0.406   5.871
 2517SOL    HW2 8451   1.437   0.343   5.993
 2518SOL     OW 8452   1.238   5.494   0.653
 2518SOL    HW1 8453   1.239   5.512   0.752
 2518SOL    HW2 8454   1.150   5.523   0.615
 2519SOL     OW 8455   3.501   1.179   1.732
 2519SOL    HW1 8456   3.566   1.249   1.763
 2519SOL    HW2 8457   3.426   1.171   1.798
 2520SOL     OW 8458   3.440   1.704   0.082
 2520SOL    HW1 8459   3.523   1.648   0.080
 2520SOL    HW2 8460   3.371   1.660   0.140
 2521SOL     OW 8461   3.050   1.633   5.382
 2521SOL    HW1 8462   2.999   1.609   5.464
 2521SOL    HW2 8463   3.101   1.718   5.398
 2522SOL     OW 8464   1.722   1.285   5.644
 2522SOL    HW1 8465   1.727   1.293   5.544
 2522SOL    HW2 8466   1.673   1.202   5.669
 2523SOL     OW 8467   1.507   3.242   1.224
 2523SOL    HW1 8468   1.573   3.309   1.258
 2523SOL    HW2 8469   1.426   3.243   1.281
 2524SOL     OW 8470   0.132   6.749   4.472
 2524SOL    HW1 8471   0.228   6.723   4.471
 2524SOL    HW2 8472   0.118   6.824   4.406
 2525SOL     OW 8473   1.654   3.062   4.559
 2525SOL    HW1 8474   1.748   3.080   4.590
 2525SOL    HW2 8475   1.607   3.006   4.627
 2526SOL     OW 8476   1.957   4.554   6.430
 2526SOL    HW1 8477   1.925   4.554   6.335
 2526SOL    HW2 8478   1.899   4.494   6.485
 2527SOL     OW 8479   5.699   6.129   5.438
 2527SOL    HW1 8480   5.736   6.219   5.457
 2527SOL    HW2 8481   5.601   6.136   5.419
 2528SOL     OW 8482   5.763   4.354   5.915
 2528SOL    HW1 8483   5.721   4.387   5.831
 2528SOL    HW2 8484   5.824   4.424   5.952
 2529SOL     OW 8485   0.311   6.647   6.987
 2529SOL    HW1 8486   0.373   6.642   6.909
 2529SOL    HW2 8487   0.358   6.688   0.040
 2530SOL     OW 8488   2.608   6.267   5.342
 2530SOL    HW1 8489   2.528   6.317   5.307
 2530SOL    HW2 8490   2.589   6.237   5.435
 2531SOL     OW 8491   6.119   6.057   5.250
 2531SOL    HW1 8492   6.135   6.145   5.207
 2531SOL    HW2 8493   6.192   6.037   5.315
 2532SOL     OW 8494   7.020   6.375   0.942
 2532SOL    HW1 8495   0.041   6.462   0.930
 2532SOL    HW2 8496   0.036   6.307   0.881
 2533SOL     OW 8497   4.746   0.498   3.526
 2533SOL    HW1 8498   4.788   0.519   3.614
 2533SOL    HW2 8499   4.816   0.497   3.455
 2534SOL     OW 8500   3.371   1.518   1.398
 2534SOL    HW1 8501   3.308   1.445   1.424
 2534SOL    HW2 8502   3.446   1.522   1.465
 2535SOL     OW 8503   3.711   2.581   6.669
 2535SOL    HW1 8504   3.697   2.486   6.698
 2535SOL    HW2 8505   3.665   2.642   6.733
 2536SOL     OW 8506   1.557   0.682   6.644
 2536SOL    HW1 8507   1.498   0.614   6.686
 2536SOL    HW2 8508   1.645   0.685   6.691
 2537SOL     OW 8509   3.400   6.937   6.379
 2537SOL    HW1 8510   3.300   6.927   6.378
 2537SOL    HW2 8511   3.433   6.932   6.473
 2538SOL     OW 8512   0.401   3.396   3.731
 2538SOL    HW1 8513   0.478   3.390   3.795
 2538SOL    HW2 8514   0.436   3.408   3.638
 2539SOL     OW 8515   4.977   1.132   4.028
 2539SOL    HW1 8516   4.973   1.032   4.017
 2539SOL    HW2 8517   4.900   1.173   3.979
 2540SOL     OW 8518   4.100   1.817   2.599
 2540SOL    HW1 8519   4.020   1.773   2.637
 2540SOL    HW2 8520   4.075   1.864   2.514
 2541SOL     OW 8521   3.250   0.095   5.342
 2541SOL    HW1 8522   3.236   0.193   5.329
 2541SOL    HW2 8523   3.214   0.045   5.263
 2542SOL     OW 8524   3.683   3.532   6.516
 2542SOL    HW1 8525   3.583   3.535   6.520
 2542SOL    HW2 8526   3.718   3.484   6.597
 2543SOL     OW 8527   0.397   0.633   4.302
 2543SOL    HW1 8528   0.447   0.556   4.342
 2543SOL    HW2 8529   0.378   0.701   4.372
 2544SOL     OW 8530   0.053   5.730   0.326
 2544SOL    HW1 8531   0.149   5.752   0.343
 2544SOL    HW2 8532   0.006   5.811   0.293
 2545SOL     OW 8533   1.682   6.444   2.122
 2545SOL    HW1 8534   1.729   6.469   2.037
 2545SOL    HW2 8535   1.750   6.435   2.196
 2546SOL     OW 8536   7.021   1.868   1.393
 2546SOL    HW1 8537   0.062   1.801   1.426
 2546SOL    HW2 8538   0.001   1.875   1.293
 2547SOL     OW 8539   0.703   4.340   0.120
 2547SOL    HW1 8540   0.798   4.340   0.153
 2547SOL    HW2 8541   0.702   4.327   0.021
 2548SOL     OW 8542   1.100   6.987   4.556
 2548SOL    HW1 8543   1.148   0.033   4.607
 2548SOL    HW2 8544   1.122   6.898   4.594
 2549SOL     OW 8545   0.892   0.409   1.530
 2549SOL    HW1 8546   0.796   0.436   1.530
 2549SOL    HW2 8547   0.939   0.452   1.453
 2550SOL     OW 8548   6.179   6.946   0.397
 2550SOL    HW1 8549   6.244   6.911   0.329
 2550SOL    HW2 8550   6.103   6.992   0.350
 2551SOL     OW 8551   3.327   4.271   0.279
 2551SOL    HW1 8552   3.265   4.345   0.254
 2551SOL    HW2 8553   3.274   4.191   0.309
 2552SOL     OW 8554   2.077   5.975   4.261
 2552SOL    HW1 8555   2.023   6.000   4.180
 2552SOL    HW2 8556   2.128   5.891   4.242
 2553SOL     OW 8557   3.888   3.658   6.084
 2553SOL    HW1 8558   3.940   3.620   6.008
 2553SOL    HW2 8559   3.892   3.758   6.080
 2554SOL     OW 8560   2.587   0.662   0.619
 2554SOL    HW1 8561   2.498   0.672   0.574
 2554SOL    HW2 8562   2.578   0.689   0.715
 2555SOL     OW 8563   5.722   1.568   4.309
 2555SOL    HW1 8564   5.817   1.553   4.281
 2555SOL    HW2 8565   5.668   1.596   4.230
 2556SOL     OW 8566   4.383   6.108   0.354
 2556SOL    HW1 8567   4.405   6.172   0.428
 2556SOL    HW2 8568   4.297   6.061   0.375
 2557SOL     OW 8569   1.603   3.658   0.882
 2557SOL    HW1 8570   1.702   3.674   0.883
 2557SOL    HW2 8571   1.584   3.570   0.839
 2558SOL     OW 8572   4.838   1.287   5.258
 2558SOL    HW1 8573   4.830   1.380   5.220
 2558SOL    HW2 8574   4.819   1.290   5.356
 2559SOL     OW 8575   1.150   4.255   5.604
 2559SOL    HW1 8576   1.084   4.227   5.534
 2559SOL    HW2 8577   1.241   4.263   5.562
 2560SOL     OW 8578   5.936   2.818   5.733
 2560SOL    HW1 8579   5.950   2.853   5.641
 2560SOL    HW2 8580   5.863   2.750   5.732
 2561SOL     OW 8581   2.694   4.876   5.080
 2561SOL    HW1 8582   2.768   4.923   5.129
 2561SOL    HW2 8583   2.728   4.790   5.044
 2562SOL     OW 8584   2.165   4.918   0.916
 2562SOL    HW1 8585   2.250   4.928   0.966
 2562SOL    HW2 8586   2.117   4.836   0.947
 2563SOL     OW 8587   3.895   1.319   1.013
 2563SOL    HW1 8588   3.923   1.291   0.922
 2563SOL    HW2 8589   3.965   1.292   1.079
 2564SOL     OW 8590   1.796   5.677   6.948
 2564SOL    HW1 8591   1.731   5.652   6.877
 2564SOL    HW2 8592   1.830   5.594   6.993
 2565SOL     OW 8593   1.464   0.754   6.931
 2565SOL    HW1 8594   1.451   0.658   6.907
 2565SOL    HW2 8595   1.551   0.765   6.978
 2566SOL     OW 8596   2.490   6.746   1.682
 2566SOL    HW1 8597   2.449   6.834   1.655
 2566SOL    HW2 8598   2.443   6.711   1.763
 2567SOL     OW 8599   1.328   0.283   0.752
 2567SOL    HW1 8600   1.279   0.203   0.784
 2567SOL    HW2 8601   1.269   0.338   0.693
 2568SOL     OW 8602   4.623   1.947   6.724
 2568SOL    HW1 8603   4.721   1.950   6.708
 2568SOL    HW2 8604   4.575   1.958   6.637
 2569SOL     OW 8605   3.301   0.634   2.804
 2569SOL    HW1 8606   3.243   0.574   2.750
 2569SOL    HW2 8607   3.245   0.687   2.868
 2570SOL     OW 8608   5.584   0.828   5.609
 2570SOL    HW1 8609   5.674   0.795   5.577
 2570SOL    HW2 8610   5.537   0.874   5.534
 2571SOL     OW 8611   1.778   4.836   3.835
 2571SOL    HW1 8612   1.801   4.798   3.745
 2571SOL    HW2 8613   1.812   4.930   3.841
 2572SOL     OW 8614   2.884   5.418   2.256
 2572SOL    HW1 8615   2.821   5.383   2.187
 2572SOL    HW2 8616   2.930   5.341   2.302
 2573SOL     OW 8617   0.754   1.818   0.947
 2573SOL    HW1 8618   0.742   1.768   1.033
 2573SOL    HW2 8619   0.690   1.895   0.945
 2574SOL     OW 8620   5.155   3.692   1.308
 2574SOL    HW1 8621   5.244   3.647   1.301
 2574SOL    HW2 8622   5.149   3.742   1.394
 2575SOL     OW 8623   5.770   5.694   6.583
 2575SOL    HW1 8624   5.866   5.718   6.594
 2575SOL    HW2 8625   5.723   5.703   6.670
 2576SOL     OW 8626   4.294   6.280   4.548
 2576SOL    HW1 8627   4.347   6.335   4.483
 2576SOL    HW2 8628   4.341   6.281   4.637
 2577SOL     OW 8629   3.317   5.333   1.957
 2577SOL    HW1 8630   3.321   5.427   1.922
 2577SOL    HW2 8631   3.268   5.275   1.892
 2578SOL     OW 8632   3.714   1.643   3.760
 2578SOL    HW1 8633   3.677   1.552   3.779
 2578SOL    HW2 8634   3.808   1.634   3.726
 2579SOL     OW 8635   1.589   6.337   4.217
 2579SOL    HW1 8636   1.508   6.313   4.164
 2579SOL    HW2 8637   1.659   6.267   4.203
 2580SOL     OW 8638   2.720   4.773   6.913
 2580SOL    HW1 8639   2.815   4.765   6.881
 2580SOL    HW2 8640   2.712   4.735   7.005
 2581SOL     OW 8641   1.910   5.466   0.831
 2581SOL    HW1 8642   1.977   5.536   0.806
 2581SOL    HW2 8643   1.824   5.510   0.859
 2582SOL     OW 8644   0.000   4.181   1.830
 2582SOL    HW1 8645   0.026   4.235   1.750
 2582SOL    HW2 8646   0.075   4.118   1.853
 2583SOL     OW 8647   0.718   0.963   6.762
 2583SOL    HW1 8648   0.759   1.026   6.695
 2583SOL    HW2 8649   0.631   0.999   6.794
 2584SOL     OW 8650   4.203   4.974   5.801
 2584SOL    HW1 8651   4.198   4.904   5.729
 2584SOL    HW2 8652   4.131   4.957   5.869
 2585SOL     OW 8653   2.712   4.082   0.115
 2585SOL    HW1 8654   2.807   4.106   0.136
 2585SOL    HW2 8655   2.654   4.105   0.193
 2586SOL     OW 8656   2.901   1.580   5.602
 2586SOL    HW1 8657   2.816   1.624   5.572
 2586SOL    HW2 8658   2.883   1.484   5.622
 2587SOL     OW 8659   6.291   1.361   3.221
 2587SOL    HW1 8660   6.264   1.290   3.286
 2587SOL    HW2 8661   6.237   1.352   3.138
 2588SOL     OW 8662   4.164   2.352   5.614
 2588SOL    HW1 8663   4.072   2.319   5.594
 2588SOL    HW2 8664   4.164   2.452   5.616
 2589SOL     OW 8665   1.061   6.798   6.670
 2589SOL    HW1 8666   1.057   6.836   6.578
 2589SOL    HW2 8667   1.109   6.711   6.669
 2590SOL     OW 8668   2.880   4.891   0.227
 2590SOL    HW1 8669   2.804   4.826   0.223
 2590SOL    HW2 8670   2.932   4.875   0.311
 2591SOL     OW 8671   6.885   5.195   3.325
 2591SOL    HW1 8672   6.928   5.145   3.399
 2591SOL    HW2 8673   6.878   5.137   3.244
 2592SOL     OW 8674   2.993   4.296   6.520
 2592SOL    HW1 8675   2.896   4.278   6.502
 2592SOL    HW2 8676   3.002   4.383   6.569
 2593SOL     OW 8677   3.087   5.596   0.495
 2593SOL    HW1 8678   3.050   5.506   0.516
 2593SOL    HW2 8679   3.018   5.666   0.515
 2594SOL     OW 8680   2.911   4.355   5.936
 2594SOL    HW1 8681   2.854   4.284   5.896
 2594SOL    HW2 8682   2.908   4.347   6.036
 2595SOL     OW 8683   0.188   1.879   4.170
 2595SOL    HW1 8684   0.191   1.813   4.245
 2595SOL    HW2 8685   0.222   1.836   4.086
 2596SOL     OW 8686   2.278   2.998   0.817
 2596SOL    HW1 8687   2.186   3.031   0.793
 2596SOL    HW2 8688   2.345   3.038   0.754
 2597SOL     OW 8689   6.963   5.122   6.500
 2597SOL    HW1 8690   7.014   5.102   6.583
 2597SOL    HW2 8691   6.999   5.067   6.424
 2598SOL     OW 8692   6.610   1.599   1.757
 2598SOL    HW1 8693   6.518   1.591   1.795
 2598SOL    HW2 8694   6.604   1.599   1.657
 2599SOL     OW 8695   1.474   6.146   0.756
 2599SOL    HW1 8696   1.544   6.155   0.685
 2599SOL    HW2 8697   1.442   6.051   0.759
 2600SOL     OW 8698   6.054   2.742   3.987
 2600SOL    HW1 8699   5.970   2.794   3.971
 2600SOL    HW2 8700   6.087   2.760   4.080
 2601SOL     OW 8701   1.647   2.252   1.664
 2601SOL    HW1 8702   1.657   2.166   1.714
 2601SOL    HW2 8703   1.577   2.308   1.707
 2602SOL     OW 8704   1.706   5.030   4.690
 2602SOL    HW1 8705   1.704   5.079   4.602
 2602SOL    HW2 8706   1.627   4.969   4.696
 2603SOL     OW 8707   2.367   0.736   2.529
 2603SOL    HW1 8708   2.451   0.786   2.550
 2603SOL    HW2 8709   2.290   0.776   2.579
 2604SOL     OW 8710   5.442   1.651   2.632
 2604SOL    HW1 8711   5.446   1.671   2.534
 2604SOL    HW2 8712   5.381   1.574   2.648
 2605SOL     OW 8713   1.524   3.604   2.683
 2605SOL    HW1 8714   1.566   3.667   2.747
 2605SOL    HW2 8715   1.439   3.568   2.723
 2606SOL     OW 8716   5.613   5.221   1.614
 2606SOL    HW1 8717   5.644   5.291   1.678
 2606SOL    HW2 8718   5.610   5.132   1.660
 2607SOL     OW 8719   1.684   1.967   1.215
 2607SOL    HW1 8720   1.740   1.995   1.137
 2607SOL    HW2 8721   1.590   1.951   1.184
 2608SOL     OW 8722   2.658   5.480   6.476
 2608SOL    HW1 8723   2.747   5.518   6.452
 2608SOL    HW2 8724   2.642   5.397   6.423
 2609SOL     OW 8725   0.197   1.264   1.472
 2609SOL    HW1 8726   0.156   1.174   1.488
 2609SOL    HW2 8727   0.260   1.286   1.546
 2610SOL     OW 8728   1.233   4.616   3.860
 2610SOL    HW1 8729   1.240   4.663   3.772
 2610SOL    HW2 8730   1.205   4.681   3.931
 2611SOL     OW 8731   4.417   6.239   0.133
 2611SOL    HW1 8732   4.388   6.335   0.142
 2611SOL    HW2 8733   4.389   6.188   0.214
 2612SOL     OW 8734   5.304   6.987   4.560
 2612SOL    HW1 8735   5.304   6.913   4.493
 2612SOL    HW2 8736   5.344   0.043   4.519
 2613SOL     OW 8737   2.047   5.075   6.258
 2613SOL    HW1 8738   2.091   5.124   6.333
 2613SOL    HW2 8739   2.107   5.001   6.227
 2614SOL     OW 8740   5.763   0.871   6.236
 2614SOL    HW1 8741   5.733   0.950   6.183
 2614SOL    HW2 8742   5.761   0.893   6.334
 2615SOL     OW 8743   1.107   3.092   1.830
 2615SOL    HW1 8744   1.083   2.996   1.839
 2615SOL    HW2 8745   1.170   3.118   1.904
 2616SOL     OW 8746   0.972   1.326   5.055
 2616SOL    HW1 8747   0.912   1.352   4.980
 2616SOL    HW2 8748   0.939   1.367   5.140
 2617SOL     OW 8749   4.963   0.861   0.742
 2617SOL    HW1 8750   5.047   0.813   0.718
 2617SOL    HW2 8751   4.974   0.908   0.829
 2618SOL     OW 8752   1.024   5.386   4.681
 2618SOL    HW1 8753   1.012   5.345   4.591
 2618SOL    HW2 8754   1.080   5.326   4.738
 2619SOL     OW 8755   4.440   1.684   1.789
 2619SOL    HW1 8756   4.533   1.656   1.813
 2619SOL    HW2 8757   4.377   1.654   1.860
 2620SOL     OW 8758   6.283   6.337   1.982
 2620SOL    HW1 8759   6.194   6.328   1.938
 2620SOL    HW2 8760   6.272   6.385   2.069
 2621SOL     OW 8761   0.770   5.389   2.715
 2621SOL    HW1 8762   0.848   5.359   2.659
 2621SOL    HW2 8763   0.758   5.488   2.704
 2622SOL     OW 8764   2.993   2.699   6.012
 2622SOL    HW1 8765   3.067   2.738   6.067
 2622SOL    HW2 8766   3.005   2.599   6.008
 2623SOL     OW 8767   0.390   6.977   3.776
 2623SOL    HW1 8768   0.474   6.999   3.826
 2623SOL    HW2 8769   0.411   6.911   3.704
 2624SOL     OW 8770   6.639   2.527   4.579
 2624SOL    HW1 8771   6.698   2.448   4.561
 2624SOL    HW2 8772   6.548   2.494   4.606
 2625SOL     OW 8773   2.103   5.218   5.640
 2625SOL    HW1 8774   2.065   5.225   5.548
 2625SOL    HW2 8775   2.191   5.171   5.637
 2626SOL     OW 8776   6.414   0.070   5.462
 2626SOL    HW1 8777   6.485   0.111   5.520
 2626SOL    HW2 8778   6.458   0.022   5.386
 2627SOL     OW 8779   0.753   0.561   6.677
 2627SOL    HW1 8780   0.732   0.499   6.752
 2627SOL    HW2 8781   0.827   0.523   6.622
 2628SOL     OW 8782   1.690   3.369   3.746
 2628SOL    HW1 8783   1.603   3.415   3.730
 2628SOL    HW2 8784   1.755   3.393   3.674
 2629SOL     OW 8785   3.326   3.711   3.141
 2629SOL    HW1 8786   3.307   3.632   3.083
 2629SOL    HW2 8787   3.275   3.703   3.226
 2630SOL     OW 8788   3.300   0.676   3.142
 2630SOL    HW1 8789   3.318   0.586   3.182
 2630SOL    HW2 8790   3.380   0.734   3.155
 2631SOL     OW 8791   5.252   0.550   6.265
 2631SOL    HW1 8792   5.321   0.518   6.330
 2631SOL    HW2 8793   5.178   0.594   6.315
 2632SOL     OW 8794   5.403   4.909   1.657
 2632SOL    HW1 8795   5.336   4.976   1.689
 2632SOL    HW2 8796   5.490   4.924   1.704
 2633SOL     OW 8797   6.603   2.811   5.621
 2633SOL    HW1 8798   6.635   2.735   5.678
 2633SOL    HW2 8799   6.639   2.801   5.528
 2634SOL     OW 8800   6.916   6.074   4.547
 2634SOL    HW1 8801   6.918   6.147   4.478
 2634SOL    HW2 8802   6.983   6.004   4.523
 2635SOL     OW 8803   5.179   5.436   3.835
 2635SOL    HW1 8804   5.181   5.518   3.777
 2635SOL    HW2 8805   5.087   5.397   3.833
 2636SOL     OW 8806   3.607   0.947   6.095
 2636SOL    HW1 8807   3.634   0.920   6.003
 2636SOL    HW2 8808   3.683   0.996   6.139
 2637SOL     OW 8809   0.141   2.008   3.431
 2637SOL    HW1 8810   0.178   2.071   3.500
 2637SOL    HW2 8811   0.049   1.979   3.459
 2638SOL     OW 8812   0.890   0.201   4.604
 2638SOL    HW1 8813   0.921   0.202   4.699
 2638SOL    HW2 8814   0.804   0.151   4.597
 2639SOL     OW 8815   5.152   5.022   4.982
 2639SOL    HW1 8816   5.058   5.030   4.948
 2639SOL    HW2 8817   5.154   4.964   5.064
 2640SOL     OW 8818   0.764   0.142   5.338
 2640SOL    HW1 8819   0.716   0.105   5.418
 2640SOL    HW2 8820   0.800   0.232   5.360
 2641SOL     OW 8821   5.445   2.848   0.345
 2641SOL    HW1 8822   5.375   2.858   0.416
 2641SOL    HW2 8823   5.482   2.937   0.322
 2642SOL     OW 8824   0.016   1.147   3.942
 2642SOL    HW1 8825   0.075   1.083   3.894
 2642SOL    HW2 8826   6.997   1.101   4.019
 2643SOL     OW 8827   0.803   3.064   3.855
 2643SOL    HW1 8828   0.791   3.071   3.954
 2643SOL    HW2 8829   0.837   2.973   3.831
 2644SOL     OW 8830   4.653   5.440   4.879
 2644SOL    HW1 8831   4.613   5.467   4.792
 2644SOL    HW2 8832   4.678   5.522   4.931
 2645SOL     OW 8833   4.852   5.028   3.556
 2645SOL    HW1 8834   4.861   4.938   3.514
 2645SOL    HW2 8835   4.845   5.017   3.656
 2646SOL     OW 8836   0.478   3.851   6.284
 2646SOL    HW1 8837   0.407   3.901   6.332
 2646SOL    HW2 8838   0.544   3.813   6.349
 2647SOL     OW 8839   5.277   7.016   1.745
 2647SOL    HW1 8840   5.265   0.059   1.674
 2647SOL    HW2 8841   5.370   7.020   1.782
 2648SOL     OW 8842   0.664   0.362   3.917
 2648SOL    HW1 8843   0.706   0.279   3.881
 2648SOL    HW2 8844   0.614   0.340   4.001
 2649SOL     OW 8845   5.279   3.077   1.948
 2649SOL    HW1 8846   5.205   3.011   1.958
 2649SOL    HW2 8847   5.330   3.058   1.864
 2650SOL     OW 8848   2.856   6.000   4.786
 2650SOL    HW1 8849   2.932   5.934   4.788
 2650SOL    HW2 8850   2.779   5.960   4.737
 2651SOL     OW 8851   3.643   1.982   6.117
 2651SOL    HW1 8852   3.698   1.989   6.201
 2651SOL    HW2 8853   3.617   2.074   6.087
 2652SOL     OW 8854   4.486   3.707   5.532
 2652SOL    HW1 8855   4.584   3.726   5.527
 2652SOL    HW2 8856   4.466   3.621   5.485
 2653SOL     OW 8857   3.254   5.914   5.941
 2653SOL    HW1 8858   3.210   5.832   5.979
 2653SOL    HW2 8859   3.186   5.968   5.892
 2654SOL     OW 8860   5.042   6.917   0.502
 2654SOL    HW1 8861   5.100   6.946   0.426
 2654SOL    HW2 8862   4.946   6.935   0.481
 2655SOL     OW 8863   4.857   5.885   3.442
 2655SOL    HW1 8864   4.869   5.798   3.491
 2655SOL    HW2 8865   4.838   5.958   3.507
 2656SOL     OW 8866   3.690   6.123   3.949
 2656SOL    HW1 8867   3.777   6.105   3.994
 2656SOL    HW2 8868   3.699   6.109   3.851
 2657SOL     OW 8869   1.883   3.844   0.659
 2657SOL    HW1 8870   1.952   3.900   0.706
 2657SOL    HW2 8871   1.799   3.897   0.650
 2658SOL     OW 8872   4.140   4.108   6.229
 2658SOL    HW1 8873   4.206   4.117   6.303
 2658SOL    HW2 8874   4.156   4.022   6.180
 2659SOL     OW 8875   5.383   2.361   4.973
 2659SOL    HW1 8876   5.420   2.442   4.928
 2659SOL    HW2 8877   5.435   2.341   5.055
 2660SOL     OW 8878   0.902   1.151   0.932
 2660SOL    HW1 8879   0.967   1.226   0.932
 2660SOL    HW2 8880   0.813   1.183   0.964
 2661SOL     OW 8881   1.471   0.695   1.560
 2661SOL    HW1 8882   1.424   0.783   1.548
 2661SOL    HW2 8883   1.405   0.624   1.583
 2662SOL     OW 8884   3.356   0.914   3.623
 2662SOL    HW1 8885   3.330   0.829   3.578
 2662SOL    HW2 8886   3.438   0.952   3.579
 2663SOL     OW 8887   3.181   6.796   5.936
 2663SOL    HW1 8888   3.271   6.826   5.967
 2663SOL    HW2 8889   3.152   6.851   5.858
 2664SOL     OW 8890   3.680   2.483   5.356
 2664SOL    HW1 8891   3.772   2.512   5.330
 2664SOL    HW2 8892   3.665   2.501   5.453
 2665SOL     OW 8893   2.334   3.454   5.293
 2665SOL    HW1 8894   2.395   3.381   5.325
 2665SOL    HW2 8895   2.383   3.541   5.293
 2666SOL     OW 8896   1.731   3.409   2.789
 2666SOL    HW1 8897   1.811   3.463   2.817
 2666SOL    HW2 8898   1.675   3.463   2.727
 2667SOL     OW 8899   6.436   4.256   3.817
 2667SOL    HW1 8900   6.491   4.201   3.755
 2667SOL    HW2 8901   6.340   4.227   3.812
 2668SOL     OW 8902   5.415   1.704   4.836
 2668SOL    HW1 8903   5.493   1.669   4.785
 2668SOL    HW2 8904   5.417   1.804   4.838
 2669SOL     OW 8905   2.355   6.371   0.051
 2669SOL    HW1 8906   2.428   6.304   0.040
 2669SOL    HW2 8907   2.377   6.453   7.023
 2670SOL     OW 8908   6.771   1.654   5.198
 2670SOL    HW1 8909   6.826   1.577   5.233
 2670SOL    HW2 8910   6.824   1.738   5.202
 2671SOL     OW 8911   4.115   5.636   6.244
 2671SOL    HW1 8912   4.068   5.590   6.320
 2671SOL    HW2 8913   4.159   5.568   6.186
 2672SOL     OW 8914   3.622   1.304   1.995
 2672SOL    HW1 8915   3.692   1.286   2.064
 2672SOL    HW2 8916   3.533   1.313   2.039
 2673SOL     OW 8917   4.946   6.882   2.814
 2673SOL    HW1 8918   5.037   6.899   2.851
 2673SOL    HW2 8919   4.931   6.784   2.807
 2674SOL     OW 8920   1.420   5.461   3.477
 2674SOL    HW1 8921   1.353   5.424   3.413
 2674SOL    HW2 8922   1.509   5.468   3.433
 2675SOL     OW 8923   6.845   6.225   4.076
 2675SOL    HW1 8924   6.929   6.276   4.094
 2675SOL    HW2 8925   6.823   6.231   3.978
 2676SOL     OW 8926   3.169   3.843   2.464
 2676SOL    HW1 8927   3.241   3.912   2.478
 2676SOL    HW2 8928   3.205   3.770   2.406
 2677SOL     OW 8929   2.318   4.460   1.029
 2677SOL    HW1 8930   2.414   4.450   1.002
 2677SOL    HW2 8931   2.313   4.506   1.118
 2678SOL     OW 8932   6.515   2.082   2.510
 2678SOL    HW1 8933   6.577   2.120   2.441
 2678SOL    HW2 8934   6.531   1.984   2.519
 2679SOL     OW 8935   1.614   5.490   2.189
 2679SOL    HW1 8936   1.538   5.426   2.203
 2679SOL    HW2 8937   1.676   5.484   2.267
 2680SOL     OW 8938   1.347   2.412   6.843
 2680SOL    HW1 8939   1.380   2.327   6.802
 2680SOL    HW2 8940   1.384   2.422   6.935
 2681SOL     OW 8941   1.076   2.912   5.232
 2681SOL    HW1 8942   0.999   2.885   5.174
 2681SOL    HW2 8943   1.087   2.845   5.306
 2682SOL     OW 8944   4.694   4.304   2.197
 2682SOL    HW1 8945   4.724   4.214   2.231
 2682SOL    HW2 8946   4.653   4.294   2.107
 2683SOL     OW 8947   2.384   4.589   3.231
 2683SOL    HW1 8948   2.371   4.490   3.230
 2683SOL    HW2 8949   2.341   4.629   3.150
 2684SOL     OW 8950   5.592   6.327   2.318
 2684SOL    HW1 8951   5.637   6.251   2.271
 2684SOL    HW2 8952   5.620   6.327   2.414
 2685SOL     OW 8953   6.930   5.382   4.983
 2685SOL    HW1 8954   7.007   5.319   4.996
 2685SOL    HW2 8955   6.938   5.426   4.894
 2686SOL     OW 8956   1.768   1.119   4.579
 2686SOL    HW1 8957   1.734   1.047   4.519
 2686SOL    HW2 8958   1.728   1.206   4.553
 2687SOL     OW 8959   4.036   1.312   1.792
 2687SOL    HW1 8960   4.006   1.399   1.753
 2687SOL    HW2 8961   4.104   1.329   1.863
 2688SOL     OW 8962   3.389   2.132   0.123
 2688SOL    HW1 8963   3.307   2.161   0.172
 2688SOL    HW2 8964   3.419   2.205   0.061
 2689SOL     OW 8965   0.578   3.912   2.722
 2689SOL    HW1 8966   0.482   3.901   2.697
 2689SOL    HW2 8967   0.588   3.995   2.777
 2690SOL     OW 8968   2.970   2.074   6.166
 2690SOL    HW1 8969   2.992   2.077   6.069
 2690SOL    HW2 8970   2.935   2.164   6.195
 2691SOL     OW 8971   0.432   4.343   4.422
 2691SOL    HW1 8972   0.439   4.245   4.400
 2691SOL    HW2 8973   0.515   4.372   4.469
 2692SOL     OW 8974   2.766   5.994   2.954
 2692SOL    HW1 8975   2.758   5.906   2.909
 2692SOL    HW2 8976   2.718   5.992   3.042
 2693SOL     OW 8977   1.741   5.544   3.574
 2693SOL    HW1 8978   1.826   5.596   3.575
 2693SOL    HW2 8979   1.734   5.494   3.488
 2694SOL     OW 8980   4.043   6.359   3.090
 2694SOL    HW1 8981   3.972   6.346   3.159
 2694SOL    HW2 8982   4.012   6.425   3.021
 2695SOL     OW 8983   6.645   6.782   2.616
 2695SOL    HW1 8984   6.618   6.726   2.695
 2695SOL    HW2 8985   6.572   6.780   2.547
 2696SOL     OW 8986   4.625   3.979   6.615
 2696SOL    HW1 8987   4.658   4.068   6.646
 2696SOL    HW2 8988   4.527   3.974   6.629
 2697SOL     OW 8989   4.493   1.412   0.991
 2697SOL    HW1 8990   4.420   1.359   0.948
 2697SOL    HW2 8991   4.572   1.353   1.006
 2698SOL     OW 8992   1.167   4.766   6.093
 2698SOL    HW1 8993   1.120   4.685   6.128
 2698SOL    HW2 8994   1.266   4.750   6.097
 2699SOL     OW 8995   2.925   5.874   2.390
 2699SOL    HW1 8996   2.945   5.792   2.337
 2699SOL    HW2 8997   3.010   5.922   2.411
 2700SOL     OW 8998   2.756   1.987   1.357
 2700SOL    HW1 8999   2.837   1.929   1.349
 2700SOL    HW2 9000   2.675   1.937   1.325
 2701SOL     OW 9001   5.316   2.738   4.576
 2701SOL    HW1 9002   5.331   2.712   4.481
 2701SOL    HW2 9003   5.314   2.656   4.633
 2702SOL     OW 9004   2.389   1.745   4.130
 2702SOL    HW1 9005   2.431   1.825   4.088
 2702SOL    HW2 9006   2.308   1.774   4.181
 2703SOL     OW 9007   1.740   5.690   1.381
 2703SOL    HW1 9008   1.689   5.768   1.347
 2703SOL    HW2 9009   1.678   5.627   1.429
 2704SOL     OW 9010   6.776   5.427   3.457
 2704SOL    HW1 9011   6.808   5.351   3.400
 2704SOL    HW2 9012   6.755   5.506   3.399
 2705SOL     OW 9013   0.503   1.124   5.205
 2705SOL    HW1 9014   0.520   1.211   5.159
 2705SOL    HW2 9015   0.532   1.130   5.301
 2706SOL     OW 9016   6.405   4.394   4.540
 2706SOL    HW1 9017   6.370   4.487   4.549
 2706SOL    HW2 9018   6.504   4.394   4.551
 2707SOL     OW 9019   3.963   6.788   2.696
 2707SOL    HW1 9020   3.912   6.836   2.768
 2707SOL    HW2 9021   3.918   6.804   2.608
 2708SOL     OW 9022   5.822   2.993   0.618
 2708SOL    HW1 9023   5.915   3.022   0.638
 2708SOL    HW2 9024   5.781   2.955   0.701
 2709SOL     OW 9025   5.090   0.187   6.244
 2709SOL    HW1 9026   5.110   0.159   6.338
 2709SOL    HW2 9027   5.027   0.122   6.203
 2710SOL     OW 9028   1.328   3.270   4.267
 2710SOL    HW1 9029   1.377   3.289   4.182
 2710SOL    HW2 9030   1.378   3.311   4.344
 2711SOL     OW 9031   3.609   1.901   3.752
 2711SOL    HW1 9032   3.656   1.914   3.664
 2711SOL    HW2 9033   3.635   1.812   3.791
 2712SOL     OW 9034   3.666   5.418   2.455
 2712SOL    HW1 9035   3.670   5.446   2.551
 2712SOL    HW2 9036   3.678   5.318   2.449
 2713SOL     OW 9037   4.935   4.477   6.312
 2713SOL    HW1 9038   5.035   4.476   6.317
 2713SOL    HW2 9039   4.901   4.565   6.344
 2714SOL     OW 9040   3.377   3.494   6.529
 2714SOL    HW1 9041   3.313   3.500   6.605
 2714SOL    HW2 9042   3.342   3.546   6.451
 2715SOL     OW 9043   5.457   1.654   1.163
 2715SOL    HW1 9044   5.466   1.750   1.192
 2715SOL    HW2 9045   5.394   1.649   1.085
 2716SOL     OW 9046   3.932   2.114   2.736
 2716SOL    HW1 9047   3.845   2.114   2.785
 2716SOL    HW2 9048   3.980   2.028   2.754
 2717SOL     OW 9049   0.753   0.660   2.032
 2717SOL    HW1 9050   0.732   0.722   2.108
 2717SOL    HW2 9051   0.833   0.604   2.056
 2718SOL     OW 9052   0.633   0.693   6.192
 2718SOL    HW1 9053   0.653   0.790   6.187
 2718SOL    HW2 9054   0.625   0.665   6.288
 2719SOL     OW 9055   1.675   4.762   2.673
 2719SOL    HW1 9056   1.754   4.723   2.626
 2719SOL    HW2 9057   1.618   4.811   2.607
 2720SOL     OW 9058   1.290   0.174   5.013
 2720SOL    HW1 9059   1.226   0.123   5.070
 2720SOL    HW2 9060   1.367   0.116   4.989
 2721SOL     OW 9061   2.932   6.142   1.481
 2721SOL    HW1 9062   2.973   6.234   1.479
 2721SOL    HW2 9063   2.929   6.109   1.575
 2722SOL     OW 9064   4.673   5.926   6.686
 2722SOL    HW1 9065   4.723   5.907   6.602
 2722SOL    HW2 9066   4.715   5.877   6.762
 2723SOL     OW 9067   3.358   6.660   6.932
 2723SOL    HW1 9068   3.311   6.697   6.852
 2723SOL    HW2 9069   3.457   6.675   6.922
 2724SOL     OW 9070   1.391   6.114   6.934
 2724SOL    HW1 9071   1.473   6.088   6.883
 2724SOL    HW2 9072   1.416   6.139   0.002
 2725SOL     OW 9073   5.155   3.712   4.019
 2725SOL    HW1 9074   5.162   3.703   3.919
 2725SOL    HW2 9075   5.169   3.808   4.044
 2726SOL     OW 9076   0.782   1.913   1.551
 2726SOL    HW1 9077   0.860   1.947   1.499
 2726SOL    HW2 9078   0.747   1.986   1.610
 2727SOL     OW 9079   2.132   4.037   4.148
 2727SOL    HW1 9080   2.181   4.045   4.062
 2727SOL    HW2 9081   2.129   4.126   4.193
 2728SOL     OW 9082   5.369   5.592   6.478
 2728SOL    HW1 9083   5.442   5.584   6.411
 2728SOL    HW2 9084   5.323   5.504   6.489
 2729SOL     OW 9085   5.282   6.416   6.631
 2729SOL    HW1 9086   5.209   6.484   6.620
 2729SOL    HW2 9087   5.368   6.453   6.597
 2730SOL     OW 9088   0.381   5.380   1.729
 2730SOL    HW1 9089   0.298   5.426   1.696
 2730SOL    HW2 9090   0.355   5.313   1.799
 2731SOL     OW 9091   3.039   3.148   3.671
 2731SOL    HW1 9092   3.030   3.139   3.770
 2731SOL    HW2 9093   3.080   3.237   3.650
 2732SOL     OW 9094   4.726   1.245   0.982
 2732SOL    HW1 9095   4.820   1.271   1.004
 2732SOL    HW2 9096   4.710   1.151   1.013
 2733SOL     OW 9097   6.721   0.964   5.725
 2733SOL    HW1 9098   6.668   1.045   5.698
 2733SOL    HW2 9099   6.700   0.941   5.820
 2734SOL     OW 9100   3.516   6.111   1.675
 2734SOL    HW1 9101   3.487   6.017   1.694
 2734SOL    HW2 9102   3.616   6.117   1.680
 2735SOL     OW 9103   1.029   2.348   0.587
 2735SOL    HW1 9104   1.048   2.303   0.500
 2735SOL    HW2 9105   0.930   2.349   0.604
 2736SOL     OW 9106   5.474   6.056   3.783
 2736SOL    HW1 9107   5.440   5.965   3.758
 2736SOL    HW2 9108   5.573   6.054   3.789
 2737SOL     OW 9109   2.825   1.884   6.309
 2737SOL    HW1 9110   2.856   1.963   6.257
 2737SOL    HW2 9111   2.899   1.817   6.315
 2738SOL     OW 9112   5.977   0.906   1.640
 2738SOL    HW1 9113   5.885   0.924   1.603
 2738SOL    HW2 9114   5.969   0.872   1.734
 2739SOL     OW 9115   1.084   5.540   1.375
 2739SOL    HW1 9116   1.078   5.522   1.473
 2739SOL    HW2 9117   0.994   5.569   1.341
 2740SOL     OW 9118   0.272   5.535   2.625
 2740SOL    HW1 9119   0.184   5.492   2.606
 2740SOL    HW2 9120   0.321   5.482   2.695
 2741SOL     OW 9121   1.082   2.388   4.298
 2741SOL    HW1 9122   1.012   2.400   4.227
 2741SOL    HW2 9123   1.172   2.387   4.256
 2742SOL     OW 9124   3.420   4.568   1.631
 2742SOL    HW1 9125   3.425   4.469   1.640
 2742SOL    HW2 9126   3.486   4.610   1.694
 2743SOL     OW 9127   0.023   4.648   2.143
 2743SOL    HW1 9128   6.990   4.707   2.088
 2743SOL    HW2 9129   0.060   4.575   2.086
 2744SOL     OW 9130   3.175   3.426   2.374
 2744SOL    HW1 9131   3.212   3.459   2.287
 2744SOL    HW2 9132   3.199   3.491   2.447
 2745SOL     OW 9133   6.576   1.513   5.827
 2745SOL    HW1 9134   6.537   1.559   5.907
 2745SOL    HW2 9135   6.583   1.578   5.752
 2746SOL     OW 9136   0.833   0.916   4.080
 2746SOL    HW1 9137   0.929   0.889   4.088
 2746SOL    HW2 9138   0.777   0.862   4.143
 2747SOL     OW 9139   3.727   5.621   7.010
 2747SOL    HW1 9140   3.658   5.693   7.002
 2747SOL    HW2 9141   3.711   5.570   0.069
 2748SOL     OW 9142   4.172   0.365   0.961
 2748SOL    HW1 9143   4.173   0.450   1.013
 2748SOL    HW2 9144   4.102   0.370   0.890
 2749SOL     OW 9145   1.093   3.485   0.127
 2749SOL    HW1 9146   1.135   3.412   0.182
 2749SOL    HW2 9147   1.158   3.561   0.118
 2750SOL     OW 9148   2.587   5.293   2.177
 2750SOL    HW1 9149   2.621   5.280   2.270
 2750SOL    HW2 9150   2.631   5.227   2.116
 2751SOL     OW 9151   1.923   2.053   1.516
 2751SOL    HW1 9152   1.908   2.121   1.444
 2751SOL    HW2 9153   1.842   1.994   1.523
 2752SOL     OW 9154   3.973   4.353   5.855
 2752SOL    HW1 9155   3.962   4.346   5.756
 2752SOL    HW2 9156   4.044   4.421   5.876
 2753SOL     OW 9157   6.056   6.411   4.931
 2753SOL    HW1 9158   6.025   6.435   5.023
 2753SOL    HW2 9159   6.030   6.484   4.867
 2754SOL     OW 9160   0.321   6.216   6.724
 2754SOL    HW1 9161   0.279   6.287   6.781
 2754SOL    HW2 9162   0.413   6.246   6.697
 2755SOL     OW 9163   2.903   6.725   2.714
 2755SOL    HW1 9164   2.864   6.728   2.623
 2755SOL    HW2 9165   2.966   6.802   2.726
 2756SOL     OW 9166   4.785   6.351   0.622
 2756SOL    HW1 9167   4.788   6.441   0.665
 2756SOL    HW2 9168   4.752   6.284   0.688
 2757SOL     OW 9169   1.368   5.228   0.202
 2757SOL    HW1 9170   1.301   5.156   0.220
 2757SOL    HW2 9171   1.382   5.281   0.286
 2758SOL     OW 9172   5.462   0.068   4.961
 2758SOL    HW1 9173   5.374   0.116   4.965
 2758SOL    HW2 9174   5.475   0.017   5.046
 2759SOL     OW 9175   5.213   6.501   4.337
 2759SOL    HW1 9176   5.146   6.443   4.383
 2759SOL    HW2 9177   5.286   6.525   4.401
 2760SOL     OW 9178   1.717   5.427   2.425
 2760SOL    HW1 9179   1.785   5.411   2.497
 2760SOL    HW2 9180   1.636   5.371   2.442
 2761SOL     OW 9181   1.466   5.109   3.698
 2761SOL    HW1 9182   1.534   5.141   3.764
 2761SOL    HW2 9183   1.379   5.155   3.715
 2762SOL     OW 9184   0.937   0.587   5.553
 2762SOL    HW1 9185   1.003   0.525   5.595
 2762SOL    HW2 9186   0.887   0.636   5.624
 2763SOL     OW 9187   5.637   2.128   3.841
 2763SOL    HW1 9188   5.573   2.166   3.773
 2763SOL    HW2 9189   5.718   2.186   3.847
 2764SOL     OW 9190   5.729   0.288   1.581
 2764SOL    HW1 9191   5.644   0.336   1.604
 2764SOL    HW2 9192   5.763   0.319   1.493
 2765SOL     OW 9193   5.266   1.119   1.485
 2765SOL    HW1 9194   5.314   1.088   1.567
 2765SOL    HW2 9195   5.212   1.200   1.507
 2766SOL     OW 9196   6.119   1.634   0.560
 2766SOL    HW1 9197   6.082   1.634   0.654
 2766SOL    HW2 9198   6.194   1.569   0.554
 2767SOL     OW 9199   6.646   4.849   6.841
 2767SOL    HW1 9200   6.587   4.928   6.862
 2767SOL    HW2 9201   6.593   4.765   6.850
 2768SOL     OW 9202   5.980   1.242   0.233
 2768SOL    HW1 9203   6.079   1.253   0.229
 2768SOL    HW2 9204   5.937   1.331   0.251
 2769SOL     OW 9205   6.259   4.273   3.494
 2769SOL    HW1 9206   6.344   4.220   3.487
 2769SOL    HW2 9207   6.200   4.251   3.416
 2770SOL     OW 9208   1.331   5.547   0.224
 2770SOL    HW1 9209   1.272   5.469   0.203
 2770SOL    HW2 9210   1.382   5.528   0.308
 2771SOL     OW 9211   5.006   1.337   1.052
 2771SOL    HW1 9212   5.051   1.299   0.972
 2771SOL    HW2 9213   5.063   1.322   1.133
 2772SOL     OW 9214   4.525   2.344   0.087
 2772SOL    HW1 9215   4.550   2.380   0.176
 2772SOL    HW2 9216   4.586   2.381   0.017
 2773SOL     OW 9217   3.985   3.120   5.972
 2773SOL    HW1 9218   4.004   3.094   5.878
 2773SOL    HW2 9219   3.909   3.184   5.974
 2774SOL     OW 9220   6.123   2.485   2.746
 2774SOL    HW1 9221   6.061   2.441   2.680
 2774SOL    HW2 9222   6.142   2.423   2.821
 2775SOL     OW 9223   6.681   5.836   0.888
 2775SOL    HW1 9224   6.754   5.886   0.934
 2775SOL    HW2 9225   6.618   5.900   0.845
 2776SOL     OW 9226   4.093   5.480   5.500
 2776SOL    HW1 9227   4.192   5.494   5.488
 2776SOL    HW2 9228   4.075   5.445   5.591
 2777SOL     OW 9229   3.341   1.096   2.738
 2777SOL    HW1 9230   3.393   1.068   2.818
 2777SOL    HW2 9231   3.289   1.179   2.759
 2778SOL     OW 9232   1.754   1.286   5.369
 2778SOL    HW1 9233   1.796   1.302   5.280
 2778SOL    HW2 9234   1.690   1.209   5.363
 2779SOL     OW 9235   4.496   0.215   0.556
 2779SOL    HW1 9236   4.568   0.204   0.488
 2779SOL    HW2 9237   4.503   0.142   0.624
 2780SOL     OW 9238   6.047   5.466   6.027
 2780SOL    HW1 9239   6.009   5.450   6.118
 2780SOL    HW2 9240   6.001   5.406   5.961
 2781SOL     OW 9241   6.333   5.455   1.923
 2781SOL    HW1 9242   6.386   5.480   2.004
 2781SOL    HW2 9243   6.393   5.411   1.856
 2782SOL     OW 9244   3.245   2.765   6.662
 2782SOL    HW1 9245   3.259   2.843   6.723
 2782SOL    HW2 9246   3.322   2.758   6.598
 2783SOL     OW 9247   6.012   3.525   4.554
 2783SOL    HW1 9248   5.934   3.492   4.606
 2783SOL    HW2 9249   6.000   3.501   4.457
 2784SOL     OW 9250   2.441   2.245   1.188
 2784SOL    HW1 9251   2.420   2.180   1.115
 2784SOL    HW2 9252   2.356   2.273   1.233
 2785SOL     OW 9253   6.299   1.208   6.697
 2785SOL    HW1 9254   6.330   1.142   6.765
 2785SOL    HW2 9255   6.314   1.172   6.605
 2786SOL     OW 9256   3.439   0.233   1.349
 2786SOL    HW1 9257   3.520   0.183   1.378
 2786SOL    HW2 9258   3.405   0.290   1.424
 2787SOL     OW 9259   2.497   3.784   6.567
 2787SOL    HW1 9260   2.561   3.777   6.644
 2787SOL    HW2 9261   2.408   3.815   6.600
 2788SOL     OW 9262   2.629   4.548   0.484
 2788SOL    HW1 9263   2.591   4.554   0.576
 2788SOL    HW2 9264   2.726   4.570   0.487
 2789SOL     OW 9265   1.388   1.956   4.041
 2789SOL    HW1 9266   1.452   2.029   4.065
 2789SOL    HW2 9267   1.318   1.947   4.111
 2790SOL     OW 9268   3.655   5.442   2.707
 2790SOL    HW1 9269   3.609   5.377   2.767
 2790SOL    HW2 9270   3.738   5.476   2.751
 2791SOL     OW 9271   2.060   4.495   5.095
 2791SOL    HW1 9272   2.063   4.403   5.133
 2791SOL    HW2 9273   2.143   4.512   5.042
 2792SOL     OW 9274   1.737   0.100   4.995
 2792SOL    HW1 9275   1.644   0.083   4.961
 2792SOL    HW2 9276   1.746   0.195   5.023
 2793SOL     OW 9277   5.051   1.683   2.205
 2793SOL    HW1 9278   5.056   1.755   2.274
 2793SOL    HW2 9279   5.117   1.611   2.226
 2794SOL     OW 9280   0.184   2.605   0.401
 2794SOL    HW1 9281   0.189   2.670   0.325
 2794SOL    HW2 9282   0.246   2.529   0.384
 2795SOL     OW 9283   3.131   4.150   1.341
 2795SOL    HW1 9284   3.032   4.153   1.356
 2795SOL    HW2 9285   3.152   4.182   1.248
 2796SOL     OW 9286   6.756   4.350   2.276
 2796SOL    HW1 9287   6.818   4.410   2.326
 2796SOL    HW2 9288   6.800   4.318   2.192
 2797SOL     OW 9289   5.087   5.555   4.765
 2797SOL    HW1 9290   5.061   5.508   4.681
 2797SOL    HW2 9291   5.048   5.508   4.844
 2798SOL     OW 9292   0.883   4.182   2.653
 2798SOL    HW1 9293   0.812   4.229   2.601
 2798SOL    HW2 9294   0.899   4.231   2.739
 2799SOL     OW 9295   0.287   5.690   6.447
 2799SOL    HW1 9296   0.345   5.741   6.383
 2799SOL    HW2 9297   0.193   5.722   6.440
 2800SOL     OW 9298   4.725   4.215   6.640
 2800SOL    HW1 9299   4.799   4.272   6.605
 2800SOL    HW2 9300   4.742   4.195   6.737
 2801SOL     OW 9301   4.393   6.101   3.155
 2801SOL    HW1 9302   4.355   6.189   3.123
 2801SOL    HW2 9303   4.419   6.046   3.076
 2802SOL     OW 9304   4.103   2.744   6.319
 2802SOL    HW1 9305   4.050   2.821   6.283
 2802SOL    HW2 9306   4.043   2.687   6.375
 2803SOL     OW 9307   2.211   6.173   5.706
 2803SOL    HW1 9308   2.133   6.113   5.725
 2803SOL    HW2 9309   2.205   6.255   5.763
 2804SOL     OW 9310   6.875   4.488   3.505
 2804SOL    HW1 9311   6.935   4.556   3.546
 2804SOL    HW2 9312   6.795   4.475   3.563
 2805SOL     OW 9313   4.541   3.596   1.516
 2805SOL    HW1 9314   4.503   3.627   1.603
 2805SOL    HW2 9315   4.613   3.659   1.487
 2806SOL     OW 9316   5.977   5.432   3.269
 2806SOL    HW1 9317   6.062   5.380   3.266
 2806SOL    HW2 9318   5.938   5.437   3.177
 2807SOL     OW 9319   5.636   4.640   3.824
 2807SOL    HW1 9320   5.556   4.679   3.778
 2807SOL    HW2 9321   5.620   4.543   3.844
 2808SOL     OW 9322   4.519   1.262   2.840
 2808SOL    HW1 9323   4.433   1.309   2.860
 2808SOL    HW2 9324   4.592   1.301   2.895
 2809SOL     OW 9325   6.775   2.413   1.802
 2809SOL    HW1 9326   6.792   2.354   1.724
 2809SOL    HW2 9327   6.689   2.462   1.789
 2810SOL     OW 9328   3.539   6.745   4.789
 2810SOL    HW1 9329   3.594   6.711   4.713
 2810SOL    HW2 9330   3.475   6.815   4.756
 2811SOL     OW 9331   0.914   0.983   2.504
 2811SOL    HW1 9332   0.871   1.061   2.549
 2811SOL    HW2 9333   0.983   1.015   2.439
 2812SOL     OW 9334   4.869   3.566   2.061
 2812SOL    HW1 9335   4.951   3.529   2.017
 2812SOL    HW2 9336   4.842   3.505   2.136
 2813SOL     OW 9337   5.923   0.095   5.889
 2813SOL    HW1 9338   5.955   0.057   5.976
 2813SOL    HW2 9339   5.906   0.193   5.900
 2814SOL     OW 9340   4.326   3.281   6.706
 2814SOL    HW1 9341   4.423   3.257   6.716
 2814SOL    HW2 9342   4.320   3.374   6.669
 2815SOL     OW 9343   7.008   0.968   4.495
 2815SOL    HW1 9344   6.944   0.902   4.534
 2815SOL    HW2 9345   0.023   1.023   4.568
 2816SOL     OW 9346   6.187   6.599   3.666
 2816SOL    HW1 9347   6.274   6.587   3.619
 2816SOL    HW2 9348   6.131   6.517   3.653
 2817SOL     OW 9349   1.860   0.305   1.141
 2817SOL    HW1 9350   1.889   0.268   1.230
 2817SOL    HW2 9351   1.897   0.247   1.068
 2818SOL     OW 9352   6.816   5.075   6.781
 2818SOL    HW1 9353   6.772   5.130   6.710
 2818SOL    HW2 9354   6.768   4.988   6.791
 2819SOL     OW 9355   0.160   1.903   0.851
 2819SOL    HW1 9356   0.153   1.813   0.808
 2819SOL    HW2 9357   0.123   1.972   0.789
 2820SOL     OW 9358   0.411   2.620   2.618
 2820SOL    HW1 9359   0.371   2.695   2.564
 2820SOL    HW2 9360   0.428   2.542   2.559
 2821SOL     OW 9361   3.014   4.639   6.593
 2821SOL    HW1 9362   3.022   4.641   6.692
 2821SOL    HW2 9363   3.100   4.669   6.551
 2822SOL     OW 9364   4.077   2.774   0.533
 2822SOL    HW1 9365   4.013   2.809   0.465
 2822SOL    HW2 9366   4.063   2.675   0.545
 2823SOL     OW 9367   2.188   6.713   1.263
 2823SOL    HW1 9368   2.122   6.741   1.332
 2823SOL    HW2 9369   2.269   6.674   1.308
 2824SOL     OW 9370   2.419   1.090   4.904
 2824SOL    HW1 9371   2.402   1.126   4.813
 2824SOL    HW2 9372   2.333   1.089   4.956
 2825SOL     OW 9373   6.471   0.060   0.572
 2825SOL    HW1 9374   6.499   0.008   0.491
 2825SOL    HW2 9375   6.456   0.156   0.546
 2826SOL     OW 9376   5.620   1.812   6.175
 2826SOL    HW1 9377   5.583   1.855   6.093
 2826SOL    HW2 9378   5.590   1.862   6.256
 2827SOL     OW 9379   6.881   1.015   5.351
 2827SOL    HW1 9380   6.897   0.982   5.258
 2827SOL    HW2 9381   6.928   1.102   5.363
 2828SOL     OW 9382   3.410   1.174   5.951
 2828SOL    HW1 9383   3.446   1.099   5.894
 2828SOL    HW2 9384   3.475   1.249   5.951
 2829SOL     OW 9385   4.201   4.442   6.296
 2829SOL    HW1 9386   4.151   4.451   6.210
 2829SOL    HW2 9387   4.215   4.345   6.317
 2830SOL     OW 9388   6.797   4.612   6.601
 2830SOL    HW1 9389   6.854   4.628   6.682
 2830SOL    HW2 9390   6.812   4.518   6.569
 2831SOL     OW 9391   6.722   6.276   4.550
 2831SOL    HW1 9392   6.782   6.320   4.483
 2831SOL    HW2 9393   6.758   6.186   4.574
 2832SOL     OW 9394   0.737   1.667   1.462
 2832SOL    HW1 9395   0.819   1.612   1.445
 2832SOL    HW2 9396   0.762   1.749   1.513
 2833SOL     OW 9397   5.384   1.561   2.038
 2833SOL    HW1 9398   5.300   1.614   2.028
 2833SOL    HW2 9399   5.400   1.509   1.954
 2834SOL     OW 9400   2.915   1.206   6.499
 2834SOL    HW1 9401   2.953   1.140   6.435
 2834SOL    HW2 9402   2.895   1.292   6.451
 2835SOL     OW 9403   0.341   6.611   1.822
 2835SOL    HW1 9404   0.381   6.615   1.913
 2835SOL    HW2 9405   0.323   6.704   1.789
 2836SOL     OW 9406   6.907   0.260   1.518
 2836SOL    HW1 9407   6.997   0.269   1.560
 2836SOL    HW2 9408   6.896   0.168   1.483
 2837SOL     OW 9409   5.353   3.484   2.995
 2837SOL    HW1 9410   5.366   3.583   2.988
 2837SOL    HW2 9411   5.356   3.457   3.091
 2838SOL     OW 9412   2.219   4.364   1.595
 2838SOL    HW1 9413   2.217   4.274   1.639
 2838SOL    HW2 9414   2.268   4.357   1.508
 2839SOL     OW 9415   6.021   1.236   1.946
 2839SOL    HW1 9416   6.047   1.320   1.994
 2839SOL    HW2 9417   5.976   1.174   2.010
 2840SOL     OW 9418   0.309   0.847   4.476
 2840SOL    HW1 9419   0.398   0.854   4.522
 2840SOL    HW2 9420   0.281   0.938   4.446
 2841SOL     OW 9421   0.001   0.319   6.403
 2841SOL    HW1 9422   6.946   0.288   6.351
 2841SOL    HW2 9423   0.073   0.346   6.339
 2842SOL     OW 9424   0.054   2.445   3.869
 2842SOL    HW1 9425   0.144   2.484   3.888
 2842SOL    HW2 9426   7.010   2.491   3.924
 2843SOL     OW 9427   3.293   1.702   4.370
 2843SOL    HW1 9428   3.247   1.788   4.350
 2843SOL    HW2 9429   3.263   1.632   4.306
 2844SOL     OW 9430   1.200   3.754   0.139
 2844SOL    HW1 9431   1.100   3.752   0.147
 2844SOL    HW2 9432   1.240   3.780   0.227
 2845SOL     OW 9433   0.982   3.438   0.845
 2845SOL    HW1 9434   0.958   3.505   0.916
 2845SOL    HW2 9435   0.997   3.349   0.888
 2846SOL     OW 9436   4.466   1.545   0.042
 2846SOL    HW1 9437   4.528   1.549   0.120
 2846SOL    HW2 9438   4.519   1.551   6.983
 2847SOL     OW 9439   5.354   3.449   3.348
 2847SOL    HW1 9440   5.267   3.497   3.336
 2847SOL    HW2 9441   5.356   3.369   3.287
 2848SOL     OW 9442   0.398   4.649   5.979
 2848SOL    HW1 9443   0.461   4.702   6.035
 2848SOL    HW2 9444   0.306   4.688   5.988
 2849SOL     OW 9445   3.329   0.394   1.010
 2849SOL    HW1 9446   3.250   0.393   1.072
 2849SOL    HW2 9447   3.326   0.477   0.954
 2850SOL     OW 9448   3.348   0.913   1.897
 2850SOL    HW1 9449   3.420   0.886   1.962
 2850SOL    HW2 9450   3.342   0.845   1.824
 2851SOL     OW 9451   0.971   4.215   5.417
 2851SOL    HW1 9452   0.881   4.180   5.439
 2851SOL    HW2 9453   0.962   4.295   5.356
 2852SOL     OW 9454   5.761   4.257   6.749
 2852SOL    HW1 9455   5.762   4.293   6.842
 2852SOL    HW2 9456   5.847   4.211   6.730
 2853SOL     OW 9457   2.922   2.385   0.007
 2853SOL    HW1 9458   2.997   2.332   6.991
 2853SOL    HW2 9459   2.958   2.437   0.085
 2854SOL     OW 9460   3.072   1.361   4.080
 2854SOL    HW1 9461   3.052   1.375   3.983
 2854SOL    HW2 9462   3.076   1.263   4.100
 2855SOL     OW 9463   1.680   0.628   5.827
 2855SOL    HW1 9464   1.597   0.631   5.883
 2855SOL    HW2 9465   1.663   0.572   5.745
 2856SOL     OW 9466   2.254   2.979   6.085
 2856SOL    HW1 9467   2.278   3.071   6.115
 2856SOL    HW2 9468   2.336   2.934   6.049
 2857SOL     OW 9469   2.855   1.610   1.751
 2857SOL    HW1 9470   2.881   1.580   1.659
 2857SOL    HW2 9471   2.819   1.703   1.746
 2858SOL     OW 9472   6.139   3.553   1.821
 2858SOL    HW1 9473   6.188   3.522   1.903
 2858SOL    HW2 9474   6.133   3.478   1.756
 2859SOL     OW 9475   5.308   1.862   0.146
 2859SOL    HW1 9476   5.332   1.901   0.234
 2859SOL    HW2 9477   5.296   1.935   0.079
 2860SOL     OW 9478   4.418   1.824   1.087
 2860SOL    HW1 9479   4.463   1.896   1.139
 2860SOL    HW2 9480   4.450   1.827   0.992
 2861SOL     OW 9481   4.775   5.403   5.705
 2861SOL    HW1 9482   4.692   5.404   5.762
 2861SOL    HW2 9483   4.758   5.453   5.620
 2862SOL     OW 9484   5.862   1.667   3.434
 2862SOL    HW1 9485   5.795   1.733   3.399
 2862SOL    HW2 9486   5.815   1.585   3.466
 2863SOL     OW 9487   5.964   1.297   6.964
 2863SOL    HW1 9488   5.969   1.254   0.029
 2863SOL    HW2 9489   5.877   1.345   6.954
 2864SOL     OW 9490   4.013   6.965   0.718
 2864SOL    HW1 9491   4.107   6.972   0.685
 2864SOL    HW2 9492   4.010   6.989   0.815
 2865SOL     OW 9493   4.902   4.290   5.056
 2865SOL    HW1 9494   4.954   4.366   5.018
 2865SOL    HW2 9495   4.934   4.204   5.016
 2866SOL     OW 9496   6.520   6.945   0.336
 2866SOL    HW1 9497   6.445   6.919   0.274
 2866SOL    HW2 9498   6.602   6.892   0.313
 2867SOL     OW 9499   5.936   4.166   2.210
 2867SOL    HW1 9500   5.962   4.171   2.306
 2867SOL    HW2 9501   5.863   4.232   2.191
 2868SOL     OW 9502   0.636   3.401   5.425
 2868SOL    HW1 9503   0.658   3.310   5.389
 2868SOL    HW2 9504   0.542   3.425   5.398
 2869SOL     OW 9505   6.071   1.100   3.176
 2869SOL    HW1 9506   6.039   1.173   3.237
 2869SOL    HW2 9507   6.011   1.094   3.097
 2870SOL     OW 9508   6.711   1.501   4.662
 2870SOL    HW1 9509   6.660   1.548   4.590
 2870SOL    HW2 9510   6.752   1.568   4.723
 2871SOL     OW 9511   2.098   1.728   6.467
 2871SOL    HW1 9512   2.162   1.788   6.421
 2871SOL    HW2 9513   2.021   1.708   6.407
 2872SOL     OW 9514   2.995   1.607   3.801
 2872SOL    HW1 9515   3.032   1.670   3.870
 2872SOL    HW2 9516   3.067   1.543   3.772
 2873SOL     OW 9517   0.583   5.328   3.401
 2873SOL    HW1 9518   0.487   5.335   3.373
 2873SOL    HW2 9519   0.639   5.304   3.321
 2874SOL     OW 9520   5.153   5.294   2.088
 2874SOL    HW1 9521   5.203   5.215   2.123
 2874SOL    HW2 9522   5.217   5.361   2.050
 2875SOL     OW 9523   4.133   6.336   6.623
 2875SOL    HW1 9524   4.135   6.285   6.537
 2875SOL    HW2 9525   4.088   6.280   6.694
 2876SOL     OW 9526   0.562   0.445   2.039
 2876SOL    HW1 9527   0.625   0.523   2.040
 2876SOL    HW2 9528   0.582   0.388   1.960
 2877SOL     OW 9529   3.437   2.754   5.346
 2877SOL    HW1 9530   3.348   2.711   5.329
 2877SOL    HW2 9531   3.485   2.705   5.419
 2878SOL     OW 9532   3.397   4.926   4.392
 2878SOL    HW1 9533   3.328   4.974   4.338
 2878SOL    HW2 9534   3.354   4.880   4.469
 2879SOL     OW 9535   4.995   5.289   0.131
 2879SOL    HW1 9536   5.080   5.240   0.151
 2879SOL    HW2 9537   4.918   5.226   0.142
 2880SOL     OW 9538   6.399   6.614   0.366
 2880SOL    HW1 9539   6.330   6.587   0.298
 2880SOL    HW2 9540   6.362   6.600   0.458
 2881SOL     OW 9541   5.770   6.360   0.681
 2881SOL    HW1 9542   5.776   6.322   0.773
 2881SOL    HW2 9543   5.708   6.439   0.682
 2882SOL     OW 9544   0.738   3.490   2.544
 2882SOL    HW1 9545   0.799   3.463   2.619
 2882SOL    HW2 9546   0.710   3.586   2.557
 2883SOL     OW 9547   4.381   6.649   3.471
 2883SOL    HW1 9548   4.388   6.636   3.570
 2883SOL    HW2 9549   4.382   6.746   3.449
 2884SOL     OW 9550   0.678   6.228   3.253
 2884SOL    HW1 9551   0.693   6.254   3.349
 2884SOL    HW2 9552   0.766   6.216   3.207
 2885SOL     OW 9553   0.030   2.537   2.984
 2885SOL    HW1 9554   0.094   2.462   2.968
 2885SOL    HW2 9555   0.064   2.620   2.941
 2886SOL     OW 9556   2.209   3.071   6.664
 2886SOL    HW1 9557   2.249   3.020   6.741
 2886SOL    HW2 9558   2.111   3.054   6.661
 2887SOL     OW 9559   2.495   6.824   5.216
 2887SOL    HW1 9560   2.482   6.855   5.311
 2887SOL    HW2 9561   2.406   6.816   5.172
 2888SOL     OW 9562   0.100   4.964   6.311
 2888SOL    HW1 9563   0.103   4.957   6.211
 2888SOL    HW2 9564   0.114   4.874   6.352
 2889SOL     OW 9565   1.412   0.924   2.383
 2889SOL    HW1 9566   1.453   0.917   2.292
 2889SOL    HW2 9567   1.335   0.861   2.390
 2890SOL     OW 9568   2.970   0.455   1.389
 2890SOL    HW1 9569   2.927   0.365   1.399
 2890SOL    HW2 9570   2.899   0.526   1.391
 2891SOL     OW 9571   2.721   4.693   3.502
 2891SOL    HW1 9572   2.638   4.729   3.458
 2891SOL    HW2 9573   2.713   4.594   3.514
 2892SOL     OW 9574   4.893   4.309   0.153
 2892SOL    HW1 9575   4.973   4.367   0.171
 2892SOL    HW2 9576   4.840   4.299   0.237
 2893SOL     OW 9577   1.931   6.380   5.548
 2893SOL    HW1 9578   2.009   6.419   5.598
 2893SOL    HW2 9579   1.903   6.296   5.593
 2894SOL     OW 9580   3.021   2.604   6.739
 2894SOL    HW1 9581   3.049   2.508   6.742
 2894SOL    HW2 9582   3.101   2.663   6.741
 2895SOL     OW 9583   3.893   3.098   6.617
 2895SOL    HW1 9584   3.853   3.022   6.669
 2895SOL    HW2 9585   3.993   3.092   6.621
 2896SOL     OW 9586   2.608   5.262   6.326
 2896SOL    HW1 9587   2.569   5.229   6.412
 2896SOL    HW2 9588   2.698   5.221   6.312
 2897SOL     OW 9589   2.413   6.569   3.860
 2897SOL    HW1 9590   2.455   6.510   3.792
 2897SOL    HW2 9591   2.466   6.567   3.945
 2898SOL     OW 9592   4.706   4.702   2.983
 2898SOL    HW1 9593   4.770   4.647   3.038
 2898SOL    HW2 9594   4.758   4.768   2.928
 2899SOL     OW 9595   0.114   0.809   6.488
 2899SOL    HW1 9596   0.126   0.777   6.582
 2899SOL    HW2 9597   0.145   0.738   6.425
 2900SOL     OW 9598   1.354   4.679   5.598
 2900SOL    HW1 9599   1.387   4.605   5.539
 2900SOL    HW2 9600   1.255   4.668   5.613
 2901SOL     OW 9601   1.326   0.415   2.954
 2901SOL    HW1 9602   1.229   0.439   2.941
 2901SOL    HW2 9603   1.344   0.328   2.909
 2902SOL     OW 9604   5.685   6.632   0.421
 2902SOL    HW1 9605   5.639   6.602   0.505
 2902SOL    HW2 9606   5.736   6.716   0.439
 2903SOL     OW 9607   3.023   6.881   2.317
 2903SOL    HW1 9608   3.093   6.882   2.246
 2903SOL    HW2 9609   2.955   6.810   2.295
 2904SOL     OW 9610   2.512   3.250   5.328
 2904SOL    HW1 9611   2.525   3.153   5.308
 2904SOL    HW2 9612   2.521   3.266   5.426
 2905SOL     OW 9613   1.535   1.522   2.747
 2905SOL    HW1 9614   1.569   1.484   2.661
 2905SOL    HW2 9615   1.609   1.528   2.813
 2906SOL     OW 9616   5.271   5.078   2.176
 2906SOL    HW1 9617   5.295   5.027   2.258
 2906SOL    HW2 9618   5.346   5.074   2.110
 2907SOL     OW 9619   6.330   1.030   5.007
 2907SOL    HW1 9620   6.261   1.094   5.042
 2907SOL    HW2 9621   6.382   0.992   5.084
 2908SOL     OW 9622   4.039   6.594   4.252
 2908SOL    HW1 9623   4.051   6.676   4.195
 2908SOL    HW2 9624   4.025   6.514   4.193
 2909SOL     OW 9625   0.695   4.661   4.530
 2909SOL    HW1 9626   0.686   4.562   4.518
 2909SOL    HW2 9627   0.774   4.682   4.587
 2910SOL     OW 9628   3.527   6.338   4.896
 2910SOL    HW1 9629   3.495   6.255   4.851
 2910SOL    HW2 9630   3.450   6.402   4.906
 2911SOL     OW 9631   2.370   5.407   3.913
 2911SOL    HW1 9632   2.393   5.342   3.841
 2911SOL    HW2 9633   2.449   5.465   3.932
 2912SOL     OW 9634   2.675   5.766   0.385
 2912SOL    HW1 9635   2.746   5.779   0.454
 2912SOL    HW2 9636   2.637   5.674   0.392
 2913SOL     OW 9637   1.936   4.741   2.573
 2913SOL    HW1 9638   2.017   4.700   2.529
 2913SOL    HW2 9639   1.954   4.838   2.591
 2914SOL     OW 9640   5.892   4.990   6.071
 2914SOL    HW1 9641   5.896   4.927   6.149
 2914SOL    HW2 9642   5.841   5.072   6.098
 2915SOL     OW 9643   4.420   1.720   4.099
 2915SOL    HW1 9644   4.486   1.759   4.035
 2915SOL    HW2 9645   4.449   1.739   4.193
 2916SOL     OW 9646   6.382   4.850   5.868
 2916SOL    HW1 9647   6.456   4.828   5.806
 2916SOL    HW2 9648   6.331   4.929   5.832
 2917SOL     OW 9649   3.734   0.588   1.318
 2917SOL    HW1 9650   3.725   0.553   1.412
 2917SOL    HW2 9651   3.693   0.524   1.254
 2918SOL     OW 9652   6.934   3.170   3.346
 2918SOL    HW1 9653   6.905   3.087   3.393
 2918SOL    HW2 9654   6.859   3.204   3.289
 2919SOL     OW 9655   6.096   0.181   0.547
 2919SOL    HW1 9656   6.126   0.108   0.608
 2919SOL    HW2 9657   6.137   0.268   0.576
 2920SOL     OW 9658   3.612   2.043   2.452
 2920SOL    HW1 9659   3.532   2.104   2.455
 2920SOL    HW2 9660   3.633   2.021   2.356
 2921SOL     OW 9661   0.154   1.315   2.896
 2921SOL    HW1 9662   0.080   1.247   2.891
 2921SOL    HW2 9663   0.214   1.292   2.972
 2922SOL     OW 9664   5.894   6.445   0.012
 2922SOL    HW1 9665   5.866   6.517   0.075
 2922SOL    HW2 9666   5.989   6.460   7.009
 2923SOL     OW 9667   0.051   5.408   2.568
 2923SOL    HW1 9668   7.008   5.424   2.639
 2923SOL    HW2 9669   0.115   5.337   2.598
 2924SOL     OW 9670   0.280   1.662   6.184
 2924SOL    HW1 9671   0.275   1.580   6.242
 2924SOL    HW2 9672   0.187   1.690   6.159
 2925SOL     OW 9673   5.657   1.146   3.128
 2925SOL    HW1 9674   5.677   1.052   3.157
 2925SOL    HW2 9675   5.671   1.154   3.029
 2926SOL     OW 9676   7.011   1.669   5.008
 2926SOL    HW1 9677   7.014   1.597   5.077
 2926SOL    HW2 9678   0.061   1.657   4.944
 2927SOL     OW 9679   1.112   2.142   2.137
 2927SOL    HW1 9680   1.121   2.060   2.194
 2927SOL    HW2 9681   1.203   2.171   2.106
 2928SOL     OW 9682   6.476   1.909   6.678
 2928SOL    HW1 9683   6.538   1.912   6.756
 2928SOL    HW2 9684   6.446   1.815   6.662
 2929SOL     OW 9685   0.738   0.973   6.142
 2929SOL    HW1 9686   0.752   0.987   6.044
 2929SOL    HW2 9687   0.824   0.992   6.191
 2930SOL     OW 9688   4.826   6.379   5.152
 2930SOL    HW1 9689   4.842   6.287   5.188
 2930SOL    HW2 9690   4.728   6.395   5.142
 2931SOL     OW 9691   5.042   5.917   6.627
 2931SOL    HW1 9692   4.974   5.883   6.563
 2931SOL    HW2 9693   5.068   5.844   6.690
 2932SOL     OW 9694   1.728   4.546   2.108
 2932SOL    HW1 9695   1.632   4.571   2.113
 2932SOL    HW2 9696   1.737   4.457   2.065
 2933SOL     OW 9697   5.272   2.656   3.854
 2933SOL    HW1 9698   5.276   2.746   3.896
 2933SOL    HW2 9699   5.325   2.591   3.908
 2934SOL     OW 9700   3.667   0.673   0.939
 2934SOL    HW1 9701   3.606   0.750   0.920
 2934SOL    HW2 9702   3.618   0.604   0.992
 2935SOL     OW 9703   6.625   2.871   1.636
 2935SOL    HW1 9704   6.679   2.834   1.712
 2935SOL    HW2 9705   6.531   2.837   1.641
 2936SOL     OW 9706   4.691   5.653   1.537
 2936SOL    HW1 9707   4.713   5.746   1.567
 2936SOL    HW2 9708   4.759   5.589   1.573
 2937SOL     OW 9709   3.042   5.212   0.444
 2937SOL    HW1 9710   3.075   5.216   0.350
 2937SOL    HW2 9711   2.949   5.175   0.445
 2938SOL     OW 9712   4.713   4.727   5.382
 2938SOL    HW1 9713   4.734   4.767   5.471
 2938SOL    HW2 9714   4.767   4.643   5.369
 2939SOL     OW 9715   0.355   6.302   4.666
 2939SOL    HW1 9716   0.409   6.218   4.665
 2939SOL    HW2 9717   0.324   6.322   4.573
 2940SOL     OW 9718   5.521   6.966   5.208
 2940SOL    HW1 9719   5.614   6.999   5.225
 2940SOL    HW2 9720   5.525   6.869   5.181
 2941SOL     OW 9721   1.677   2.804   5.759
 2941SOL    HW1 9722   1.670   2.757   5.671
 2941SOL    HW2 9723   1.736   2.751   5.820
 2942SOL     OW 9724   2.724   0.612   2.247
 2942SOL    HW1 9725   2.679   0.563   2.173
 2942SOL    HW2 9726   2.765   0.696   2.211
 2943SOL     OW 9727   5.126   3.486   2.665
 2943SOL    HW1 9728   5.199   3.553   2.677
 2943SOL    HW2 9729   5.140   3.410   2.729
 2944SOL     OW 9730   3.470   5.306   5.659
 2944SOL    HW1 9731   3.420   5.243   5.600
 2944SOL    HW2 9732   3.423   5.394   5.662
 2945SOL     OW 9733   4.155   3.668   2.849
 2945SOL    HW1 9734   4.207   3.667   2.935
 2945SOL    HW2 9735   4.064   3.628   2.865
 2946SOL     OW 9736   0.082   5.736   5.628
 2946SOL    HW1 9737   0.002   5.711   5.682
 2946SOL    HW2 9738   0.156   5.765   5.688
 2947SOL     OW 9739   0.766   3.996   0.100
 2947SOL    HW1 9740   0.797   4.086   0.129
 2947SOL    HW2 9741   0.675   4.003   0.060
 2948SOL     OW 9742   6.097   3.976   5.481
 2948SOL    HW1 9743   6.187   3.933   5.489
 2948SOL    HW2 9744   6.034   3.934   5.545
 2949SOL     OW 9745   1.766   6.106   1.147
 2949SOL    HW1 9746   1.799   6.112   1.241
 2949SOL    HW2 9747   1.810   6.028   1.102
 2950SOL     OW 9748   5.538   3.536   4.573
 2950SOL    HW1 9749   5.453   3.482   4.569
 2950SOL    HW2 9750   5.608   3.492   4.516
 2951SOL     OW 9751   0.025   2.492   0.099
 2951SOL    HW1 9752   0.117   2.452   0.090
 2951SOL    HW2 9753   6.999   2.441   0.167
 2952SOL     OW 9754   1.192   4.950   3.724
 2952SOL    HW1 9755   1.160   5.044   3.718
 2952SOL    HW2 9756   1.232   4.933   3.814
 2953SOL     OW 9757   5.347   2.446   2.392
 2953SOL    HW1 9758   5.301   2.515   2.336
 2953SOL    HW2 9759   5.320   2.458   2.487
 2954SOL     OW 9760   1.234   6.140   2.339
 2954SOL    HW1 9761   1.162   6.102   2.397
 2954SOL    HW2 9762   1.200   6.150   2.246
 2955SOL     OW 9763   0.426   2.870   0.270
 2955SOL    HW1 9764   0.329   2.890   0.255
 2955SOL    HW2 9765   0.467   2.943   0.326
 2956SOL     OW 9766   0.091   5.648   2.955
 2956SOL    HW1 9767   0.009   5.685   2.912
 2956SOL    HW2 9768   0.104   5.553   2.925
 2957SOL     OW 9769   0.029   3.443   1.332
 2957SOL    HW1 9770   7.020   3.497   1.255
 2957SOL    HW2 9771   7.009   3.354   1.334
 2958SOL     OW 9772   2.429   4.592   5.146
 2958SOL    HW1 9773   2.431   4.692   5.142
 2958SOL    HW2 9774   2.518   4.559   5.177
 2959SOL     OW 9775   5.411   4.754   6.675
 2959SOL    HW1 9776   5.491   4.806   6.704
 2959SOL    HW2 9777   5.349   4.814   6.623
 2960SOL     OW 9778   2.910   1.287   0.089
 2960SOL    HW1 9779   2.931   1.347   0.166
 2960SOL    HW2 9780   2.817   1.304   0.057
 2961SOL     OW 9781   5.423   3.018   4.343
 2961SOL    HW1 9782   5.518   3.047   4.353
 2961SOL    HW2 9783   5.396   2.961   4.420
 2962SOL     OW 9784   4.668   0.951   3.607
 2962SOL    HW1 9785   4.735   0.944   3.681
 2962SOL    HW2 9786   4.705   0.909   3.524
 2963SOL     OW 9787   1.800   1.663   5.904
 2963SOL    HW1 9788   1.796   1.761   5.882
 2963SOL    HW2 9789   1.884   1.624   5.867
 2964SOL     OW 9790   1.712   0.138   2.085
 2964SOL    HW1 9791   1.791   0.159   2.027
 2964SOL    HW2 9792   1.734   0.159   2.180
 2965SOL     OW 9793   0.269   1.090   5.065
 2965SOL    HW1 9794   0.344   1.080   5.131
 2965SOL    HW2 9795   0.306   1.113   4.975
 2966SOL     OW 9796   5.909   4.470   3.857
 2966SOL    HW1 9797   5.897   4.375   3.883
 2966SOL    HW2 9798   5.824   4.505   3.816
 2967SOL     OW 9799   5.743   2.778   3.696
 2967SOL    HW1 9800   5.731   2.720   3.776
 2967SOL    HW2 9801   5.671   2.758   3.629
 2968SOL     OW 9802   0.743   3.944   5.771
 2968SOL    HW1 9803   0.665   3.973   5.715
 2968SOL    HW2 9804   0.810   3.898   5.713
 2969SOL     OW 9805   5.608   1.897   5.245
 2969SOL    HW1 9806   5.553   1.980   5.240
 2969SOL    HW2 9807   5.651   1.880   5.157
 2970SOL     OW 9808   1.052   4.113   6.741
 2970SOL    HW1 9809   1.141   4.151   6.713
 2970SOL    HW2 9810   1.067   4.040   6.808
 2971SOL     OW 9811   5.761   2.849   4.216
 2971SOL    HW1 9812   5.822   2.770   4.215
 2971SOL    HW2 9813   5.726   2.862   4.309
 2972SOL     OW 9814   6.262   4.354   0.103
 2972SOL    HW1 9815   6.169   4.373   0.070
 2972SOL    HW2 9816   6.259   4.279   0.169
 2973SOL     OW 9817   5.474   0.646   4.050
 2973SOL    HW1 9818   5.419   0.707   4.108
 2973SOL    HW2 9819   5.458   0.668   3.954
 2974SOL     OW 9820   6.007   4.023   3.451
 2974SOL    HW1 9821   5.989   3.983   3.541
 2974SOL    HW2 9822   5.959   3.970   3.380
 2975SOL     OW 9823   0.218   1.947   5.078
 2975SOL    HW1 9824   0.234   1.945   4.979
 2975SOL    HW2 9825   0.173   2.033   5.103
 2976SOL     OW 9826   3.781   1.439   2.810
 2976SOL    HW1 9827   3.762   1.415   2.905
 2976SOL    HW2 9828   3.710   1.401   2.751
 2977SOL     OW 9829   2.642   0.128   4.089
 2977SOL    HW1 9830   2.667   0.073   4.009
 2977SOL    HW2 9831   2.707   0.110   4.163
 2978SOL     OW 9832   4.419   4.808   0.148
 2978SOL    HW1 9833   4.444   4.866   0.225
 2978SOL    HW2 9834   4.353   4.855   0.090
 2979SOL     OW 9835   4.072   0.260   3.863
 2979SOL    HW1 9836   4.084   0.312   3.947
 2979SOL    HW2 9837   4.027   0.318   3.794
 2980SOL     OW 9838   1.434   6.011   4.124
 2980SOL    HW1 9839   1.374   6.087   4.149
 2980SOL    HW2 9840   1.498   5.995   4.199
 2981SOL     OW 9841   0.513   0.180   6.103
 2981SOL    HW1 9842   0.582   0.132   6.049
 2981SOL    HW2 9843   0.465   0.113   6.161
 2982SOL     OW 9844   4.556   6.457   3.193
 2982SOL    HW1 9845   4.471   6.446   3.141
 2982SOL    HW2 9846   4.557   6.547   3.237
 2983SOL     OW 9847   0.771   0.594   3.896
 2983SOL    HW1 9848   0.699   0.655   3.860
 2983SOL    HW2 9849   0.735   0.501   3.902
 2984SOL     OW 9850   5.210   6.251   1.081
 2984SOL    HW1 9851   5.292   6.295   1.117
 2984SOL    HW2 9852   5.129   6.300   1.114
 2985SOL     OW 9853   0.726   2.056   4.272
 2985SOL    HW1 9854   0.636   2.094   4.293
 2985SOL    HW2 9855   0.795   2.100   4.330
 2986SOL     OW 9856   2.716   4.176   5.820
 2986SOL    HW1 9857   2.625   4.161   5.781
 2986SOL    HW2 9858   2.771   4.093   5.809
 2987SOL     OW 9859   4.702   1.328   4.162
 2987SOL    HW1 9860   4.707   1.311   4.064
 2987SOL    HW2 9861   4.788   1.368   4.193
 2988SOL     OW 9862   0.605   0.201   2.194
 2988SOL    HW1 9863   0.607   0.116   2.142
 2988SOL    HW2 9864   0.540   0.265   2.151
 2989SOL     OW 9865   5.879   5.298   0.887
 2989SOL    HW1 9866   5.795   5.347   0.864
 2989SOL    HW2 9867   5.875   5.266   0.982
 2990SOL     OW 9868   3.899   1.063   3.081
 2990SOL    HW1 9869   3.921   1.121   3.003
 2990SOL    HW2 9870   3.800   1.061   3.094
 2991SOL     OW 9871   0.196   3.847   0.885
 2991SOL    HW1 9872   0.274   3.897   0.847
 2991SOL    HW2 9873   0.128   3.831   0.812
 2992SOL     OW 9874   2.591   5.655   5.566
 2992SOL    HW1 9875   2.668   5.627   5.623
 2992SOL    HW2 9876   2.586   5.755   5.564
 2993SOL     OW 9877   1.162   4.828   1.843
 2993SOL    HW1 9878   1.071   4.869   1.853
 2993SOL    HW2 9879   1.180   4.811   1.746
 2994SOL     OW 9880   4.677   0.754   0.182
 2994SOL    HW1 9881   4.637   0.662   0.184
 2994SOL    HW2 9882   4.722   0.772   0.270
 2995SOL     OW 9883   1.097   2.838   6.720
 2995SOL    HW1 9884   1.122   2.883   6.635
 2995SOL    HW2 9885   1.124   2.742   6.716
 2996SOL     OW 9886   3.178   6.399   5.017
 2996SOL    HW1 9887   3.229   6.473   4.973
 2996SOL    HW2 9888   3.220   6.311   4.993
 2997SOL     OW 9889   4.977   6.103   1.917
 2997SOL    HW1 9890   5.040   6.177   1.894
 2997SOL    HW2 9891   4.960   6.105   2.016
 2998SOL     OW 9892   4.813   5.771   4.677
 2998SOL    HW1 9893   4.874   5.742   4.751
 2998SOL    HW2 9894   4.809   5.700   4.607
 2999SOL     OW 9895   3.968   5.975   3.774
 2999SOL    HW1 9896   4.040   5.930   3.722
 2999SOL    HW2 9897   3.921   6.041   3.715
 3000SOL     OW 9898   1.732   3.982   6.081
 3000SOL    HW1 9899   1.763   4.074   6.106
 3000SOL    HW2 9900   1.806   3.934   6.034
 3001SOL     OW 9901   4.974   0.019   0.001
 3001SOL    HW1 9902   4.989   0.092   0.067
 3001SOL    HW2 9903   5.060   6.996   7.009
 3002SOL     OW 9904   3.744   0.225   5.144
 3002SOL    HW1 9905   3.719   0.150   5.206
 3002SOL    HW2 9906   3.842   0.242   5.150
 3003SOL     OW 9907   2.948   6.502   6.181
 3003SOL    HW1 9908   2.861   6.510   6.229
 3003SOL    HW2 9909   3.000   6.425   6.219
 3004SOL     OW 9910   6.722   4.165   3.839
 3004SOL    HW1 9911   6.781   4.089   3.813
 3004SOL    HW2 9912   6.775   4.250   3.840
 3005SOL     OW 9913   3.388   3.262   1.207
 3005SOL    HW1 9914   3.311   3.323   1.224
 3005SOL    HW2 9915   3.451   3.265   1.284
 3006SOL     OW 9916   6.465   1.761   0.597
 3006SOL    HW1 9917   6.409   1.843   0.591
 3006SOL    HW2 9918   6.502   1.738   0.507
 3007SOL     OW 9919   5.970   5.382   2.465
 3007SOL    HW1 9920   5.967   5.416   2.558
 3007SOL    HW2 9921   5.881   5.394   2.421
 3008SOL     OW 9922   3.683   0.432   6.295
 3008SOL    HW1 9923   3.682   0.483   6.381
 3008SOL    HW2 9924   3.738   0.481   6.228
 3009SOL     OW 9925   0.515   6.505   2.674
 3009SOL    HW1 9926   0.593   6.481   2.731
 3009SOL    HW2 9927   0.547   6.533   2.583
 3010SOL     OW 9928   4.029   6.088   3.277
 3010SOL    HW1 9929   4.093   6.058   3.207
 3010SOL    HW2 9930   3.984   6.173   3.247
 3011SOL     OW 9931   5.633   0.812   6.688
 3011SOL    HW1 9932   5.556   0.861   6.646
 3011SOL    HW2 9933   5.641   0.722   6.647
 3012SOL     OW 9934   0.491   3.419   4.315
 3012SOL    HW1 9935   0.477   3.469   4.400
 3012SOL    HW2 9936   0.569   3.458   4.266
 3013SOL     OW 9937   5.184   6.115   3.617
 3013SOL    HW1 9938   5.105   6.077   3.569
 3013SOL    HW2 9939   5.153   6.175   3.690
 3014SOL     OW 9940   5.403   2.334   4.328
 3014SOL    HW1 9941   5.381   2.276   4.250
 3014SOL    HW2 9942   5.458   2.283   4.395
 3015SOL     OW 9943   3.222   2.333   6.887
 3015SOL    HW1 9944   3.233   2.408   6.952
 3015SOL    HW2 9945   3.226   2.368   6.794
 3016SOL     OW 9946   3.101   5.920   4.509
 3016SOL    HW1 9947   3.061   6.011   4.508
 3016SOL    HW2 9948   3.180   5.918   4.570
 3017SOL     OW 9949   1.356   5.823   1.004
 3017SOL    HW1 9950   1.377   5.743   1.061
 3017SOL    HW2 9951   1.309   5.892   1.058
 3018SOL     OW 9952   3.266   0.612   6.431
 3018SOL    HW1 9953   3.303   0.681   6.369
 3018SOL    HW2 9954   3.227   0.657   6.511
 3019SOL     OW 9955   3.384   6.158   1.184
 3019SOL    HW1 9956   3.462   6.190   1.238
 3019SOL    HW2 9957   3.408   6.073   1.138
 3020SOL     OW 9958   3.864   3.621   1.354
 3020SOL    HW1 9959   3.802   3.560   1.303
 3020SOL    HW2 9960   3.925   3.567   1.411
 3021SOL     OW 9961   2.046   2.159   0.031
 3021SOL    HW1 9962   1.978   2.142   6.984
 3021SOL    HW2 9963   2.106   2.079   0.039
 3022SOL     OW 9964   4.142   6.397   2.411
 3022SOL    HW1 9965   4.154   6.331   2.336
 3022SOL    HW2 9966   4.052   6.440   2.403
 3023SOL     OW 9967   3.597   6.159   3.129
 3023SOL    HW1 9968   3.645   6.148   3.042
 3023SOL    HW2 9969   3.545   6.244   3.128
 3024SOL     OW 9970   2.756   0.846   6.206
 3024SOL    HW1 9971   2.703   0.930   6.205
 3024SOL    HW2 9972   2.783   0.822   6.113
 3025SOL     OW 9973   3.372   2.664   0.420
 3025SOL    HW1 9974   3.352   2.587   0.481
 3025SOL    HW2 9975   3.362   2.634   0.325
 3026SOL     OW 9976   1.485   3.413   0.770
 3026SOL    HW1 9977   1.469   3.361   0.854
 3026SOL    HW2 9978   1.397   3.443   0.733
 3027SOL     OW 9979   4.233   1.312   1.989
 3027SOL    HW1 9980   4.209   1.215   1.983
 3027SOL    HW2 9981   4.163   1.360   2.041
 3028SOL     OW 9982   1.073   4.569   6.459
 3028SOL    HW1 9983   1.139   4.642   6.476
 3028SOL    HW2 9984   1.007   4.566   6.534
 3029SOL     OW 9985   6.650   5.398   4.941
 3029SOL    HW1 9986   6.737   5.383   4.987
 3029SOL    HW2 9987   6.579   5.415   5.009
 3030SOL     OW 9988   0.829   1.524   5.234
 3030SOL    HW1 9989   0.730   1.536   5.246
 3030SOL    HW2 9990   0.867   1.604   5.188
 3031SOL     OW 9991   0.787   3.540   0.636
 3031SOL    HW1 9992   0.851   3.487   0.692
 3031SOL    HW2 9993   0.699   3.545   0.683
 3032SOL     OW 9994   5.352   0.524   0.298
 3032SOL    HW1 9995   5.275   0.588   0.300
 3032SOL    HW2 9996   5.432   0.567   0.338
 3033SOL     OW 9997   0.585   2.413   6.843
 3033SOL    HW1 9998   0.599   2.355   6.762
 3033SOL    HW2 9999   0.644   2.382   6.917
 3034SOL     OW10000   1.898   6.089   3.772
 3034SOL    HW110001   1.889   6.188   3.785
 3034SOL    HW210002   1.992   6.061   3.790
 3035SOL     OW10003   6.576   2.047   0.504
 3035SOL    HW110004   6.521   2.005   0.432
 3035SOL    HW210005   6.643   1.981   0.538
 3036SOL     OW10006   1.981   3.671   0.150
 3036SOL    HW110007   2.074   3.636   0.153
 3036SOL    HW210008   1.963   3.709   0.059
 3037SOL     OW10009   6.052   5.993   4.044
 3037SOL    HW110010   6.115   5.942   4.104
 3037SOL    HW210011   5.968   6.013   4.093
 3038SOL     OW10012   5.770   0.103   6.514
 3038SOL    HW110013   5.709   0.070   6.586
 3038SOL    HW210014   5.865   0.080   6.537
 3039SOL     OW10015   6.975   4.785   2.685
 3039SOL    HW110016   0.007   4.857   2.644
 3039SOL    HW210017   0.007   4.724   2.739
 3040SOL     OW10018   4.871   3.898   6.350
 3040SOL    HW110019   4.863   3.870   6.446
 3040SOL    HW210020   4.840   3.992   6.340
 3041SOL     OW10021   1.673   2.486   5.875
 3041SOL    HW110022   1.653   2.452   5.784
 3041SOL    HW210023   1.772   2.485   5.890
 3042SOL     OW10024   5.191   6.813   1.921
 3042SOL    HW110025   5.204   6.861   1.834
 3042SOL    HW210026   5.221   6.871   1.996
 3043SOL     OW10027   6.987   5.449   0.792
 3043SOL    HW110028   7.017   5.512   0.720
 3043SOL    HW210029   6.980   5.356   0.756
 3044SOL     OW10030   3.336   4.069   5.650
 3044SOL    HW110031   3.342   4.011   5.731
 3044SOL    HW210032   3.279   4.149   5.671
 3045SOL     OW10033   4.781   0.613   2.506
 3045SOL    HW110034   4.824   0.547   2.445
 3045SOL    HW210035   4.776   0.575   2.598
 3046SOL     OW10036   1.431   3.661   5.537
 3046SOL    HW110037   1.459   3.688   5.445
 3046SOL    HW210038   1.509   3.671   5.600
 3047SOL     OW10039   5.319   5.493   1.988
 3047SOL    HW110040   5.300   5.576   1.937
 3047SOL    HW210041   5.404   5.452   1.954
 3048SOL     OW10042   4.085   3.438   1.411
 3048SOL    HW110043   4.147   3.387   1.470
 3048SOL    HW210044   4.027   3.374   1.361
 3049SOL     OW10045   0.858   6.066   1.223
 3049SOL    HW110046   0.761   6.047   1.233
 3049SOL    HW210047   0.882   6.067   1.126
 3050SOL     OW10048   3.520   0.055   3.633
 3050SOL    HW110049   3.588   0.026   3.566
 3050SOL    HW210050   3.431   0.016   3.609
 3051SOL     OW10051   2.813   3.860   6.999
 3051SOL    HW110052   2.776   3.951   7.019
 3051SOL    HW210053   2.830   3.812   0.060
 3052SOL     OW10054   3.922   0.557   2.859
 3052SOL    HW110055   4.002   0.598   2.903
 3052SOL    HW210056   3.840   0.577   2.912
 3053SOL     OW10057   5.916   0.426   6.972
 3053SOL    HW110058   5.960   0.510   7.002
 3053SOL    HW210059   5.943   0.406   6.878
 3054SOL     OW10060   0.090   2.508   6.791
 3054SOL    HW110061   0.147   2.534   6.713
 3054SOL    HW210062   0.039   2.588   6.823
 3055SOL     OW10063   5.116   0.555   3.668
 3055SOL    HW110064   5.166   0.493   3.608
 3055SOL    HW210065   5.049   0.504   3.722
 3056SOL     OW10066   6.687   0.278   0.064
 3056SOL    HW110067   6.680   0.373   0.034
 3056SOL    HW210068   6.619   0.261   0.135
 3057SOL     OW10069   4.381   5.546   2.847
 3057SOL    HW110070   4.315   5.508   2.782
 3057SOL    HW210071   4.423   5.628   2.808
 3058SOL     OW10072   6.215   5.663   1.174
 3058SOL    HW110073   6.202   5.600   1.250
 3058SOL    HW210074   6.151   5.640   1.100
 3059SOL     OW10075   1.872   3.223   5.063
 3059SOL    HW110076   1.810   3.157   5.020
 3059SOL    HW210077   1.889   3.196   5.158
 3060SOL     OW10078   0.184   6.360   0.226
 3060SOL    HW110079   0.273   6.403   0.223
 3060SOL    HW210080   0.148   6.361   0.320
 3061SOL     OW10081   0.087   0.877   5.109
 3061SOL    HW110082   0.067   0.829   5.023
 3061SOL    HW210083   0.137   0.961   5.089
 3062SOL     OW10084   1.757   6.936   1.220
 3062SOL    HW110085   1.808   6.850   1.220
 3062SOL    HW210086   1.665   6.920   1.255
 3063SOL     OW10087   2.620   5.271   2.434
 3063SOL    HW110088   2.528   5.239   2.456
 3063SOL    HW210089   2.632   5.365   2.464
 3064SOL     OW10090   5.776   3.286   3.721
 3064SOL    HW110091   5.788   3.280   3.622
 3064SOL    HW210092   5.678   3.286   3.742
 3065SOL     OW10093   2.163   0.462   6.590
 3065SOL    HW110094   2.065   0.480   6.583
 3065SOL    HW210095   2.204   0.460   6.499
 3066SOL     OW10096   5.725   4.318   0.286
 3066SOL    HW110097   5.727   4.401   0.231
 3066SOL    HW210098   5.818   4.292   0.311
 3067SOL     OW10099   3.307   1.278   4.446
 3067SOL    HW110100   3.219   1.252   4.484
 3067SOL    HW210101   3.378   1.216   4.479
 3068SOL     OW10102   5.658   6.150   0.554
 3068SOL    HW110103   5.697   6.232   0.595
 3068SOL    HW210104   5.709   6.070   0.585
 3069SOL     OW10105   6.692   5.673   1.478
 3069SOL    HW110106   6.779   5.675   1.527
 3069SOL    HW210107   6.692   5.745   1.408
 3070SOL     OW10108   2.124   1.214   2.166
 3070SOL    HW110109   2.147   1.234   2.070
 3070SOL    HW210110   2.031   1.246   2.184
 3071SOL     OW10111   6.633   6.782   3.494
 3071SOL    HW110112   6.702   6.713   3.470
 3071SOL    HW210113   6.679   6.860   3.537
 3072SOL     OW10114   0.868   6.342   1.005
 3072SOL    HW110115   0.864   6.424   1.063
 3072SOL    HW210116   0.959   6.301   1.012
 3073SOL     OW10117   0.964   3.697   4.979
 3073SOL    HW110118   0.909   3.781   4.985
 3073SOL    HW210119   0.925   3.627   5.038
 3074SOL     OW10120   5.377   3.051   0.977
 3074SOL    HW110121   5.329   3.119   0.921
 3074SOL    HW210122   5.349   2.959   0.948
 3075SOL     OW10123   1.862   6.032   1.394
 3075SOL    HW110124   1.839   6.050   1.489
 3075SOL    HW210125   1.951   5.986   1.389
 3076SOL     OW10126   6.520   0.706   4.419
 3076SOL    HW110127   6.453   0.691   4.493
 3076SOL    HW210128   6.611   0.678   4.450
 3077SOL     OW10129   5.478   4.702   2.648
 3077SOL    HW110130   5.437   4.786   2.683
 3077SOL    HW210131   5.539   4.723   2.572
 3078SOL     OW10132   2.299   3.817   1.453
 3078SOL    HW110133   2.248   3.857   1.529
 3078SOL    HW210134   2.344   3.732   1.483
 3079SOL     OW10135   1.944   2.572   4.755
 3079SOL    HW110136   1.845   2.581   4.746
 3079SOL    HW210137   1.987   2.661   4.741
 3080SOL     OW10138   5.487   5.051   2.008
 3080SOL    HW110139   5.512   5.087   1.918
 3080SOL    HW210140   5.527   4.960   2.020
 3081SOL     OW10141   0.669   4.483   6.042
 3081SOL    HW110142   0.653   4.385   6.032
 3081SOL    HW210143   0.587   4.533   6.013
 3082SOL     OW10144   3.837   6.629   3.617
 3082SOL    HW110145   3.879   6.714   3.587
 3082SOL    HW210146   3.772   6.648   3.691
 3083SOL     OW10147   4.160   6.786   2.291
 3083SOL    HW110148   4.078   6.745   2.249
 3083SOL    HW210149   4.202   6.719   2.353
 3084SOL     OW10150   5.013   4.253   4.459
 3084SOL    HW110151   4.967   4.339   4.435
 3084SOL    HW210152   5.110   4.260   4.440
 3085SOL     OW10153   0.116   4.233   3.291
 3085SOL    HW110154   0.102   4.320   3.338
 3085SOL    HW210155   0.114   4.158   3.357
 3086SOL     OW10156   4.363   1.587   2.061
 3086SOL    HW110157   4.280   1.534   2.047
 3086SOL    HW210158   4.387   1.587   2.158
 3087SOL     OW10159   0.079   4.618   4.121
 3087SOL    HW110160   0.013   4.593   4.049
 3087SOL    HW210161   0.154   4.551   4.121
 3088SOL     OW10162   2.873   5.043   5.261
 3088SOL    HW110163   2.884   4.945   5.282
 3088SOL    HW210164   2.937   5.096   5.316
 3089SOL     OW10165   1.327   3.269   6.775
 3089SOL    HW110166   1.423   3.255   6.751
 3089SOL    HW210167   1.285   3.329   6.707
 3090SOL     OW10168   1.575   1.672   1.460
 3090SOL    HW110169   1.623   1.599   1.412
 3090SOL    HW210170   1.631   1.755   1.460
 3091SOL     OW10171   3.013   6.536   0.206
 3091SOL    HW110172   3.038   6.500   0.116
 3091SOL    HW210173   2.916   6.520   0.222
 3092SOL     OW10174   5.072   0.155   0.218
 3092SOL    HW110175   5.120   0.076   0.257
 3092SOL    HW210176   5.059   0.225   0.289
 3093SOL     OW10177   5.872   5.292   5.886
 3093SOL    HW110178   5.777   5.284   5.855
 3093SOL    HW210179   5.932   5.246   5.820
 3094SOL     OW10180   3.224   0.037   4.833
 3094SOL    HW110181   3.235   0.012   4.930
 3094SOL    HW210182   3.129   0.021   4.805
 3095SOL     OW10183   2.476   4.531   4.614
 3095SOL    HW110184   2.415   4.468   4.662
 3095SOL    HW210185   2.458   4.526   4.515
 3096SOL     OW10186   6.915   0.396   4.523
 3096SOL    HW110187   6.936   0.312   4.572
 3096SOL    HW210188   6.957   0.393   4.432
 3097SOL     OW10189   0.780   2.415   0.337
 3097SOL    HW110190   0.750   2.382   0.427
 3097SOL    HW210191   0.834   2.499   0.349
 3098SOL     OW10192   2.255   3.422   1.288
 3098SOL    HW110193   2.221   3.347   1.233
 3098SOL    HW210194   2.354   3.431   1.275
 3099SOL     OW10195   0.197   5.835   4.896
 3099SOL    HW110196   0.168   5.740   4.904
 3099SOL    HW210197   0.177   5.868   4.804
 3100SOL     OW10198   6.669   0.046   4.896
 3100SOL    HW110199   6.631   6.980   4.909
 3100SOL    HW210200   6.614   0.113   4.946
 3101SOL     OW10201   4.332   6.131   5.591
 3101SOL    HW110202   4.407   6.186   5.630
 3101SOL    HW210203   4.245   6.173   5.614
 3102SOL     OW10204   0.887   5.065   1.423
 3102SOL    HW110205   0.952   5.058   1.347
 3102SOL    HW210206   0.859   4.974   1.452
 3103SOL     OW10207   3.418   1.288   0.733
 3103SOL    HW110208   3.467   1.349   0.670
 3103SOL    HW210209   3.343   1.244   0.684
 3104SOL     OW10210   5.868   6.370   4.069
 3104SOL    HW110211   5.967   6.359   4.058
 3104SOL    HW210212   5.835   6.441   4.006
 3105SOL     OW10213   6.347   5.687   3.592
 3105SOL    HW110214   6.426   5.738   3.559
 3105SOL    HW210215   6.354   5.592   3.562
 3106SOL     OW10216   6.659   1.875   2.741
 3106SOL    HW110217   6.693   1.860   2.648
 3106SOL    HW210218   6.701   1.958   2.779
 3107SOL     OW10219   3.842   0.294   4.362
 3107SOL    HW110220   3.890   0.321   4.445
 3107SOL    HW210221   3.756   0.250   4.386
 3108SOL     OW10222   2.071   1.069   4.280
 3108SOL    HW110223   2.045   1.074   4.376
 3108SOL    HW210224   2.109   0.979   4.259
 3109SOL     OW10225   5.608   5.856   2.676
 3109SOL    HW110226   5.612   5.760   2.651
 3109SOL    HW210227   5.635   5.912   2.598
 3110SOL     OW10228   0.332   2.053   3.668
 3110SOL    HW110229   0.281   2.139   3.661
 3110SOL    HW210230   0.401   2.049   3.595
 3111SOL     OW10231   6.001   5.689   3.683
 3111SOL    HW110232   5.962   5.778   3.707
 3111SOL    HW210233   6.071   5.664   3.750
 3112SOL     OW10234   4.943   2.773   5.769
 3112SOL    HW110235   4.888   2.804   5.846
 3112SOL    HW210236   4.888   2.717   5.708
 3113SOL     OW10237   2.426   0.378   4.089
 3113SOL    HW110238   2.519   0.384   4.126
 3113SOL    HW210239   2.364   0.344   4.159
 3114SOL     OW10240   5.343   4.062   0.031
 3114SOL    HW110241   5.268   4.061   6.990
 3114SOL    HW210242   5.379   3.969   0.042
 3115SOL     OW10243   4.465   3.612   0.169
 3115SOL    HW110244   4.519   3.554   0.230
 3115SOL    HW210245   4.428   3.557   0.094
 3116SOL     OW10246   7.021   3.132   0.075
 3116SOL    HW110247   0.043   3.062   0.022
 3116SOL    HW210248   6.944   3.167   0.023
 3117SOL     OW10249   4.630   3.943   5.386
 3117SOL    HW110250   4.540   3.911   5.357
 3117SOL    HW210251   4.625   3.978   5.479
 3118SOL     OW10252   6.883   4.358   6.476
 3118SOL    HW110253   6.862   4.264   6.450
 3118SOL    HW210254   6.978   4.364   6.506
 3119SOL     OW10255   1.987   4.200   5.192
 3119SOL    HW110256   1.994   4.106   5.225
 3119SOL    HW210257   1.921   4.250   5.247
 3120SOL     OW10258   2.313   6.409   4.712
 3120SOL    HW110259   2.218   6.384   4.735
 3120SOL    HW210260   2.331   6.385   4.617
 3121SOL     OW10261   0.283   1.144   2.394
 3121SOL    HW110262   0.265   1.237   2.363
 3121SOL    HW210263   0.378   1.120   2.376
 3122SOL     OW10264   3.594   5.623   5.980
 3122SOL    HW110265   3.551   5.635   5.891
 3122SOL    HW210266   3.677   5.568   5.969
 3123SOL     OW10267   3.059   6.649   3.676
 3123SOL    HW110268   2.988   6.702   3.722
 3123SOL    HW210269   3.017   6.569   3.631
 3124SOL     OW10270   4.104   0.546   5.092
 3124SOL    HW110271   4.091   0.503   5.182
 3124SOL    HW210272   4.200   0.539   5.065
 3125SOL     OW10273   6.216   2.163   5.839
 3125SOL    HW110274   6.165   2.098   5.783
 3125SOL    HW210275   6.204   2.256   5.803
 3126SOL     OW10276   4.874   4.717   6.670
 3126SOL    HW110277   4.907   4.810   6.687
 3126SOL    HW210278   4.880   4.698   6.571
 3127SOL     OW10279   0.900   2.226   3.110
 3127SOL    HW110280   0.841   2.300   3.141
 3127SOL    HW210281   0.893   2.149   3.174
 3128SOL     OW10282   1.760   0.387   0.850
 3128SOL    HW110283   1.829   0.421   0.785
 3128SOL    HW210284   1.805   0.357   0.934
 3129SOL     OW10285   0.841   4.785   6.080
 3129SOL    HW110286   0.899   4.704   6.091
 3129SOL    HW210287   0.748   4.763   6.107
 3130SOL     OW10288   2.433   4.583   2.127
 3130SOL    HW110289   2.503   4.579   2.056
 3130SOL    HW210290   2.399   4.677   2.135
 3131SOL     OW10291   1.382   2.851   3.063
 3131SOL    HW110292   1.324   2.919   3.108
 3131SOL    HW210293   1.446   2.898   3.001
 3132SOL     OW10294   5.385   6.173   5.544
 3132SOL    HW110295   5.357   6.168   5.448
 3132SOL    HW210296   5.357   6.261   5.582
 3133SOL     OW10297   2.167   2.116   4.089
 3133SOL    HW110298   2.232   2.190   4.108
 3133SOL    HW210299   2.075   2.145   4.116
 3134SOL     OW10300   5.109   3.533   1.924
 3134SOL    HW110301   5.126   3.439   1.896
 3134SOL    HW210302   5.162   3.595   1.866
 3135SOL     OW10303   4.017   1.719   4.847
 3135SOL    HW110304   4.106   1.754   4.877
 3135SOL    HW210305   3.972   1.788   4.790
 3136SOL     OW10306   6.133   6.546   6.115
 3136SOL    HW110307   6.071   6.484   6.067
 3136SOL    HW210308   6.226   6.532   6.082
 3137SOL     OW10309   4.982   1.402   3.762
 3137SOL    HW110310   4.981   1.332   3.691
 3137SOL    HW210311   4.994   1.492   3.719
 3138SOL     OW10312   6.050   1.925   4.319
 3138SOL    HW110313   6.043   1.828   4.345
 3138SOL    HW210314   6.144   1.956   4.333
 3139SOL     OW10315   5.277   6.498   6.205
 3139SOL    HW110316   5.241   6.421   6.257
 3139SOL    HW210317   5.202   6.560   6.181
 3140SOL     OW10318   6.490   6.238   6.564
 3140SOL    HW110319   6.456   6.267   6.654
 3140SOL    HW210320   6.430   6.274   6.492
 3141SOL     OW10321   0.632   6.768   6.697
 3141SOL    HW110322   0.601   6.849   6.647
 3141SOL    HW210323   0.716   6.733   6.654
 3142SOL     OW10324   4.986   6.374   0.166
 3142SOL    HW110325   4.963   6.348   0.260
 3142SOL    HW210326   4.986   6.293   0.108
 3143SOL     OW10327   6.869   2.039   6.453
 3143SOL    HW110328   6.911   2.124   6.421
 3143SOL    HW210329   6.939   1.981   6.494
 3144SOL     OW10330   2.184   3.729   0.974
 3144SOL    HW110331   2.179   3.635   0.941
 3144SOL    HW210332   2.216   3.730   1.068
 3145SOL     OW10333   2.911   5.718   2.858
 3145SOL    HW110334   2.988   5.760   2.811
 3145SOL    HW210335   2.945   5.643   2.916
 3146SOL     OW10336   1.343   6.716   3.000
 3146SOL    HW110337   1.318   6.738   3.094
 3146SOL    HW210338   1.415   6.778   2.968
 3147SOL     OW10339   3.982   5.288   0.251
 3147SOL    HW110340   3.997   5.192   0.274
 3147SOL    HW210341   3.935   5.294   0.163
 3148SOL     OW10342   4.180   5.208   4.145
 3148SOL    HW110343   4.241   5.269   4.196
 3148SOL    HW210344   4.113   5.169   4.208
 3149SOL     OW10345   3.273   0.868   5.496
 3149SOL    HW110346   3.211   0.843   5.571
 3149SOL    HW210347   3.268   0.798   5.424
 3150SOL     OW10348   5.315   6.015   4.421
 3150SOL    HW110349   5.258   5.986   4.344
 3150SOL    HW210350   5.402   5.964   4.419
 3151SOL     OW10351   4.429   1.394   6.552
 3151SOL    HW110352   4.441   1.322   6.620
 3151SOL    HW210353   4.480   1.372   6.470
 3152SOL     OW10354   0.506   5.128   1.683
 3152SOL    HW110355   0.492   5.223   1.712
 3152SOL    HW210356   0.604   5.109   1.677
 3153SOL     OW10357   5.939   4.092   1.512
 3153SOL    HW110358   5.960   4.123   1.605
 3153SOL    HW210359   5.930   4.171   1.452
 3154SOL     OW10360   6.398   2.200   0.225
 3154SOL    HW110361   6.379   2.291   0.262
 3154SOL    HW210362   6.364   2.195   0.131
 3155SOL     OW10363   0.342   4.621   1.381
 3155SOL    HW110364   0.377   4.565   1.306
 3155SOL    HW210365   0.245   4.601   1.394
 3156SOL     OW10366   3.776   3.653   3.675
 3156SOL    HW110367   3.685   3.648   3.632
 3156SOL    HW210368   3.805   3.561   3.702
 3157SOL     OW10369   2.174   3.396   4.624
 3157SOL    HW110370   2.164   3.441   4.713
 3157SOL    HW210371   2.127   3.448   4.554
 3158SOL     OW10372   5.167   6.848   1.513
 3158SOL    HW110373   5.208   6.904   1.585
 3158SOL    HW210374   5.073   6.879   1.497
 3159SOL     OW10375   4.857   6.140   6.304
 3159SOL    HW110376   4.869   6.226   6.354
 3159SOL    HW210377   4.930   6.131   6.237
 3160SOL     OW10378   6.318   4.258   6.430
 3160SOL    HW110379   6.240   4.196   6.422
 3160SOL    HW210380   6.403   4.207   6.421
 3161SOL     OW10381   1.641   1.043   3.073
 3161SOL    HW110382   1.735   1.062   3.104
 3161SOL    HW210383   1.623   1.093   2.989
 3162SOL     OW10384   6.968   5.330   7.022
 3162SOL    HW110385   0.008   5.404   7.010
 3162SOL    HW210386   6.903   5.330   6.946
 3163SOL     OW10387   3.863   2.832   6.741
 3163SOL    HW110388   3.949   2.791   6.774
 3163SOL    HW210389   3.803   2.760   6.706
 3164SOL     OW10390   5.126   4.522   1.541
 3164SOL    HW110391   5.178   4.562   1.616
 3164SOL    HW210392   5.037   4.491   1.575
 3165SOL     OW10393   0.720   6.991   2.009
 3165SOL    HW110394   0.684   6.952   1.924
 3165SOL    HW210395   0.787   0.037   1.986
 3166SOL     OW10396   4.848   2.831   6.388
 3166SOL    HW110397   4.793   2.885   6.452
 3166SOL    HW210398   4.904   2.891   6.333
 3167SOL     OW10399   0.221   4.517   1.972
 3167SOL    HW110400   0.279   4.598   1.973
 3167SOL    HW210401   0.159   4.522   1.894
 3168SOL     OW10402   5.634   3.077   0.890
 3168SOL    HW110403   5.697   3.004   0.917
 3168SOL    HW210404   5.544   3.059   0.931
 3169SOL     OW10405   0.775   3.434   5.667
 3169SOL    HW110406   0.708   3.434   5.742
 3169SOL    HW210407   0.730   3.403   5.583
 3170SOL     OW10408   4.592   0.504   0.302
 3170SOL    HW110409   4.568   0.504   0.399
 3170SOL    HW210410   4.632   0.416   0.276
 3171SOL     OW10411   6.437   0.024   1.792
 3171SOL    HW110412   6.343   0.024   1.759
 3171SOL    HW210413   6.460   0.116   1.824
 3172SOL     OW10414   6.428   6.270   5.076
 3172SOL    HW110415   6.493   6.338   5.043
 3172SOL    HW210416   6.478   6.189   5.108
 3173SOL     OW10417   1.954   0.065   2.296
 3173SOL    HW110418   1.966   7.014   2.359
 3173SOL    HW210419   2.039   0.083   2.247
 3174SOL     OW10420   2.896   2.899   5.846
 3174SOL    HW110421   2.928   2.824   5.904
 3174SOL    HW210422   2.883   2.866   5.753
 3175SOL     OW10423   0.887   6.110   6.890
 3175SOL    HW110424   0.898   6.025   6.838
 3175SOL    HW210425   0.794   6.143   6.881
 3176SOL     OW10426   1.443   4.731   6.236
 3176SOL    HW110427   1.489   4.676   6.166
 3176SOL    HW210428   1.498   4.731   6.320
 3177SOL     OW10429   5.715   4.658   5.585
 3177SOL    HW110430   5.715   4.713   5.502
 3177SOL    HW210431   5.791   4.592   5.581
 3178SOL     OW10432   0.800   4.008   1.738
 3178SOL    HW110433   0.834   4.090   1.692
 3178SOL    HW210434   0.789   3.934   1.672
 3179SOL     OW10435   1.976   2.253   2.344
 3179SOL    HW110436   1.937   2.303   2.267
 3179SOL    HW210437   1.902   2.215   2.400
 3180SOL     OW10438   4.827   1.021   5.480
 3180SOL    HW110439   4.892   0.993   5.551
 3180SOL    HW210440   4.831   0.956   5.403
 3181SOL     OW10441   0.423   0.702   3.539
 3181SOL    HW110442   0.358   0.630   3.564
 3181SOL    HW210443   0.448   0.691   3.443
 3182SOL     OW10444   0.362   0.388   5.718
 3182SOL    HW110445   0.366   0.366   5.815
 3182SOL    HW210446   0.273   0.429   5.696
 3183SOL     OW10447   4.167   5.109   1.484
 3183SOL    HW110448   4.130   5.132   1.574
 3183SOL    HW210449   4.099   5.129   1.414
 3184SOL     OW10450   2.302   1.649   2.375
 3184SOL    HW110451   2.207   1.624   2.355
 3184SOL    HW210452   2.304   1.712   2.452
 3185SOL     OW10453   0.188   7.018   5.163
 3185SOL    HW110454   0.094   6.986   5.146
 3185SOL    HW210455   0.252   6.943   5.144
 3186SOL     OW10456   3.581   1.098   2.496
 3186SOL    HW110457   3.495   1.046   2.495
 3186SOL    HW210458   3.640   1.065   2.422
 3187SOL     OW10459   3.972   3.923   6.673
 3187SOL    HW110460   3.997   3.868   6.592
 3187SOL    HW210461   3.976   3.865   6.754
 3188SOL     OW10462   3.404   5.628   2.934
 3188SOL    HW110463   3.503   5.618   2.936
 3188SOL    HW210464   3.367   5.588   2.850
 3189SOL     OW10465   1.078   0.709   3.388
 3189SOL    HW110466   1.103   0.784   3.450
 3189SOL    HW210467   1.039   0.634   3.442
 3190SOL     OW10468   1.484   6.104   1.729
 3190SOL    HW110469   1.478   6.136   1.823
 3190SOL    HW210470   1.410   6.146   1.675
 3191SOL     OW10471   3.998   0.713   1.275
 3191SOL    HW110472   3.926   0.654   1.310
 3191SOL    HW210473   4.074   0.716   1.341
 3192SOL     OW10474   0.761   2.320   1.675
 3192SOL    HW110475   0.669   2.293   1.646
 3192SOL    HW210476   0.829   2.279   1.613
 3193SOL     OW10477   4.725   2.232   6.542
 3193SOL    HW110478   4.786   2.153   6.535
 3193SOL    HW210479   4.635   2.208   6.507
 3194SOL     OW10480   1.709   3.973   6.640
 3194SOL    HW110481   1.797   3.994   6.682
 3194SOL    HW210482   1.721   3.954   6.543
 3195SOL     OW10483   1.200   3.029   3.820
 3195SOL    HW110484   1.203   2.968   3.900
 3195SOL    HW210485   1.209   3.124   3.849
 3196SOL     OW10486   0.114   0.205   4.668
 3196SOL    HW110487   0.169   0.125   4.641
 3196SOL    HW210488   0.136   0.229   4.763
 3197SOL     OW10489   1.374   6.047   3.194
 3197SOL    HW110490   1.369   6.137   3.151
 3197SOL    HW210491   1.442   6.049   3.267
 3198SOL     OW10492   0.012   1.776   6.100
 3198SOL    HW110493   7.025   1.800   6.196
 3198SOL    HW210494   0.032   1.858   6.047
 3199SOL     OW10495   5.054   1.522   1.835
 3199SOL    HW110496   4.987   1.450   1.854
 3199SOL    HW210497   5.080   1.519   1.739
 3200SOL     OW10498   0.120   2.113   0.668
 3200SOL    HW110499   0.201   2.088   0.615
 3200SOL    HW210500   0.044   2.134   0.605
 3201SOL     OW10501   5.583   3.958   3.729
 3201SOL    HW110502   5.497   3.935   3.684
 3201SOL    HW210503   5.592   3.903   3.813
 3202SOL     OW10504   1.880   4.832   1.891
 3202SOL    HW110505   1.883   4.867   1.797
 3202SOL    HW210506   1.932   4.747   1.896
 3203SOL     OW10507   7.012   1.147   1.127
 3203SOL    HW110508   0.021   1.169   1.036
 3203SOL    HW210509   0.054   1.173   1.196
 3204SOL     OW10510   6.543   5.837   1.664
 3204SOL    HW110511   6.540   5.865   1.761
 3204SOL    HW210512   6.608   5.762   1.653
 3205SOL     OW10513   6.676   3.994   5.678
 3205SOL    HW110514   6.585   4.025   5.708
 3205SOL    HW210515   6.731   3.971   5.758
 3206SOL     OW10516   0.549   6.724   5.624
 3206SOL    HW110517   0.628   6.663   5.619
 3206SOL    HW210518   0.475   6.688   5.568
 3207SOL     OW10519   0.955   1.037   4.949
 3207SOL    HW110520   0.863   1.053   4.913
 3207SOL    HW210521   0.992   1.122   4.986
 3208SOL     OW10522   4.457   5.477   4.673
 3208SOL    HW110523   4.393   5.404   4.648
 3208SOL    HW210524   4.429   5.562   4.628
 3209SOL     OW10525   2.888   0.058   3.632
 3209SOL    HW110526   2.788   0.060   3.639
 3209SOL    HW210527   2.915   7.017   3.561
 3210SOL     OW10528   0.144   4.210   2.776
 3210SOL    HW110529   0.151   4.156   2.860
 3210SOL    HW210530   0.173   4.304   2.794
 3211SOL     OW10531   2.261   4.575   1.277
 3211SOL    HW110532   2.339   4.591   1.336
 3211SOL    HW210533   2.216   4.489   1.302
 3212SOL     OW10534   4.450   2.477   6.689
 3212SOL    HW110535   4.389   2.538   6.738
 3212SOL    HW210536   4.525   2.530   6.650
 3213SOL     OW10537   5.977   5.899   3.028
 3213SOL    HW110538   5.957   5.958   3.106
 3213SOL    HW210539   5.935   5.937   2.946
 3214SOL     OW10540   4.323   6.329   6.865
 3214SOL    HW110541   4.279   6.286   6.786
 3214SOL    HW210542   4.330   6.427   6.850
 3215SOL     OW10543   6.745   2.714   6.943
 3215SOL    HW110544   6.723   2.658   6.863
 3215SOL    HW210545   6.679   2.693   7.016
 3216SOL     OW10546   5.450   6.690   3.899
 3216SOL    HW110547   5.515   6.689   3.975
 3216SOL    HW210548   5.416   6.598   3.882
 3217SOL     OW10549   0.416   4.137   2.586
 3217SOL    HW110550   0.377   4.227   2.566
 3217SOL    HW210551   0.365   4.094   2.661
 3218SOL     OW10552   3.829   6.957   2.874
 3218SOL    HW110553   3.865   0.025   2.872
 3218SOL    HW210554   3.733   6.960   2.904
 3219SOL     OW10555   0.274   0.140   3.018
 3219SOL    HW110556   0.185   0.104   2.991
 3219SOL    HW210557   0.275   0.239   3.006
 3220SOL     OW10558   0.028   5.064   5.015
 3220SOL    HW110559   7.005   5.048   4.930
 3220SOL    HW210560   0.097   4.993   5.028
 3221SOL     OW10561   2.363   0.053   3.682
 3221SOL    HW110562   2.389   0.080   3.775
 3221SOL    HW210563   2.330   6.984   3.684
 3222SOL     OW10564   5.160   1.638   2.727
 3222SOL    HW110565   5.172   1.725   2.775
 3222SOL    HW210566   5.090   1.584   2.774
 3223SOL     OW10567   2.565   5.162   5.711
 3223SOL    HW110568   2.623   5.201   5.640
 3223SOL    HW210569   2.621   5.133   5.789
 3224SOL     OW10570   3.999   5.630   0.071
 3224SOL    HW110571   3.976   5.641   0.168
 3224SOL    HW210572   3.915   5.622   0.017
 3225SOL     OW10573   3.589   3.124   0.337
 3225SOL    HW110574   3.529   3.171   0.401
 3225SOL    HW210575   3.607   3.031   0.370
 3226SOL     OW10576   2.120   0.812   4.242
 3226SOL    HW110577   2.090   0.744   4.308
 3226SOL    HW210578   2.218   0.801   4.224
 3227SOL     OW10579   3.669   1.720   6.002
 3227SOL    HW110580   3.768   1.708   5.996
 3227SOL    HW210581   3.647   1.786   6.073
 3228SOL     OW10582   5.374   3.538   3.993
 3228SOL    HW110583   5.303   3.606   4.012
 3228SOL    HW210584   5.402   3.495   4.079
 3229SOL     OW10585   4.049   1.939   5.746
 3229SOL    HW110586   3.987   1.878   5.698
 3229SOL    HW210587   3.999   1.989   5.816
 3230SOL     OW10588   0.441   0.761   2.942
 3230SOL    HW110589   0.516   0.796   2.885
 3230SOL    HW210590   0.376   0.712   2.884
 3231SOL     OW10591   5.481   5.910   0.876
 3231SOL    HW110592   5.429   5.959   0.806
 3231SOL    HW210593   5.578   5.929   0.866
 3232SOL     OW10594   2.643   5.243   4.633
 3232SOL    HW110595   2.636   5.153   4.676
 3232SOL    HW210596   2.666   5.232   4.536
 3233SOL     OW10597   0.504   3.656   1.470
 3233SOL    HW110598   0.441   3.654   1.393
 3233SOL    HW210599   0.556   3.570   1.472
 3234SOL     OW10600   0.081   2.083   6.804
 3234SOL    HW110601   0.167   2.093   6.754
 3234SOL    HW210602   0.006   2.116   6.747
 3235SOL     OW10603   5.788   6.880   2.983
 3235SOL    HW110604   5.757   6.974   2.996
 3235SOL    HW210605   5.744   6.820   3.050
 3236SOL     OW10606   1.026   2.848   2.870
 3236SOL    HW110607   0.960   2.791   2.822
 3236SOL    HW210608   1.081   2.791   2.932
 3237SOL     OW10609   3.800   6.378   4.922
 3237SOL    HW110610   3.857   6.312   4.971
 3237SOL    HW210611   3.756   6.333   4.843
 3238SOL     OW10612   0.090   5.879   6.165
 3238SOL    HW110613   0.151   5.942   6.115
 3238SOL    HW210614   0.053   5.925   6.245
 3239SOL     OW10615   6.290   0.418   5.739
 3239SOL    HW110616   6.303   0.466   5.826
 3239SOL    HW210617   6.356   0.453   5.672
 3240SOL     OW10618   1.164   0.401   4.435
 3240SOL    HW110619   1.113   0.332   4.384
 3240SOL    HW210620   1.147   0.389   4.533
 3241SOL     OW10621   4.887   0.896   3.895
 3241SOL    HW110622   4.791   0.916   3.916
 3241SOL    HW210623   4.916   0.950   3.816
 3242SOL     OW10624   3.870   6.119   6.553
 3242SOL    HW110625   3.902   6.030   6.519
 3242SOL    HW210626   3.830   6.171   6.478
 3243SOL     OW10627   4.297   5.139   0.086
 3243SOL    HW110628   4.247   5.225   0.079
 3243SOL    HW210629   4.365   5.135   0.013
 3244SOL     OW10630   3.484   5.909   5.808
 3244SOL    HW110631   3.405   5.912   5.869
 3244SOL    HW210632   3.567   5.925   5.860
 3245SOL     OW10633   3.933   2.571   6.463
 3245SOL    HW110634   3.863   2.557   6.533
 3245SOL    HW210635   4.013   2.514   6.484
 3246SOL     OW10636   5.464   6.408   2.978
 3246SOL    HW110637   5.443   6.353   3.058
 3246SOL    HW210638   5.485   6.502   3.006
 3247SOL     OW10639   6.691   2.857   3.505
 3247SOL    HW110640   6.645   2.779   3.546
 3247SOL    HW210641   6.623   2.918   3.464
 3248SOL     OW10642   6.261   2.929   1.900
 3248SOL    HW110643   6.341   2.989   1.907
 3248SOL    HW210644   6.279   2.857   1.832
 3249SOL     OW10645   2.990   5.044   4.905
 3249SOL    HW110646   2.911   5.051   4.844
 3249SOL    HW210647   3.004   4.948   4.930
 3250SOL     OW10648   4.506   6.917   2.565
 3250SOL    HW110649   4.561   6.963   2.495
 3250SOL    HW210650   4.546   6.828   2.586
 3251SOL     OW10651   3.473   2.105   2.706
 3251SOL    HW110652   3.556   2.084   2.655
 3251SOL    HW210653   3.477   2.062   2.796
 3252SOL     OW10654   2.944   1.055   2.663
 3252SOL    HW110655   2.851   1.034   2.693
 3252SOL    HW210656   2.940   1.109   2.578
 3253SOL     OW10657   5.265   3.009   1.659
 3253SOL    HW110658   5.208   3.089   1.643
 3253SOL    HW210659   5.271   2.955   1.574
 3254SOL     OW10660   4.211   4.710   3.459
 3254SOL    HW110661   4.177   4.617   3.477
 3254SOL    HW210662   4.140   4.763   3.413
 3255SOL     OW10663   4.153   5.850   0.335
 3255SOL    HW110664   4.170   5.762   0.380
 3255SOL    HW210665   4.088   5.903   0.389
 3256SOL     OW10666   5.099   6.899   5.914
 3256SOL    HW110667   5.091   6.985   5.864
 3256SOL    HW210668   5.195   6.870   5.915
 3257SOL     OW10669   1.361   2.122   0.970
 3257SOL    HW110670   1.423   2.151   0.896
 3257SOL    HW210671   1.388   2.032   1.002
 3258SOL     OW10672   5.383   6.658   1.483
 3258SOL    HW110673   5.472   6.697   1.460
 3258SOL    HW210674   5.314   6.730   1.484
 3259SOL     OW10675   4.172   6.020   4.475
 3259SOL    HW110676   4.189   6.110   4.517
 3259SOL    HW210677   4.075   5.996   4.488
 3260SOL     OW10678   2.071   1.708   6.983
 3260SOL    HW110679   2.082   1.738   6.888
 3260SOL    HW210680   2.063   1.608   6.986
 3261SOL     OW10681   4.655   6.568   0.772
 3261SOL    HW110682   4.652   6.642   0.705
 3261SOL    HW210683   4.631   6.604   0.863
 3262SOL     OW10684   3.644   1.813   2.617
 3262SOL    HW110685   3.698   1.838   2.697
 3262SOL    HW210686   3.620   1.895   2.566
 3263SOL     OW10687   4.632   6.841   1.711
 3263SOL    HW110688   4.715   6.792   1.685
 3263SOL    HW210689   4.609   6.907   1.639
 3264SOL     OW10690   6.791   5.108   0.024
 3264SOL    HW110691   6.801   5.109   6.950
 3264SOL    HW210692   6.850   5.178   0.065
 3265SOL     OW10693   5.033   1.312   6.474
 3265SOL    HW110694   5.026   1.387   6.540
 3265SOL    HW210695   4.968   1.328   6.400
 3266SOL     OW10696   0.602   2.190   6.389
 3266SOL    HW110697   0.659   2.215   6.310
 3266SOL    HW210698   0.613   2.092   6.408
 3267SOL     OW10699   3.418   1.692   0.991
 3267SOL    HW110700   3.363   1.758   1.041
 3267SOL    HW210701   3.449   1.733   0.905
 3268SOL     OW10702   0.832   3.917   6.622
 3268SOL    HW110703   0.806   3.892   6.529
 3268SOL    HW210704   0.883   4.003   6.620
 3269SOL     OW10705   4.368   4.429   0.934
 3269SOL    HW110706   4.394   4.420   1.030
 3269SOL    HW210707   4.411   4.356   0.881
 3270SOL     OW10708   0.594   5.552   4.018
 3270SOL    HW110709   0.691   5.534   4.035
 3270SOL    HW210710   0.583   5.645   3.984
 3271SOL     OW10711   6.258   2.385   1.241
 3271SOL    HW110712   6.271   2.288   1.257
 3271SOL    HW210713   6.300   2.411   1.154
 3272SOL     OW10714   3.715   0.476   0.731
 3272SOL    HW110715   3.622   0.478   0.694
 3272SOL    HW210716   3.733   0.560   0.782
 3273SOL     OW10717   0.628   6.620   2.466
 3273SOL    HW110718   0.635   6.603   2.368
 3273SOL    HW210719   0.602   6.715   2.482
 3274SOL     OW10720   2.374   2.139   5.607
 3274SOL    HW110721   2.435   2.150   5.685
 3274SOL    HW210722   2.404   2.198   5.532
 3275SOL     OW10723   2.088   0.407   0.159
 3275SOL    HW110724   2.139   0.422   0.244
 3275SOL    HW210725   2.144   0.356   0.094
 3276SOL     OW10726   3.193   5.866   6.278
 3276SOL    HW110727   3.271   5.817   6.318
 3276SOL    HW210728   3.136   5.903   6.351
 3277SOL     OW10729   0.237   6.081   5.316
 3277SOL    HW110730   0.244   6.178   5.293
 3277SOL    HW210731   0.309   6.030   5.269
 3278SOL     OW10732   1.229   0.820   6.062
 3278SOL    HW110733   1.215   0.919   6.069
 3278SOL    HW210734   1.148   0.778   6.021
 3279SOL     OW10735   0.407   6.857   0.936
 3279SOL    HW110736   0.368   6.771   0.904
 3279SOL    HW210737   0.507   6.853   0.931
 3280SOL     OW10738   2.244   5.067   5.978
 3280SOL    HW110739   2.249   5.166   5.962
 3280SOL    HW210740   2.304   5.043   6.054
 3281SOL     OW10741   2.518   5.644   6.919
 3281SOL    HW110742   2.553   5.650   6.825
 3281SOL    HW210743   2.498   5.548   6.941
 3282SOL     OW10744   2.896   5.301   3.759
 3282SOL    HW110745   2.898   5.209   3.799
 3282SOL    HW210746   2.802   5.336   3.762
 3283SOL     OW10747   2.845   0.707   3.407
 3283SOL    HW110748   2.797   0.623   3.381
 3283SOL    HW210749   2.859   0.763   3.325
 3284SOL     OW10750   6.826   5.400   6.794
 3284SOL    HW110751   6.763   5.400   6.716
 3284SOL    HW210752   6.786   5.454   6.868
 3285SOL     OW10753   0.591   2.084   3.058
 3285SOL    HW110754   0.667   2.073   3.123
 3285SOL    HW210755   0.519   2.138   3.101
 3286SOL     OW10756   3.261   3.723   4.805
 3286SOL    HW110757   3.322   3.718   4.884
 3286SOL    HW210758   3.250   3.819   4.778
 3287SOL     OW10759   1.864   5.605   0.257
 3287SOL    HW110760   1.935   5.659   0.211
 3287SOL    HW210761   1.818   5.548   0.190
 3288SOL     OW10762   0.723   5.872   6.281
 3288SOL    HW110763   0.742   5.933   6.358
 3288SOL    HW210764   0.680   5.925   6.207
 3289SOL     OW10765   0.911   6.579   5.373
 3289SOL    HW110766   0.833   6.549   5.317
 3289SOL    HW210767   0.996   6.554   5.327
 3290SOL     OW10768   6.480   5.214   1.518
 3290SOL    HW110769   6.512   5.290   1.461
 3290SOL    HW210770   6.403   5.169   1.473
 3291SOL     OW10771   1.665   6.000   6.893
 3291SOL    HW110772   1.651   5.964   6.985
 3291SOL    HW210773   1.731   6.075   6.896
 3292SOL     OW10774   6.859   6.956   5.880
 3292SOL    HW110775   6.781   6.909   5.839
 3292SOL    HW210776   6.863   6.937   5.978
 3293SOL     OW10777   6.696   1.184   2.890
 3293SOL    HW110778   6.607   1.166   2.934
 3293SOL    HW210779   6.710   1.283   2.884
 3294SOL     OW10780   6.950   0.613   6.173
 3294SOL    HW110781   6.966   0.515   6.183
 3294SOL    HW210782   6.852   0.631   6.178
 3295SOL     OW10783   1.966   3.083   0.989
 3295SOL    HW110784   1.890   3.076   0.925
 3295SOL    HW210785   1.993   3.179   0.998
 3296SOL     OW10786   2.178   6.340   2.488
 3296SOL    HW110787   2.212   6.428   2.457
 3296SOL    HW210788   2.133   6.350   2.577
 3297SOL     OW10789   3.101   2.436   6.004
 3297SOL    HW110790   3.182   2.442   5.945
 3297SOL    HW210791   3.028   2.388   5.955
 3298SOL     OW10792   6.800   3.379   2.689
 3298SOL    HW110793   6.845   3.298   2.727
 3298SOL    HW210794   6.717   3.399   2.741
 3299SOL     OW10795   1.973   0.048   5.162
 3299SOL    HW110796   1.983   6.996   5.226
 3299SOL    HW210797   1.883   0.044   5.119
 3300SOL     OW10798   6.312   6.679   4.849
 3300SOL    HW110799   6.339   6.583   4.861
 3300SOL    HW210800   6.224   6.694   4.893
 3301SOL     OW10801   0.497   3.499   3.247
 3301SOL    HW110802   0.443   3.576   3.213
 3301SOL    HW210803   0.535   3.448   3.170
 3302SOL     OW10804   1.263   4.718   3.619
 3302SOL    HW110805   1.232   4.810   3.642
 3302SOL    HW210806   1.349   4.724   3.568
 3303SOL     OW10807   3.861   4.028   3.922
 3303SOL    HW110808   3.899   3.938   3.904
 3303SOL    HW210809   3.885   4.058   4.015
 3304SOL     OW10810   0.912   6.504   4.324
 3304SOL    HW110811   0.895   6.579   4.260
 3304SOL    HW210812   0.825   6.476   4.366
 3305SOL     OW10813   1.867   1.257   2.258
 3305SOL    HW110814   1.801   1.202   2.309
 3305SOL    HW210815   1.824   1.292   2.175
 3306SOL     OW10816   2.224   4.119   3.628
 3306SOL    HW110817   2.144   4.156   3.676
 3306SOL    HW210818   2.287   4.194   3.606
 3307SOL     OW10819   6.446   5.777   0.625
 3307SOL    HW110820   6.397   5.782   0.538
 3307SOL    HW210821   6.514   5.704   0.622
 3308SOL     OW10822   4.812   6.081   0.736
 3308SOL    HW110823   4.897   6.133   0.724
 3308SOL    HW210824   4.784   6.085   0.831
 3309SOL     OW10825   0.406   5.014   3.281
 3309SOL    HW110826   0.444   4.923   3.264
 3309SOL    HW210827   0.468   5.084   3.244
 3310SOL     OW10828   0.618   5.074   2.816
 3310SOL    HW110829   0.601   5.012   2.739
 3310SOL    HW210830   0.707   5.118   2.803
 3311SOL     OW10831   4.408   6.960   1.197
 3311SOL    HW110832   4.459   6.910   1.267
 3311SOL    HW210833   4.359   6.895   1.139
 3312SOL     OW10834   3.462   3.450   6.148
 3312SOL    HW110835   3.442   3.359   6.182
 3312SOL    HW210836   3.396   3.516   6.184
 3313SOL     OW10837   0.318   5.029   3.871
 3313SOL    HW110838   0.330   5.112   3.817
 3313SOL    HW210839   0.386   5.027   3.945
 3314SOL     OW10840   1.945   3.498   5.347
 3314SOL    HW110841   1.998   3.414   5.338
 3314SOL    HW210842   1.848   3.475   5.355
 3315SOL     OW10843   0.008   1.776   3.941
 3315SOL    HW110844   0.079   1.778   3.871
 3315SOL    HW210845   0.025   1.701   4.004
 3316SOL     OW10846   4.938   2.085   6.420
 3316SOL    HW110847   4.922   2.066   6.323
 3316SOL    HW210848   5.031   2.119   6.432
 3317SOL     OW10849   4.376   2.455   1.054
 3317SOL    HW110850   4.354   2.506   1.138
 3317SOL    HW210851   4.408   2.519   0.984
 3318SOL     OW10852   2.485   5.838   5.216
 3318SOL    HW110853   2.562   5.775   5.221
 3318SOL    HW210854   2.409   5.802   5.270
 3319SOL     OW10855   0.871   6.043   4.399
 3319SOL    HW110856   0.930   6.013   4.474
 3319SOL    HW210857   0.924   6.101   4.336
 3320SOL     OW10858   5.990   1.038   5.433
 3320SOL    HW110859   6.000   1.003   5.339
 3320SOL    HW210860   5.990   0.961   5.497
 3321SOL     OW10861   3.139   3.250   3.175
 3321SOL    HW110862   3.191   3.168   3.198
 3321SOL    HW210863   3.079   3.274   3.252
 3322SOL     OW10864   4.135   1.953   0.836
 3322SOL    HW110865   4.076   2.027   0.804
 3322SOL    HW210866   4.228   1.988   0.848
 3323SOL     OW10867   2.233   4.923   0.092
 3323SOL    HW110868   2.210   4.943   0.188
 3323SOL    HW210869   2.266   4.829   0.084
 3324SOL     OW10870   0.893   3.394   0.305
 3324SOL    HW110871   0.937   3.449   0.234
 3324SOL    HW210872   0.798   3.422   0.315
 3325SOL     OW10873   1.357   2.625   1.127
 3325SOL    HW110874   1.371   2.527   1.137
 3325SOL    HW210875   1.444   2.671   1.113
 3326SOL     OW10876   6.560   1.620   0.813
 3326SOL    HW110877   6.482   1.558   0.825
 3326SOL    HW210878   6.540   1.685   0.740
 3327SOL     OW10879   3.154   6.501   2.234
 3327SOL    HW110880   3.208   6.574   2.277
 3327SOL    HW210881   3.148   6.423   2.295
 3328SOL     OW10882   4.953   0.842   2.189
 3328SOL    HW110883   4.898   0.771   2.232
 3328SOL    HW210884   4.916   0.932   2.214
 3329SOL     OW10885   4.831   0.838   5.263
 3329SOL    HW110886   4.755   0.775   5.278
 3329SOL    HW210887   4.902   0.792   5.210
 3330SOL     OW10888   5.968   6.378   2.284
 3330SOL    HW110889   6.045   6.415   2.232
 3330SOL    HW210890   5.995   6.366   2.380
 3331SOL     OW10891   2.063   3.350   2.787
 3331SOL    HW110892   2.112   3.287   2.848
 3331SOL    HW210893   2.128   3.390   2.722
 3332SOL     OW10894   4.218   5.356   0.394
 3332SOL    HW110895   4.134   5.349   0.340
 3332SOL    HW210896   4.217   5.442   0.446
 3333SOL     OW10897   3.988   3.747   1.618
 3333SOL    HW110898   3.940   3.822   1.663
 3333SOL    HW210899   3.979   3.758   1.519
 3334SOL     OW10900   1.850   2.333   2.787
 3334SOL    HW110901   1.828   2.347   2.883
 3334SOL    HW210902   1.839   2.419   2.737
 3335SOL     OW10903   3.778   4.180   5.093
 3335SOL    HW110904   3.831   4.098   5.073
 3335SOL    HW210905   3.683   4.154   5.114
 3336SOL     OW10906   4.106   6.299   3.515
 3336SOL    HW110907   4.158   6.367   3.464
 3336SOL    HW210908   4.166   6.221   3.535
 3337SOL     OW10909   3.207   3.948   3.131
 3337SOL    HW110910   3.126   3.931   3.075
 3337SOL    HW210911   3.257   3.862   3.143
 3338SOL     OW10912   1.929   1.227   1.941
 3338SOL    HW110913   1.904   1.318   1.907
 3338SOL    HW210914   2.014   1.198   1.897
 3339SOL     OW10915   2.422   0.614   5.915
 3339SOL    HW110916   2.489   0.594   5.843
 3339SOL    HW210917   2.447   0.564   5.998
 3340SOL     OW10918   4.229   1.181   4.137
 3340SOL    HW110919   4.131   1.170   4.149
 3340SOL    HW210920   4.264   1.104   4.082
 3341SOL     OW10921   2.659   4.677   2.899
 3341SOL    HW110922   2.736   4.717   2.849
 3341SOL    HW210923   2.688   4.658   2.993
 3342SOL     OW10924   6.485   0.138   3.063
 3342SOL    HW110925   6.549   0.108   3.133
 3342SOL    HW210926   6.480   0.069   2.990
 3343SOL     OW10927   4.933   5.489   6.457
 3343SOL    HW110928   4.940   5.564   6.390
 3343SOL    HW210929   4.901   5.526   6.544
 3344SOL     OW10930   6.957   2.771   1.674
 3344SOL    HW110931   6.933   2.868   1.667
 3344SOL    HW210932   0.014   2.762   1.731
 3345SOL     OW10933   6.982   4.994   0.611
 3345SOL    HW110934   6.952   4.909   0.653
 3345SOL    HW210935   6.924   5.015   0.532
 3346SOL     OW10936   1.734   1.165   6.973
 3346SOL    HW110937   1.780   1.077   6.975
 3346SOL    HW210938   1.786   1.231   0.003
 3347SOL     OW10939   0.876   3.116   5.990
 3347SOL    HW110940   0.907   3.206   6.021
 3347SOL    HW210941   0.806   3.082   6.053
 3348SOL     OW10942   3.901   3.921   6.054
 3348SOL    HW110943   3.870   4.013   6.032
 3348SOL    HW210944   3.997   3.924   6.082
 3349SOL     OW10945   2.882   4.791   3.682
 3349SOL    HW110946   2.972   4.824   3.655
 3349SOL    HW210947   2.847   4.729   3.612
 3350SOL     OW10948   0.179   4.060   5.336
 3350SOL    HW110949   0.224   3.984   5.382
 3350SOL    HW210950   0.249   4.127   5.307
 3351SOL     OW10951   5.312   1.270   0.755
 3351SOL    HW110952   5.399   1.265   0.706
 3351SOL    HW210953   5.271   1.361   0.742
 3352SOL     OW10954   5.024   2.984   6.253
 3352SOL    HW110955   4.983   3.070   6.223
 3352SOL    HW210956   5.107   3.004   6.305
 3353SOL     OW10957   2.870   1.085   1.806
 3353SOL    HW110958   2.827   1.161   1.758
 3353SOL    HW210959   2.949   1.053   1.754
 3354SOL     OW10960   3.598   2.849   5.951
 3354SOL    HW110961   3.697   2.839   5.963
 3354SOL    HW210962   3.552   2.834   6.039
 3355SOL     OW10963   2.341   0.633   4.863
 3355SOL    HW110964   2.408   0.668   4.928
 3355SOL    HW210965   2.361   0.538   4.841
 3356SOL     OW10966   1.531   6.899   5.515
 3356SOL    HW110967   1.555   6.816   5.466
 3356SOL    HW210968   1.442   6.888   5.559
 3357SOL     OW10969   3.553   3.343   1.628
 3357SOL    HW110970   3.647   3.330   1.661
 3357SOL    HW210971   3.549   3.426   1.571
 3358SOL     OW10972   6.204   0.657   2.642
 3358SOL    HW110973   6.136   0.667   2.715
 3358SOL    HW210974   6.229   0.748   2.608
 3359SOL     OW10975   6.542   5.425   3.932
 3359SOL    HW110976   6.628   5.475   3.927
 3359SOL    HW210977   6.554   5.344   3.990
 3360SOL     OW10978   0.066   2.926   5.534
 3360SOL    HW110979   0.102   2.860   5.468
 3360SOL    HW210980   0.038   3.009   5.487
 3361SOL     OW10981   0.214   0.440   4.553
 3361SOL    HW110982   0.161   0.378   4.611
 3361SOL    HW210983   0.174   0.441   4.461
 3362SOL     OW10984   3.693   1.570   4.149
 3362SOL    HW110985   3.759   1.494   4.143
 3362SOL    HW210986   3.741   1.656   4.134
 3363SOL     OW10987   5.901   3.371   1.422
 3363SOL    HW110988   5.831   3.366   1.493
 3363SOL    HW210989   5.961   3.292   1.430
 3364SOL     OW10990   2.046   4.475   2.977
 3364SOL    HW110991   2.070   4.378   2.974
 3364SOL    HW210992   1.999   4.495   3.063
 3365SOL     OW10993   2.018   3.516   4.153
 3365SOL    HW110994   2.109   3.480   4.173
 3365SOL    HW210995   1.949   3.457   4.194
 3366SOL     OW10996   6.069   3.646   3.968
 3366SOL    HW110997   6.131   3.573   3.995
 3366SOL    HW210998   5.993   3.652   4.032
 3367SOL     OW10999   3.926   3.114   4.423
 3367SOL    HW111000   3.968   3.130   4.333
 3367SOL    HW211001   3.992   3.137   4.495
 3368SOL     OW11002   1.832   6.013   0.142
 3368SOL    HW111003   1.870   5.994   0.051
 3368SOL    HW211004   1.767   5.940   0.166
 3369SOL     OW11005   4.202   2.721   1.128
 3369SOL    HW111006   4.120   2.776   1.146
 3369SOL    HW211007   4.213   2.653   1.201
 3370SOL     OW11008   0.669   5.566   2.250
 3370SOL    HW111009   0.654   5.475   2.211
 3370SOL    HW211010   0.745   5.562   2.315
 3371SOL     OW11011   2.572   2.480   3.128
 3371SOL    HW111012   2.526   2.560   3.164
 3371SOL    HW211013   2.624   2.436   3.201
 3372SOL     OW11014   6.560   3.143   1.442
 3372SOL    HW111015   6.466   3.149   1.408
 3372SOL    HW211016   6.587   3.047   1.447
 3373SOL     OW11017   0.396   2.282   1.134
 3373SOL    HW111018   0.490   2.310   1.154
 3373SOL    HW211019   0.367   2.215   1.202
 3374SOL     OW11020   0.526   0.388   3.676
 3374SOL    HW111021   0.428   0.385   3.698
 3374SOL    HW211022   0.578   0.407   3.759
 3375SOL     OW11023   6.712   4.903   6.554
 3375SOL    HW111024   6.748   4.833   6.617
 3375SOL    HW211025   6.788   4.949   6.509
 3376SOL     OW11026   2.622   3.506   5.704
 3376SOL    HW111027   2.715   3.531   5.676
 3376SOL    HW211028   2.558   3.575   5.669
 3377SOL     OW11029   5.838   4.554   2.979
 3377SOL    HW111030   5.842   4.461   3.015
 3377SOL    HW211031   5.917   4.605   3.012
 3378SOL     OW11032   1.349   6.438   6.802
 3378SOL    HW111033   1.396   6.522   6.828
 3378SOL    HW211034   1.337   6.381   6.884
 3379SOL     OW11035   0.516   3.912   3.769
 3379SOL    HW111036   0.501   3.942   3.863
 3379SOL    HW211037   0.600   3.857   3.764
 3380SOL     OW11038   3.827   4.176   6.001
 3380SOL    HW111039   3.888   4.235   5.949
 3380SOL    HW211040   3.735   4.179   5.963
 3381SOL     OW11041   1.648   3.501   1.338
 3381SOL    HW111042   1.742   3.513   1.305
 3381SOL    HW211043   1.594   3.582   1.317
 3382SOL     OW11044   0.014   2.206   1.160
 3382SOL    HW111045   6.979   2.264   1.215
 3382SOL    HW211046   7.017   2.217   1.064
 3383SOL     OW11047   5.239   5.126   0.134
 3383SOL    HW111048   5.290   5.187   0.074
 3383SOL    HW211049   5.273   5.134   0.227
 3384SOL     OW11050   2.240   4.533   0.479
 3384SOL    HW111051   2.191   4.457   0.437
 3384SOL    HW211052   2.183   4.576   0.549
 3385SOL     OW11053   0.763   1.990   3.260
 3385SOL    HW111054   0.697   1.923   3.293
 3385SOL    HW211055   0.821   2.019   3.336
 3386SOL     OW11056   6.403   5.035   6.502
 3386SOL    HW111057   6.352   5.112   6.540
 3386SOL    HW211058   6.389   4.954   6.559
 3387SOL     OW11059   6.526   0.243   3.443
 3387SOL    HW111060   6.465   0.164   3.435
 3387SOL    HW211061   6.478   0.326   3.414
 3388SOL     OW11062   6.358   2.856   1.626
 3388SOL    HW111063   6.324   2.944   1.593
 3388SOL    HW211064   6.303   2.782   1.589
 3389SOL     OW11065   6.316   6.015   0.723
 3389SOL    HW111066   6.327   6.020   0.822
 3389SOL    HW211067   6.359   5.931   0.689
 3390SOL     OW11068   4.041   6.529   5.987
 3390SOL    HW111069   3.998   6.613   5.952
 3390SOL    HW211070   3.970   6.464   6.013
 3391SOL     OW11071   5.560   2.709   3.519
 3391SOL    HW111072   5.531   2.619   3.552
 3391SOL    HW211073   5.482   2.756   3.478
 3392SOL     OW11074   4.259   6.975   5.949
 3392SOL    HW111075   4.182   7.010   6.003
 3392SOL    HW211076   4.253   7.012   5.856
 3393SOL     OW11077   5.329   6.584   1.221
 3393SOL    HW111078   5.338   6.649   1.145
 3393SOL    HW211079   5.351   6.630   1.307
 3394SOL     OW11080   2.966   5.697   1.629
 3394SOL    HW111081   3.063   5.717   1.617
 3394SOL    HW211082   2.912   5.780   1.612
 3395SOL     OW11083   3.882   0.271   3.048
 3395SOL    HW111084   3.872   0.342   2.978
 3395SOL    HW211085   3.942   0.305   3.121
 3396SOL     OW11086   4.156   1.824   4.101
 3396SOL    HW111087   4.183   1.915   4.132
 3396SOL    HW211088   4.226   1.788   4.039
 3397SOL     OW11089   2.294   5.824   6.667
 3397SOL    HW111090   2.253   5.822   6.576
 3397SOL    HW211091   2.349   5.742   6.682
 3398SOL     OW11092   7.009   1.938   4.757
 3398SOL    HW111093   6.935   1.982   4.807
 3398SOL    HW211094   6.980   1.919   4.663
 3399SOL     OW11095   0.137   4.940   2.522
 3399SOL    HW111096   0.183   4.907   2.605
 3399SOL    HW211097   0.160   4.880   2.446
 3400SOL     OW11098   5.862   2.290   5.685
 3400SOL    HW111099   5.874   2.342   5.769
 3400SOL    HW211100   5.949   2.282   5.637
 3401SOL     OW11101   6.884   3.584   5.255
 3401SOL    HW111102   6.976   3.545   5.263
 3401SOL    HW211103   6.888   3.683   5.270
 3402SOL     OW11104   6.912   4.272   1.477
 3402SOL    HW111105   6.959   4.184   1.470
 3402SOL    HW211106   6.819   4.257   1.512
 3403SOL     OW11107   3.938   6.642   6.763
 3403SOL    HW111108   3.930   6.559   6.818
 3403SOL    HW211109   3.965   6.617   6.670
 3404SOL     OW11110   5.493   3.649   4.979
 3404SOL    HW111111   5.425   3.612   5.042
 3404SOL    HW211112   5.506   3.746   4.997
 3405SOL     OW11113   5.779   6.176   6.008
 3405SOL    HW111114   5.696   6.222   6.037
 3405SOL    HW211115   5.776   6.080   6.035
 3406SOL     OW11116   1.930   4.017   1.777
 3406SOL    HW111117   2.004   4.082   1.793
 3406SOL    HW211118   1.895   3.983   1.864
 3407SOL     OW11119   1.873   3.873   0.318
 3407SOL    HW111120   1.873   3.835   0.411
 3407SOL    HW211121   1.877   3.798   0.252
 3408SOL     OW11122   4.887   2.635   4.005
 3408SOL    HW111123   4.825   2.687   3.946
 3408SOL    HW211124   4.946   2.577   3.949
 3409SOL     OW11125   4.711   0.990   0.524
 3409SOL    HW111126   4.799   0.945   0.543
 3409SOL    HW211127   4.725   1.089   0.520
 3410SOL     OW11128   5.142   0.243   2.100
 3410SOL    HW111129   5.072   0.178   2.127
 3410SOL    HW211130   5.132   0.327   2.153
 3411SOL     OW11131   6.961   2.216   0.499
 3411SOL    HW111132   6.903   2.298   0.500
 3411SOL    HW211133   7.013   2.213   0.414
 3412SOL     OW11134   5.779   3.348   1.819
 3412SOL    HW111135   5.718   3.365   1.742
 3412SOL    HW211136   5.793   3.249   1.830
 3413SOL     OW11137   0.278   1.957   5.847
 3413SOL    HW111138   0.194   1.985   5.895
 3413SOL    HW211139   0.281   1.857   5.842
 3414SOL     OW11140   3.775   3.274   0.899
 3414SOL    HW111141   3.804   3.369   0.908
 3414SOL    HW211142   3.698   3.257   0.960
 3415SOL     OW11143   2.253   2.542   5.104
 3415SOL    HW111144   2.286   2.451   5.077
 3415SOL    HW211145   2.325   2.609   5.085
 3416SOL     OW11146   6.100   0.042   6.470
 3416SOL    HW111147   6.157   7.008   6.412
 3416SOL    HW211148   6.139   0.045   6.562
 3417SOL     OW11149   6.725   6.392   2.989
 3417SOL    HW111150   6.786   6.377   3.067
 3417SOL    HW211151   6.779   6.401   2.905
 3418SOL     OW11152   4.758   4.920   1.381
 3418SOL    HW111153   4.736   4.865   1.461
 3418SOL    HW211154   4.727   4.873   1.299
 3419SOL     OW11155   3.154   6.247   5.929
 3419SOL    HW111156   3.229   6.212   5.872
 3419SOL    HW211157   3.088   6.295   5.871
 3420SOL     OW11158   4.339   2.398   3.691
 3420SOL    HW111159   4.336   2.306   3.651
 3420SOL    HW211160   4.246   2.433   3.703
 3421SOL     OW11161   5.342   2.172   3.417
 3421SOL    HW111162   5.396   2.239   3.366
 3421SOL    HW211163   5.361   2.181   3.515
 3422SOL     OW11164   1.827   6.920   0.890
 3422SOL    HW111165   1.817   6.850   0.820
 3422SOL    HW211166   1.787   6.886   0.976
 3423SOL     OW11167   1.077   4.643   5.646
 3423SOL    HW111168   1.062   4.716   5.714
 3423SOL    HW211169   0.989   4.620   5.604
 3424SOL     OW11170   5.015   0.176   1.525
 3424SOL    HW111171   5.100   0.198   1.572
 3424SOL    HW211172   4.962   0.259   1.509
 3425SOL     OW11173   5.679   4.046   1.469
 3425SOL    HW111174   5.651   4.128   1.419
 3425SOL    HW211175   5.779   4.047   1.481
 3426SOL     OW11176   5.565   3.377   6.979
 3426SOL    HW111177   5.604   3.448   6.920
 3426SOL    HW211178   5.597   3.391   0.047
 3427SOL     OW11179   1.163   2.708   0.382
 3427SOL    HW111180   1.152   2.674   0.476
 3427SOL    HW211181   1.191   2.804   0.384
 3428SOL     OW11182   5.350   6.120   5.863
 3428SOL    HW111183   5.268   6.116   5.805
 3428SOL    HW211184   5.420   6.061   5.826
 3429SOL     OW11185   6.903   0.538   1.340
 3429SOL    HW111186   6.907   0.558   1.242
 3429SOL    HW211187   6.824   0.481   1.360
 3430SOL     OW11188   1.994   4.805   5.583
 3430SOL    HW111189   1.904   4.848   5.578
 3430SOL    HW211190   2.015   4.761   5.496
 3431SOL     OW11191   2.387   5.923   2.696
 3431SOL    HW111192   2.402   6.022   2.687
 3431SOL    HW211193   2.473   5.875   2.681
 3432SOL     OW11194   2.050   4.359   1.019
 3432SOL    HW111195   2.136   4.410   1.020
 3432SOL    HW211196   1.998   4.380   1.102
 3433SOL     OW11197   2.581   1.061   6.290
 3433SOL    HW111198   2.565   1.090   6.384
 3433SOL    HW211199   2.632   1.132   6.241
 3434SOL     OW11200   2.836   2.085   1.606
 3434SOL    HW111201   2.832   2.185   1.610
 3434SOL    HW211202   2.842   2.055   1.511
 3435SOL     OW11203   2.208   0.779   0.069
 3435SOL    HW111204   2.129   0.719   0.076
 3435SOL    HW211205   2.250   0.770   7.004
 3436SOL     OW11206   3.201   6.109   0.140
 3436SOL    HW111207   3.222   6.206   0.140
 3436SOL    HW211208   3.129   6.089   0.074
 3437SOL     OW11209   1.333   6.335   6.539
 3437SOL    HW111210   1.411   6.276   6.517
 3437SOL    HW211211   1.314   6.331   6.637
 3438SOL     OW11212   1.187   4.187   1.238
 3438SOL    HW111213   1.232   4.217   1.154
 3438SOL    HW211214   1.089   4.177   1.221
 3439SOL     OW11215   2.141   5.544   2.137
 3439SOL    HW111216   2.207   5.515   2.206
 3439SOL    HW211217   2.050   5.509   2.161
 3440SOL     OW11218   4.088   3.730   4.390
 3440SOL    HW111219   4.077   3.631   4.400
 3440SOL    HW211220   4.051   3.759   4.302
 3441SOL     OW11221   5.512   5.449   5.985
 3441SOL    HW111222   5.464   5.482   5.903
 3441SOL    HW211223   5.565   5.367   5.961
 3442SOL     OW11224   3.948   3.271   1.191
 3442SOL    HW111225   4.017   3.302   1.125
 3442SOL    HW211226   3.922   3.177   1.170
 3443SOL     OW11227   2.107   6.152   2.137
 3443SOL    HW111228   2.015   6.138   2.098
 3443SOL    HW211229   2.111   6.109   2.228
 3444SOL     OW11230   5.765   3.748   1.317
 3444SOL    HW111231   5.821   3.721   1.395
 3444SOL    HW211232   5.700   3.819   1.346
 3445SOL     OW11233   6.216   4.489   3.218
 3445SOL    HW111234   6.148   4.458   3.284
 3445SOL    HW211235   6.304   4.445   3.238
 3446SOL     OW11236   4.964   1.040   1.377
 3446SOL    HW111237   5.056   1.032   1.337
 3446SOL    HW211238   4.897   0.998   1.315
 3447SOL     OW11239   5.019   0.804   0.104
 3447SOL    HW111240   4.943   0.756   0.149
 3447SOL    HW211241   4.986   0.846   0.020
 3448SOL     OW11242   1.468   5.939   4.786
 3448SOL    HW111243   1.457   5.996   4.705
 3448SOL    HW211244   1.559   5.898   4.786
 3449SOL     OW11245   6.276   4.175   5.552
 3449SOL    HW111246   6.231   4.179   5.641
 3449SOL    HW211247   6.238   4.099   5.499
 3450SOL     OW11248   1.233   6.062   0.501
 3450SOL    HW111249   1.262   6.011   0.582
 3450SOL    HW211250   1.288   6.036   0.422
 3451SOL     OW11251   2.319   6.903   1.052
 3451SOL    HW111252   2.325   6.821   0.996
 3451SOL    HW211253   2.279   6.881   1.141
 3452SOL     OW11254   5.033   0.511   5.539
 3452SOL    HW111255   5.052   0.451   5.461
 3452SOL    HW211256   5.093   0.591   5.534
 3453SOL     OW11257   4.881   6.481   5.685
 3453SOL    HW111258   4.953   6.467   5.752
 3453SOL    HW211259   4.916   6.460   5.594
 3454SOL     OW11260   1.269   2.732   2.015
 3454SOL    HW111261   1.356   2.780   2.030
 3454SOL    HW211262   1.267   2.648   2.069
 3455SOL     OW11263   1.031   3.653   6.120
 3455SOL    HW111264   1.041   3.711   6.039
 3455SOL    HW211265   1.112   3.663   6.178
 3456SOL     OW11266   5.100   4.169   2.271
 3456SOL    HW111267   5.163   4.093   2.253
 3456SOL    HW211268   5.142   4.232   2.336
 3457SOL     OW11269   3.898   5.676   5.372
 3457SOL    HW111270   3.980   5.633   5.410
 3457SOL    HW211271   3.887   5.650   5.277
 3458SOL     OW11272   4.436   1.751   2.884
 3458SOL    HW111273   4.398   1.769   2.793
 3458SOL    HW211274   4.536   1.744   2.878
 3459SOL     OW11275   4.068   0.085   3.497
 3459SOL    HW111276   4.167   0.092   3.483
 3459SOL    HW211277   4.047   0.009   3.559
 3460SOL     OW11278   4.205   1.742   5.465
 3460SOL    HW111279   4.138   1.740   5.539
 3460SOL    HW211280   4.183   1.672   5.398
 3461SOL     OW11281   5.766   4.815   6.308
 3461SOL    HW111282   5.698   4.873   6.354
 3461SOL    HW211283   5.719   4.756   6.242
 3462SOL     OW11284   2.365   3.963   6.821
 3462SOL    HW111285   2.346   3.867   6.801
 3462SOL    HW211286   2.406   3.972   6.911
 3463SOL     OW11287   6.231   4.014   1.256
 3463SOL    HW111288   6.140   4.054   1.269
 3463SOL    HW211289   6.301   4.083   1.274
 3464SOL     OW11290   0.146   4.666   6.390
 3464SOL    HW111291   0.120   4.591   6.330
 3464SOL    HW211292   0.244   4.661   6.410
 3465SOL     OW11293   1.801   0.577   1.658
 3465SOL    HW111294   1.771   0.565   1.564
 3465SOL    HW211295   1.726   0.616   1.712
 3466SOL     OW11296   6.467   3.992   5.242
 3466SOL    HW111297   6.541   4.054   5.269
 3466SOL    HW211298   6.397   4.044   5.193
 3467SOL     OW11299   1.998   2.001   6.344
 3467SOL    HW111300   2.090   1.962   6.346
 3467SOL    HW211301   1.979   2.046   6.431
 3468SOL     OW11302   3.288   0.495   3.903
 3468SOL    HW111303   3.372   0.447   3.876
 3468SOL    HW211304   3.305   0.594   3.901
 3469SOL     OW11305   5.886   2.457   3.153
 3469SOL    HW111306   5.953   2.418   3.090
 3469SOL    HW211307   5.835   2.530   3.106
 3470SOL     OW11308   6.897   5.665   0.944
 3470SOL    HW111309   6.819   5.715   0.909
 3470SOL    HW211310   6.934   5.605   0.873
 3471SOL     OW11311   3.940   6.142   4.969
 3471SOL    HW111312   3.870   6.073   4.990
 3471SOL    HW211313   4.023   6.121   5.021
 3472SOL     OW11314   2.819   1.299   5.559
 3472SOL    HW111315   2.830   1.242   5.641
 3472SOL    HW211316   2.896   1.284   5.497
 3473SOL     OW11317   5.265   0.978   6.205
 3473SOL    HW111318   5.303   0.889   6.178
 3473SOL    HW211319   5.306   1.050   6.149
 3474SOL     OW11320   4.337   5.371   1.380
 3474SOL    HW111321   4.264   5.302   1.380
 3474SOL    HW211322   4.360   5.395   1.285
 3475SOL     OW11323   1.633   6.009   4.351
 3475SOL    HW111324   1.667   5.935   4.409
 3475SOL    HW211325   1.710   6.063   4.318
 3476SOL     OW11326   4.670   0.996   4.481
 3476SOL    HW111327   4.675   0.991   4.581
 3476SOL    HW211328   4.593   1.053   4.454
 3477SOL     OW11329   3.704   6.022   1.051
 3477SOL    HW111330   3.761   6.012   1.133
 3477SOL    HW211331   3.732   6.103   1.000
 3478SOL     OW11332   3.506   5.270   0.154
 3478SOL    HW111333   3.574   5.197   0.162
 3478SOL    HW211334   3.552   5.359   0.159
 3479SOL     OW11335   1.022   0.525   1.741
 3479SOL    HW111336   0.994   0.471   1.662
 3479SOL    HW211337   1.001   0.475   1.825
 3480SOL     OW11338   0.465   1.404   3.137
 3480SOL    HW111339   0.544   1.351   3.170
 3480SOL    HW211340   0.482   1.501   3.150
 3481SOL     OW11341   2.404   6.585   6.883
 3481SOL    HW111342   2.503   6.589   6.890
 3481SOL    HW211343   2.366   6.677   6.891
 3482SOL     OW11344   0.740   2.316   0.041
 3482SOL    HW111345   0.752   2.373   0.122
 3482SOL    HW211346   0.802   2.237   0.046
 3483SOL     OW11347   2.933   0.157   1.170
 3483SOL    HW111348   2.936   0.066   1.129
 3483SOL    HW211349   2.867   0.213   1.122
 3484SOL     OW11350   3.916   3.868   3.547
 3484SOL    HW111351   3.865   3.789   3.583
 3484SOL    HW211352   3.941   3.851   3.452
 3485SOL     OW11353   1.350   2.629   4.836
 3485SOL    HW111354   1.298   2.703   4.795
 3485SOL    HW211355   1.403   2.582   4.766
 3486SOL     OW11356   4.386   2.070   1.892
 3486SOL    HW111357   4.384   2.008   1.970
 3486SOL    HW211358   4.342   2.157   1.916
 3487SOL     OW11359   6.324   1.429   6.501
 3487SOL    HW111360   6.257   1.392   6.565
 3487SOL    HW211361   6.310   1.388   6.411
 3488SOL     OW11362   5.457   3.142   3.618
 3488SOL    HW111363   5.483   3.193   3.537
 3488SOL    HW211364   5.454   3.204   3.697
 3489SOL     OW11365   3.473   0.671   1.414
 3489SOL    HW111366   3.431   0.749   1.369
 3489SOL    HW211367   3.552   0.640   1.360
 3490SOL     OW11368   4.578   4.077   0.263
 3490SOL    HW111369   4.578   3.998   0.202
 3490SOL    HW211370   4.500   4.071   0.325
 3491SOL     OW11371   0.243   3.107   5.054
 3491SOL    HW111372   0.191   3.176   5.106
 3491SOL    HW211373   0.181   3.060   4.991
 3492SOL     OW11374   6.500   4.607   6.864
 3492SOL    HW111375   6.443   4.538   6.819
 3492SOL    HW211376   6.489   4.599   6.963
 3493SOL     OW11377   6.354   4.494   0.819
 3493SOL    HW111378   6.411   4.437   0.761
 3493SOL    HW211379   6.266   4.449   0.835
 3494SOL     OW11380   3.246   0.122   1.172
 3494SOL    HW111381   3.151   0.154   1.179
 3494SOL    HW211382   3.306   0.187   1.217
 3495SOL     OW11383   4.517   5.086   1.138
 3495SOL    HW111384   4.541   5.025   1.062
 3495SOL    HW211385   4.596   5.096   1.198
 3496SOL     OW11386   2.134   2.736   0.780
 3496SOL    HW111387   2.109   2.665   0.713
 3496SOL    HW211388   2.178   2.812   0.733
 3497SOL     OW11389   4.411   0.809   3.645
 3497SOL    HW111390   4.422   0.761   3.558
 3497SOL    HW211391   4.499   0.847   3.674
 3498SOL     OW11392   2.271   1.684   1.962
 3498SOL    HW111393   2.355   1.632   1.975
 3498SOL    HW211394   2.289   1.780   1.983
 3499SOL     OW11395   6.529   2.952   4.433
 3499SOL    HW111396   6.545   3.015   4.356
 3499SOL    HW211397   6.586   2.871   4.422
 3500SOL     OW11398   6.020   3.885   6.823
 3500SOL    HW111399   6.011   3.976   6.862
 3500SOL    HW211400   6.117   3.864   6.810
 3501SOL     OW11401   1.833   4.796   4.586
 3501SOL    HW111402   1.923   4.764   4.615
 3501SOL    HW211403   1.840   4.889   4.551
 3502SOL     OW11404   1.029   2.588   1.591
 3502SOL    HW111405   0.934   2.568   1.568
 3502SOL    HW211406   1.054   2.678   1.555
 3503SOL     OW11407   4.954   5.851   5.084
 3503SOL    HW111408   4.941   5.895   4.995
 3503SOL    HW211409   5.036   5.794   5.081
 3504SOL     OW11410   2.328   3.227   1.672
 3504SOL    HW111411   2.344   3.287   1.750
 3504SOL    HW211412   2.415   3.207   1.627
 3505SOL     OW11413   5.292   5.478   5.780
 3505SOL    HW111414   5.198   5.452   5.801
 3505SOL    HW211415   5.303   5.486   5.681
 3506SOL     OW11416   4.756   5.726   3.241
 3506SOL    HW111417   4.797   5.766   3.323
 3506SOL    HW211418   4.717   5.797   3.184
 3507SOL     OW11419   0.560   6.985   6.568
 3507SOL    HW111420   0.468   6.978   6.528
 3507SOL    HW211421   0.573   0.051   6.606
 3508SOL     OW11422   5.691   3.886   0.091
 3508SOL    HW111423   5.631   3.808   0.109
 3508SOL    HW211424   5.730   3.919   0.177
 3509SOL     OW11425   6.642   6.370   0.187
 3509SOL    HW111426   6.672   6.388   0.280
 3509SOL    HW211427   6.583   6.289   0.186
 3510SOL     OW11428   2.213   2.232   2.221
 3510SOL    HW111429   2.120   2.232   2.258
 3510SOL    HW211430   2.261   2.150   2.252
 3511SOL     OW11431   0.687   1.920   6.925
 3511SOL    HW111432   0.726   1.933   6.834
 3511SOL    HW211433   0.701   1.825   6.954
 3512SOL     OW11434   2.539   2.998   0.923
 3512SOL    HW111435   2.443   2.981   0.899
 3512SOL    HW211436   2.598   2.962   0.850
 3513SOL     OW11437   6.721   4.548   1.083
 3513SOL    HW111438   6.747   4.573   0.990
 3513SOL    HW211439   6.707   4.631   1.137
 3514SOL     OW11440   0.582   5.967   1.174
 3514SOL    HW111441   0.525   5.945   1.094
 3514SOL    HW211442   0.542   5.925   1.256
 3515SOL     OW11443   3.275   6.389   3.388
 3515SOL    HW111444   3.327   6.446   3.451
 3515SOL    HW211445   3.250   6.442   3.307
 3516SOL     OW11446   3.398   1.166   0.983
 3516SOL    HW111447   3.456   1.209   1.052
 3516SOL    HW211448   3.425   1.199   0.892
 3517SOL     OW11449   1.342   1.379   6.557
 3517SOL    HW111450   1.278   1.303   6.555
 3517SOL    HW211451   1.429   1.351   6.517
 3518SOL     OW11452   4.176   3.002   6.113
 3518SOL    HW111453   4.225   2.948   6.044
 3518SOL    HW211454   4.101   3.052   6.069
 3519SOL     OW11455   2.191   6.602   6.555
 3519SOL    HW111456   2.195   6.532   6.627
 3519SOL    HW211457   2.225   6.689   6.591
 3520SOL     OW11458   3.527   5.618   1.038
 3520SOL    HW111459   3.526   5.656   0.945
 3520SOL    HW211460   3.443   5.647   1.086
 3521SOL     OW11461   6.069   2.504   1.403
 3521SOL    HW111462   6.007   2.522   1.326
 3521SOL    HW211463   6.148   2.453   1.371
 3522SOL     OW11464   3.462   4.869   2.407
 3522SOL    HW111465   3.433   4.855   2.313
 3522SOL    HW211466   3.559   4.845   2.416
 3523SOL     OW11467   2.225   4.716   4.908
 3523SOL    HW111468   2.284   4.785   4.949
 3523SOL    HW211469   2.274   4.629   4.903
 3524SOL     OW11470   2.680   0.272   1.068
 3524SOL    HW111471   2.710   0.354   1.020
 3524SOL    HW211472   2.609   0.225   1.015
 3525SOL     OW11473   0.771   3.167   2.511
 3525SOL    HW111474   0.807   3.097   2.450
 3525SOL    HW211475   0.671   3.157   2.519
 3526SOL     OW11476   1.649   0.641   2.437
 3526SOL    HW111477   1.661   0.598   2.348
 3526SOL    HW211478   1.624   0.571   2.505
 3527SOL     OW11479   5.145   3.344   5.879
 3527SOL    HW111480   5.060   3.351   5.932
 3527SOL    HW211481   5.223   3.343   5.942
 3528SOL     OW11482   0.424   6.593   4.356
 3528SOL    HW111483   0.435   6.658   4.431
 3528SOL    HW211484   0.507   6.537   4.348
 3529SOL     OW11485   4.112   5.930   5.949
 3529SOL    HW111486   4.088   5.851   6.005
 3529SOL    HW211487   4.038   5.950   5.885
 3530SOL     OW11488   2.550   5.167   3.113
 3530SOL    HW111489   2.628   5.215   3.072
 3530SOL    HW211490   2.468   5.223   3.103
 3531SOL     OW11491   5.612   4.108   0.006
 3531SOL    HW111492   5.659   4.026   0.037
 3531SOL    HW211493   5.514   4.100   0.026
 3532SOL     OW11494   2.015   0.051   0.008
 3532SOL    HW111495   2.101   0.102   0.001
 3532SOL    HW211496   1.938   0.115   0.003
 3533SOL     OW11497   0.817   1.494   3.241
 3533SOL    HW111498   0.815   1.409   3.294
 3533SOL    HW211499   0.896   1.548   3.268
 3534SOL     OW11500   4.930   1.039   4.861
 3534SOL    HW111501   4.832   1.030   4.841
 3534SOL    HW211502   4.976   1.081   4.783
 3535SOL     OW11503   5.149   5.064   6.281
 3535SOL    HW111504   5.198   5.033   6.199
 3535SOL    HW211505   5.195   5.144   6.318
 3536SOL     OW11506   1.646   3.797   2.820
 3536SOL    HW111507   1.601   3.767   2.905
 3536SOL    HW211508   1.584   3.858   2.771
 3537SOL     OW11509   2.193   5.214   1.108
 3537SOL    HW111510   2.263   5.149   1.078
 3537SOL    HW211511   2.159   5.265   1.029
 3538SOL     OW11512   2.720   0.611   3.781
 3538SOL    HW111513   2.668   0.566   3.709
 3538SOL    HW211514   2.780   0.680   3.740
 3539SOL     OW11515   4.711   5.058   5.835
 3539SOL    HW111516   4.802   5.034   5.870
 3539SOL    HW211517   4.719   5.097   5.744
 3540SOL     OW11518   3.053   3.228   6.919
 3540SOL    HW111519   2.989   3.295   6.956
 3540SOL    HW211520   3.038   3.218   6.821
 3541SOL     OW11521   3.166   2.135   0.937
 3541SOL    HW111522   3.260   2.158   0.962
 3541SOL    HW211523   3.119   2.096   1.016
 3542SOL     OW11524   5.665   2.417   6.096
 3542SOL    HW111525   5.717   2.335   6.073
 3542SOL    HW211526   5.632   2.461   6.012
 3543SOL     OW11527   1.371   2.860   3.608
 3543SOL    HW111528   1.456   2.878   3.558
 3543SOL    HW211529   1.391   2.851   3.705
 3544SOL     OW11530   2.734   4.655   5.899
 3544SOL    HW111531   2.700   4.737   5.852
 3544SOL    HW211532   2.666   4.626   5.967
 3545SOL     OW11533   3.723   0.032   1.186
 3545SOL    HW111534   3.687   0.067   1.273
 3545SOL    HW211535   3.648   0.010   1.125
 3546SOL     OW11536   0.173   3.245   3.313
 3546SOL    HW111537   0.079   3.211   3.313
 3546SOL    HW211538   0.175   3.335   3.271
 3547SOL     OW11539   0.197   3.631   5.839
 3547SOL    HW111540   0.217   3.673   5.927
 3547SOL    HW211541   0.283   3.617   5.789
 3548SOL     OW11542   5.874   0.563   5.090
 3548SOL    HW111543   5.913   0.605   5.009
 3548SOL    HW211544   5.938   0.497   5.128
 3549SOL     OW11545   2.601   5.886   6.191
 3549SOL    HW111546   2.603   5.792   6.224
 3549SOL    HW211547   2.507   5.922   6.198
 3550SOL     OW11548   5.189   1.320   5.382
 3550SOL    HW111549   5.160   1.401   5.331
 3550SOL    HW211550   5.192   1.242   5.320
 3551SOL     OW11551   4.258   1.982   4.635
 3551SOL    HW111552   4.234   2.079   4.629
 3551SOL    HW211553   4.251   1.952   4.730
 3552SOL     OW11554   0.355   6.217   2.909
 3552SOL    HW111555   0.409   6.241   2.990
 3552SOL    HW211556   0.316   6.126   2.921
 3553SOL     OW11557   4.115   5.366   6.781
 3553SOL    HW111558   4.211   5.340   6.793
 3553SOL    HW211559   4.108   5.437   6.710
 3554SOL     OW11560   4.883   3.367   1.557
 3554SOL    HW111561   4.868   3.337   1.651
 3554SOL    HW211562   4.868   3.466   1.551
 3555SOL     OW11563   2.561   2.026   4.683
 3555SOL    HW111564   2.522   2.088   4.751
 3555SOL    HW211565   2.597   1.945   4.730
 3556SOL     OW11566   4.512   0.875   5.871
 3556SOL    HW111567   4.547   0.948   5.813
 3556SOL    HW211568   4.588   0.826   5.913
 3557SOL     OW11569   6.446   1.185   1.446
 3557SOL    HW111570   6.515   1.139   1.391
 3557SOL    HW211571   6.371   1.217   1.388
 3558SOL     OW11572   3.232   6.669   1.509
 3558SOL    HW111573   3.136   6.687   1.529
 3558SOL    HW211574   3.279   6.756   1.490
 3559SOL     OW11575   3.680   6.084   4.641
 3559SOL    HW111576   3.609   6.063   4.574
 3559SOL    HW211577   3.685   6.183   4.656
 3560SOL     OW11578   2.165   6.113   4.505
 3560SOL    HW111579   2.135   6.090   4.413
 3560SOL    HW211580   2.224   6.040   4.541
 3561SOL     OW11581   4.791   4.166   5.381
 3561SOL    HW111582   4.746   4.080   5.406
 3561SOL    HW211583   4.723   4.239   5.374
 3562SOL     OW11584   2.224   1.397   5.568
 3562SOL    HW111585   2.264   1.388   5.659
 3562SOL    HW211586   2.201   1.306   5.533
 3563SOL     OW11587   5.872   2.643   5.164
 3563SOL    HW111588   5.843   2.589   5.086
 3563SOL    HW211589   5.861   2.590   5.248
 3564SOL     OW11590   6.674   4.358   1.882
 3564SOL    HW111591   6.745   4.402   1.937
 3564SOL    HW211592   6.657   4.266   1.918
 3565SOL     OW11593   3.977   5.762   3.321
 3565SOL    HW111594   4.028   5.841   3.287
 3565SOL    HW211595   4.039   5.686   3.339
 3566SOL     OW11596   0.536   1.365   5.628
 3566SOL    HW111597   0.558   1.316   5.713
 3566SOL    HW211598   0.560   1.461   5.639
 3567SOL     OW11599   0.450   4.818   6.673
 3567SOL    HW111600   0.378   4.887   6.674
 3567SOL    HW211601   0.491   4.814   6.581
 3568SOL     OW11602   6.392   3.813   5.925
 3568SOL    HW111603   6.415   3.852   6.014
 3568SOL    HW211604   6.293   3.801   5.918
 3569SOL     OW11605   1.727   2.156   5.346
 3569SOL    HW111606   1.753   2.204   5.262
 3569SOL    HW211607   1.638   2.113   5.333
 3570SOL     OW11608   6.158   1.319   4.118
 3570SOL    HW111609   6.137   1.417   4.128
 3570SOL    HW211610   6.091   1.277   4.058
 3571SOL     OW11611   6.174   5.626   6.385
 3571SOL    HW111612   6.149   5.635   6.481
 3571SOL    HW211613   6.177   5.717   6.343
 3572SOL     OW11614   5.789   3.976   4.685
 3572SOL    HW111615   5.776   3.909   4.612
 3572SOL    HW211616   5.869   3.950   4.740
 3573SOL     OW11617   1.360   3.102   3.365
 3573SOL    HW111618   1.442   3.072   3.413
 3573SOL    HW211619   1.385   3.159   3.287
 3574SOL     OW11620   0.441   4.248   0.517
 3574SOL    HW111621   0.347   4.223   0.492
 3574SOL    HW211622   0.486   4.291   0.439
 3575SOL     OW11623   6.195   5.121   2.727
 3575SOL    HW111624   6.291   5.119   2.699
 3575SOL    HW211625   6.190   5.135   2.826
 3576SOL     OW11626   0.774   1.446   6.117
 3576SOL    HW111627   0.822   1.359   6.133
 3576SOL    HW211628   0.676   1.431   6.119
 3577SOL     OW11629   0.567   2.583   6.608
 3577SOL    HW111630   0.582   2.527   6.689
 3577SOL    HW211631   0.563   2.679   6.634
 3578SOL     OW11632   3.075   4.931   0.467
 3578SOL    HW111633   3.081   5.031   0.470
 3578SOL    HW211634   3.067   4.896   0.560
 3579SOL     OW11635   6.592   3.734   4.688
 3579SOL    HW111636   6.582   3.832   4.705
 3579SOL    HW211637   6.541   3.683   4.758
 3580SOL     OW11638   6.352   1.619   2.145
 3580SOL    HW111639   6.370   1.642   2.241
 3580SOL    HW211640   6.428   1.565   2.109
 3581SOL     OW11641   0.242   0.287   2.448
 3581SOL    HW111642   0.327   0.238   2.429
 3581SOL    HW211643   0.222   0.285   2.546
 3582SOL     OW11644   1.210   0.563   5.838
 3582SOL    HW111645   1.300   0.567   5.882
 3582SOL    HW211646   1.189   0.467   5.816
 3583SOL     OW11647   1.038   4.887   0.014
 3583SOL    HW111648   0.946   4.927   0.016
 3583SOL    HW211649   1.034   4.792   0.042
 3584SOL     OW11650   5.187   6.338   6.860
 3584SOL    HW111651   5.104   6.393   6.862
 3584SOL    HW211652   5.225   6.340   6.767
 3585SOL     OW11653   3.635   4.918   4.293
 3585SOL    HW111654   3.640   4.921   4.193
 3585SOL    HW211655   3.541   4.898   4.321
 3586SOL     OW11656   6.599   3.638   5.900
 3586SOL    HW111657   6.527   3.707   5.894
 3586SOL    HW211658   6.624   3.608   5.808
 3587SOL     OW11659   3.682   6.542   0.339
 3587SOL    HW111660   3.674   6.623   0.398
 3587SOL    HW211661   3.594   6.494   0.336
 3588SOL     OW11662   1.223   2.636   6.106
 3588SOL    HW111663   1.311   2.607   6.144
 3588SOL    HW211664   1.172   2.556   6.074
 3589SOL     OW11665   2.945   0.751   5.538
 3589SOL    HW111666   3.029   0.740   5.592
 3589SOL    HW211667   2.968   0.780   5.445
 3590SOL     OW11668   1.542   5.272   5.885
 3590SOL    HW111669   1.621   5.215   5.906
 3590SOL    HW211670   1.468   5.251   5.950
 3591SOL     OW11671   5.151   2.369   5.834
 3591SOL    HW111672   5.155   2.464   5.866
 3591SOL    HW211673   5.194   2.363   5.744
 3592SOL     OW11674   5.179   2.645   3.091
 3592SOL    HW111675   5.105   2.641   3.023
 3592SOL    HW211676   5.243   2.718   3.066
 3593SOL     OW11677   1.722   6.561   3.893
 3593SOL    HW111678   1.722   6.615   3.809
 3593SOL    HW211679   1.701   6.620   3.970
 3594SOL     OW11680   2.622   1.233   3.524
 3594SOL    HW111681   2.644   1.329   3.540
 3594SOL    HW211682   2.694   1.190   3.469
 3595SOL     OW11683   2.712   6.527   6.349
 3595SOL    HW111684   2.680   6.434   6.368
 3595SOL    HW211685   2.634   6.587   6.334
 3596SOL     OW11686   6.539   0.793   2.090
 3596SOL    HW111687   6.476   0.716   2.087
 3596SOL    HW211688   6.488   0.879   2.089
 3597SOL     OW11689   3.907   5.959   4.489
 3597SOL    HW111690   3.917   5.863   4.463
 3597SOL    HW211691   3.825   5.970   4.545
 3598SOL     OW11692   0.853   6.778   5.725
 3598SOL    HW111693   0.787   6.744   5.658
 3598SOL    HW211694   0.805   6.806   5.808
 3599SOL     OW11695   6.655   1.992   5.326
 3599SOL    HW111696   6.728   2.046   5.284
 3599SOL    HW211697   6.660   2.001   5.425
 3600SOL     OW11698   6.078   2.830   1.063
 3600SOL    HW111699   6.013   2.905   1.079
 3600SOL    HW211700   6.135   2.818   1.144
 3601SOL     OW11701   0.257   3.905   0.473
 3601SOL    HW111702   0.202   3.908   0.556
 3601SOL    HW211703   0.316   3.825   0.474
 3602SOL     OW11704   2.332   1.108   0.172
 3602SOL    HW111705   2.258   1.052   0.211
 3602SOL    HW211706   2.319   1.114   0.073
 3603SOL     OW11707   4.132   5.127   3.879
 3603SOL    HW111708   4.147   5.146   3.976
 3603SOL    HW211709   4.218   5.104   3.835
 3604SOL     OW11710   0.104   2.300   2.822
 3604SOL    HW111711   0.155   2.231   2.770
 3604SOL    HW211712   0.046   2.353   2.760
 3605SOL     OW11713   5.854   3.903   6.588
 3605SOL    HW111714   5.915   3.872   6.661
 3605SOL    HW211715   5.765   3.926   6.626
 3606SOL     OW11716   6.865   4.563   5.470
 3606SOL    HW111717   6.957   4.562   5.431
 3606SOL    HW211718   6.860   4.632   5.543
 3607SOL     OW11719   5.246   0.312   0.873
 3607SOL    HW111720   5.246   0.220   0.912
 3607SOL    HW211721   5.155   0.333   0.837
 3608SOL     OW11722   0.649   2.023   1.790
 3608SOL    HW111723   0.709   2.086   1.841
 3608SOL    HW211724   0.575   2.075   1.747
 3609SOL     OW11725   6.816   0.884   4.925
 3609SOL    HW111726   6.793   0.836   5.010
 3609SOL    HW211727   6.739   0.940   4.896
 3610SOL     OW11728   1.214   6.455   5.614
 3610SOL    HW111729   1.170   6.520   5.675
 3610SOL    HW211730   1.144   6.400   5.568
 3611SOL     OW11731   3.387   5.313   5.047
 3611SOL    HW111732   3.371   5.371   5.127
 3611SOL    HW211733   3.478   5.273   5.053
 3612SOL     OW11734   1.157   6.374   0.097
 3612SOL    HW111735   1.151   6.276   0.118
 3612SOL    HW211736   1.177   6.425   0.181
 3613SOL     OW11737   5.353   5.031   0.681
 3613SOL    HW111738   5.437   5.017   0.733
 3613SOL    HW211739   5.303   4.945   0.675
 3614SOL     OW11740   3.978   3.777   3.287
 3614SOL    HW111741   4.015   3.687   3.310
 3614SOL    HW211742   3.939   3.775   3.195
 3615SOL     OW11743   6.010   5.714   5.698
 3615SOL    HW111744   5.976   5.651   5.768
 3615SOL    HW211745   6.072   5.780   5.740
 3616SOL     OW11746   6.612   2.283   5.840
 3616SOL    HW111747   6.558   2.267   5.923
 3616SOL    HW211748   6.707   2.303   5.866
 3617SOL     OW11749   6.124   2.145   6.140
 3617SOL    HW111750   6.196   2.092   6.185
 3617SOL    HW211751   6.147   2.158   6.044
 3618SOL     OW11752   1.808   1.963   5.842
 3618SOL    HW111753   1.793   1.947   5.744
 3618SOL    HW211754   1.903   1.990   5.857
 3619SOL     OW11755   5.886   2.258   3.805
 3619SOL    HW111756   5.962   2.319   3.825
 3619SOL    HW211757   5.830   2.296   3.732
 3620SOL     OW11758   5.705   0.591   5.334
 3620SOL    HW111759   5.776   0.594   5.264
 3620SOL    HW211760   5.747   0.585   5.425
 3621SOL     OW11761   2.792   2.807   5.596
 3621SOL    HW111762   2.731   2.734   5.626
 3621SOL    HW211763   2.743   2.868   5.534
 3622SOL     OW11764   0.620   1.390   2.826
 3622SOL    HW111765   0.571   1.476   2.842
 3622SOL    HW211766   0.560   1.325   2.779
 3623SOL     OW11767   5.550   5.235   3.476
 3623SOL    HW111768   5.498   5.321   3.474
 3623SOL    HW211769   5.648   5.256   3.477
 3624SOL     OW11770   2.308   6.809   3.344
 3624SOL    HW111771   2.213   6.835   3.327
 3624SOL    HW211772   2.327   6.720   3.302
 3625SOL     OW11773   6.238   3.503   5.887
 3625SOL    HW111774   6.185   3.587   5.875
 3625SOL    HW211775   6.275   3.499   5.979
 3626SOL     OW11776   2.174   3.512   5.039
 3626SOL    HW111777   2.223   3.495   5.125
 3626SOL    HW211778   2.205   3.599   5.000
 3627SOL     OW11779   3.716   3.915   3.246
 3627SOL    HW111780   3.811   3.904   3.275
 3627SOL    HW211781   3.700   4.009   3.217
 3628SOL     OW11782   2.205   5.949   1.895
 3628SOL    HW111783   2.228   5.896   1.814
 3628SOL    HW211784   2.175   5.887   1.968
 3629SOL     OW11785   6.059   1.631   5.333
 3629SOL    HW111786   6.147   1.620   5.287
 3629SOL    HW211787   6.074   1.648   5.430
 3630SOL     OW11788   5.889   2.210   4.951
 3630SOL    HW111789   5.808   2.154   4.972
 3630SOL    HW211790   5.952   2.208   5.029
 3631SOL     OW11791   2.668   0.168   4.435
 3631SOL    HW111792   2.729   0.099   4.396
 3631SOL    HW211793   2.694   0.184   4.530
 3632SOL     OW11794   5.242   0.721   1.063
 3632SOL    HW111795   5.216   0.751   1.154
 3632SOL    HW211796   5.333   0.757   1.040
 3633SOL     OW11797   2.609   2.630   5.719
 3633SOL    HW111798   2.643   2.541   5.689
 3633SOL    HW211799   2.574   2.623   5.812
 3634SOL     OW11800   1.646   6.511   4.744
 3634SOL    HW111801   1.648   6.436   4.811
 3634SOL    HW211802   1.739   6.526   4.708
 3635SOL     OW11803   2.623   1.785   4.848
 3635SOL    HW111804   2.703   1.728   4.829
 3635SOL    HW211805   2.549   1.728   4.885
 3636SOL     OW11806   0.140   5.606   6.051
 3636SOL    HW111807   0.187   5.607   5.962
 3636SOL    HW211808   0.137   5.699   6.087
 3637SOL     OW11809   5.784   1.923   1.415
 3637SOL    HW111810   5.716   1.995   1.408
 3637SOL    HW211811   5.759   1.847   1.355
 3638SOL     OW11812   6.671   4.285   4.494
 3638SOL    HW111813   6.763   4.301   4.459
 3638SOL    HW211814   6.613   4.248   4.421
 3639SOL     OW11815   3.399   4.352   1.087
 3639SOL    HW111816   3.448   4.375   1.171
 3639SOL    HW211817   3.461   4.306   1.023
 3640SOL     OW11818   3.534   6.143   0.468
 3640SOL    HW111819   3.629   6.130   0.443
 3640SOL    HW211820   3.476   6.077   0.419
 3641SOL     OW11821   3.671   1.253   4.783
 3641SOL    HW111822   3.680   1.325   4.714
 3641SOL    HW211823   3.640   1.168   4.740
 3642SOL     OW11824   4.631   1.093   5.705
 3642SOL    HW111825   4.698   1.086   5.631
 3642SOL    HW211826   4.653   1.172   5.762
 3643SOL     OW11827   2.940   5.659   4.579
 3643SOL    HW111828   3.025   5.619   4.613
 3643SOL    HW211829   2.889   5.589   4.528
 3644SOL     OW11830   6.907   2.367   1.340
 3644SOL    HW111831   6.881   2.286   1.393
 3644SOL    HW211832   6.922   2.444   1.402
 3645SOL     OW11833   5.339   1.739   3.797
 3645SOL    HW111834   5.426   1.747   3.749
 3645SOL    HW211835   5.300   1.649   3.781
 3646SOL     OW11836   0.162   5.020   5.312
 3646SOL    HW111837   0.215   4.943   5.277
 3646SOL    HW211838   0.165   5.095   5.246
 3647SOL     OW11839   1.092   3.281   6.965
 3647SOL    HW111840   1.088   3.352   0.010
 3647SOL    HW211841   1.180   3.285   6.918
 3648SOL     OW11842   4.202   5.434   2.602
 3648SOL    HW111843   4.279   5.372   2.591
 3648SOL    HW211844   4.127   5.387   2.647
 3649SOL     OW11845   4.476   3.816   0.545
 3649SOL    HW111846   4.569   3.782   0.532
 3649SOL    HW211847   4.454   3.819   0.642
 3650SOL     OW11848   6.567   6.390   1.034
 3650SOL    HW111849   6.483   6.341   1.058
 3650SOL    HW211850   6.558   6.429   0.942
 3651SOL     OW11851   0.786   5.876   2.295
 3651SOL    HW111852   0.764   5.971   2.319
 3651SOL    HW211853   0.841   5.876   2.211
 3652SOL     OW11854   5.022   6.484   3.485
 3652SOL    HW111855   4.952   6.527   3.428
 3652SOL    HW211856   5.074   6.555   3.533
 3653SOL     OW11857   5.947   1.289   3.304
 3653SOL    HW111858   5.859   1.299   3.352
 3653SOL    HW211859   5.964   1.372   3.250
 3654SOL     OW11860   2.433   6.674   0.502
 3654SOL    HW111861   2.439   6.733   0.583
 3654SOL    HW211862   2.340   6.637   0.495
 3655SOL     OW11863   1.747   0.077   4.328
 3655SOL    HW111864   1.719   0.132   4.407
 3655SOL    HW211865   1.810   0.130   4.271
 3656SOL     OW11866   1.946   2.425   2.131
 3656SOL    HW111867   2.022   2.487   2.114
 3656SOL    HW211868   1.899   2.405   2.044
 3657SOL     OW11869   3.858   5.804   6.821
 3657SOL    HW111870   3.781   5.812   6.883
 3657SOL    HW211871   3.825   5.784   6.729
 3658SOL     OW11872   1.167   5.597   5.059
 3658SOL    HW111873   1.203   5.657   4.988
 3658SOL    HW211874   1.084   5.637   5.098
 3659SOL     OW11875   3.082   4.439   0.205
 3659SOL    HW111876   3.141   4.442   0.124
 3659SOL    HW211877   3.085   4.528   0.251
 3660SOL     OW11878   4.633   6.145   2.324
 3660SOL    HW111879   4.594   6.171   2.236
 3660SOL    HW211880   4.559   6.118   2.386
 3661SOL     OW11881   5.184   2.462   6.959
 3661SOL    HW111882   5.182   2.530   6.886
 3661SOL    HW211883   5.246   2.387   6.933
 3662SOL     OW11884   3.712   0.099   4.872
 3662SOL    HW111885   3.681   0.152   4.951
 3662SOL    HW211886   3.645   0.104   4.799
 3663SOL     OW11887   1.491   1.430   0.529
 3663SOL    HW111888   1.472   1.410   0.433
 3663SOL    HW211889   1.570   1.376   0.559
 3664SOL     OW11890   4.691   1.542   0.226
 3664SOL    HW111891   4.721   1.617   0.285
 3664SOL    HW211892   4.764   1.519   0.162
 3665SOL     OW11893   0.734   6.403   5.252
 3665SOL    HW111894   0.773   6.341   5.184
 3665SOL    HW211895   0.711   6.351   5.335
 3666SOL     OW11896   1.569   4.509   3.680
 3666SOL    HW111897   1.509   4.500   3.759
 3666SOL    HW211898   1.517   4.496   3.596
 3667SOL     OW11899   5.962   0.946   6.621
 3667SOL    HW111900   5.869   0.960   6.586
 3667SOL    HW211901   5.973   0.997   6.706
 3668SOL     OW11902   1.155   6.971   2.864
 3668SOL    HW111903   1.219   6.934   2.796
 3668SOL    HW211904   1.067   6.924   2.855
 3669SOL     OW11905   6.032   1.648   4.381
 3669SOL    HW111906   6.038   1.570   4.443
 3669SOL    HW211907   6.080   1.627   4.296
 3670SOL     OW11908   2.421   5.116   0.078
 3670SOL    HW111909   2.355   5.040   0.077
 3670SOL    HW211910   2.494   5.098   0.012
 3671SOL     OW11911   6.547   0.444   2.902
 3671SOL    HW111912   6.559   0.354   2.944
 3671SOL    HW211913   6.636   0.482   2.878
 3672SOL     OW11914   6.207   1.875   0.418
 3672SOL    HW111915   6.125   1.929   0.395
 3672SOL    HW211916   6.179   1.785   0.452
 3673SOL     OW11917   3.825   1.045   6.241
 3673SOL    HW111918   3.898   1.038   6.174
 3673SOL    HW211919   3.855   1.098   6.320
 3674SOL     OW11920   0.535   6.558   6.830
 3674SOL    HW111921   0.552   6.625   6.757
 3674SOL    HW211922   0.618   6.544   6.884
 3675SOL     OW11923   1.301   2.701   5.547
 3675SOL    HW111924   1.233   2.757   5.595
 3675SOL    HW211925   1.268   2.681   5.455
 3676SOL     OW11926   4.019   5.440   4.095
 3676SOL    HW111927   4.062   5.350   4.092
 3676SOL    HW211928   3.920   5.429   4.107
 3677SOL     OW11929   0.584   6.613   3.411
 3677SOL    HW111930   0.561   6.635   3.316
 3677SOL    HW211931   0.677   6.643   3.431
 3678SOL     OW11932   1.281   2.412   3.406
 3678SOL    HW111933   1.292   2.410   3.307
 3678SOL    HW211934   1.367   2.385   3.450
 3679SOL     OW11935   0.224   0.775   2.597
 3679SOL    HW111936   0.141   0.788   2.653
 3679SOL    HW211937   0.254   0.680   2.604
 3680SOL     OW11938   6.210   2.597   3.823
 3680SOL    HW111939   6.136   2.660   3.846
 3680SOL    HW211940   6.236   2.545   3.904
 3681SOL     OW11941   0.904   0.959   5.783
 3681SOL    HW111942   0.836   0.942   5.711
 3681SOL    HW211943   0.939   0.872   5.816
 3682SOL     OW11944   6.372   1.910   5.645
 3682SOL    HW111945   6.376   2.001   5.603
 3682SOL    HW211946   6.281   1.895   5.683
 3683SOL     OW11947   6.346   6.876   4.661
 3683SOL    HW111948   6.330   6.797   4.720
 3683SOL    HW211949   6.439   6.872   4.623
 3684SOL     OW11950   1.851   2.822   1.656
 3684SOL    HW111951   1.919   2.797   1.586
 3684SOL    HW211952   1.859   2.758   1.733
 3685SOL     OW11953   6.254   5.835   6.235
 3685SOL    HW111954   6.279   5.768   6.165
 3685SOL    HW211955   6.246   5.925   6.193
 3686SOL     OW11956   6.513   4.848   2.631
 3686SOL    HW111957   6.520   4.838   2.532
 3686SOL    HW211958   6.596   4.814   2.674
 3687SOL     OW11959   3.216   6.349   6.449
 3687SOL    HW111960   3.135   6.318   6.398
 3687SOL    HW211961   3.189   6.417   6.517
 3688SOL     OW11962   0.741   3.668   6.988
 3688SOL    HW111963   0.723   3.572   7.011
 3688SOL    HW211964   0.820   3.700   0.015
 3689SOL     OW11965   0.823   0.584   5.138
 3689SOL    HW111966   0.890   0.610   5.068
 3689SOL    HW211967   0.836   0.641   5.219
 3690SOL     OW11968   4.340   0.973   6.105
 3690SOL    HW111969   4.343   0.999   6.009
 3690SOL    HW211970   4.332   0.873   6.112
 3691SOL     OW11971   2.651   2.980   6.567
 3691SOL    HW111972   2.609   3.054   6.619
 3691SOL    HW211973   2.693   2.915   6.630
 3692SOL     OW11974   0.862   5.734   4.462
 3692SOL    HW111975   0.953   5.740   4.422
 3692SOL    HW211976   0.861   5.778   4.551
 3693SOL     OW11977   1.706   2.254   3.249
 3693SOL    HW111978   1.631   2.253   3.315
 3693SOL    HW211979   1.713   2.164   3.205
 3694SOL     OW11980   1.158   5.663   3.443
 3694SOL    HW111981   1.197   5.700   3.358
 3694SOL    HW211982   1.182   5.722   3.519
 3695SOL     OW11983   0.502   2.197   2.793
 3695SOL    HW111984   0.453   2.284   2.791
 3695SOL    HW211985   0.543   2.184   2.883
 3696SOL     OW11986   4.781   6.181   5.960
 3696SOL    HW111987   4.850   6.113   5.983
 3696SOL    HW211988   4.745   6.162   5.869
 3697SOL     OW11989   6.889   6.717   3.400
 3697SOL    HW111990   6.903   6.760   3.311
 3697SOL    HW211991   6.972   6.725   3.454
 3698SOL     OW11992   3.881   0.347   5.414
 3698SOL    HW111993   3.819   0.285   5.464
 3698SOL    HW211994   3.938   0.294   5.352
 3699SOL     OW11995   6.914   4.120   2.694
 3699SOL    HW111996   6.930   4.043   2.632
 3699SOL    HW211997   7.002   4.156   2.726
 3700SOL     OW11998   6.393   0.503   4.189
 3700SOL    HW111999   6.330   0.577   4.212
 3700SOL    HW212000   6.477   0.513   4.242
 3701SOL     OW12001   0.605   0.835   4.314
 3701SOL    HW112002   0.692   0.804   4.352
 3701SOL    HW212003   0.555   0.757   4.276
 3702SOL     OW12004   4.388   0.003   1.708
 3702SOL    HW112005   4.391   0.058   1.791
 3702SOL    HW212006   4.390   6.932   1.732
 3703SOL     OW12007   4.189   3.908   6.058
 3703SOL    HW112008   4.245   3.829   6.035
 3703SOL    HW212009   4.200   3.979   5.988
 3704SOL     OW12010   2.968   0.909   2.360
 3704SOL    HW112011   2.981   1.002   2.396
 3704SOL    HW212012   3.011   0.843   2.422
 3705SOL     OW12013   4.777   0.103   3.950
 3705SOL    HW112014   4.767   0.021   3.894
 3705SOL    HW212015   4.831   0.082   4.031
 3706SOL     OW12016   1.971   2.826   4.538
 3706SOL    HW112017   2.029   2.802   4.616
 3706SOL    HW212018   1.945   2.922   4.543
 3707SOL     OW12019   5.444   2.969   5.471
 3707SOL    HW112020   5.358   2.926   5.501
 3707SOL    HW212021   5.442   3.066   5.496
 3708SOL     OW12022   5.783   0.357   6.365
 3708SOL    HW112023   5.763   0.283   6.428
 3708SOL    HW212024   5.861   0.332   6.308
 3709SOL     OW12025   3.180   1.137   5.797
 3709SOL    HW112026   3.183   1.198   5.718
 3709SOL    HW212027   3.258   1.156   5.856
 3710SOL     OW12028   6.533   5.980   6.898
 3710SOL    HW112029   6.485   6.048   6.843
 3710SOL    HW212030   6.469   5.938   6.962
 3711SOL     OW12031   0.544   5.803   2.684
 3711SOL    HW112032   0.455   5.816   2.726
 3711SOL    HW212033   0.532   5.781   2.587
 3712SOL     OW12034   6.847   6.559   6.736
 3712SOL    HW112035   6.828   6.517   6.825
 3712SOL    HW212036   6.895   6.493   6.678
 3713SOL     OW12037   2.122   5.871   4.905
 3713SOL    HW112038   2.215   5.906   4.903
 3713SOL    HW212039   2.067   5.916   4.834
 3714SOL     OW12040   4.962   6.306   4.948
 3714SOL    HW112041   4.913   6.346   5.025
 3714SOL    HW212042   4.943   6.358   4.865
 3715SOL     OW12043   6.022   4.477   4.996
 3715SOL    HW112044   5.984   4.386   4.985
 3715SOL    HW212045   6.081   4.499   4.918
 3716SOL     OW12046   6.621   0.179   4.517
 3716SOL    HW112047   6.660   0.204   4.429
 3716SOL    HW212048   6.692   0.184   4.587
 3717SOL     OW12049   6.047   6.080   0.767
 3717SOL    HW112050   6.144   6.066   0.748
 3717SOL    HW212051   6.016   6.165   0.725
 3718SOL     OW12052   1.119   6.519   6.624
 3718SOL    HW112053   1.181   6.457   6.575
 3718SOL    HW212054   1.113   6.491   6.720
 3719SOL     OW12055   4.909   4.876   0.771
 3719SOL    HW112056   4.851   4.948   0.734
 3719SOL    HW212057   4.852   4.803   0.808
 3720SOL     OW12058   6.358   2.015   6.263
 3720SOL    HW112059   6.298   1.938   6.286
 3720SOL    HW212060   6.453   1.988   6.276
 3721SOL     OW12061   5.624   5.000   6.874
 3721SOL    HW112062   5.556   5.015   6.802
 3721SOL    HW212063   5.611   5.067   6.947
 3722SOL     OW12064   6.704   5.930   2.464
 3722SOL    HW112065   6.801   5.942   2.444
 3722SOL    HW212066   6.693   5.856   2.531
 3723SOL     OW12067   5.549   6.819   2.073
 3723SOL    HW112068   5.549   6.747   2.004
 3723SOL    HW212069   5.642   6.832   2.107
 3724SOL     OW12070   1.697   4.762   6.959
 3724SOL    HW112071   1.643   4.771   6.876
 3724SOL    HW212072   1.697   4.848   7.009
 3725SOL     OW12073   6.383   6.367   0.053
 3725SOL    HW112074   6.474   6.370   0.094
 3725SOL    HW212075   6.328   6.298   0.100
 3726SOL     OW12076   6.744   3.995   1.255
 3726SOL    HW112077   6.709   3.954   1.339
 3726SOL    HW212078   6.682   4.067   1.224
 3727SOL     OW12079   0.351   3.399   5.599
 3727SOL    HW112080   0.414   3.324   5.576
 3727SOL    HW212081   0.396   3.461   5.664
 3728SOL     OW12082   2.283   3.367   0.573
 3728SOL    HW112083   2.343   3.440   0.538
 3728SOL    HW212084   2.188   3.394   0.560
 3729SOL     OW12085   0.954   2.172   2.834
 3729SOL    HW112086   0.912   2.254   2.795
 3729SOL    HW212087   0.912   2.150   2.921
 3730SOL     OW12088   2.549   0.331   0.655
 3730SOL    HW112089   2.629   0.281   0.690
 3730SOL    HW212090   2.567   0.360   0.561
 3731SOL     OW12091   5.366   2.012   0.364
 3731SOL    HW112092   5.311   2.046   0.441
 3731SOL    HW212093   5.435   2.080   0.339
 3732SOL     OW12094   2.095   3.232   6.000
 3732SOL    HW112095   2.165   3.230   6.072
 3732SOL    HW212096   2.058   3.325   5.993
 3733SOL     OW12097   2.217   4.129   1.781
 3733SOL    HW112098   2.256   4.135   1.873
 3733SOL    HW212099   2.268   4.062   1.728
 3734SOL     OW12100   4.603   1.388   2.227
 3734SOL    HW112101   4.527   1.356   2.170
 3734SOL    HW212102   4.687   1.341   2.200
 3735SOL     OW12103   1.535   2.286   2.330
 3735SOL    HW112104   1.444   2.280   2.371
 3735SOL    HW212105   1.592   2.347   2.384
 3736SOL     OW12106   0.481   2.702   0.730
 3736SOL    HW112107   0.509   2.710   0.635
 3736SOL    HW212108   0.412   2.772   0.751
 3737SOL     OW12109   5.059   0.397   3.365
 3737SOL    HW112110   5.105   0.310   3.383
 3737SOL    HW212111   5.126   0.471   3.365
 3738SOL     OW12112   6.238   5.800   3.067
 3738SOL    HW112113   6.145   5.836   3.054
 3738SOL    HW212114   6.259   5.799   3.165
 3739SOL     OW12115   1.534   3.995   2.678
 3739SOL    HW112116   1.587   4.068   2.635
 3739SOL    HW212117   1.472   3.955   2.610
 3740SOL     OW12118   4.395   0.865   6.564
 3740SOL    HW112119   4.334   0.786   6.564
 3740SOL    HW212120   4.376   0.923   6.485
 3741SOL     OW12121   4.401   3.784   0.849
 3741SOL    HW112122   4.373   3.698   0.892
 3741SOL    HW212123   4.330   3.852   0.861
 3742SOL     OW12124   2.861   2.310   5.905
 3742SOL    HW112125   2.894   2.216   5.890
 3742SOL    HW212126   2.815   2.343   5.823
 3743SOL     OW12127   5.936   5.018   0.532
 3743SOL    HW112128   5.879   4.961   0.472
 3743SOL    HW212129   6.016   5.050   0.481
 3744SOL     OW12130   0.771   5.169   4.343
 3744SOL    HW112131   0.722   5.219   4.272
 3744SOL    HW212132   0.705   5.136   4.412
 3745SOL     OW12133   3.585   5.312   2.952
 3745SOL    HW112134   3.654   5.364   3.003
 3745SOL    HW212135   3.518   5.274   3.016
 3746SOL     OW12136   4.371   1.449   1.654
 3746SOL    HW112137   4.371   1.482   1.560
 3746SOL    HW212138   4.378   1.527   1.717
 3747SOL     OW12139   3.281   6.485   6.203
 3747SOL    HW112140   3.228   6.561   6.240
 3747SOL    HW212141   3.306   6.422   6.277
 3748SOL     OW12142   5.590   1.211   1.507
 3748SOL    HW112143   5.541   1.280   1.454
 3748SOL    HW212144   5.526   1.164   1.568
 3749SOL     OW12145   2.015   0.054   4.531
 3749SOL    HW112146   1.994   0.007   4.446
 3749SOL    HW212147   1.956   0.019   4.604
 3750SOL     OW12148   1.118   3.939   6.938
 3750SOL    HW112149   1.123   3.848   6.980
 3750SOL    HW212150   1.160   4.006   6.999
 3751SOL     OW12151   0.190   4.057   2.999
 3751SOL    HW112152   0.153   3.969   3.028
 3751SOL    HW212153   0.269   4.081   3.056
 3752SOL     OW12154   5.205   0.906   5.834
 3752SOL    HW112155   5.296   0.916   5.795
 3752SOL    HW212156   5.191   0.812   5.864
 3753SOL     OW12157   6.580   1.245   4.647
 3753SOL    HW112158   6.638   1.325   4.665
 3753SOL    HW212159   6.638   1.165   4.629
 3754SOL     OW12160   2.305   0.996   2.186
 3754SOL    HW112161   2.308   0.959   2.279
 3754SOL    HW212162   2.237   1.070   2.183
 3755SOL     OW12163   3.237   4.912   4.669
 3755SOL    HW112164   3.204   5.007   4.675
 3755SOL    HW212165   3.165   4.854   4.632
 3756SOL     OW12166   2.441   5.837   0.596
 3756SOL    HW112167   2.433   5.937   0.593
 3756SOL    HW212168   2.408   5.799   0.510
 3757SOL     OW12169   6.494   4.907   1.908
 3757SOL    HW112170   6.528   4.995   1.939
 3757SOL    HW212171   6.472   4.912   1.810
 3758SOL     OW12172   1.812   0.727   3.817
 3758SOL    HW112173   1.799   0.658   3.746
 3758SOL    HW212174   1.856   0.685   3.896
 3759SOL     OW12175   5.566   0.944   4.074
 3759SOL    HW112176   5.477   0.916   4.112
 3759SOL    HW212177   5.615   0.998   4.141
 3760SOL     OW12178   0.192   0.357   3.987
 3760SOL    HW112179   0.265   0.419   4.014
 3760SOL    HW212180   0.118   0.409   3.944
 3761SOL     OW12181   5.252   1.376   4.560
 3761SOL    HW112182   5.188   1.402   4.487
 3761SOL    HW212183   5.226   1.422   4.644
 3762SOL     OW12184   1.399   4.211   2.426
 3762SOL    HW112185   1.341   4.182   2.349
 3762SOL    HW212186   1.490   4.170   2.416
 3763SOL     OW12187   0.174   4.221   0.550
 3763SOL    HW112188   0.160   4.233   0.648
 3763SOL    HW212189   0.088   4.235   0.502
 3764SOL     OW12190   1.929   0.078   3.440
 3764SOL    HW112191   1.939   7.004   3.438
 3764SOL    HW212192   2.018   0.121   3.422
 3765SOL     OW12193   6.423   1.900   1.252
 3765SOL    HW112194   6.459   1.990   1.276
 3765SOL    HW212195   6.498   1.842   1.220
 3766SOL     OW12196   1.889   2.833   3.572
 3766SOL    HW112197   1.840   2.751   3.543
 3766SOL    HW212198   1.830   2.886   3.634
 3767SOL     OW12199   3.233   4.489   6.053
 3767SOL    HW112200   3.325   4.526   6.035
 3767SOL    HW212201   3.181   4.490   5.968
 3768SOL     OW12202   1.372   0.941   4.650
 3768SOL    HW112203   1.281   0.967   4.683
 3768SOL    HW212204   1.387   0.979   4.559
 3769SOL     OW12205   5.459   5.743   4.608
 3769SOL    HW112206   5.493   5.821   4.662
 3769SOL    HW212207   5.366   5.720   4.636
 3770SOL     OW12208   1.047   1.388   0.909
 3770SOL    HW112209   1.133   1.384   0.858
 3770SOL    HW212210   0.981   1.445   0.858
 3771SOL     OW12211   6.724   5.343   0.583
 3771SOL    HW112212   6.798   5.307   0.640
 3771SOL    HW212213   6.715   5.288   0.501
 3772SOL     OW12214   1.087   6.220   0.859
 3772SOL    HW112215   1.122   6.211   0.766
 3772SOL    HW212216   1.064   6.130   0.896
 3773SOL     OW12217   5.391   3.322   5.997
 3773SOL    HW112218   5.432   3.231   5.992
 3773SOL    HW212219   5.397   3.357   6.091
 3774SOL     OW12220   5.452   5.763   1.460
 3774SOL    HW112221   5.510   5.743   1.381
 3774SOL    HW212222   5.403   5.848   1.445
 3775SOL     OW12223   4.092   4.880   3.228
 3775SOL    HW112224   4.010   4.887   3.171
 3775SOL    HW212225   4.155   4.814   3.188
 3776SOL     OW12226   3.783   2.698   6.230
 3776SOL    HW112227   3.859   2.646   6.268
 3776SOL    HW212228   3.799   2.796   6.246
 3777SOL     OW12229   2.790   6.952   4.241
 3777SOL    HW112230   2.697   6.920   4.223
 3777SOL    HW212231   2.832   6.981   4.156
 3778SOL     OW12232   2.859   6.277   4.873
 3778SOL    HW112233   2.834   6.184   4.846
 3778SOL    HW212234   2.875   6.280   4.972
 3779SOL     OW12235   0.007   5.453   0.366
 3779SOL    HW112236   0.010   5.552   0.351
 3779SOL    HW212237   6.945   5.428   0.407
 3780SOL     OW12238   0.022   2.577   2.141
 3780SOL    HW112239   0.081   2.604   2.216
 3780SOL    HW212240   6.990   2.654   2.114
 3781SOL     OW12241   1.778   6.742   5.167
 3781SOL    HW112242   1.703   6.706   5.221
 3781SOL    HW212243   1.840   6.795   5.225
 3782SOL     OW12244   4.333   6.430   1.634
 3782SOL    HW112245   4.351   6.519   1.675
 3782SOL    HW212246   4.393   6.361   1.677
 3783SOL     OW12247   5.619   5.251   5.774
 3783SOL    HW112248   5.536   5.195   5.764
 3783SOL    HW212249   5.654   5.275   5.683
 3784SOL     OW12250   5.395   2.477   2.689
 3784SOL    HW112251   5.476   2.423   2.711
 3784SOL    HW212252   5.313   2.421   2.704
 3785SOL     OW12253   0.661   2.842   4.716
 3785SOL    HW112254   0.646   2.913   4.647
 3785SOL    HW212255   0.686   2.884   4.803
 3786SOL     OW12256   2.732   2.070   4.079
 3786SOL    HW112257   2.643   2.028   4.060
 3786SOL    HW212258   2.731   2.164   4.047
 3787SOL     OW12259   4.212   0.506   2.768
 3787SOL    HW112260   4.122   0.502   2.811
 3787SOL    HW212261   4.282   0.517   2.839
 3788SOL     OW12262   0.519   3.689   5.051
 3788SOL    HW112263   0.573   3.771   5.031
 3788SOL    HW212264   0.507   3.635   4.968
 3789SOL     OW12265   1.198   2.284   2.831
 3789SOL    HW112266   1.191   2.331   2.919
 3789SOL    HW212267   1.124   2.217   2.823
 3790SOL     OW12268   0.519   5.997   0.584
 3790SOL    HW112269   0.571   6.079   0.610
 3790SOL    HW212270   0.546   5.968   0.492
 3791SOL     OW12271   5.528   1.166   5.612
 3791SOL    HW112272   5.628   1.162   5.624
 3791SOL    HW212273   5.502   1.258   5.584
 3792SOL     OW12274   0.883   0.752   4.361
 3792SOL    HW112275   0.956   0.808   4.322
 3792SOL    HW212276   0.886   0.661   4.321
 3793SOL     OW12277   6.283   6.513   0.605
 3793SOL    HW112278   6.203   6.552   0.559
 3793SOL    HW212279   6.277   6.413   0.602
 3794SOL     OW12280   1.765   4.003   1.036
 3794SOL    HW112281   1.835   3.971   1.100
 3794SOL    HW212282   1.809   4.048   0.958
 3795SOL     OW12283   3.023   5.808   1.176
 3795SOL    HW112284   3.002   5.906   1.182
 3795SOL    HW212285   3.030   5.770   1.268
 3796SOL     OW12286   4.164   1.882   1.133
 3796SOL    HW112287   4.160   1.981   1.148
 3796SOL    HW212288   4.256   1.856   1.104
 3797SOL     OW12289   1.126   4.388   2.540
 3797SOL    HW112290   1.213   4.342   2.554
 3797SOL    HW212291   1.093   4.426   2.627
 3798SOL     OW12292   2.853   6.811   3.231
 3798SOL    HW112293   2.807   6.730   3.269
 3798SOL    HW212294   2.870   6.796   3.134
 3799SOL     OW12295   6.746   2.319   3.163
 3799SOL    HW112296   6.794   2.258   3.226
 3799SOL    HW212297   6.805   2.340   3.086
 3800SOL     OW12298   5.747   1.894   3.354
 3800SOL    HW112299   5.691   1.925   3.431
 3800SOL    HW212300   5.746   1.963   3.282
 3801SOL     OW12301   5.439   6.671   2.601
 3801SOL    HW112302   5.386   6.725   2.536
 3801SOL    HW212303   5.403   6.578   2.604
 3802SOL     OW12304   6.992   1.595   2.242
 3802SOL    HW112305   6.908   1.587   2.189
 3802SOL    HW212306   0.046   1.589   2.181
 3803SOL     OW12307   2.973   3.910   4.039
 3803SOL    HW112308   2.928   3.833   4.084
 3803SOL    HW212309   3.062   3.925   4.081
 3804SOL     OW12310   3.823   0.382   4.715
 3804SOL    HW112311   3.814   0.421   4.807
 3804SOL    HW212312   3.911   0.335   4.707
 3805SOL     OW12313   2.081   2.988   0.336
 3805SOL    HW112314   2.131   3.013   0.253
 3805SOL    HW212315   2.111   2.897   0.367
 3806SOL     OW12316   4.230   4.645   6.467
 3806SOL    HW112317   4.258   4.616   6.558
 3806SOL    HW212318   4.215   4.564   6.410
 3807SOL     OW12319   1.608   5.206   3.912
 3807SOL    HW112320   1.611   5.175   4.007
 3807SOL    HW212321   1.638   5.301   3.907
 3808SOL     OW12322   4.762   0.184   6.057
 3808SOL    HW112323   4.813   0.115   6.108
 3808SOL    HW212324   4.728   0.144   5.972
 3809SOL     OW12325   5.643   1.958   1.156
 3809SOL    HW112326   5.705   1.880   1.167
 3809SOL    HW212327   5.574   1.957   1.228
 3810SOL     OW12328   6.455   2.303   3.046
 3810SOL    HW112329   6.410   2.347   3.125
 3810SOL    HW212330   6.551   2.285   3.069
 3811SOL     OW12331   0.129   5.173   4.757
 3811SOL    HW112332   0.038   5.134   4.751
 3811SOL    HW212333   0.161   5.199   4.666
 3812SOL     OW12334   3.606   5.889   6.996
 3812SOL    HW112335   3.523   5.914   0.020
 3812SOL    HW212336   3.682   5.947   0.002
 3813SOL     OW12337   6.471   3.577   1.081
 3813SOL    HW112338   6.411   3.657   1.084
 3813SOL    HW212339   6.542   3.586   1.152
 3814SOL     OW12340   0.031   6.753   4.065
 3814SOL    HW112341   6.984   6.808   4.105
 3814SOL    HW212342   0.067   6.798   3.983
 3815SOL     OW12343   5.261   3.281   0.538
 3815SOL    HW112344   5.270   3.322   0.629
 3815SOL    HW212345   5.344   3.230   0.516
 3816SOL     OW12346   1.151   6.491   5.252
 3816SOL    HW112347   1.228   6.523   5.197
 3816SOL    HW212348   1.133   6.395   5.233
 3817SOL     OW12349   4.968   3.887   2.422
 3817SOL    HW112350   4.920   3.969   2.455
 3817SOL    HW212351   4.923   3.854   2.338
 3818SOL     OW12352   0.513   0.441   1.279
 3818SOL    HW112353   0.424   0.469   1.316
 3818SOL    HW212354   0.556   0.518   1.233
 3819SOL     OW12355   6.802   4.774   3.308
 3819SOL    HW112356   6.832   4.787   3.403
 3819SOL    HW212357   6.727   4.709   3.305
 3820SOL     OW12358   5.298   6.831   4.346
 3820SOL    HW112359   5.364   6.764   4.381
 3820SOL    HW212360   5.219   6.784   4.308
 3821SOL     OW12361   0.266   6.777   6.706
 3821SOL    HW112362   0.286   6.866   6.746
 3821SOL    HW212363   0.167   6.762   6.706
 3822SOL     OW12364   3.567   0.666   0.433
 3822SOL    HW112365   3.508   0.630   0.505
 3822SOL    HW212366   3.545   0.621   0.347
 3823SOL     OW12367   5.255   4.705   6.007
 3823SOL    HW112368   5.301   4.666   6.086
 3823SOL    HW212369   5.156   4.710   6.024
 3824SOL     OW12370   1.219   2.962   0.336
 3824SOL    HW112371   1.206   3.060   0.328
 3824SOL    HW212372   1.267   2.941   0.421
 3825SOL     OW12373   0.916   4.294   0.966
 3825SOL    HW112374   0.908   4.390   0.991
 3825SOL    HW212375   0.999   4.281   0.911
 3826SOL     OW12376   6.585   4.440   2.465
 3826SOL    HW112377   6.644   4.422   2.385
 3826SOL    HW212378   6.527   4.519   2.446
 3827SOL     OW12379   0.871   0.766   1.119
 3827SOL    HW112380   0.952   0.728   1.073
 3827SOL    HW212381   0.900   0.841   1.179
 3828SOL     OW12382   3.683   4.222   4.754
 3828SOL    HW112383   3.701   4.318   4.777
 3828SOL    HW212384   3.770   4.174   4.743
 3829SOL     OW12385   0.645   5.276   2.378
 3829SOL    HW112386   0.642   5.268   2.278
 3829SOL    HW212387   0.733   5.243   2.411
 3830SOL     OW12388   0.335   0.503   5.045
 3830SOL    HW112389   0.256   0.472   5.097
 3830SOL    HW212390   0.376   0.582   5.090
 3831SOL     OW12391   4.053   1.831   3.123
 3831SOL    HW112392   4.066   1.930   3.118
 3831SOL    HW212393   4.140   1.785   3.103
 3832SOL     OW12394   0.534   0.103   1.735
 3832SOL    HW112395   0.589   0.063   1.661
 3832SOL    HW212396   0.517   0.199   1.715
 3833SOL     OW12397   1.359   6.674   6.327
 3833SOL    HW112398   1.455   6.699   6.310
 3833SOL    HW212399   1.356   6.597   6.391
 3834SOL     OW12400   4.408   4.413   1.482
 3834SOL    HW112401   4.311   4.428   1.497
 3834SOL    HW212402   4.455   4.501   1.472
 3835SOL     OW12403   3.932   5.936   5.419
 3835SOL    HW112404   3.850   5.991   5.429
 3835SOL    HW212405   3.908   5.846   5.382
 3836SOL     OW12406   0.496   5.088   6.280
 3836SOL    HW112407   0.433   5.128   6.346
 3836SOL    HW212408   0.528   5.160   6.218
 3837SOL     OW12409   3.655   5.239   5.069
 3837SOL    HW112410   3.671   5.283   5.157
 3837SOL    HW212411   3.733   5.254   5.009
 3838SOL     OW12412   1.882   1.206   3.581
 3838SOL    HW112413   1.905   1.183   3.675
 3838SOL    HW212414   1.807   1.148   3.549
 3839SOL     OW12415   4.470   0.304   3.161
 3839SOL    HW112416   4.559   0.283   3.202
 3839SOL    HW212417   4.408   0.338   3.231
 3840SOL     OW12418   2.370   1.120   6.047
 3840SOL    HW112419   2.424   1.037   6.035
 3840SOL    HW212420   2.404   1.170   6.127
 3841SOL     OW12421   0.427   4.378   4.004
 3841SOL    HW112422   0.406   4.401   4.100
 3841SOL    HW212423   0.345   4.388   3.949
 3842SOL     OW12424   2.479   2.450   4.151
 3842SOL    HW112425   2.387   2.438   4.113
 3842SOL    HW212426   2.473   2.457   4.251
 3843SOL     OW12427   5.323   3.355   1.373
 3843SOL    HW112428   5.356   3.447   1.352
 3843SOL    HW212429   5.254   3.328   1.305
 3844SOL     OW12430   1.433   4.818   0.133
 3844SOL    HW112431   1.439   4.723   0.100
 3844SOL    HW212432   1.466   4.880   0.062
 3845SOL     OW12433   2.081   6.493   0.018
 3845SOL    HW112434   2.066   6.592   0.025
 3845SOL    HW212435   2.165   6.469   0.067
 3846SOL     OW12436   0.648   2.994   4.366
 3846SOL    HW112437   0.562   2.950   4.339
 3846SOL    HW212438   0.629   3.060   4.439
 3847SOL     OW12439   5.392   1.920   4.332
 3847SOL    HW112440   5.314   1.911   4.393
 3847SOL    HW212441   5.466   1.861   4.364
 3848SOL     OW12442   4.676   2.689   2.975
 3848SOL    HW112443   4.624   2.656   3.054
 3848SOL    HW212444   4.656   2.631   2.896
 3849SOL     OW12445   0.316   6.912   6.469
 3849SOL    HW112446   0.320   6.877   6.563
 3849SOL    HW212447   0.222   6.939   6.447
 3850SOL     OW12448   3.086   2.918   1.558
 3850SOL    HW112449   3.079   2.820   1.574
 3850SOL    HW212450   3.115   2.964   1.642
 3851SOL     OW12451   7.006   4.663   3.781
 3851SOL    HW112452   0.055   4.629   3.724
 3851SOL    HW212453   0.009   4.749   3.824
 3852SOL     OW12454   3.602   0.099   4.153
 3852SOL    HW112455   3.614   0.197   4.137
 3852SOL    HW212456   3.604   0.051   4.066
 3853SOL     OW12457   2.255   1.763   3.514
 3853SOL    HW112458   2.338   1.819   3.508
 3853SOL    HW212459   2.232   1.748   3.610
 3854SOL     OW12460   1.462   3.295   2.872
 3854SOL    HW112461   1.561   3.314   2.867
 3854SOL    HW212462   1.446   3.198   2.855
 3855SOL     OW12463   4.015   6.200   0.639
 3855SOL    HW112464   4.083   6.263   0.600
 3855SOL    HW212465   3.924   6.227   0.607
 3856SOL     OW12466   0.994   1.918   6.121
 3856SOL    HW112467   1.042   1.833   6.142
 3856SOL    HW212468   0.909   1.897   6.073
 3857SOL     OW12469   1.790   6.342   5.274
 3857SOL    HW112470   1.802   6.374   5.368
 3857SOL    HW212471   1.833   6.253   5.263
 3858SOL     OW12472   3.296   1.889   5.889
 3858SOL    HW112473   3.214   1.915   5.837
 3858SOL    HW212474   3.332   1.803   5.854
 3859SOL     OW12475   6.009   1.198   1.052
 3859SOL    HW112476   6.095   1.194   1.001
 3859SOL    HW212477   5.993   1.291   1.084
 3860SOL     OW12478   2.031   0.588   4.398
 3860SOL    HW112479   2.081   0.507   4.427
 3860SOL    HW212480   1.954   0.561   4.340
 3861SOL     OW12481   4.414   6.036   2.481
 3861SOL    HW112482   4.427   5.962   2.547
 3861SOL    HW212483   4.320   6.035   2.447
 3862SOL     OW12484   0.817   0.498   4.232
 3862SOL    HW112485   0.788   0.479   4.326
 3862SOL    HW212486   0.866   0.419   4.195
 3863SOL     OW12487   5.833   1.507   0.148
 3863SOL    HW112488   5.746   1.460   0.160
 3863SOL    HW212489   5.834   1.552   0.059
 3864SOL     OW12490   2.745   0.522   4.734
 3864SOL    HW112491   2.659   0.573   4.744
 3864SOL    HW212492   2.779   0.531   4.641
 3865SOL     OW12493   4.386   1.043   0.676
 3865SOL    HW112494   4.306   1.040   0.736
 3865SOL    HW212495   4.390   1.131   0.629
 3866SOL     OW12496   3.824   1.115   6.954
 3866SOL    HW112497   3.910   1.099   7.004
 3866SOL    HW212498   3.816   1.049   6.880
 3867SOL     OW12499   1.489   4.457   3.118
 3867SOL    HW112500   1.536   4.393   3.057
 3867SOL    HW212501   1.469   4.542   3.069
 3868SOL     OW12502   4.098   0.314   6.728
 3868SOL    HW112503   4.179   0.283   6.678
 3868SOL    HW212504   4.023   0.328   6.665
 3869SOL     OW12505   6.614   3.198   3.985
 3869SOL    HW112506   6.545   3.158   3.924
 3869SOL    HW212507   6.648   3.284   3.946
 3870SOL     OW12508   6.827   6.657   2.179
 3870SOL    HW112509   6.734   6.633   2.152
 3870SOL    HW212510   6.859   6.595   2.250
 3871SOL     OW12511   3.284   6.934   3.468
 3871SOL    HW112512   3.311   6.856   3.411
 3871SOL    HW212513   3.249   7.007   3.410
 3872SOL     OW12514   3.121   3.005   4.240
 3872SOL    HW112515   3.200   2.951   4.270
 3872SOL    HW212516   3.053   3.009   4.314
 3873SOL     OW12517   5.167   3.961   1.125
 3873SOL    HW112518   5.142   3.944   1.029
 3873SOL    HW212519   5.155   3.877   1.178
 3874SOL     OW12520   4.210   0.595   0.642
 3874SOL    HW112521   4.157   0.528   0.589
 3874SOL    HW212522   4.272   0.547   0.704
 3875SOL     OW12523   1.758   3.166   3.961
 3875SOL    HW112524   1.721   3.216   3.883
 3875SOL    HW212525   1.855   3.188   3.972
 3876SOL     OW12526   3.390   5.212   1.145
 3876SOL    HW112527   3.312   5.263   1.107
 3876SOL    HW212528   3.433   5.159   1.072
 3877SOL     OW12529   6.777   2.551   1.127
 3877SOL    HW112530   6.791   2.519   1.221
 3877SOL    HW212531   6.857   2.526   1.071
 3878SOL     OW12532   4.656   6.030   4.798
 3878SOL    HW112533   4.750   6.022   4.830
 3878SOL    HW212534   4.648   5.986   4.708
 3879SOL     OW12535   5.745   5.251   0.511
 3879SOL    HW112536   5.817   5.181   0.509
 3879SOL    HW212537   5.785   5.339   0.536
 3880SOL     OW12538   4.896   3.947   4.302
 3880SOL    HW112539   4.867   3.865   4.351
 3880SOL    HW212540   4.994   3.962   4.315
 3881SOL     OW12541   2.038   3.565   1.495
 3881SOL    HW112542   2.099   3.515   1.557
 3881SOL    HW212543   2.028   3.660   1.526
 3882SOL     OW12544   0.951   1.447   0.139
 3882SOL    HW112545   1.040   1.445   0.185
 3882SOL    HW212546   0.960   1.407   0.048
 3883SOL     OW12547   4.192   1.071   2.650
 3883SOL    HW112548   4.218   1.142   2.716
 3883SOL    HW212549   4.194   1.110   2.558
 3884SOL     OW12550   0.387   5.382   2.415
 3884SOL    HW112551   0.484   5.359   2.412
 3884SOL    HW212552   0.375   5.471   2.459
 3885SOL     OW12553   6.237   5.997   3.697
 3885SOL    HW112554   6.259   5.917   3.752
 3885SOL    HW212555   6.239   6.079   3.754
 3886SOL     OW12556   4.332   5.454   5.195
 3886SOL    HW112557   4.334   5.475   5.292
 3886SOL    HW212558   4.237   5.439   5.166
 3887SOL     OW12559   0.673   6.891   0.203
 3887SOL    HW112560   0.686   6.895   0.104
 3887SOL    HW212561   0.660   6.797   0.231
 3888SOL     OW12562   6.630   6.714   5.233
 3888SOL    HW112563   6.704   6.729   5.168
 3888SOL    HW212564   6.668   6.703   5.325
 3889SOL     OW12565   6.926   2.625   0.328
 3889SOL    HW112566   6.917   2.717   0.290
 3889SOL    HW212567   7.016   2.615   0.370
 3890SOL     OW12568   6.003   5.008   3.265
 3890SOL    HW112569   6.072   4.952   3.310
 3890SOL    HW212570   6.009   4.995   3.166
 3891SOL     OW12571   4.996   4.045   3.912
 3891SOL    HW112572   4.980   4.122   3.974
 3891SOL    HW212573   4.946   4.059   3.827
 3892SOL     OW12574   1.103   2.614   0.954
 3892SOL    HW112575   1.116   2.712   0.937
 3892SOL    HW212576   1.177   2.580   1.012
 3893SOL     OW12577   4.059   4.092   0.662
 3893SOL    HW112578   4.118   4.150   0.606
 3893SOL    HW212579   4.028   4.013   0.608
 3894SOL     OW12580   5.012   0.893   6.829
 3894SOL    HW112581   4.987   0.812   6.775
 3894SOL    HW212582   5.010   0.974   6.771
 3895SOL     OW12583   0.787   0.165   5.738
 3895SOL    HW112584   0.777   0.248   5.683
 3895SOL    HW212585   0.858   0.107   5.698
 3896SOL     OW12586   0.881   1.273   6.316
 3896SOL    HW112587   0.918   1.186   6.285
 3896SOL    HW212588   0.854   1.265   6.412
 3897SOL     OW12589   3.976   5.808   2.695
 3897SOL    HW112590   3.922   5.801   2.610
 3897SOL    HW212591   3.979   5.903   2.725
 3898SOL     OW12592   2.789   2.312   6.526
 3898SOL    HW112593   2.767   2.239   6.590
 3898SOL    HW212594   2.750   2.398   6.558
 3899SOL     OW12595   4.538   6.590   6.030
 3899SOL    HW112596   4.564   6.686   6.014
 3899SOL    HW212597   4.613   6.530   6.001
 3900SOL     OW12598   4.569   2.463   3.789
 3900SOL    HW112599   4.474   2.447   3.763
 3900SOL    HW212600   4.574   2.488   3.885
 3901SOL     OW12601   3.330   0.727   6.027
 3901SOL    HW112602   3.338   0.627   6.032
 3901SOL    HW212603   3.390   0.769   6.095
 3902SOL     OW12604   6.666   2.975   2.170
 3902SOL    HW112605   6.571   2.944   2.168
 3902SOL    HW212606   6.670   3.073   2.150
 3903SOL     OW12607   3.806   6.673   0.079
 3903SOL    HW112608   3.754   6.648   0.161
 3903SOL    HW212609   3.817   6.772   0.075
 3904SOL     OW12610   1.857   0.958   6.132
 3904SOL    HW112611   1.866   0.869   6.176
 3904SOL    HW212612   1.925   0.966   6.059
 3905SOL     OW12613   6.605   6.747   6.134
 3905SOL    HW112614   6.515   6.785   6.115
 3905SOL    HW212615   6.635   6.690   6.057
 3906SOL     OW12616   5.930   6.479   5.197
 3906SOL    HW112617   5.882   6.567   5.195
 3906SOL    HW212618   5.919   6.437   5.287
 3907SOL     OW12619   6.256   0.882   3.998
 3907SOL    HW112620   6.230   0.814   4.066
 3907SOL    HW212621   6.326   0.943   4.035
 3908SOL     OW12622   0.704   2.258   6.668
 3908SOL    HW112623   0.754   2.181   6.707
 3908SOL    HW212624   0.699   2.249   6.569
 3909SOL     OW12625   6.225   6.179   4.896
 3909SOL    HW112626   6.153   6.248   4.908
 3909SOL    HW212627   6.290   6.185   4.972
 3910SOL     OW12628   3.200   3.585   2.589
 3910SOL    HW112629   3.111   3.547   2.616
 3910SOL    HW212630   3.197   3.685   2.598
 3911SOL     OW12631   5.751   1.774   5.475
 3911SOL    HW112632   5.740   1.688   5.424
 3911SOL    HW212633   5.742   1.851   5.412
 3912SOL     OW12634   5.153   0.751   5.495
 3912SOL    HW112635   5.149   0.698   5.410
 3912SOL    HW212636   5.235   0.808   5.494
 3913SOL     OW12637   2.644   6.714   5.770
 3913SOL    HW112638   2.646   6.696   5.868
 3913SOL    HW212639   2.594   6.642   5.723
 3914SOL     OW12640   2.746   0.579   1.667
 3914SOL    HW112641   2.832   0.557   1.712
 3914SOL    HW212642   2.732   0.518   1.589
 3915SOL     OW12643   4.943   5.817   1.060
 3915SOL    HW112644   4.951   5.816   0.961
 3915SOL    HW212645   4.872   5.882   1.087
 3916SOL     OW12646   1.018   6.938   3.991
 3916SOL    HW112647   0.972   7.024   3.971
 3916SOL    HW212648   1.117   6.953   3.996
 3917SOL     OW12649   6.343   5.883   0.052
 3917SOL    HW112650   6.376   5.793   0.079
 3917SOL    HW212651   6.262   5.872   7.020
 3918SOL     OW12652   5.598   5.505   1.557
 3918SOL    HW112653   5.609   5.426   1.498
 3918SOL    HW212654   5.537   5.571   1.514
 3919SOL     OW12655   4.067   6.639   0.146
 3919SOL    HW112656   4.121   6.723   0.148
 3919SOL    HW212657   3.971   6.661   0.134
 3920SOL     OW12658   3.504   3.463   0.691
 3920SOL    HW112659   3.475   3.519   0.768
 3920SOL    HW212660   3.427   3.445   0.631
 3921SOL     OW12661   6.979   3.446   1.945
 3921SOL    HW112662   6.999   3.386   1.868
 3921SOL    HW212663   6.881   3.462   1.951
 3922SOL     OW12664   6.589   3.617   2.286
 3922SOL    HW112665   6.674   3.606   2.235
 3922SOL    HW212666   6.576   3.713   2.310
 3923SOL     OW12667   0.216   1.279   0.188
 3923SOL    HW112668   0.299   1.292   0.243
 3923SOL    HW212669   0.139   1.327   0.232
 3924SOL     OW12670   6.079   4.841   3.768
 3924SOL    HW112671   5.989   4.808   3.740
 3924SOL    HW212672   6.127   4.769   3.818
 3925SOL     OW12673   2.350   5.342   1.402
 3925SOL    HW112674   2.391   5.431   1.382
 3925SOL    HW212675   2.403   5.269   1.358
 3926SOL     OW12676   6.356   4.726   2.843
 3926SOL    HW112677   6.398   4.767   2.762
 3926SOL    HW212678   6.421   4.665   2.887
 3927SOL     OW12679   6.421   2.524   4.786
 3927SOL    HW112680   6.414   2.424   4.784
 3927SOL    HW212681   6.331   2.563   4.807
 3928SOL     OW12682   3.887   5.850   6.385
 3928SOL    HW112683   3.983   5.857   6.358
 3928SOL    HW212684   3.829   5.882   6.311
 3929SOL     OW12685   0.418   0.588   4.756
 3929SOL    HW112686   0.396   0.524   4.830
 3929SOL    HW212687   0.345   0.586   4.687
 3930SOL     OW12688   2.941   2.017   3.814
 3930SOL    HW112689   2.893   2.013   3.727
 3930SOL    HW212690   2.908   1.943   3.873
 3931SOL     OW12691   1.543   1.078   1.381
 3931SOL    HW112692   1.567   1.021   1.302
 3931SOL    HW212693   1.550   1.174   1.356
 3932SOL     OW12694   2.001   4.242   3.793
 3932SOL    HW112695   1.984   4.270   3.888
 3932SOL    HW212696   1.914   4.229   3.746
 3933SOL     OW12697   1.830   6.211   6.857
 3933SOL    HW112698   1.790   6.225   6.766
 3933SOL    HW212699   1.930   6.205   6.849
 3934SOL     OW12700   0.248   1.080   6.706
 3934SOL    HW112701   0.227   1.088   6.608
 3934SOL    HW212702   0.214   0.992   6.739
 3935SOL     OW12703   2.743   6.926   7.020
 3935SOL    HW112704   2.666   6.870   6.989
 3935SOL    HW212705   2.788   6.968   6.941
 3936SOL     OW12706   6.950   5.288   5.679
 3936SOL    HW112707   7.016   5.230   5.631
 3936SOL    HW212708   6.999   5.348   5.743
 3937SOL     OW12709   6.938   1.696   3.287
 3937SOL    HW112710   6.892   1.730   3.205
 3937SOL    HW212711   6.963   1.600   3.274
 3938SOL     OW12712   0.298   2.573   3.958
 3938SOL    HW112713   0.393   2.555   3.933
 3938SOL    HW212714   0.294   2.599   4.055
 3939SOL     OW12715   2.231   3.035   2.507
 3939SOL    HW112716   2.281   3.120   2.520
 3939SOL    HW212717   2.295   2.958   2.511
 3940SOL     OW12718   5.224   4.880   1.120
 3940SOL    HW112719   5.234   4.878   1.219
 3940SOL    HW212720   5.189   4.793   1.088
 3941SOL     OW12721   5.221   3.641   5.726
 3941SOL    HW112722   5.281   3.676   5.797
 3941SOL    HW212723   5.185   3.552   5.754
 3942SOL     OW12724   0.428   6.660   6.281
 3942SOL    HW112725   0.395   6.571   6.315
 3942SOL    HW212726   0.420   6.728   6.354
 3943SOL     OW12727   6.947   2.949   2.800
 3943SOL    HW112728   6.995   3.014   2.859
 3943SOL    HW212729   6.854   2.936   2.833
 3944SOL     OW12730   4.444   2.499   4.923
 3944SOL    HW112731   4.473   2.410   4.957
 3944SOL    HW212732   4.344   2.504   4.923
 3945SOL     OW12733   0.855   1.724   0.374
 3945SOL    HW112734   0.819   1.794   0.435
 3945SOL    HW212735   0.899   1.767   0.295
 3946SOL     OW12736   5.599   4.903   5.085
 3946SOL    HW112737   5.659   4.945   5.017
 3946SOL    HW212738   5.653   4.847   5.148
 3947SOL     OW12739   5.463   6.586   0.286
 3947SOL    HW112740   5.456   6.486   0.275
 3947SOL    HW212741   5.537   6.608   0.348
 3948SOL     OW12742   0.608   4.928   2.593
 3948SOL    HW112743   0.573   4.963   2.505
 3948SOL    HW212744   0.708   4.925   2.590
 3949SOL     OW12745   4.869   0.653   3.100
 3949SOL    HW112746   4.894   0.556   3.089
 3949SOL    HW212747   4.940   0.710   3.060
 3950SOL     OW12748   1.542   4.430   0.695
 3950SOL    HW112749   1.608   4.355   0.703
 3950SOL    HW212750   1.532   4.475   0.783
 3951SOL     OW12751   4.928   6.934   1.428
 3951SOL    HW112752   4.848   6.936   1.369
 3951SOL    HW212753   4.965   0.001   1.438
 3952SOL     OW12754   6.735   2.303   2.373
 3952SOL    HW112755   6.812   2.240   2.365
 3952SOL    HW212756   6.713   2.340   2.283
 3953SOL     OW12757   3.765   4.972   1.350
 3953SOL    HW112758   3.754   4.904   1.423
 3953SOL    HW212759   3.734   4.933   1.263
 3954SOL     OW12760   4.158   5.126   4.784
 3954SOL    HW112761   4.195   5.044   4.826
 3954SOL    HW212762   4.180   5.205   4.841
 3955SOL     OW12763   3.112   6.897   6.377
 3955SOL    HW112764   3.097   6.835   6.300
 3955SOL    HW212765   3.105   6.992   6.346
 3956SOL     OW12766   0.942   0.712   2.569
 3956SOL    HW112767   0.904   0.715   2.661
 3956SOL    HW212768   0.912   0.792   2.518
 3957SOL     OW12769   4.813   6.559   4.148
 3957SOL    HW112770   4.893   6.596   4.194
 3957SOL    HW212771   4.830   6.464   4.122
 3958SOL     OW12772   5.504   1.326   4.759
 3958SOL    HW112773   5.473   1.335   4.664
 3958SOL    HW212774   5.601   1.347   4.764
 3959SOL     OW12775   3.880   6.572   0.543
 3959SOL    HW112776   3.972   6.612   0.544
 3959SOL    HW212777   3.817   6.633   0.496
 3960SOL     OW12778   4.769   1.527   6.303
 3960SOL    HW112779   4.685   1.478   6.324
 3960SOL    HW212780   4.822   1.539   6.387
 3961SOL     OW12781   5.697   1.444   2.468
 3961SOL    HW112782   5.722   1.538   2.444
 3961SOL    HW212783   5.598   1.439   2.481
 3962SOL     OW12784   2.458   4.285   6.799
 3962SOL    HW112785   2.556   4.274   6.817
 3962SOL    HW212786   2.438   4.261   6.704
 3963SOL     OW12787   4.976   5.393   2.877
 3963SOL    HW112788   4.935   5.484   2.872
 3963SOL    HW212789   4.940   5.345   2.957
 3964SOL     OW12790   4.599   5.318   4.022
 3964SOL    HW112791   4.539   5.393   3.995
 3964SOL    HW212792   4.694   5.343   4.004
 3965SOL     OW12793   4.996   2.826   4.346
 3965SOL    HW112794   5.031   2.805   4.438
 3965SOL    HW212795   4.950   2.915   4.348
 3966SOL     OW12796   4.607   6.250   6.173
 3966SOL    HW112797   4.635   6.176   6.234
 3966SOL    HW212798   4.662   6.247   6.089
 3967SOL     OW12799   2.003   3.795   2.229
 3967SOL    HW112800   2.065   3.870   2.204
 3967SOL    HW212801   2.011   3.777   2.327
 3968SOL     OW12802   4.442   0.344   1.036
 3968SOL    HW112803   4.478   0.435   1.017
 3968SOL    HW212804   4.352   0.335   0.993
 3969SOL     OW12805   1.216   4.193   2.187
 3969SOL    HW112806   1.186   4.160   2.097
 3969SOL    HW212807   1.180   4.132   2.258
 3970SOL     OW12808   5.808   6.257   3.477
 3970SOL    HW112809   5.848   6.347   3.458
 3970SOL    HW212810   5.882   6.190   3.489
 3971SOL     OW12811   3.494   5.443   3.488
 3971SOL    HW112812   3.458   5.498   3.413
 3971SOL    HW212813   3.469   5.484   3.575
 3972SOL     OW12814   1.221   3.767   0.634
 3972SOL    HW112815   1.249   3.703   0.705
 3972SOL    HW212816   1.138   3.734   0.589
 3973SOL     OW12817   1.523   5.876   6.232
 3973SOL    HW112818   1.458   5.834   6.169
 3973SOL    HW212819   1.547   5.967   6.198
 3974SOL     OW12820   2.268   0.472   5.585
 3974SOL    HW112821   2.335   0.534   5.543
 3974SOL    HW212822   2.196   0.526   5.630
 3975SOL     OW12823   5.344   1.832   5.733
 3975SOL    HW112824   5.350   1.909   5.670
 3975SOL    HW212825   5.271   1.771   5.705
 3976SOL     OW12826   1.353   6.429   1.790
 3976SOL    HW112827   1.361   6.482   1.874
 3976SOL    HW212828   1.259   6.397   1.779
 3977SOL     OW12829   1.827   3.428   6.015
 3977SOL    HW112830   1.801   3.360   6.084
 3977SOL    HW212831   1.759   3.429   5.941
 3978SOL     OW12832   5.948   5.302   3.890
 3978SOL    HW112833   6.004   5.385   3.894
 3978SOL    HW212834   5.934   5.267   3.983
 3979SOL     OW12835   3.471   0.655   0.101
 3979SOL    HW112836   3.518   0.570   0.126
 3979SOL    HW212837   3.534   0.714   0.051
 3980SOL     OW12838   5.848   6.150   0.036
 3980SOL    HW112839   5.857   6.249   0.030
 3980SOL    HW212840   5.852   6.110   6.970
 3981SOL     OW12841   3.096   0.149   0.646
 3981SOL    HW112842   3.057   0.186   0.730
 3981SOL    HW212843   3.177   0.094   0.668
 3982SOL     OW12844   2.555   6.752   3.482
 3982SOL    HW112845   2.486   6.791   3.422
 3982SOL    HW212846   2.624   6.704   3.428
 3983SOL     OW12847   5.222   4.888   4.005
 3983SOL    HW112848   5.126   4.883   4.031
 3983SOL    HW212849   5.256   4.981   4.022
 3984SOL     OW12850   6.621   0.791   2.432
 3984SOL    HW112851   6.630   0.692   2.416
 3984SOL    HW212852   6.709   0.836   2.417
 3985SOL     OW12853   2.570   4.913   6.574
 3985SOL    HW112854   2.637   4.883   6.506
 3985SOL    HW212855   2.490   4.853   6.571
 3986SOL     OW12856   5.274   1.356   2.720
 3986SOL    HW112857   5.192   1.411   2.731
 3986SOL    HW212858   5.299   1.315   2.807
 3987SOL     OW12859   3.883   4.974   3.095
 3987SOL    HW112860   3.873   5.048   3.028
 3987SOL    HW212861   3.792   4.948   3.130
 3988SOL     OW12862   2.916   5.006   6.722
 3988SOL    HW112863   2.936   5.102   6.742
 3988SOL    HW212864   2.925   4.990   6.624
 3989SOL     OW12865   6.999   2.703   6.932
 3989SOL    HW112866   6.901   2.718   6.942
 3989SOL    HW212867   0.003   2.629   6.992
 3990SOL     OW12868   4.411   2.081   2.747
 3990SOL    HW112869   4.330   2.135   2.721
 3990SOL    HW212870   4.413   1.997   2.693
 3991SOL     OW12871   6.344   0.874   2.529
 3991SOL    HW112872   6.326   0.970   2.508
 3991SOL    HW212873   6.425   0.844   2.479
 3992SOL     OW12874   3.245   1.512   0.214
 3992SOL    HW112875   3.146   1.502   0.206
 3992SOL    HW212876   3.289   1.424   0.197
 3993SOL     OW12877   1.129   2.590   2.202
 3993SOL    HW112878   1.103   2.620   2.293
 3993SOL    HW212879   1.072   2.512   2.175
 3994SOL     OW12880   1.621   0.146   6.271
 3994SOL    HW112881   1.700   0.134   6.331
 3994SOL    HW212882   1.585   0.056   6.246
 3995SOL     OW12883   2.266   3.666   6.338
 3995SOL    HW112884   2.242   3.745   6.394
 3995SOL    HW212885   2.318   3.697   6.258
 3996SOL     OW12886   0.705   6.550   4.629
 3996SOL    HW112887   0.644   6.623   4.658
 3996SOL    HW212888   0.707   6.479   4.699
 3997SOL     OW12889   5.516   1.381   3.132
 3997SOL    HW112890   5.574   1.455   3.100
 3997SOL    HW212891   5.570   1.297   3.139
 3998SOL     OW12892   3.788   1.199   3.633
 3998SOL    HW112893   3.752   1.105   3.634
 3998SOL    HW212894   3.884   1.197   3.604
 3999SOL     OW12895   5.514   2.767   4.107
 3999SOL    HW112896   5.595   2.794   4.158
 3999SOL    HW212897   5.459   2.848   4.087
 4000SOL     OW12898   3.197   0.115   3.767
 4000SOL    HW112899   3.200   0.023   3.727
 4000SOL    HW212900   3.176   0.182   3.695
 4001SOL     OW12901   2.558   1.516   3.712
 4001SOL    HW112902   2.608   1.487   3.630
 4001SOL    HW212903   2.622   1.536   3.785
 4002SOL     OW12904   3.185   4.310   0.625
 4002SOL    HW112905   3.234   4.229   0.659
 4002SOL    HW212906   3.138   4.287   0.540
 4003SOL     OW12907   3.657   0.114   3.855
 4003SOL    HW112908   3.607   0.101   3.770
 4003SOL    HW212909   3.661   0.212   3.877
 4004SOL     OW12910   5.382   2.150   4.141
 4004SOL    HW112911   5.339   2.144   4.051
 4004SOL    HW212912   5.373   2.062   4.188
 4005SOL     OW12913   4.886   5.535   6.988
 4005SOL    HW112914   4.914   5.553   0.057
 4005SOL    HW212915   4.916   5.610   6.929
 4006SOL     OW12916   4.417   5.217   2.547
 4006SOL    HW112917   4.446   5.153   2.618
 4006SOL    HW212918   4.496   5.270   2.515
 4007SOL     OW12919   6.967   2.326   6.653
 4007SOL    HW112920   7.006   2.402   6.706
 4007SOL    HW212921   7.006   2.326   6.561
 4008SOL     OW12922   2.921   2.012   4.792
 4008SOL    HW112923   2.991   2.069   4.750
 4008SOL    HW212924   2.854   1.984   4.723
 4009SOL     OW12925   4.519   3.330   1.422
 4009SOL    HW112926   4.441   3.299   1.477
 4009SOL    HW212927   4.530   3.429   1.432
 4010SOL     OW12928   2.280   2.733   1.360
 4010SOL    HW112929   2.301   2.720   1.263
 4010SOL    HW212930   2.347   2.684   1.416
 4011SOL     OW12931   0.588   1.125   2.320
 4011SOL    HW112932   0.547   1.115   2.229
 4011SOL    HW212933   0.597   1.222   2.342
 4012SOL     OW12934   6.675   4.577   1.630
 4012SOL    HW112935   6.676   4.498   1.691
 4012SOL    HW212936   6.581   4.594   1.599
 4013SOL     OW12937   3.235   1.362   4.938
 4013SOL    HW112938   3.158   1.368   4.874
 4013SOL    HW212939   3.243   1.268   4.971
 4014SOL     OW12940   5.365   6.451   2.265
 4014SOL    HW112941   5.441   6.388   2.279
 4014SOL    HW212942   5.315   6.464   2.351
 4015SOL     OW12943   4.830   4.711   6.408
 4015SOL    HW112944   4.842   4.805   6.375
 4015SOL    HW212945   4.733   4.688   6.409
 4016SOL     OW12946   2.315   6.374   6.242
 4016SOL    HW112947   2.266   6.324   6.313
 4016SOL    HW212948   2.298   6.472   6.252
 4017SOL     OW12949   6.890   6.208   0.687
 4017SOL    HW112950   6.879   6.144   0.611
 4017SOL    HW212951   6.987   6.227   0.700
 4018SOL     OW12952   3.781   5.806   2.431
 4018SOL    HW112953   3.826   5.731   2.382
 4018SOL    HW212954   3.695   5.774   2.470
 4019SOL     OW12955   5.049   4.405   3.514
 4019SOL    HW112956   4.965   4.353   3.529
 4019SOL    HW212957   5.091   4.376   3.428
 4020SOL     OW12958   4.762   2.018   5.022
 4020SOL    HW112959   4.725   1.975   4.940
 4020SOL    HW212960   4.822   2.094   4.997
 4021SOL     OW12961   3.774   5.123   6.405
 4021SOL    HW112962   3.741   5.098   6.496
 4021SOL    HW212963   3.747   5.217   6.384
 4022SOL     OW12964   4.880   1.760   6.854
 4022SOL    HW112965   4.910   1.785   6.947
 4022SOL    HW212966   4.887   1.840   6.795
 4023SOL     OW12967   6.301   1.904   4.655
 4023SOL    HW112968   6.290   1.904   4.556
 4023SOL    HW212969   6.356   1.826   4.683
 4024SOL     OW12970   3.496   6.591   4.534
 4024SOL    HW112971   3.519   6.683   4.501
 4024SOL    HW212972   3.482   6.530   4.456
 4025SOL     OW12973   0.591   3.712   2.911
 4025SOL    HW112974   0.603   3.788   2.848
 4025SOL    HW212975   0.667   3.648   2.901
 4026SOL     OW12976   5.942   5.696   4.109
 4026SOL    HW112977   5.875   5.721   4.179
 4026SOL    HW212978   6.015   5.765   4.108
 4027SOL     OW12979   3.774   4.071   2.261
 4027SOL    HW112980   3.686   4.108   2.288
 4027SOL    HW212981   3.844   4.098   2.327
 4028SOL     OW12982   1.840   2.010   4.383
 4028SOL    HW112983   1.931   1.968   4.386
 4028SOL    HW212984   1.790   1.986   4.466
 4029SOL     OW12985   2.474   4.154   5.714
 4029SOL    HW112986   2.410   4.078   5.721
 4029SOL    HW212987   2.430   4.231   5.668
 4030SOL     OW12988   0.545   1.972   5.627
 4030SOL    HW112989   0.601   1.902   5.671
 4030SOL    HW212990   0.514   2.038   5.696
 4031SOL     OW12991   4.309   5.614   3.743
 4031SOL    HW112992   4.238   5.545   3.746
 4031SOL    HW212993   4.364   5.603   3.660
 4032SOL     OW12994   6.087   6.664   3.902
 4032SOL    HW112995   6.092   6.756   3.941
 4032SOL    HW212996   6.135   6.662   3.814
 4033SOL     OW12997   3.115   4.038   4.580
 4033SOL    HW112998   3.067   3.961   4.536
 4033SOL    HW212999   3.048   4.097   4.624
 4034SOL     OW13000   6.321   1.428   4.691
 4034SOL    HW113001   6.273   1.374   4.759
 4034SOL    HW213002   6.403   1.380   4.662
 4035SOL     OW13003   0.285   4.547   6.787
 4035SOL    HW113004   0.332   4.509   6.866
 4035SOL    HW213005   0.349   4.601   6.733
 4036SOL     OW13006   6.106   6.183   2.767
 4036SOL    HW113007   6.191   6.131   2.770
 4036SOL    HW213008   6.040   6.135   2.708
 4037SOL     OW13009   1.253   3.988   6.440
 4037SOL    HW113010   1.311   3.970   6.360
 4037SOL    HW213011   1.177   3.923   6.441
 4038SOL     OW13012   5.432   4.320   3.003
 4038SOL    HW113013   5.450   4.399   2.944
 4038SOL    HW213014   5.463   4.340   3.096
 4039SOL     OW13015   5.386   6.177   0.611
 4039SOL    HW113016   5.484   6.176   0.592
 4039SOL    HW213017   5.340   6.237   0.546
 4040SOL     OW13018   3.256   6.824   1.160
 4040SOL    HW113019   3.275   6.862   1.251
 4040SOL    HW213020   3.270   6.725   1.162
 4041SOL     OW13021   1.186   6.582   3.381
 4041SOL    HW113022   1.229   6.668   3.354
 4041SOL    HW213023   1.225   6.551   3.468
 4042SOL     OW13024   5.655   5.349   2.084
 4042SOL    HW113025   5.681   5.372   2.178
 4042SOL    HW213026   5.576   5.287   2.086
 4043SOL     OW13027   5.147   2.055   2.291
 4043SOL    HW113028   5.083   2.075   2.366
 4043SOL    HW213029   5.185   2.140   2.256
 4044SOL     OW13030   5.945   0.127   3.254
 4044SOL    HW113031   6.014   0.056   3.236
 4044SOL    HW213032   5.855   0.093   3.226
 4045SOL     OW13033   2.062   5.071   6.662
 4045SOL    HW113034   1.974   5.093   6.703
 4045SOL    HW213035   2.129   5.054   6.734
 4046SOL     OW13036   0.963   2.456   1.938
 4046SOL    HW113037   0.921   2.546   1.931
 4046SOL    HW213038   1.047   2.454   1.884
 4047SOL     OW13039   3.118   3.568   1.770
 4047SOL    HW113040   3.035   3.547   1.720
 4047SOL    HW213041   3.140   3.492   1.831
 4048SOL     OW13042   5.574   0.626   0.435
 4048SOL    HW113043   5.649   0.684   0.405
 4048SOL    HW213044   5.512   0.680   0.493
 4049SOL     OW13045   5.747   6.896   5.767
 4049SOL    HW113046   5.808   6.975   5.774
 4049SOL    HW213047   5.774   6.827   5.834
 4050SOL     OW13048   1.677   6.248   0.586
 4050SOL    HW113049   1.660   6.338   0.625
 4050SOL    HW213050   1.733   6.257   0.504
 4051SOL     OW13051   3.042   4.886   0.735
 4051SOL    HW113052   3.091   4.962   0.777
 4051SOL    HW213053   3.010   4.824   0.807
 4052SOL     OW13054   0.456   0.632   0.044
 4052SOL    HW113055   0.460   0.534   0.028
 4052SOL    HW213056   0.536   0.676   0.002
 4053SOL     OW13057   3.167   4.912   3.867
 4053SOL    HW113058   3.156   4.902   3.768
 4053SOL    HW213059   3.264   4.920   3.890
 4054SOL     OW13060   3.850   1.939   1.156
 4054SOL    HW113061   3.772   1.975   1.207
 4054SOL    HW213062   3.881   2.007   1.090
 4055SOL     OW13063   3.429   2.286   6.376
 4055SOL    HW113064   3.387   2.275   6.286
 4055SOL    HW213065   3.515   2.336   6.366
 4056SOL     OW13066   3.561   2.700   6.848
 4056SOL    HW113067   3.538   2.650   6.932
 4056SOL    HW213068   3.509   2.785   6.845
 4057SOL     OW13069   4.474   3.002   6.323
 4057SOL    HW113070   4.432   2.912   6.328
 4057SOL    HW213071   4.409   3.071   6.356
 4058SOL     OW13072   2.355   1.072   5.397
 4058SOL    HW113073   2.284   1.086   5.465
 4058SOL    HW213074   2.444   1.067   5.442
 4059SOL     OW13075   1.233   1.967   5.253
 4059SOL    HW113076   1.198   1.995   5.342
 4059SOL    HW213077   1.160   1.922   5.201
 4060SOL     OW13078   4.013   4.784   4.322
 4060SOL    HW113079   4.109   4.781   4.296
 4060SOL    HW213080   3.960   4.726   4.260
 4061SOL     OW13081   3.436   4.122   2.132
 4061SOL    HW113082   3.418   4.141   2.035
 4061SOL    HW213083   3.461   4.206   2.179
 4062SOL     OW13084   3.416   0.825   2.648
 4062SOL    HW113085   3.405   0.743   2.705
 4062SOL    HW213086   3.346   0.892   2.672
 4063SOL     OW13087   3.334   5.506   6.111
 4063SOL    HW113088   3.257   5.569   6.100
 4063SOL    HW213089   3.415   5.544   6.066
 4064SOL     OW13090   0.144   0.701   3.390
 4064SOL    HW113091   0.058   0.669   3.349
 4064SOL    HW213092   0.188   0.626   3.438
 4065SOL     OW13093   6.839   0.054   0.816
 4065SOL    HW113094   6.886   7.015   0.876
 4065SOL    HW213095   6.792   0.123   0.871
 4066SOL     OW13096   5.801   4.301   1.785
 4066SOL    HW113097   5.889   4.272   1.821
 4066SOL    HW213098   5.810   4.391   1.743
 4067SOL     OW13099   6.089   0.909   2.770
 4067SOL    HW113100   6.117   0.913   2.674
 4067SOL    HW213101   6.055   0.817   2.791
 4068SOL     OW13102   5.660   0.450   4.141
 4068SOL    HW113103   5.623   0.513   4.074
 4068SOL    HW213104   5.622   0.359   4.125
 4069SOL     OW13105   5.223   5.509   0.581
 4069SOL    HW113106   5.258   5.428   0.629
 4069SOL    HW213107   5.201   5.580   0.647
 4070SOL     OW13108   2.053   4.002   3.180
 4070SOL    HW113109   2.090   3.910   3.189
 4070SOL    HW213110   2.039   4.042   3.271
 4071SOL     OW13111   1.976   0.296   3.909
 4071SOL    HW113112   2.067   0.268   3.877
 4071SOL    HW213113   1.954   0.247   3.993
 4072SOL     OW13114   1.811   0.262   4.593
 4072SOL    HW113115   1.904   0.265   4.557
 4072SOL    HW213116   1.813   0.228   4.688
 4073SOL     OW13117   2.737   6.043   6.775
 4073SOL    HW113118   2.646   6.076   6.797
 4073SOL    HW213119   2.791   6.118   6.735
 4074SOL     OW13120   1.386   2.359   1.119
 4074SOL    HW113121   1.473   2.351   1.168
 4074SOL    HW213122   1.363   2.272   1.077
 4075SOL     OW13123   5.058   1.389   3.237
 4075SOL    HW113124   5.035   1.481   3.205
 4075SOL    HW213125   5.117   1.395   3.317
 4076SOL     OW13126   1.844   3.460   4.412
 4076SOL    HW113127   1.794   3.483   4.496
 4076SOL    HW213128   1.782   3.466   4.334
 4077SOL     OW13129   3.419   0.819   0.787
 4077SOL    HW113130   3.491   0.865   0.840
 4077SOL    HW213131   3.405   0.868   0.701
 4078SOL     OW13132   6.368   3.902   1.593
 4078SOL    HW113133   6.352   3.936   1.500
 4078SOL    HW213134   6.283   3.864   1.629
 4079SOL     OW13135   0.522   0.731   3.800
 4079SOL    HW113136   0.496   0.730   3.703
 4079SOL    HW213137   0.545   0.824   3.828
 4080SOL     OW13138   3.510   3.910   1.732
 4080SOL    HW113139   3.435   3.876   1.790
 4080SOL    HW213140   3.596   3.904   1.782
 4081SOL     OW13141   1.395   2.267   5.649
 4081SOL    HW113142   1.440   2.216   5.722
 4081SOL    HW213143   1.439   2.356   5.638
 4082SOL     OW13144   0.869   2.769   5.111
 4082SOL    HW113145   0.932   2.696   5.083
 4082SOL    HW213146   0.781   2.729   5.138
 4083SOL     OW13147   5.724   4.767   3.429
 4083SOL    HW113148   5.778   4.783   3.512
 4083SOL    HW213149   5.650   4.834   3.425
 4084SOL     OW13150   4.143   1.028   3.183
 4084SOL    HW113151   4.201   1.045   3.104
 4084SOL    HW213152   4.047   1.031   3.154
 4085SOL     OW13153   3.226   4.899   2.202
 4085SOL    HW113154   3.225   4.888   2.301
 4085SOL    HW213155   3.152   4.844   2.162
 4086SOL     OW13156   6.612   5.580   6.170
 4086SOL    HW113157   6.646   5.486   6.176
 4086SOL    HW213158   6.540   5.594   6.237
 4087SOL     OW13159   2.405   0.169   2.547
 4087SOL    HW113160   2.483   0.231   2.548
 4087SOL    HW213161   2.321   0.221   2.531
 4088SOL     OW13162   0.309   1.320   5.445
 4088SOL    HW113163   0.282   1.388   5.377
 4088SOL    HW213164   0.397   1.344   5.484
 4089SOL     OW13165   0.277   0.232   3.629
 4089SOL    HW113166   0.237   0.198   3.543
 4089SOL    HW213167   0.317   0.156   3.679
 4090SOL     OW13168   2.593   0.140   5.455
 4090SOL    HW113169   2.626   0.072   5.520
 4090SOL    HW213170   2.659   0.151   5.381
 4091SOL     OW13171   2.076   5.368   1.321
 4091SOL    HW113172   2.160   5.329   1.358
 4091SOL    HW213173   2.082   5.371   1.222
 4092SOL     OW13174   4.940   3.348   4.045
 4092SOL    HW113175   4.916   3.439   4.079
 4092SOL    HW213176   4.907   3.279   4.108
 4093SOL     OW13177   5.347   5.835   3.026
 4093SOL    HW113178   5.413   5.823   3.100
 4093SOL    HW213179   5.327   5.746   2.985
 4094SOL     OW13180   6.955   5.834   6.783
 4094SOL    HW113181   6.958   5.882   6.695
 4094SOL    HW213182   6.981   5.738   6.770
 4095SOL     OW13183   0.087   4.986   0.103
 4095SOL    HW113184   0.048   5.075   0.078
 4095SOL    HW213185   0.068   4.920   0.031
 4096SOL     OW13186   1.867   2.066   6.861
 4096SOL    HW113187   1.871   1.978   6.813
 4096SOL    HW213188   1.823   2.134   6.803
 4097SOL     OW13189   0.031   4.605   5.070
 4097SOL    HW113190   6.965   4.596   5.031
 4097SOL    HW213191   0.042   4.539   5.144
 4098SOL     OW13192   2.055   4.992   3.311
 4098SOL    HW113193   2.096   4.992   3.402
 4098SOL    HW213194   2.124   4.968   3.243
 4099SOL     OW13195   4.728   4.595   5.982
 4099SOL    HW113196   4.661   4.574   5.911
 4099SOL    HW213197   4.700   4.554   6.068
 4100SOL     OW13198   1.525   0.615   3.627
 4100SOL    HW113199   1.441   0.598   3.678
 4100SOL    HW213200   1.515   0.700   3.575
 4101SOL     OW13201   6.392   0.549   7.000
 4101SOL    HW113202   6.408   0.648   7.000
 4101SOL    HW213203   6.306   0.529   0.021
 4102SOL     OW13204   1.785   0.670   6.786
 4102SOL    HW113205   1.858   0.710   6.730
 4102SOL    HW213206   1.809   0.576   6.810
 4103SOL     OW13207   1.553   6.476   2.374
 4103SOL    HW113208   1.544   6.477   2.274
 4103SOL    HW213209   1.619   6.406   2.400
 4104SOL     OW13210   0.452   5.819   3.725
 4104SOL    HW113211   0.488   5.756   3.656
 4104SOL    HW213212   0.390   5.884   3.682
 4105SOL     OW13213   4.805   0.981   1.140
 4105SOL    HW113214   4.781   0.887   1.164
 4105SOL    HW213215   4.891   0.981   1.089
 4106SOL     OW13216   0.167   2.272   3.634
 4106SOL    HW113217   0.150   2.332   3.712
 4106SOL    HW213218   0.133   2.317   3.550
 4107SOL     OW13219   0.042   6.462   6.350
 4107SOL    HW113220   7.020   6.446   6.437
 4107SOL    HW213221   7.009   6.433   6.274
 4108SOL     OW13222   6.782   5.087   3.814
 4108SOL    HW113223   6.729   5.004   3.826
 4108SOL    HW213224   6.736   5.147   3.748
 4109SOL     OW13225   6.201   6.287   3.274
 4109SOL    HW113226   6.202   6.208   3.213
 4109SOL    HW213227   6.184   6.257   3.368
 4110SOL     OW13228   4.758   4.239   0.386
 4110SOL    HW113229   4.702   4.290   0.451
 4110SOL    HW213230   4.705   4.164   0.348
 4111SOL     OW13231   6.990   4.029   3.944
 4111SOL    HW113232   0.010   3.960   3.887
 4111SOL    HW213233   6.926   3.984   4.006
 4112SOL     OW13234   4.942   0.076   5.085
 4112SOL    HW113235   4.972   7.014   5.121
 4112SOL    HW213236   4.991   0.096   5.000
 4113SOL     OW13237   4.787   4.414   4.686
 4113SOL    HW113238   4.862   4.462   4.641
 4113SOL    HW213239   4.799   4.315   4.677
 4114SOL     OW13240   6.831   1.402   2.718
 4114SOL    HW113241   6.823   1.304   2.703
 4114SOL    HW213242   6.847   1.448   2.631
 4115SOL     OW13243   3.422   4.997   3.903
 4115SOL    HW113244   3.386   5.042   3.822
 4115SOL    HW213245   3.431   5.064   3.977
 4116SOL     OW13246   5.177   2.410   3.261
 4116SOL    HW113247   5.178   2.492   3.204
 4116SOL    HW213248   5.095   2.357   3.241
 4117SOL     OW13249   1.102   2.508   2.670
 4117SOL    HW113250   1.116   2.417   2.710
 4117SOL    HW213251   1.135   2.577   2.734
 4118SOL     OW13252   6.823   6.929   6.148
 4118SOL    HW113253   6.746   6.866   6.141
 4118SOL    HW213254   6.875   6.910   6.231
 4119SOL     OW13255   2.025   1.098   3.859
 4119SOL    HW113256   1.955   1.093   3.929
 4119SOL    HW213257   2.099   1.159   3.889
 4120SOL     OW13258   2.241   1.158   6.350
 4120SOL    HW113259   2.303   1.231   6.321
 4120SOL    HW213260   2.152   1.198   6.375
 4121SOL     OW13261   6.835   7.002   1.820
 4121SOL    HW113262   6.844   0.074   1.802
 4121SOL    HW213263   6.806   6.988   1.915
 4122SOL     OW13264   6.952   4.594   4.339
 4122SOL    HW113265   6.982   4.660   4.409
 4122SOL    HW213266   7.002   4.612   4.254
 4123SOL     OW13267   3.726   4.850   2.430
 4123SOL    HW113268   3.720   4.947   2.454
 4123SOL    HW213269   3.750   4.840   2.333
 4124SOL     OW13270   6.681   5.882   0.225
 4124SOL    HW113271   6.765   5.936   0.222
 4124SOL    HW213272   6.604   5.942   0.245
 4125SOL     OW13273   5.733   2.057   2.134
 4125SOL    HW113274   5.829   2.033   2.118
 4125SOL    HW213275   5.699   2.007   2.214
 4126SOL     OW13276   0.989   3.193   2.193
 4126SOL    HW113277   1.023   3.102   2.171
 4126SOL    HW213278   0.991   3.206   2.292
 4127SOL     OW13279   3.863   1.784   4.091
 4127SOL    HW113280   3.963   1.787   4.084
 4127SOL    HW213281   3.828   1.877   4.103
 4128SOL     OW13282   0.252   3.376   1.070
 4128SOL    HW113283   0.278   3.312   1.142
 4128SOL    HW213284   0.192   3.330   1.004
 4129SOL     OW13285   2.789   2.868   0.800
 4129SOL    HW113286   2.765   2.779   0.841
 4129SOL    HW213287   2.835   2.853   0.712
 4130SOL     OW13288   6.109   3.188   1.467
 4130SOL    HW113289   6.154   3.162   1.552
 4130SOL    HW213290   6.178   3.204   1.396
 4131SOL     OW13291   4.332   0.793   2.460
 4131SOL    HW113292   4.388   0.875   2.448
 4131SOL    HW213293   4.386   0.713   2.434
 4132SOL     OW13294   0.077   4.136   4.358
 4132SOL    HW113295   0.107   4.127   4.263
 4132SOL    HW213296   0.062   4.044   4.396
 4133SOL     OW13297   5.805   6.902   2.125
 4133SOL    HW113298   5.811   7.002   2.119
 4133SOL    HW213299   5.894   6.862   2.104
 4134SOL     OW13300   2.266   3.138   1.144
 4134SOL    HW113301   2.167   3.143   1.153
 4134SOL    HW213302   2.303   3.076   1.214
 4135SOL     OW13303   6.861   0.924   2.375
 4135SOL    HW113304   6.831   1.004   2.322
 4135SOL    HW213305   6.961   0.916   2.369
 4136SOL     OW13306   1.442   4.551   2.153
 4136SOL    HW113307   1.430   4.640   2.108
 4136SOL    HW213308   1.363   4.531   2.210
 4137SOL     OW13309   1.596   2.937   0.348
 4137SOL    HW113310   1.613   2.988   0.264
 4137SOL    HW213311   1.680   2.894   0.379
 4138SOL     OW13312   4.576   6.311   0.843
 4138SOL    HW113313   4.578   6.314   0.943
 4138SOL    HW213314   4.594   6.403   0.807
 4139SOL     OW13315   2.314   2.445   3.059
 4139SOL    HW113316   2.409   2.438   3.089
 4139SOL    HW213317   2.300   2.388   2.978
 4140SOL     OW13318   2.438   2.185   4.849
 4140SOL    HW113319   2.344   2.194   4.882
 4140SOL    HW213320   2.477   2.276   4.835
 4141SOL     OW13321   4.346   0.190   0.109
 4141SOL    HW113322   4.271   0.233   0.059
 4141SOL    HW213323   4.310   0.130   0.180
 4142SOL     OW13324   0.746   4.436   3.027
 4142SOL    HW113325   0.680   4.385   3.082
 4142SOL    HW213326   0.803   4.491   3.087
 4143SOL     OW13327   5.802   2.823   0.844
 4143SOL    HW113328   5.890   2.788   0.811
 4143SOL    HW213329   5.734   2.750   0.842
 4144SOL     OW13330   5.617   2.097   0.586
 4144SOL    HW113331   5.591   2.103   0.683
 4144SOL    HW213332   5.686   2.166   0.565
 4145SOL     OW13333   0.146   6.860   1.423
 4145SOL    HW113334   0.096   6.784   1.465
 4145SOL    HW213335   0.150   6.847   1.324
 4146SOL     OW13336   5.247   6.873   3.821
 4146SOL    HW113337   5.333   6.825   3.841
 4146SOL    HW213338   5.174   6.835   3.877
 4147SOL     OW13339   5.000   4.030   5.286
 4147SOL    HW113340   4.926   4.084   5.327
 4147SOL    HW213341   4.968   3.989   5.201
 4148SOL     OW13342   3.083   1.736   5.758
 4148SOL    HW113343   3.090   1.796   5.679
 4148SOL    HW213344   3.020   1.661   5.737
 4149SOL     OW13345   1.811   2.810   0.469
 4149SOL    HW113346   1.788   2.820   0.565
 4149SOL    HW213347   1.824   2.713   0.448
 4150SOL     OW13348   5.612   2.536   6.321
 4150SOL    HW113349   5.654   2.626   6.333
 4150SOL    HW213350   5.646   2.494   6.237
 4151SOL     OW13351   2.385   6.689   4.816
 4151SOL    HW113352   2.382   6.744   4.733
 4151SOL    HW213353   2.420   6.598   4.796
 4152SOL     OW13354   3.236   5.488   1.654
 4152SOL    HW113355   3.261   5.475   1.558
 4152SOL    HW213356   3.165   5.422   1.679
 4153SOL     OW13357   6.920   4.903   1.735
 4153SOL    HW113358   6.853   4.974   1.714
 4153SOL    HW213359   6.997   4.943   1.785
 4154SOL     OW13360   1.298   5.831   4.513
 4154SOL    HW113361   1.323   5.924   4.541
 4154SOL    HW213362   1.249   5.786   4.588
 4155SOL     OW13363   0.766   2.210   1.930
 4155SOL    HW113364   0.810   2.282   1.877
 4155SOL    HW213365   0.678   2.242   1.965
 4156SOL     OW13366   6.853   5.190   5.196
 4156SOL    HW113367   6.931   5.177   5.135
 4156SOL    HW213368   6.768   5.189   5.143
 4157SOL     OW13369   6.799   6.114   2.129
 4157SOL    HW113370   6.787   6.038   2.066
 4157SOL    HW213371   6.710   6.153   2.153
 4158SOL     OW13372   1.649   2.616   2.174
 4158SOL    HW113373   1.696   2.678   2.111
 4158SOL    HW213374   1.717   2.557   2.219
 4159SOL     OW13375   2.434   1.518   3.141
 4159SOL    HW113376   2.397   1.447   3.082
 4159SOL    HW213377   2.408   1.501   3.235
 4160SOL     OW13378   6.501   0.166   6.485
 4160SOL    HW113379   6.555   0.105   6.543
 4160SOL    HW213380   6.505   0.134   6.390
 4161SOL     OW13381   2.497   2.329   1.545
 4161SOL    HW113382   2.469   2.249   1.597
 4161SOL    HW213383   2.586   2.312   1.504
 4162SOL     OW13384   6.804   6.533   1.352
 4162SOL    HW113385   6.764   6.583   1.276
 4162SOL    HW213386   6.736   6.472   1.392
 4163SOL     OW13387   3.881   6.444   1.117
 4163SOL    HW113388   3.856   6.367   1.058
 4163SOL    HW213389   3.860   6.530   1.070
 4164SOL     OW13390   0.183   6.621   4.869
 4164SOL    HW113391   0.222   6.589   4.955
 4164SOL    HW213392   0.255   6.661   4.812
 4165SOL     OW13393   4.195   1.291   5.516
 4165SOL    HW113394   4.241   1.345   5.587
 4165SOL    HW213395   4.253   1.215   5.489
 4166SOL     OW13396   5.953   0.680   2.779
 4166SOL    HW113397   5.922   0.586   2.777
 4166SOL    HW213398   5.883   0.739   2.819
 4167SOL     OW13399   3.891   4.977   5.522
 4167SOL    HW113400   3.871   4.923   5.440
 4167SOL    HW213401   3.950   5.054   5.498
 4168SOL     OW13402   6.133   4.241   0.426
 4168SOL    HW113403   6.167   4.332   0.450
 4168SOL    HW213404   6.175   4.173   0.485
 4169SOL     OW13405   4.950   3.885   5.052
 4169SOL    HW113406   4.875   3.837   5.006
 4169SOL    HW213407   4.981   3.961   4.995
 4170SOL     OW13408   5.668   2.983   4.469
 4170SOL    HW113409   5.748   3.031   4.503
 4170SOL    HW213410   5.602   2.970   4.543
 4171SOL     OW13411   1.321   3.953   1.108
 4171SOL    HW113412   1.356   3.945   1.014
 4171SOL    HW213413   1.386   4.006   1.163
 4172SOL     OW13414   3.319   3.623   0.888
 4172SOL    HW113415   3.262   3.551   0.847
 4172SOL    HW213416   3.296   3.711   0.847
 4173SOL     OW13417   4.515   2.814   5.302
 4173SOL    HW113418   4.566   2.801   5.217
 4173SOL    HW213419   4.461   2.732   5.321
 4174SOL     OW13420   4.342   0.640   4.471
 4174SOL    HW113421   4.382   0.663   4.559
 4174SOL    HW213422   4.402   0.575   4.423
 4175SOL     OW13423   1.956   4.453   6.714
 4175SOL    HW113424   1.870   4.452   6.664
 4175SOL    HW213425   1.944   4.500   6.801
 4176SOL     OW13426   4.735   6.678   6.986
 4176SOL    HW113427   4.649   6.633   6.963
 4176SOL    HW213428   4.782   6.705   6.902
 4177SOL     OW13429   4.823   4.788   4.388
 4177SOL    HW113430   4.826   4.842   4.473
 4177SOL    HW213431   4.867   4.699   4.404
 4178SOL     OW13432   2.990   5.664   2.229
 4178SOL    HW113433   3.089   5.656   2.218
 4178SOL    HW213434   2.952   5.575   2.253
 4179SOL     OW13435   5.144   3.150   4.045
 4179SOL    HW113436   5.084   3.212   3.995
 4179SOL    HW213437   5.234   3.191   4.056
 4180SOL     OW13438   5.616   3.187   0.631
 4180SOL    HW113439   5.588   3.167   0.725
 4180SOL    HW213440   5.701   3.138   0.610
 4181SOL     OW13441   5.234   0.362   5.248
 4181SOL    HW113442   5.170   0.321   5.313
 4181SOL    HW213443   5.325   0.369   5.290
 4182SOL     OW13444   0.359   5.980   4.127
 4182SOL    HW113445   0.379   5.934   4.213
 4182SOL    HW213446   0.310   6.066   4.145
 4183SOL     OW13447   2.523   1.286   2.225
 4183SOL    HW113448   2.549   1.377   2.194
 4183SOL    HW213449   2.497   1.230   2.147
 4184SOL     OW13450   3.352   6.294   3.131
 4184SOL    HW113451   3.302   6.371   3.092
 4184SOL    HW213452   3.328   6.284   3.228
 4185SOL     OW13453   6.889   3.506   3.151
 4185SOL    HW113454   6.889   3.417   3.106
 4185SOL    HW213455   6.907   3.494   3.249
 4186SOL     OW13456   1.456   5.921   6.486
 4186SOL    HW113457   1.474   5.902   6.389
 4186SOL    HW213458   1.541   5.919   6.537
 4187SOL     OW13459   2.036   3.591   6.718
 4187SOL    HW113460   2.072   3.497   6.725
 4187SOL    HW213461   2.027   3.615   6.621
 4188SOL     OW13462   5.033   0.517   6.825
 4188SOL    HW113463   5.016   0.424   6.792
 4188SOL    HW213464   5.070   0.572   6.750
 4189SOL     OW13465   4.800   5.721   2.748
 4189SOL    HW113466   4.836   5.709   2.841
 4189SOL    HW213467   4.871   5.758   2.689
 4190SOL     OW13468   0.243   6.969   0.754
 4190SOL    HW113469   0.318   6.938   0.812
 4190SOL    HW213470   0.182   6.892   0.734
 4191SOL     OW13471   5.071   4.106   5.909
 4191SOL    HW113472   5.000   4.175   5.899
 4191SOL    HW213473   5.042   4.038   5.977
 4192SOL     OW13474   1.408   1.895   2.494
 4192SOL    HW113475   1.423   1.916   2.397
 4192SOL    HW213476   1.405   1.796   2.507
 4193SOL     OW13477   5.933   0.543   0.770
 4193SOL    HW113478   5.919   0.502   0.860
 4193SOL    HW213479   5.903   0.480   0.699
 4194SOL     OW13480   4.383   1.046   5.463
 4194SOL    HW113481   4.442   0.994   5.525
 4194SOL    HW213482   4.388   1.006   5.371
 4195SOL     OW13483   4.621   6.222   2.035
 4195SOL    HW113484   4.665   6.153   1.977
 4195SOL    HW213485   4.687   6.293   2.059
 4196SOL     OW13486   6.683   2.222   3.555
 4196SOL    HW113487   6.663   2.129   3.524
 4196SOL    HW213488   6.734   2.217   3.641
 4197SOL     OW13489   3.778   5.929   6.133
 4197SOL    HW113490   3.839   5.856   6.100
 4197SOL    HW213491   3.683   5.902   6.116
 4198SOL     OW13492   6.407   0.349   2.144
 4198SOL    HW113493   6.384   0.335   2.240
 4198SOL    HW213494   6.372   0.437   2.113
 4199SOL     OW13495   1.735   4.453   6.567
 4199SOL    HW113496   1.669   4.423   6.635
 4199SOL    HW213497   1.687   4.483   6.484
 4200SOL     OW13498   4.110   1.015   5.301
 4200SOL    HW113499   4.191   0.978   5.347
 4200SOL    HW213500   4.035   0.949   5.307
 4201SOL     OW13501   6.451   6.962   3.724
 4201SOL    HW113502   6.502   0.018   3.755
 4201SOL    HW213503   6.445   6.897   3.800
 4202SOL     OW13504   3.670   5.496   0.249
 4202SOL    HW113505   3.607   5.525   0.322
 4202SOL    HW213506   3.764   5.505   0.281
 4203SOL     OW13507   5.560   5.237   0.300
 4203SOL    HW113508   5.496   5.176   0.348
 4203SOL    HW213509   5.643   5.246   0.354
 4204SOL     OW13510   3.209   3.384   5.896
 4204SOL    HW113511   3.127   3.412   5.845
 4204SOL    HW213512   3.207   3.285   5.910
 4205SOL     OW13513   3.649   5.656   4.911
 4205SOL    HW113514   3.675   5.752   4.913
 4205SOL    HW213515   3.637   5.626   4.817
 4206SOL     OW13516   1.629   1.560   5.108
 4206SOL    HW113517   1.653   1.566   5.011
 4206SOL    HW213518   1.596   1.649   5.141
 4207SOL     OW13519   2.197   2.195   1.460
 4207SOL    HW113520   2.128   2.251   1.413
 4207SOL    HW213521   2.206   2.226   1.554
 4208SOL     OW13522   1.768   4.284   5.346
 4208SOL    HW113523   1.801   4.364   5.397
 4208SOL    HW213524   1.763   4.205   5.407
 4209SOL     OW13525   0.285   5.762   2.775
 4209SOL    HW113526   0.244   5.752   2.865
 4209SOL    HW213527   0.275   5.677   2.723
 4210SOL     OW13528   4.003   3.413   5.076
 4210SOL    HW113529   3.965   3.340   5.019
 4210SOL    HW213530   4.023   3.376   5.167
 4211SOL     OW13531   3.809   2.121   5.195
 4211SOL    HW113532   3.824   2.088   5.102
 4211SOL    HW213533   3.726   2.079   5.232
 4212SOL     OW13534   0.058   1.373   3.557
 4212SOL    HW113535   0.085   1.299   3.495
 4212SOL    HW213536   6.986   1.392   3.546
 4213SOL     OW13537   2.960   1.249   2.908
 4213SOL    HW113538   2.876   1.228   2.959
 4213SOL    HW213539   2.972   1.183   2.834
 4214SOL     OW13540   0.611   5.265   4.145
 4214SOL    HW113541   0.513   5.248   4.151
 4214SOL    HW213542   0.628   5.340   4.080
 4215SOL     OW13543   4.837   6.114   5.214
 4215SOL    HW113544   4.757   6.074   5.260
 4215SOL    HW213545   4.914   6.052   5.223
 4216SOL     OW13546   1.410   0.711   3.178
 4216SOL    HW113547   1.355   0.794   3.177
 4216SOL    HW213548   1.489   0.723   3.118
 4217SOL     OW13549   0.937   0.157   1.994
 4217SOL    HW113550   1.014   0.166   1.931
 4217SOL    HW213551   0.971   0.155   2.088
 4218SOL     OW13552   3.677   1.241   1.197
 4218SOL    HW113553   3.746   1.223   1.127
 4218SOL    HW213554   3.667   1.339   1.210
 4219SOL     OW13555   3.939   6.218   4.336
 4219SOL    HW113556   3.922   6.125   4.370
 4219SOL    HW213557   3.962   6.277   4.414
 4220SOL     OW13558   5.286   2.108   1.635
 4220SOL    HW113559   5.239   2.020   1.632
 4220SOL    HW213560   5.239   2.169   1.699
 4221SOL     OW13561   6.502   5.354   6.825
 4221SOL    HW113562   6.536   5.379   6.735
 4221SOL    HW213563   6.469   5.260   6.824
 4222SOL     OW13564   5.616   1.933   3.580
 4222SOL    HW113565   5.623   1.867   3.655
 4222SOL    HW213566   5.685   2.004   3.591
 4223SOL     OW13567   4.137   4.052   1.227
 4223SOL    HW113568   4.224   4.011   1.200
 4223SOL    HW213569   4.085   3.988   1.282
 4224SOL     OW13570   5.027   4.099   4.925
 4224SOL    HW113571   5.105   4.136   4.975
 4224SOL    HW213572   5.056   4.068   4.834
 4225SOL     OW13573   0.921   2.010   5.285
 4225SOL    HW113574   0.966   2.017   5.374
 4225SOL    HW213575   0.976   2.058   5.216
 4226SOL     OW13576   0.447   5.881   4.672
 4226SOL    HW113577   0.454   5.961   4.731
 4226SOL    HW213578   0.466   5.798   4.725
 4227SOL     OW13579   5.013   5.880   1.759
 4227SOL    HW113580   5.010   5.927   1.847
 4227SOL    HW213581   5.070   5.932   1.696
 4228SOL     OW13582   1.104   5.644   4.673
 4228SOL    HW113583   1.017   5.689   4.690
 4228SOL    HW213584   1.089   5.546   4.658
 4229SOL     OW13585   5.775   5.876   6.076
 4229SOL    HW113586   5.857   5.824   6.049
 4229SOL    HW213587   5.698   5.849   6.018
 4230SOL     OW13588   1.337   0.176   2.828
 4230SOL    HW113589   1.399   0.139   2.759
 4230SOL    HW213590   1.251   0.125   2.825
 4231SOL     OW13591   5.035   0.960   5.639
 4231SOL    HW113592   5.069   0.893   5.574
 4231SOL    HW213593   5.085   0.951   5.726
 4232SOL     OW13594   2.397   5.295   3.653
 4232SOL    HW113595   2.479   5.285   3.597
 4232SOL    HW213596   2.329   5.228   3.624
 4233SOL     OW13597   6.994   6.611   4.300
 4233SOL    HW113598   7.016   6.634   4.206
 4233SOL    HW213599   0.033   6.657   4.362
 4234SOL     OW13600   2.008   5.550   5.364
 4234SOL    HW113601   1.943   5.476   5.382
 4234SOL    HW213602   2.009   5.572   5.267
 4235SOL     OW13603   6.863   4.798   5.638
 4235SOL    HW113604   6.860   4.735   5.716
 4235SOL    HW213605   6.851   4.892   5.670
 4236SOL     OW13606   0.463   5.388   2.787
 4236SOL    HW113607   0.558   5.397   2.760
 4236SOL    HW213608   0.450   5.302   2.837
 4237SOL     OW13609   6.548   3.978   3.956
 4237SOL    HW113610   6.600   4.056   3.922
 4237SOL    HW213611   6.483   3.947   3.886
 4238SOL     OW13612   1.495   0.787   3.425
 4238SOL    HW113613   1.425   0.858   3.419
 4238SOL    HW213614   1.497   0.736   3.339
 4239SOL     OW13615   4.310   1.052   2.932
 4239SOL    HW113616   4.372   1.124   2.901
 4239SOL    HW213617   4.275   1.001   2.853
 4240SOL     OW13618   1.798   5.422   0.038
 4240SOL    HW113619   1.868   5.373   0.089
 4240SOL    HW213620   1.751   5.359   7.001
 4241SOL     OW13621   6.796   1.831   0.764
 4241SOL    HW113622   6.767   1.740   0.735
 4241SOL    HW213623   6.831   1.882   0.686
 4242SOL     OW13624   2.282   2.353   3.730
 4242SOL    HW113625   2.254   2.422   3.795
 4242SOL    HW213626   2.229   2.269   3.745
 4243SOL     OW13627   4.904   1.329   2.696
 4243SOL    HW113628   4.852   1.249   2.723
 4243SOL    HW213629   4.920   1.387   2.776
 4244SOL     OW13630   3.843   3.644   1.956
 4244SOL    HW113631   3.747   3.619   1.948
 4244SOL    HW213632   3.852   3.720   2.021
 4245SOL     OW13633   6.678   1.797   6.224
 4245SOL    HW113634   6.777   1.812   6.219
 4245SOL    HW213635   6.640   1.855   6.296
 4246SOL     OW13636   6.698   4.172   3.433
 4246SOL    HW113637   6.785   4.155   3.478
 4246SOL    HW213638   6.689   4.270   3.415
 4247SOL     OW13639   0.203   6.396   4.419
 4247SOL    HW113640   0.256   6.479   4.404
 4247SOL    HW213641   0.146   6.407   4.501
 4248SOL     OW13642   1.299   2.196   5.112
 4248SOL    HW113643   1.269   2.124   5.174
 4248SOL    HW213644   1.391   2.176   5.080
 4249SOL     OW13645   6.390   2.981   5.643
 4249SOL    HW113646   6.337   2.943   5.719
 4249SOL    HW213647   6.471   2.924   5.628
 4250SOL     OW13648   0.171   4.615   3.603
 4250SOL    HW113649   0.257   4.619   3.655
 4250SOL    HW213650   0.188   4.569   3.516
 4251SOL     OW13651   6.221   4.101   0.627
 4251SOL    HW113652   6.223   4.152   0.713
 4251SOL    HW213653   6.281   4.022   0.634
 4252SOL     OW13654   6.515   6.123   4.840
 4252SOL    HW113655   6.599   6.154   4.797
 4252SOL    HW213656   6.470   6.200   4.886
 4253SOL     OW13657   3.792   0.518   1.947
 4253SOL    HW113658   3.762   0.426   1.921
 4253SOL    HW213659   3.719   0.564   1.998
 4254SOL     OW13660   1.505   3.152   1.729
 4254SOL    HW113661   1.451   3.163   1.812
 4254SOL    HW213662   1.511   3.239   1.681
 4255SOL     OW13663   6.266   2.204   3.602
 4255SOL    HW113664   6.318   2.171   3.681
 4255SOL    HW213665   6.315   2.182   3.518
 4256SOL     OW13666   1.534   6.699   1.043
 4256SOL    HW113667   1.514   6.693   1.140
 4256SOL    HW213668   1.450   6.688   0.990
 4257SOL     OW13669   3.145   1.340   5.601
 4257SOL    HW113670   3.120   1.332   5.505
 4257SOL    HW213671   3.208   1.416   5.612
 4258SOL     OW13672   5.906   6.508   1.999
 4258SOL    HW113673   5.860   6.571   1.937
 4258SOL    HW213674   5.893   6.539   2.093
 4259SOL     OW13675   2.267   1.068   6.920
 4259SOL    HW113676   2.334   0.994   6.918
 4259SOL    HW213677   2.252   1.101   6.826
 4260SOL     OW13678   4.300   6.064   3.741
 4260SOL    HW113679   4.396   6.050   3.716
 4260SOL    HW213680   4.243   6.065   3.659
 4261SOL     OW13681   2.484   0.028   1.595
 4261SOL    HW113682   2.584   0.019   1.590
 4261SOL    HW213683   2.444   0.018   1.504
 4262SOL     OW13684   1.412   5.158   5.679
 4262SOL    HW113685   1.327   5.111   5.702
 4262SOL    HW213686   1.432   5.226   5.749
 4263SOL     OW13687   2.567   6.672   4.529
 4263SOL    HW113688   2.587   6.595   4.590
 4263SOL    HW213689   2.647   6.731   4.522
 4264SOL     OW13690   0.019   1.892   1.109
 4264SOL    HW113691   0.088   1.907   1.038
 4264SOL    HW213692   6.958   1.935   1.081
 4265SOL     OW13693   6.308   1.875   0.041
 4265SOL    HW113694   6.395   1.827   0.026
 4265SOL    HW213695   6.236   1.807   0.057
 4266SOL     OW13696   2.777   5.294   0.141
 4266SOL    HW113697   2.767   5.326   0.046
 4266SOL    HW213698   2.865   5.248   0.151
 4267SOL     OW13699   2.131   3.783   5.000
 4267SOL    HW113700   2.198   3.850   5.031
 4267SOL    HW213701   2.129   3.780   4.900
 4268SOL     OW13702   1.527   6.569   6.980
 4268SOL    HW113703   1.600   6.637   6.979
 4268SOL    HW213704   1.560   6.485   7.023
 4269SOL     OW13705   2.223   2.217   0.376
 4269SOL    HW113706   2.300   2.167   0.335
 4269SOL    HW213707   2.189   2.166   0.455
 4270SOL     OW13708   3.898   3.181   4.717
 4270SOL    HW113709   3.928   3.143   4.804
 4270SOL    HW213710   3.799   3.192   4.718
 4271SOL     OW13711   0.177   0.303   5.185
 4271SOL    HW113712   0.148   0.349   5.269
 4271SOL    HW213713   0.138   0.210   5.183
 4272SOL     OW13714   6.914   5.044   4.773
 4272SOL    HW113715   6.859   5.104   4.715
 4272SOL    HW213716   6.879   4.950   4.766
 4273SOL     OW13717   4.382   6.424   4.332
 4273SOL    HW113718   4.465   6.479   4.338
 4273SOL    HW213719   4.367   6.396   4.238
 4274SOL     OW13720   0.572   6.898   3.365
 4274SOL    HW113721   0.523   6.979   3.330
 4274SOL    HW213722   0.664   6.896   3.326
 4275SOL     OW13723   6.656   0.831   5.952
 4275SOL    HW113724   6.638   0.745   5.904
 4275SOL    HW213725   6.582   0.849   6.017
 4276SOL     OW13726   1.374   5.307   2.752
 4276SOL    HW113727   1.415   5.301   2.843
 4276SOL    HW213728   1.284   5.263   2.753
 4277SOL     OW13729   0.005   4.236   3.746
 4277SOL    HW113730   7.006   4.173   3.673
 4277SOL    HW213731   7.022   4.190   3.834
 4278SOL     OW13732   6.743   0.151   5.182
 4278SOL    HW113733   6.689   0.083   5.231
 4278SOL    HW213734   6.690   0.189   5.106
 4279SOL     OW13735   3.591   6.334   5.542
 4279SOL    HW113736   3.525   6.327   5.467
 4279SOL    HW213737   3.546   6.375   5.622
 4280SOL     OW13738   5.670   1.356   5.365
 4280SOL    HW113739   5.581   1.374   5.408
 4280SOL    HW213740   5.703   1.440   5.322
 4281SOL     OW13741   1.534   4.792   4.652
 4281SOL    HW113742   1.631   4.772   4.637
 4281SOL    HW213743   1.486   4.708   4.679
 4282SOL     OW13744   2.531   2.296   0.065
 4282SOL    HW113745   2.489   2.246   0.141
 4282SOL    HW213746   2.481   2.276   7.006
 4283SOL     OW13747   1.737   0.445   3.924
 4283SOL    HW113748   1.700   0.437   4.017
 4283SOL    HW213749   1.823   0.395   3.919
 4284SOL     OW13750   5.550   6.957   2.580
 4284SOL    HW113751   5.529   7.013   2.500
 4284SOL    HW213752   5.523   6.863   2.562
 4285SOL     OW13753   0.214   6.920   5.903
 4285SOL    HW113754   0.312   6.928   5.881
 4285SOL    HW213755   0.204   6.885   5.996
 4286SOL     OW13756   5.193   5.373   6.489
 4286SOL    HW113757   5.094   5.384   6.475
 4286SOL    HW213758   5.231   5.318   6.416
 4287SOL     OW13759   5.672   0.745   5.050
 4287SOL    HW113760   5.734   0.682   5.098
 4287SOL    HW213761   5.609   0.692   4.993
 4288SOL     OW13762   0.885   6.650   3.400
 4288SOL    HW113763   0.964   6.589   3.410
 4288SOL    HW213764   0.915   6.737   3.362
 4289SOL     OW13765   5.679   2.520   1.945
 4289SOL    HW113766   5.637   2.603   1.982
 4289SOL    HW213767   5.703   2.536   1.850
 4290SOL     OW13768   2.424   6.632   1.080
 4290SOL    HW113769   2.491   6.595   1.143
 4290SOL    HW213770   2.340   6.656   1.129
 4291SOL     OW13771   4.818   3.437   1.237
 4291SOL    HW113772   4.856   3.424   1.328
 4291SOL    HW213773   4.742   3.373   1.223
 4292SOL     OW13774   6.212   4.670   5.620
 4292SOL    HW113775   6.195   4.766   5.642
 4292SOL    HW213776   6.126   4.619   5.626
 4293SOL     OW13777   6.551   4.096   6.423
 4293SOL    HW113778   6.540   4.027   6.496
 4293SOL    HW213779   6.635   4.147   6.438
 4294SOL     OW13780   4.739   2.971   6.644
 4294SOL    HW113781   4.652   3.015   6.622
 4294SOL    HW213782   4.789   3.026   6.711
 4295SOL     OW13783   3.987   0.112   4.854
 4295SOL    HW113784   3.888   0.129   4.859
 4295SOL    HW213785   4.027   0.124   4.945
 4296SOL     OW13786   2.451   2.067   0.249
 4296SOL    HW113787   2.514   2.030   0.318
 4296SOL    HW213788   2.461   2.016   0.164
 4297SOL     OW13789   5.140   6.787   5.427
 4297SOL    HW113790   5.201   6.709   5.415
 4297SOL    HW213791   5.053   6.757   5.464
 4298SOL     OW13792   1.583   5.246   7.005
 4298SOL    HW113793   1.585   5.154   6.968
 4298SOL    HW213794   1.501   5.257   0.037
 4299SOL     OW13795   1.444   3.281   6.438
 4299SOL    HW113796   1.526   3.333   6.463
 4299SOL    HW213797   1.434   3.203   6.499
 4300SOL     OW13798   2.915   1.711   5.987
 4300SOL    HW113799   2.990   1.751   5.934
 4300SOL    HW213800   2.910   1.613   5.968
 4301SOL     OW13801   2.822   1.412   0.589
 4301SOL    HW113802   2.915   1.391   0.560
 4301SOL    HW213803   2.757   1.368   0.526
 4302SOL     OW13804   1.395   6.529   5.991
 4302SOL    HW113805   1.369   6.450   5.935
 4302SOL    HW213806   1.313   6.567   6.034
 4303SOL     OW13807   6.464   4.737   3.227
 4303SOL    HW113808   6.373   4.697   3.244
 4303SOL    HW213809   6.453   4.828   3.187
 4304SOL     OW13810   3.404   3.415   4.428
 4304SOL    HW113811   3.357   3.485   4.376
 4304SOL    HW213812   3.403   3.329   4.377
 4305SOL     OW13813   6.133   1.534   3.771
 4305SOL    HW113814   6.140   1.484   3.685
 4305SOL    HW213815   6.203   1.606   3.773
 4306SOL     OW13816   0.182   3.596   6.800
 4306SOL    HW113817   0.152   3.688   6.774
 4306SOL    HW213818   0.275   3.600   6.836
 4307SOL     OW13819   4.811   4.427   5.529
 4307SOL    HW113820   4.790   4.423   5.431
 4307SOL    HW213821   4.727   4.420   5.582
 4308SOL     OW13822   5.125   6.143   5.713
 4308SOL    HW113823   5.043   6.191   5.745
 4308SOL    HW213824   5.118   6.129   5.614
 4309SOL     OW13825   0.740   0.122   0.232
 4309SOL    HW113826   0.698   0.169   0.309
 4309SOL    HW213827   0.707   0.028   0.228
 4310SOL     OW13828   1.683   2.649   3.839
 4310SOL    HW113829   1.698   2.588   3.761
 4310SOL    HW213830   1.755   2.634   3.907
 4311SOL     OW13831   1.495   6.489   3.078
 4311SOL    HW113832   1.570   6.529   3.130
 4311SOL    HW213833   1.450   6.560   3.023
 4312SOL     OW13834   0.932   5.876   1.578
 4312SOL    HW113835   0.927   5.843   1.484
 4312SOL    HW213836   0.923   5.798   1.641
 4313SOL     OW13837   5.725   1.549   1.693
 4313SOL    HW113838   5.819   1.544   1.659
 4313SOL    HW213839   5.682   1.633   1.660
 4314SOL     OW13840   4.823   2.983   3.027
 4314SOL    HW113841   4.812   2.952   3.121
 4314SOL    HW213842   4.771   2.924   2.965
 4315SOL     OW13843   2.103   0.589   2.500
 4315SOL    HW113844   2.048   0.646   2.439
 4315SOL    HW213845   2.200   0.598   2.475
 4316SOL     OW13846   4.855   0.166   0.919
 4316SOL    HW113847   4.791   0.137   0.990
 4316SOL    HW213848   4.866   0.265   0.923
 4317SOL     OW13849   3.215   1.049   5.285
 4317SOL    HW113850   3.283   1.011   5.347
 4317SOL    HW213851   3.135   0.988   5.282
 4318SOL     OW13852   0.754   3.607   3.245
 4318SOL    HW113853   0.681   3.548   3.278
 4318SOL    HW213854   0.715   3.690   3.205
 4319SOL     OW13855   2.363   3.234   6.929
 4319SOL    HW113856   2.408   3.169   6.867
 4319SOL    HW213857   2.430   3.301   6.961
 4320SOL     OW13858   1.427   6.365   2.081
 4320SOL    HW113859   1.380   6.451   2.060
 4320SOL    HW213860   1.525   6.382   2.088
 4321SOL     OW13861   6.298   0.757   4.624
 4321SOL    HW113862   6.365   0.769   4.697
 4321SOL    HW213863   6.277   0.847   4.584
 4322SOL     OW13864   6.591   1.345   6.525
 4322SOL    HW113865   6.602   1.391   6.613
 4322SOL    HW213866   6.501   1.369   6.486
 4323SOL     OW13867   5.707   3.085   2.270
 4323SOL    HW113868   5.663   3.174   2.263
 4323SOL    HW213869   5.647   3.023   2.320
 4324SOL     OW13870   5.757   4.334   7.008
 4324SOL    HW113871   5.710   4.403   0.038
 4324SOL    HW213872   5.712   4.246   7.019
 4325SOL     OW13873   1.228   0.941   0.370
 4325SOL    HW113874   1.235   1.040   0.360
 4325SOL    HW213875   1.260   0.897   0.286
 4326SOL     OW13876   6.756   2.939   5.180
 4326SOL    HW113877   6.734   3.034   5.200
 4326SOL    HW213878   6.779   2.891   5.265
 4327SOL     OW13879   6.054   5.469   2.160
 4327SOL    HW113880   6.148   5.438   2.145
 4327SOL    HW213881   6.046   5.565   2.133
 4328SOL     OW13882   4.596   4.686   5.719
 4328SOL    HW113883   4.654   4.757   5.679
 4328SOL    HW213884   4.500   4.714   5.714
 4329SOL     OW13885   3.177   1.877   6.152
 4329SOL    HW113886   3.117   1.957   6.165
 4329SOL    HW213887   3.226   1.886   6.065
 4330SOL     OW13888   2.608   0.492   5.712
 4330SOL    HW113889   2.531   0.429   5.707
 4330SOL    HW213890   2.657   0.492   5.625
 4331SOL     OW13891   5.150   3.291   1.565
 4331SOL    HW113892   5.062   3.335   1.548
 4331SOL    HW213893   5.205   3.293   1.481
 4332SOL     OW13894   5.555   3.806   2.145
 4332SOL    HW113895   5.594   3.841   2.230
 4332SOL    HW213896   5.543   3.707   2.153
 4333SOL     OW13897   4.866   1.743   5.071
 4333SOL    HW113898   4.835   1.830   5.032
 4333SOL    HW213899   4.937   1.760   5.139
 4334SOL     OW13900   2.838   1.958   1.982
 4334SOL    HW113901   2.768   2.029   1.989
 4334SOL    HW213902   2.926   2.000   1.958
 4335SOL     OW13903   2.999   3.676   3.767
 4335SOL    HW113904   3.047   3.628   3.694
 4335SOL    HW213905   3.016   3.775   3.759
 4336SOL     OW13906   1.392   6.896   5.232
 4336SOL    HW113907   1.432   6.871   5.320
 4336SOL    HW213908   1.366   6.813   5.182
 4337SOL     OW13909   1.021   4.592   0.375
 4337SOL    HW113910   0.996   4.644   0.293
 4337SOL    HW213911   1.005   4.648   0.456
 4338SOL     OW13912   5.056   5.409   4.993
 4338SOL    HW113913   4.981   5.356   5.030
 4338SOL    HW213914   5.099   5.463   5.065
 4339SOL     OW13915   6.106   2.778   5.203
 4339SOL    HW113916   6.088   2.876   5.202
 4339SOL    HW213917   6.019   2.728   5.196
 4340SOL     OW13918   6.306   3.666   2.550
 4340SOL    HW113919   6.261   3.666   2.640
 4340SOL    HW213920   6.239   3.687   2.479
 4341SOL     OW13921   1.225   3.916   1.724
 4341SOL    HW113922   1.232   3.941   1.627
 4341SOL    HW213923   1.278   3.980   1.779
 4342SOL     OW13924   6.468   3.049   3.777
 4342SOL    HW113925   6.447   2.957   3.811
 4342SOL    HW213926   6.473   3.048   3.677
 4343SOL     OW13927   3.089   0.287   6.912
 4343SOL    HW113928   3.084   0.239   6.999
 4343SOL    HW213929   3.033   0.370   6.916
 4344SOL     OW13930   1.676   5.411   3.347
 4344SOL    HW113931   1.722   5.412   3.259
 4344SOL    HW213932   1.650   5.317   3.371
 4345SOL     OW13933   1.653   3.653   5.714
 4345SOL    HW113934   1.670   3.718   5.789
 4345SOL    HW213935   1.732   3.593   5.704
 4346SOL     OW13936   2.170   3.006   1.738
 4346SOL    HW113937   2.229   3.082   1.711
 4346SOL    HW213938   2.225   2.922   1.745
 4347SOL     OW13939   0.011   1.048   1.497
 4347SOL    HW113940   6.996   1.109   1.565
 4347SOL    HW213941   6.964   0.994   1.454
 4348SOL     OW13942   0.250   3.189   2.619
 4348SOL    HW113943   0.251   3.263   2.687
 4348SOL    HW213944   0.157   3.154   2.610
 4349SOL     OW13945   0.466   1.616   2.886
 4349SOL    HW113946   0.395   1.605   2.816
 4349SOL    HW213947   0.472   1.713   2.912
 4350SOL     OW13948   4.544   2.201   4.404
 4350SOL    HW113949   4.470   2.268   4.403
 4350SOL    HW213950   4.631   2.248   4.421
 4351SOL     OW13951   2.177   6.688   1.581
 4351SOL    HW113952   2.189   6.594   1.549
 4351SOL    HW213953   2.238   6.705   1.658
 4352SOL     OW13954   0.505   2.242   1.624
 4352SOL    HW113955   0.437   2.174   1.652
 4352SOL    HW213956   0.461   2.311   1.566
 4353SOL     OW13957   2.747   5.428   1.142
 4353SOL    HW113958   2.783   5.521   1.134
 4353SOL    HW213959   2.649   5.429   1.123
 4354SOL     OW13960   2.030   6.384   6.055
 4354SOL    HW113961   2.085   6.390   6.138
 4354SOL    HW213962   1.934   6.370   6.079
 4355SOL     OW13963   3.713   0.011   1.933
 4355SOL    HW113964   3.796   0.045   1.890
 4355SOL    HW213965   3.673   0.082   1.991
 4356SOL     OW13966   4.581   4.273   1.666
 4356SOL    HW113967   4.529   4.309   1.588
 4356SOL    HW213968   4.530   4.288   1.750
 4357SOL     OW13969   5.929   0.191   6.762
 4357SOL    HW113970   5.904   0.098   6.736
 4357SOL    HW213971   6.026   0.195   6.787
 4358SOL     OW13972   6.675   6.360   0.601
 4358SOL    HW113973   6.751   6.306   0.638
 4358SOL    HW213974   6.617   6.303   0.544
 4359SOL     OW13975   1.592   2.263   4.382
 4359SOL    HW113976   1.565   2.350   4.341
 4359SOL    HW213977   1.539   2.246   4.465
 4360SOL     OW13978   1.391   3.914   2.444
 4360SOL    HW113979   1.305   3.943   2.402
 4360SOL    HW213980   1.444   3.860   2.379
 4361SOL     OW13981   3.038   2.695   1.758
 4361SOL    HW113982   3.060   2.607   1.799
 4361SOL    HW213983   3.014   2.682   1.662
 4362SOL     OW13984   6.109   4.109   5.806
 4362SOL    HW113985   6.026   4.087   5.857
 4362SOL    HW213986   6.186   4.059   5.845
 4363SOL     OW13987   4.802   1.997   5.941
 4363SOL    HW113988   4.827   1.902   5.957
 4363SOL    HW213989   4.753   2.005   5.855
 4364SOL     OW13990   2.958   3.835   5.442
 4364SOL    HW113991   3.039   3.788   5.409
 4364SOL    HW213992   2.973   3.934   5.438
 4365SOL     OW13993   3.038   1.550   2.375
 4365SOL    HW113994   2.946   1.589   2.379
 4365SOL    HW213995   3.046   1.492   2.294
 4366SOL     OW13996   5.915   6.656   0.971
 4366SOL    HW113997   5.878   6.565   0.951
 4366SOL    HW213998   5.914   6.671   1.070
 4367SOL     OW13999   0.936   4.918   5.145
 4367SOL    HW114000   0.922   5.008   5.104
 4367SOL    HW214001   1.031   4.889   5.131
 4368SOL     OW14002   4.302   5.266   1.074
 4368SOL    HW114003   4.370   5.192   1.078
 4368SOL    HW214004   4.335   5.344   1.126
 4369SOL     OW14005   4.923   5.613   2.367
 4369SOL    HW114006   4.861   5.535   2.372
 4369SOL    HW214007   5.015   5.582   2.342
 4370SOL     OW14008   5.588   4.535   2.876
 4370SOL    HW114009   5.581   4.596   2.797
 4370SOL    HW214010   5.681   4.538   2.912
 4371SOL     OW14011   5.984   0.526   1.663
 4371SOL    HW114012   5.891   0.560   1.680
 4371SOL    HW214013   6.014   0.556   1.572
 4372SOL     OW14014   4.559   1.134   2.608
 4372SOL    HW114015   4.546   1.163   2.703
 4372SOL    HW214016   4.536   1.209   2.547
 4373SOL     OW14017   7.001   2.882   6.707
 4373SOL    HW114018   0.008   2.862   6.615
 4373SOL    HW214019   0.030   2.830   6.773
 4374SOL     OW14020   1.412   2.040   1.806
 4374SOL    HW114021   1.372   2.021   1.896
 4374SOL    HW214022   1.505   2.003   1.802
 4375SOL     OW14023   2.438   0.026   3.959
 4375SOL    HW114024   2.497   0.103   3.983
 4375SOL    HW214025   2.454   6.977   4.024
 4376SOL     OW14026   6.582   0.120   2.183
 4376SOL    HW114027   6.549   0.211   2.158
 4376SOL    HW214028   6.531   0.051   2.132
 4377SOL     OW14029   5.572   3.883   0.665
 4377SOL    HW114030   5.576   3.851   0.759
 4377SOL    HW214031   5.607   3.812   0.604
 4378SOL     OW14032   2.121   0.481   3.090
 4378SOL    HW114033   2.130   0.562   3.148
 4378SOL    HW214034   2.169   0.495   3.004
 4379SOL     OW14035   2.578   1.216   4.325
 4379SOL    HW114036   2.496   1.158   4.328
 4379SOL    HW214037   2.651   1.172   4.379
 4380SOL     OW14038   1.334   0.952   1.538
 4380SOL    HW114039   1.295   0.985   1.624
 4380SOL    HW214040   1.406   1.014   1.507
 4381SOL     OW14041   1.614   5.496   4.915
 4381SOL    HW114042   1.534   5.437   4.907
 4381SOL    HW214043   1.674   5.461   4.988
 4382SOL     OW14044   6.801   3.177   6.168
 4382SOL    HW114045   6.856   3.261   6.176
 4382SOL    HW214046   6.846   3.103   6.216
 4383SOL     OW14047   5.930   3.688   6.419
 4383SOL    HW114048   5.890   3.765   6.469
 4383SOL    HW214049   5.924   3.706   6.321
 4384SOL     OW14050   6.389   0.734   3.276
 4384SOL    HW114051   6.438   0.692   3.199
 4384SOL    HW214052   6.301   0.769   3.245
 4385SOL     OW14053   4.491   2.155   4.706
 4385SOL    HW114054   4.450   2.213   4.636
 4385SOL    HW214055   4.455   2.182   4.796
 4386SOL     OW14056   1.358   3.932   5.787
 4386SOL    HW114057   1.335   4.026   5.811
 4386SOL    HW214058   1.453   3.913   5.814
 4387SOL     OW14059   6.551   2.569   1.815
 4387SOL    HW114060   6.574   2.662   1.843
 4387SOL    HW214061   6.480   2.532   1.875
 4388SOL     OW14062   5.395   2.081   6.109
 4388SOL    HW114063   5.442   2.025   6.041
 4388SOL    HW214064   5.387   2.175   6.075
 4389SOL     OW14065   6.719   3.688   1.712
 4389SOL    HW114066   6.734   3.710   1.809
 4389SOL    HW214067   6.750   3.595   1.694
 4390SOL     OW14068   5.595   0.056   0.601
 4390SOL    HW114069   5.591   0.130   0.668
 4390SOL    HW214070   5.680   0.005   0.614
 4391SOL     OW14071   1.824   5.160   6.772
 4391SOL    HW114072   1.773   5.241   6.801
 4391SOL    HW214073   1.760   5.092   6.735
 4392SOL     OW14074   0.534   1.828   3.984
 4392SOL    HW114075   0.632   1.815   3.967
 4392SOL    HW214076   0.501   1.755   4.045
 4393SOL     OW14077   6.237   0.418   1.841
 4393SOL    HW114078   6.163   0.469   1.797
 4393SOL    HW214079   6.304   0.390   1.771
 4394SOL     OW14080   1.141   0.130   1.607
 4394SOL    HW114081   1.219   0.073   1.579
 4394SOL    HW214082   1.152   0.154   1.704
 4395SOL     OW14083   1.700   0.234   1.785
 4395SOL    HW114084   1.761   0.154   1.782
 4395SOL    HW214085   1.612   0.210   1.744
 4396SOL     OW14086   1.550   1.544   3.892
 4396SOL    HW114087   1.614   1.497   3.832
 4396SOL    HW214088   1.480   1.480   3.924
 4397SOL     OW14089   2.014   3.190   3.984
 4397SOL    HW114090   2.060   3.261   3.931
 4397SOL    HW214091   2.044   3.100   3.951
 4398SOL     OW14092   1.942   3.648   6.145
 4398SOL    HW114093   1.957   3.716   6.073
 4398SOL    HW214094   1.906   3.564   6.105
 4399SOL     OW14095   1.913   5.982   1.851
 4399SOL    HW114096   1.940   5.928   1.772
 4399SOL    HW214097   1.976   5.964   1.927
 4400SOL     OW14098   1.740   6.707   3.644
 4400SOL    HW114099   1.725   6.805   3.630
 4400SOL    HW214100   1.653   6.658   3.635
 4401SOL     OW14101   3.798   6.283   5.337
 4401SOL    HW114102   3.756   6.332   5.261
 4401SOL    HW214103   3.805   6.186   5.315
 4402SOL     OW14104   0.954   0.452   2.025
 4402SOL    HW114105   0.944   0.440   2.123
 4402SOL    HW214106   0.909   0.376   1.977
 4403SOL     OW14107   0.588   5.677   0.980
 4403SOL    HW114108   0.576   5.581   0.954
 4403SOL    HW214109   0.500   5.724   0.971
 4404SOL     OW14110   1.131   5.559   5.463
 4404SOL    HW114111   1.225   5.588   5.449
 4404SOL    HW214112   1.129   5.464   5.493
 4405SOL     OW14113   2.599   5.292   3.445
 4405SOL    HW114114   2.574   5.345   3.365
 4405SOL    HW214115   2.598   5.195   3.422
 4406SOL     OW14116   6.737   3.214   1.655
 4406SOL    HW114117   6.655   3.201   1.598
 4406SOL    HW214118   6.770   3.308   1.645
 4407SOL     OW14119   0.095   5.654   1.432
 4407SOL    HW114120   0.038   5.680   1.353
 4407SOL    HW214121   0.121   5.558   1.424
 4408SOL     OW14122   3.349   6.198   6.853
 4408SOL    HW114123   3.345   6.281   6.908
 4408SOL    HW214124   3.445   6.171   6.840
 4409SOL     OW14125   3.944   0.924   1.859
 4409SOL    HW114126   3.957   0.830   1.828
 4409SOL    HW214127   3.852   0.955   1.834
 4410SOL     OW14128   0.143   6.355   0.517
 4410SOL    HW114129   0.048   6.386   0.527
 4410SOL    HW214130   0.167   6.297   0.595
 4411SOL     OW14131   3.634   4.937   5.561
 4411SOL    HW114132   3.728   4.968   5.567
 4411SOL    HW214133   3.631   4.837   5.570
 4412SOL     OW14134   4.914   6.811   4.509
 4412SOL    HW114135   4.962   6.747   4.570
 4412SOL    HW214136   4.827   6.838   4.551
 4413SOL     OW14137   3.785   6.412   4.200
 4413SOL    HW114138   3.855   6.356   4.244
 4413SOL    HW214139   3.800   6.508   4.222
 4414SOL     OW14140   4.633   5.327   1.739
 4414SOL    HW114141   4.602   5.284   1.824
 4414SOL    HW214142   4.583   5.287   1.662
 4415SOL     OW14143   3.585   3.936   1.466
 4415SOL    HW114144   3.503   3.934   1.409
 4415SOL    HW214145   3.560   3.926   1.562
 4416SOL     OW14146   3.956   1.582   4.605
 4416SOL    HW114147   3.948   1.666   4.552
 4416SOL    HW214148   3.960   1.604   4.702
 4417SOL     OW14149   6.282   2.751   4.354
 4417SOL    HW114150   6.355   2.810   4.388
 4417SOL    HW214151   6.307   2.715   4.264
 4418SOL     OW14152   6.345   1.550   1.337
 4418SOL    HW114153   6.403   1.512   1.408
 4418SOL    HW214154   6.307   1.638   1.368
 4419SOL     OW14155   6.174   6.080   6.157
 4419SOL    HW114156   6.142   6.153   6.217
 4419SOL    HW214157   6.133   6.091   6.066
 4420SOL     OW14158   3.791   2.192   1.408
 4420SOL    HW114159   3.772   2.187   1.506
 4420SOL    HW214160   3.706   2.207   1.358
 4421SOL     OW14161   0.929   3.155   5.134
 4421SOL    HW114162   0.857   3.142   5.202
 4421SOL    HW214163   1.004   3.091   5.152
 4422SOL     OW14164   1.000   4.608   0.086
 4422SOL    HW114165   0.901   4.598   0.081
 4422SOL    HW214166   1.041   4.581   7.024
 4423SOL     OW14167   6.566   4.766   5.698
 4423SOL    HW114168   6.527   4.679   5.669
 4423SOL    HW214169   6.632   4.797   5.629
 4424SOL     OW14170   4.856   5.734   4.185
 4424SOL    HW114171   4.891   5.664   4.124
 4424SOL    HW214172   4.813   5.807   4.131
 4425SOL     OW14173   1.888   5.295   0.617
 4425SOL    HW114174   1.889   5.358   0.695
 4425SOL    HW214175   1.932   5.209   0.644
 4426SOL     OW14176   1.045   0.567   3.869
 4426SOL    HW114177   0.948   0.583   3.887
 4426SOL    HW214178   1.065   0.469   3.878
 4427SOL     OW14179   3.974   6.495   2.849
 4427SOL    HW114180   3.997   6.563   2.780
 4427SOL    HW214181   3.875   6.494   2.864
 4428SOL     OW14182   5.212   0.919   4.546
 4428SOL    HW114183   5.308   0.931   4.518
 4428SOL    HW214184   5.206   0.845   4.613
 4429SOL     OW14185   3.345   6.713   3.247
 4429SOL    HW114186   3.259   6.665   3.229
 4429SOL    HW214187   3.417   6.675   3.189
 4430SOL     OW14188   5.975   4.804   4.025
 4430SOL    HW114189   6.016   4.832   3.937
 4430SOL    HW214190   6.043   4.816   4.098
 4431SOL     OW14191   3.263   0.678   3.521
 4431SOL    HW114192   3.326   0.600   3.521
 4431SOL    HW214193   3.179   0.652   3.568
 4432SOL     OW14194   2.175   3.854   6.519
 4432SOL    HW114195   2.199   3.817   6.608
 4432SOL    HW214196   2.157   3.952   6.528
 4433SOL     OW14197   0.838   1.916   4.714
 4433SOL    HW114198   0.749   1.892   4.676
 4433SOL    HW214199   0.911   1.880   4.655
 4434SOL     OW14200   0.082   1.406   1.741
 4434SOL    HW114201   0.180   1.399   1.759
 4434SOL    HW214202   0.044   1.315   1.726
 4435SOL     OW14203   3.456   3.901   1.053
 4435SOL    HW114204   3.426   3.959   1.129
 4435SOL    HW214205   3.384   3.837   1.029
 4436SOL     OW14206   4.673   2.270   1.496
 4436SOL    HW114207   4.658   2.195   1.560
 4436SOL    HW214208   4.712   2.234   1.411
 4437SOL     OW14209   0.416   3.642   2.491
 4437SOL    HW114210   0.325   3.658   2.452
 4437SOL    HW214211   0.480   3.711   2.458
 4438SOL     OW14212   4.620   6.828   5.366
 4438SOL    HW114213   4.697   6.890   5.353
 4438SOL    HW214214   4.606   6.812   5.464
 4439SOL     OW14215   0.858   6.506   3.109
 4439SOL    HW114216   0.891   6.455   3.189
 4439SOL    HW214217   0.921   6.491   3.032
 4440SOL     OW14218   2.466   4.797   1.041
 4440SOL    HW114219   2.490   4.760   0.951
 4440SOL    HW214220   2.538   4.774   1.106
 4441SOL     OW14221   1.240   1.645   0.930
 4441SOL    HW114222   1.271   1.624   0.837
 4441SOL    HW214223   1.160   1.704   0.925
 4442SOL     OW14224   1.178   5.023   5.774
 4442SOL    HW114225   1.108   4.954   5.790
 4442SOL    HW214226   1.135   5.108   5.742
 4443SOL     OW14227   0.875   4.677   6.792
 4443SOL    HW114228   0.907   4.585   6.770
 4443SOL    HW214229   0.786   4.670   6.838
 4444SOL     OW14230   4.479   4.109   0.620
 4444SOL    HW114231   4.453   4.077   0.711
 4444SOL    HW214232   4.550   4.049   0.583
 4445SOL     OW14233   0.227   5.462   6.578
 4445SOL    HW114234   0.273   5.382   6.539
 4445SOL    HW214235   0.246   5.542   6.521
 4446SOL     OW14236   5.192   1.634   0.056
 4446SOL    HW114237   5.260   1.561   0.059
 4446SOL    HW214238   5.226   1.713   0.106
 4447SOL     OW14239   5.368   4.449   5.285
 4447SOL    HW114240   5.303   4.372   5.284
 4447SOL    HW214241   5.386   4.478   5.191
 4448SOL     OW14242   2.837   6.338   1.164
 4448SOL    HW114243   2.782   6.342   1.080
 4448SOL    HW214244   2.794   6.394   1.235
 4449SOL     OW14245   4.153   1.268   6.472
 4449SOL    HW114246   4.195   1.323   6.544
 4449SOL    HW214247   4.153   1.320   6.386
 4450SOL     OW14248   3.614   0.866   7.014
 4450SOL    HW114249   3.682   0.875   0.062
 4450SOL    HW214250   3.652   0.903   6.929
 4451SOL     OW14251   4.921   4.730   3.722
 4451SOL    HW114252   4.876   4.693   3.803
 4451SOL    HW214253   4.905   4.829   3.717
 4452SOL     OW14254   5.747   6.014   4.486
 4452SOL    HW114255   5.678   6.025   4.558
 4452SOL    HW214256   5.708   5.964   4.409
 4453SOL     OW14257   0.411   3.178   1.805
 4453SOL    HW114258   0.486   3.116   1.783
 4453SOL    HW214259   0.349   3.133   1.869
 4454SOL     OW14260   0.717   1.483   6.848
 4454SOL    HW114261   0.797   1.432   6.879
 4454SOL    HW214262   0.725   1.579   6.876
 4455SOL     OW14263   5.792   5.657   4.934
 4455SOL    HW114264   5.840   5.583   4.888
 4455SOL    HW214265   5.812   5.744   4.888
 4456SOL     OW14266   2.220   6.260   3.452
 4456SOL    HW114267   2.165   6.335   3.489
 4456SOL    HW214268   2.167   6.212   3.381
 4457SOL     OW14269   1.358   2.132   4.758
 4457SOL    HW114270   1.440   2.139   4.816
 4457SOL    HW214271   1.301   2.056   4.790
 4458SOL     OW14272   2.078   3.626   1.802
 4458SOL    HW114273   1.996   3.573   1.780
 4458SOL    HW214274   2.127   3.582   1.877
 4459SOL     OW14275   1.540   2.167   5.003
 4459SOL    HW114276   1.584   2.086   4.964
 4459SOL    HW214277   1.609   2.233   5.031
 4460SOL     OW14278   6.964   2.754   4.068
 4460SOL    HW114279   7.021   2.794   3.996
 4460SOL    HW214280   6.868   2.757   4.040
 4461SOL     OW14281   2.356   0.586   1.633
 4461SOL    HW114282   2.280   0.587   1.568
 4461SOL    HW214283   2.321   0.599   1.726
 4462SOL     OW14284   6.211   3.854   2.195
 4462SOL    HW114285   6.159   3.914   2.135
 4462SOL    HW214286   6.188   3.875   2.290
 4463SOL     OW14287   5.462   0.734   0.680
 4463SOL    HW114288   5.497   0.826   0.695
 4463SOL    HW214289   5.528   0.667   0.714
 4464SOL     OW14290   0.353   5.506   0.611
 4464SOL    HW114291   0.383   5.589   0.657
 4464SOL    HW214292   0.380   5.426   0.665
 4465SOL     OW14293   2.445   5.781   0.109
 4465SOL    HW114294   2.464   5.728   0.026
 4465SOL    HW214295   2.436   5.719   0.187
 4466SOL     OW14296   2.574   1.909   3.750
 4466SOL    HW114297   2.621   1.834   3.796
 4466SOL    HW214298   2.641   1.980   3.726
 4467SOL     OW14299   2.460   5.976   4.001
 4467SOL    HW114300   2.488   5.980   4.097
 4467SOL    HW214301   2.540   5.961   3.943
 4468SOL     OW14302   0.783   3.135   0.332
 4468SOL    HW114303   0.804   3.063   0.266
 4468SOL    HW214304   0.846   3.212   0.318
 4469SOL     OW14305   2.755   6.944   1.520
 4469SOL    HW114306   2.696   6.907   1.449
 4469SOL    HW214307   2.819   6.874   1.551
 4470SOL     OW14308   0.789   0.798   2.266
 4470SOL    HW114309   0.862   0.864   2.248
 4470SOL    HW214310   0.714   0.842   2.313
 4471SOL     OW14311   2.230   2.743   6.241
 4471SOL    HW114312   2.255   2.746   6.338
 4471SOL    HW214313   2.234   2.836   6.203
 4472SOL     OW14314   1.618   2.855   1.306
 4472SOL    HW114315   1.712   2.881   1.284
 4472SOL    HW214316   1.556   2.892   1.236
 4473SOL     OW14317   6.508   2.687   4.156
 4473SOL    HW114318   6.580   2.678   4.087
 4473SOL    HW214319   6.549   2.692   4.247
 4474SOL     OW14320   3.041   0.787   1.935
 4474SOL    HW114321   3.091   0.790   2.021
 4474SOL    HW214322   3.061   0.869   1.881
 4475SOL     OW14323   1.164   3.524   2.314
 4475SOL    HW114324   1.129   3.448   2.259
 4475SOL    HW214325   1.193   3.598   2.253
 4476SOL     OW14326   5.686   1.175   4.218
 4476SOL    HW114327   5.708   1.251   4.157
 4476SOL    HW214328   5.666   1.210   4.310
 4477SOL     OW14329   2.324   0.136   5.432
 4477SOL    HW114330   2.419   0.163   5.422
 4477SOL    HW214331   2.267   0.188   5.368
 4478SOL     OW14332   1.159   0.230   1.187
 4478SOL    HW114333   1.110   0.316   1.172
 4478SOL    HW214334   1.257   0.245   1.178
 4479SOL     OW14335   1.058   2.212   0.323
 4479SOL    HW114336   1.091   2.135   0.270
 4479SOL    HW214337   1.114   2.293   0.305
 4480SOL     OW14338   0.266   4.670   4.696
 4480SOL    HW114339   0.295   4.739   4.763
 4480SOL    HW214340   0.172   4.689   4.667
 4481SOL     OW14341   2.491   5.118   5.383
 4481SOL    HW114342   2.515   5.028   5.345
 4481SOL    HW214343   2.438   5.106   5.467
 4482SOL     OW14344   2.997   4.669   6.046
 4482SOL    HW114345   3.054   4.591   6.071
 4482SOL    HW214346   2.908   4.636   6.014
 4483SOL     OW14347   0.767   2.952   1.936
 4483SOL    HW114348   0.748   3.043   1.974
 4483SOL    HW214349   0.810   2.962   1.846
 4484SOL     OW14350   2.477   3.328   0.287
 4484SOL    HW114351   2.506   3.246   0.337
 4484SOL    HW214352   2.378   3.337   0.294
 4485SOL     OW14353   4.760   2.844   4.870
 4485SOL    HW114354   4.721   2.832   4.778
 4485SOL    HW214355   4.692   2.819   4.938
 4486SOL     OW14356   5.567   4.868   5.414
 4486SOL    HW114357   5.639   4.912   5.469
 4486SOL    HW214358   5.515   4.938   5.366
 4487SOL     OW14359   1.784   3.023   6.910
 4487SOL    HW114360   1.795   2.925   6.930
 4487SOL    HW214361   1.704   3.058   6.958
 4488SOL     OW14362   1.043   3.773   3.683
 4488SOL    HW114363   1.075   3.781   3.778
 4488SOL    HW214364   1.120   3.745   3.625
 4489SOL     OW14365   4.860   5.283   5.180
 4489SOL    HW114366   4.774   5.326   5.209
 4489SOL    HW214367   4.842   5.189   5.153
 4490SOL     OW14368   5.229   1.683   0.791
 4490SOL    HW114369   5.167   1.760   0.800
 4490SOL    HW214370   5.320   1.716   0.765
 4491SOL     OW14371   0.939   3.107   2.905
 4491SOL    HW114372   0.959   3.010   2.921
 4491SOL    HW214373   0.963   3.160   2.987
 4492SOL     OW14374   5.815   0.826   1.310
 4492SOL    HW114375   5.876   0.880   1.253
 4492SOL    HW214376   5.869   0.760   1.363
 4493SOL     OW14377   5.287   6.560   4.974
 4493SOL    HW114378   5.210   6.617   4.947
 4493SOL    HW214379   5.360   6.567   4.906
 4494SOL     OW14380   1.019   0.746   5.887
 4494SOL    HW114381   1.080   0.666   5.882
 4494SOL    HW214382   0.941   0.724   5.945
 4495SOL     OW14383   3.619   5.850   2.084
 4495SOL    HW114384   3.520   5.841   2.100
 4495SOL    HW214385   3.666   5.772   2.127
 4496SOL     OW14386   4.628   6.323   6.450
 4496SOL    HW114387   4.720   6.360   6.451
 4496SOL    HW214388   4.604   6.296   6.356
 4497SOL     OW14389   3.615   2.335   0.101
 4497SOL    HW114390   3.679   2.306   0.172
 4497SOL    HW214391   3.664   2.379   0.026
 4498SOL     OW14392   6.923   5.155   5.984
 4498SOL    HW114393   6.964   5.246   5.982
 4498SOL    HW214394   6.920   5.119   5.891
 4499SOL     OW14395   6.634   1.615   2.818
 4499SOL    HW114396   6.601   1.694   2.766
 4499SOL    HW214397   6.647   1.537   2.756
 4500SOL     OW14398   3.838   5.224   7.024
 4500SOL    HW114399   3.798   5.308   6.987
 4500SOL    HW214400   3.905   5.188   6.959
 4501SOL     OW14401   6.018   1.832   1.896
 4501SOL    HW114402   5.968   1.812   1.812
 4501SOL    HW214403   5.999   1.761   1.964
 4502SOL     OW14404   0.874   3.399   6.885
 4502SOL    HW114405   0.908   3.476   6.832
 4502SOL    HW214406   0.951   3.345   6.920
 4503SOL     OW14407   2.685   6.873   2.272
 4503SOL    HW114408   2.652   6.880   2.177
 4503SOL    HW214409   2.723   6.783   2.287
 4504SOL     OW14410   6.911   1.899   3.501
 4504SOL    HW114411   6.923   1.816   3.446
 4504SOL    HW214412   6.835   1.886   3.565
 4505SOL     OW14413   6.563   4.768   2.354
 4505SOL    HW114414   6.649   4.813   2.329
 4505SOL    HW214415   6.541   4.698   2.285
 4506SOL     OW14416   4.769   2.953   4.148
 4506SOL    HW114417   4.809   2.877   4.097
 4506SOL    HW214418   4.691   2.989   4.097
 4507SOL     OW14419   6.641   3.398   3.301
 4507SOL    HW114420   6.698   3.407   3.220
 4507SOL    HW214421   6.559   3.345   3.280
 4508SOL     OW14422   0.397   4.042   0.766
 4508SOL    HW114423   0.345   4.085   0.692
 4508SOL    HW214424   0.466   3.981   0.728
 4509SOL     OW14425   4.828   1.991   2.405
 4509SOL    HW114426   4.773   1.998   2.488
 4509SOL    HW214427   4.822   1.898   2.369
 4510SOL     OW14428   4.629   1.504   3.951
 4510SOL    HW114429   4.726   1.523   3.966
 4510SOL    HW214430   4.589   1.467   4.035
 4511SOL     OW14431   6.910   4.172   0.780
 4511SOL    HW114432   6.872   4.119   0.855
 4511SOL    HW214433   6.837   4.225   0.737
 4512SOL     OW14434   3.585   2.128   5.483
 4512SOL    HW114435   3.593   2.049   5.423
 4512SOL    HW214436   3.532   2.199   5.437
 4513SOL     OW14437   0.761   6.057   6.491
 4513SOL    HW114438   0.859   6.056   6.509
 4513SOL    HW214439   0.714   5.995   6.555
 4514SOL     OW14440   3.318   3.212   6.798
 4514SOL    HW114441   3.313   3.213   6.898
 4514SOL    HW214442   3.259   3.283   6.761
 4515SOL     OW14443   5.734   0.261   4.651
 4515SOL    HW114444   5.729   0.213   4.563
 4515SOL    HW214445   5.646   0.255   4.698
 4516SOL     OW14446   2.687   1.817   5.610
 4516SOL    HW114447   2.747   1.877   5.557
 4516SOL    HW214448   2.592   1.839   5.589
 4517SOL     OW14449   4.237   0.235   6.369
 4517SOL    HW114450   4.171   0.303   6.338
 4517SOL    HW214451   4.270   0.259   6.460
 4518SOL     OW14452   1.709   6.522   0.927
 4518SOL    HW114453   1.652   6.601   0.953
 4518SOL    HW214454   1.654   6.439   0.929
 4519SOL     OW14455   5.225   6.981   0.296
 4519SOL    HW114456   5.309   0.005   0.274
 4519SOL    HW214457   5.234   6.886   0.268
 4520SOL     OW14458   4.152   6.118   5.120
 4520SOL    HW114459   4.117   6.098   5.212
 4520SOL    HW214460   4.252   6.127   5.124
 4521SOL     OW14461   5.222   2.083   5.115
 4521SOL    HW114462   5.145   2.145   5.132
 4521SOL    HW214463   5.247   2.088   5.019
 4522SOL     OW14464   5.444   3.764   3.847
 4522SOL    HW114465   5.469   3.712   3.765
 4522SOL    HW214466   5.450   3.705   3.927
 4523SOL     OW14467   0.577   3.809   6.528
 4523SOL    HW114468   0.624   3.818   6.615
 4523SOL    HW214469   0.548   3.713   6.515
 4524SOL     OW14470   0.489   3.294   3.057
 4524SOL    HW114471   0.564   3.230   3.040
 4524SOL    HW214472   0.441   3.267   3.141
 4525SOL     OW14473   2.030   2.886   5.958
 4525SOL    HW114474   1.958   2.882   6.028
 4525SOL    HW214475   2.116   2.915   6.001
 4526SOL     OW14476   0.533   0.546   6.466
 4526SOL    HW114477   0.606   0.544   6.535
 4526SOL    HW214478   0.496   0.639   6.460
 4527SOL     OW14479   6.768   0.119   2.718
 4527SOL    HW114480   6.673   0.149   2.726
 4527SOL    HW214481   6.787   0.095   2.622
 4528SOL     OW14482   4.116   0.759   5.688
 4528SOL    HW114483   4.052   0.773   5.764
 4528SOL    HW214484   4.069   0.716   5.612
 4529SOL     OW14485   2.911   1.154   5.836
 4529SOL    HW114486   2.858   1.075   5.806
 4529SOL    HW214487   3.008   1.136   5.821
 4530SOL     OW14488   2.215   6.529   5.042
 4530SOL    HW114489   2.124   6.527   5.001
 4530SOL    HW214490   2.276   6.586   4.986
 4531SOL     OW14491   1.254   4.786   6.508
 4531SOL    HW114492   1.290   4.838   6.586
 4531SOL    HW214493   1.180   4.837   6.466
 4532SOL     OW14494   5.038   0.941   3.068
 4532SOL    HW114495   5.022   1.039   3.069
 4532SOL    HW214496   5.119   0.921   3.012
 4533SOL     OW14497   1.625   0.778   3.025
 4533SOL    HW114498   1.624   0.874   3.051
 4533SOL    HW214499   1.692   0.729   3.081
 4534SOL     OW14500   4.427   1.758   4.358
 4534SOL    HW114501   4.491   1.759   4.434
 4534SOL    HW214502   4.333   1.752   4.393
 4535SOL     OW14503   3.524   1.791   0.757
 4535SOL    HW114504   3.565   1.881   0.745
 4535SOL    HW214505   3.583   1.721   0.716
 4536SOL     OW14506   2.086   2.075   5.662
 4536SOL    HW114507   2.177   2.116   5.651
 4536SOL    HW214508   2.043   2.065   5.573
 4537SOL     OW14509   3.260   3.586   3.750
 4537SOL    HW114510   3.307   3.667   3.713
 4537SOL    HW214511   3.277   3.580   3.849
 4538SOL     OW14512   0.542   2.276   2.064
 4538SOL    HW114513   0.444   2.266   2.049
 4538SOL    HW214514   0.565   2.372   2.080
 4539SOL     OW14515   2.072   5.056   4.955
 4539SOL    HW114516   2.150   5.047   4.893
 4539SOL    HW214517   2.014   4.975   4.948
 4540SOL     OW14518   0.550   0.982   0.546
 4540SOL    HW114519   0.461   1.007   0.509
 4540SOL    HW214520   0.595   1.063   0.583
 4541SOL     OW14521   3.908   1.461   6.827
 4541SOL    HW114522   3.932   1.420   6.915
 4541SOL    HW214523   3.838   1.405   6.782
 4542SOL     OW14524   0.299   2.267   0.845
 4542SOL    HW114525   0.236   2.203   0.801
 4542SOL    HW214526   0.325   2.232   0.935
 4543SOL     OW14527   4.415   2.410   0.559
 4543SOL    HW114528   4.349   2.336   0.571
 4543SOL    HW214529   4.390   2.487   0.618
 4544SOL     OW14530   4.857   5.077   0.462
 4544SOL    HW114531   4.763   5.059   0.433
 4544SOL    HW214532   4.907   5.119   0.386
 4545SOL     OW14533   0.825   4.182   4.978
 4545SOL    HW114534   0.840   4.150   5.072
 4545SOL    HW214535   0.908   4.165   4.924
 4546SOL     OW14536   2.594   1.360   5.751
 4546SOL    HW114537   2.517   1.408   5.794
 4546SOL    HW214538   2.622   1.410   5.669
 4547SOL     OW14539   6.264   0.840   0.089
 4547SOL    HW114540   6.179   0.852   0.141
 4547SOL    HW214541   6.343   0.855   0.148
 4548SOL     OW14542   2.296   2.843   2.903
 4548SOL    HW114543   2.235   2.862   2.826
 4548SOL    HW214544   2.310   2.744   2.910
 4549SOL     OW14545   5.599   4.417   2.584
 4549SOL    HW114546   5.625   4.428   2.680
 4549SOL    HW214547   5.566   4.505   2.549
 4550SOL     OW14548   0.916   4.605   3.236
 4550SOL    HW114549   1.010   4.604   3.200
 4550SOL    HW214550   0.875   4.694   3.219
 4551SOL     OW14551   1.588   3.625   5.056
 4551SOL    HW114552   1.651   3.554   5.090
 4551SOL    HW214553   1.494   3.598   5.078
 4552SOL     OW14554   6.087   1.460   1.251
 4552SOL    HW114555   6.185   1.438   1.247
 4552SOL    HW214556   6.039   1.390   1.304
 4553SOL     OW14557   5.393   4.676   6.332
 4553SOL    HW114558   5.437   4.662   6.421
 4553SOL    HW214559   5.462   4.692   6.263
 4554SOL     OW14560   0.246   6.199   1.160
 4554SOL    HW114561   0.179   6.138   1.117
 4554SOL    HW214562   0.295   6.149   1.231
 4555SOL     OW14563   1.544   1.523   6.842
 4555SOL    HW114564   1.491   1.594   6.796
 4555SOL    HW214565   1.551   1.443   6.783
 4556SOL     OW14566   6.460   3.297   5.911
 4556SOL    HW114567   6.436   3.370   5.848
 4556SOL    HW214568   6.553   3.266   5.892
 4557SOL     OW14569   6.175   5.210   4.131
 4557SOL    HW114570   6.197   5.116   4.157
 4557SOL    HW214571   6.076   5.226   4.142
 4558SOL     OW14572   6.137   3.107   5.472
 4558SOL    HW114573   6.086   3.097   5.386
 4558SOL    HW214574   6.148   3.016   5.514
 4559SOL     OW14575   0.663   3.108   2.950
 4559SOL    HW114576   0.707   3.044   3.013
 4559SOL    HW214577   0.721   3.121   2.869
 4560SOL     OW14578   0.023   4.564   1.775
 4560SOL    HW114579   0.050   4.486   1.718
 4560SOL    HW214580   0.032   4.649   1.722
 4561SOL     OW14581   3.330   2.188   4.538
 4561SOL    HW114582   3.416   2.167   4.585
 4561SOL    HW214583   3.340   2.274   4.488
 4562SOL     OW14584   2.180   6.597   0.456
 4562SOL    HW114585   2.138   6.650   0.530
 4562SOL    HW214586   2.159   6.500   0.468
 4563SOL     OW14587   0.209   2.889   1.449
 4563SOL    HW114588   0.156   2.809   1.421
 4563SOL    HW214589   0.172   2.970   1.404
 4564SOL     OW14590   0.345   4.118   1.947
 4564SOL    HW114591   0.332   4.159   1.857
 4564SOL    HW214592   0.437   4.080   1.954
 4565SOL     OW14593   1.904   0.396   4.859
 4565SOL    HW114594   1.990   0.370   4.816
 4565SOL    HW214595   1.924   0.442   4.946
 4566SOL     OW14596   0.245   4.024   1.273
 4566SOL    HW114597   0.276   4.073   1.191
 4566SOL    HW214598   0.324   4.003   1.331
 4567SOL     OW14599   0.062   0.042   6.171
 4567SOL    HW114600   0.059   0.138   6.143
 4567SOL    HW214601   7.006   7.020   6.137
 4568SOL     OW14602   0.843   4.451   3.858
 4568SOL    HW114603   0.825   4.354   3.843
 4568SOL    HW214604   0.933   4.462   3.899
 4569SOL     OW14605   3.140   0.910   3.073
 4569SOL    HW114606   3.192   0.841   3.123
 4569SOL    HW214607   3.143   0.997   3.123
 4570SOL     OW14608   6.217   5.547   1.524
 4570SOL    HW114609   6.215   5.613   1.599
 4570SOL    HW214610   6.263   5.464   1.553
 4571SOL     OW14611   4.343   2.803   6.631
 4571SOL    HW114612   4.299   2.893   6.621
 4571SOL    HW214613   4.442   2.815   6.628
 4572SOL     OW14614   2.466   2.415   6.624
 4572SOL    HW114615   2.529   2.484   6.589
 4572SOL    HW214616   2.425   2.366   6.547
 4573SOL     OW14617   1.090   6.534   0.837
 4573SOL    HW114618   1.092   6.476   0.755
 4573SOL    HW214619   1.135   6.486   0.912
 4574SOL     OW14620   5.955   3.499   0.112
 4574SOL    HW114621   6.047   3.467   0.137
 4574SOL    HW214622   5.949   3.509   0.013
 4575SOL     OW14623   6.318   1.005   4.475
 4575SOL    HW114624   6.330   1.017   4.574
 4575SOL    HW214625   6.406   1.023   4.429
 4576SOL     OW14626   3.058   4.780   5.031
 4576SOL    HW114627   2.969   4.737   5.045
 4576SOL    HW214628   3.115   4.764   5.111
 4577SOL     OW14629   1.532   2.204   2.955
 4577SOL    HW114630   1.601   2.133   2.943
 4577SOL    HW214631   1.510   2.245   2.867
 4578SOL     OW14632   1.480   0.869   2.806
 4578SOL    HW114633   1.517   0.817   2.883
 4578SOL    HW214634   1.381   0.855   2.802
 4579SOL     OW14635   4.834   0.050   1.695
 4579SOL    HW114636   4.907   0.101   1.648
 4579SOL    HW214637   4.756   0.040   1.633
 4580SOL     OW14638   5.679   3.447   0.201
 4580SOL    HW114639   5.662   3.406   0.290
 4580SOL    HW214640   5.775   3.436   0.177
 4581SOL     OW14641   3.176   6.686   2.020
 4581SOL    HW114642   3.177   6.608   2.084
 4581SOL    HW214643   3.089   6.688   1.972
 4582SOL     OW14644   5.038   0.663   2.707
 4582SOL    HW114645   4.987   0.732   2.657
 4582SOL    HW214646   4.976   0.607   2.761
 4583SOL     OW14647   1.896   0.501   6.483
 4583SOL    HW114648   1.845   0.433   6.430
 4583SOL    HW214649   1.920   0.577   6.423
 4584SOL     OW14650   1.446   0.176   6.060
 4584SOL    HW114651   1.499   0.208   6.139
 4584SOL    HW214652   1.440   0.076   6.062
 4585SOL     OW14653   1.876   3.853   3.530
 4585SOL    HW114654   1.864   3.931   3.591
 4585SOL    HW214655   1.787   3.823   3.496
 4586SOL     OW14656   5.068   4.319   0.491
 4586SOL    HW114657   4.970   4.296   0.492
 4586SOL    HW214658   5.094   4.348   0.399
 4587SOL     OW14659   3.110   3.531   5.068
 4587SOL    HW114660   3.033   3.478   5.103
 4587SOL    HW214661   3.119   3.616   5.120
 4588SOL     OW14662   3.027   3.656   6.336
 4588SOL    HW114663   3.016   3.755   6.341
 4588SOL    HW214664   2.950   3.611   6.381
 4589SOL     OW14665   5.587   5.830   2.223
 4589SOL    HW114666   5.492   5.854   2.207
 4589SOL    HW214667   5.635   5.821   2.136
 4590SOL     OW14668   3.695   5.696   1.535
 4590SOL    HW114669   3.650   5.723   1.450
 4590SOL    HW214670   3.766   5.628   1.516
 4591SOL     OW14671   2.431   6.978   5.791
 4591SOL    HW114672   2.502   6.960   5.723
 4591SOL    HW214673   2.350   7.015   5.745
 4592SOL     OW14674   2.688   1.494   4.632
 4592SOL    HW114675   2.656   1.401   4.644
 4592SOL    HW214676   2.747   1.499   4.551
 4593SOL     OW14677   0.033   5.547   3.302
 4593SOL    HW114678   0.041   5.448   3.309
 4593SOL    HW214679   0.094   5.581   3.231
 4594SOL     OW14680   2.831   0.121   2.924
 4594SOL    HW114681   2.888   0.105   2.844
 4594SOL    HW214682   2.739   0.147   2.896
 4595SOL     OW14683   4.716   1.973   6.221
 4595SOL    HW114684   4.691   2.054   6.168
 4595SOL    HW214685   4.746   1.900   6.159
 4596SOL     OW14686   0.746   0.433   1.787
 4596SOL    HW114687   0.764   0.527   1.819
 4596SOL    HW214688   0.744   0.432   1.687
 4597SOL     OW14689   2.574   5.288   6.774
 4597SOL    HW114690   2.661   5.333   6.756
 4597SOL    HW214691   2.532   5.259   6.688
 4598SOL     OW14692   2.450   5.392   7.009
 4598SOL    HW114693   2.492   5.345   6.931
 4598SOL    HW214694   2.415   5.324   0.048
 4599SOL     OW14695   1.879   3.732   2.672
 4599SOL    HW114696   1.816   3.782   2.731
 4599SOL    HW214697   1.828   3.678   2.606
 4600SOL     OW14698   6.979   6.519   5.885
 4600SOL    HW114699   0.024   6.473   5.831
 4600SOL    HW214700   7.013   6.610   5.911
 4601SOL     OW14701   0.521   1.093   4.368
 4601SOL    HW114702   0.533   1.000   4.334
 4601SOL    HW214703   0.579   1.107   4.448
 4602SOL     OW14704   2.433   0.597   6.610
 4602SOL    HW114705   2.421   0.696   6.611
 4602SOL    HW214706   2.343   0.553   6.602
 4603SOL     OW14707   4.193   5.879   1.249
 4603SOL    HW114708   4.168   5.786   1.276
 4603SOL    HW214709   4.185   5.940   1.327
 4604SOL     OW14710   4.878   6.994   6.163
 4604SOL    HW114711   4.809   6.937   6.207
 4604SOL    HW214712   4.909   6.950   6.078
 4605SOL     OW14713   2.381   6.633   1.910
 4605SOL    HW114714   2.327   6.701   1.959
 4605SOL    HW214715   2.334   6.545   1.912
 4606SOL     OW14716   0.253   6.559   2.664
 4606SOL    HW114717   0.347   6.525   2.674
 4606SOL    HW214718   0.214   6.526   2.579
 4607SOL     OW14719   2.003   4.060   2.803
 4607SOL    HW114720   1.916   4.104   2.781
 4607SOL    HW214721   1.988   3.984   2.866
 4608SOL     OW14722   0.199   3.500   5.026
 4608SOL    HW114723   0.294   3.529   5.035
 4608SOL    HW214724   0.196   3.402   5.003
 4609SOL     OW14725   4.113   6.168   6.129
 4609SOL    HW114726   4.204   6.184   6.093
 4609SOL    HW214727   4.096   6.070   6.136
 4610SOL     OW14728   5.400   2.297   6.890
 4610SOL    HW114729   5.473   2.235   6.919
 4610SOL    HW214730   5.336   2.248   6.831
 4611SOL     OW14731   0.398   1.062   5.925
 4611SOL    HW114732   0.450   0.987   5.884
 4611SOL    HW214733   0.340   1.105   5.856
 4612SOL     OW14734   2.250   6.100   2.391
 4612SOL    HW114735   2.200   6.180   2.421
 4612SOL    HW214736   2.337   6.128   2.350
 4613SOL     OW14737   1.959   4.359   2.394
 4613SOL    HW114738   1.980   4.337   2.489
 4613SOL    HW214739   1.892   4.433   2.391
 4614SOL     OW14740   6.057   3.110   3.788
 4614SOL    HW114741   6.071   3.207   3.810
 4614SOL    HW214742   6.064   3.056   3.872
 4615SOL     OW14743   0.628   1.109   1.274
 4615SOL    HW114744   0.652   1.189   1.219
 4615SOL    HW214745   0.678   1.112   1.360
 4616SOL     OW14746   6.366   2.543   5.233
 4616SOL    HW114747   6.438   2.494   5.183
 4616SOL    HW214748   6.383   2.641   5.228
 4617SOL     OW14749   0.534   2.734   2.042
 4617SOL    HW114750   0.487   2.815   2.078
 4617SOL    HW214751   0.553   2.747   1.944
 4618SOL     OW14752   2.482   3.717   5.652
 4618SOL    HW114753   2.445   3.716   5.745
 4618SOL    HW214754   2.529   3.803   5.635
 4619SOL     OW14755   3.213   5.954   4.271
 4619SOL    HW114756   3.166   6.030   4.226
 4619SOL    HW214757   3.183   5.949   4.367
 4620SOL     OW14758   0.693   5.619   1.241
 4620SOL    HW114759   0.660   5.635   1.148
 4620SOL    HW214760   0.719   5.523   1.251
 4621SOL     OW14761   5.082   0.493   2.232
 4621SOL    HW114762   5.141   0.511   2.310
 4621SOL    HW214763   4.990   0.471   2.264
 4622SOL     OW14764   4.392   5.493   0.758
 4622SOL    HW114765   4.372   5.402   0.720
 4622SOL    HW214766   4.464   5.537   0.704
 4623SOL     OW14767   3.444   5.091   0.911
 4623SOL    HW114768   3.442   4.992   0.904
 4623SOL    HW214769   3.523   5.127   0.861
 4624SOL     OW14770   3.681   1.349   3.380
 4624SOL    HW114771   3.689   1.449   3.382
 4624SOL    HW214772   3.709   1.312   3.469
 4625SOL     OW14773   1.902   5.414   2.137
 4625SOL    HW114774   1.802   5.411   2.128
 4625SOL    HW214775   1.927   5.404   2.233
 4626SOL     OW14776   4.194   3.862   1.770
 4626SOL    HW114777   4.127   3.833   1.702
 4626SOL    HW214778   4.214   3.959   1.758
 4627SOL     OW14779   0.177   5.864   4.573
 4627SOL    HW114780   0.274   5.860   4.599
 4627SOL    HW214781   0.160   5.948   4.522
 4628SOL     OW14782   4.583   4.932   3.565
 4628SOL    HW114783   4.564   4.920   3.467
 4628SOL    HW214784   4.672   4.977   3.576
 4629SOL     OW14785   1.907   5.606   6.435
 4629SOL    HW114786   1.814   5.577   6.458
 4629SOL    HW214787   1.905   5.699   6.400
 4630SOL     OW14788   1.209   5.548   2.454
 4630SOL    HW114789   1.156   5.534   2.537
 4630SOL    HW214790   1.262   5.632   2.462
 4631SOL     OW14791   0.344   0.586   4.048
 4631SOL    HW114792   0.405   0.605   3.971
 4631SOL    HW214793   0.392   0.604   4.134
 4632SOL     OW14794   2.990   5.415   2.833
 4632SOL    HW114795   2.937   5.430   2.750
 4632SOL    HW214796   3.071   5.360   2.812
 4633SOL     OW14797   5.283   1.636   4.253
 4633SOL    HW114798   5.325   1.696   4.321
 4633SOL    HW214799   5.219   1.575   4.298
 4634SOL     OW14800   2.988   3.859   4.886
 4634SOL    HW114801   3.073   3.909   4.872
 4634SOL    HW214802   2.949   3.883   4.974
 4635SOL     OW14803   4.614   5.325   0.862
 4635SOL    HW114804   4.537   5.370   0.815
 4635SOL    HW214805   4.582   5.286   0.948
 4636SOL     OW14806   1.590   5.349   0.913
 4636SOL    HW114807   1.559   5.324   0.821
 4636SOL    HW214808   1.635   5.438   0.909
 4637SOL     OW14809   1.411   6.804   1.600
 4637SOL    HW114810   1.318   6.795   1.563
 4637SOL    HW214811   1.412   6.874   1.672
 4638SOL     OW14812   3.899   5.391   0.483
 4638SOL    HW114813   3.932   5.341   0.403
 4638SOL    HW214814   3.929   5.344   0.566
 4639SOL     OW14815   2.581   2.642   0.361
 4639SOL    HW114816   2.509   2.573   0.349
 4639SOL    HW214817   2.575   2.709   0.287
 4640SOL     OW14818   5.957   3.356   5.437
 4640SOL    HW114819   5.990   3.278   5.489
 4640SOL    HW214820   6.029   3.389   5.376
 4641SOL     OW14821   1.079   6.440   3.848
 4641SOL    HW114822   1.107   6.490   3.930
 4641SOL    HW214823   1.031   6.357   3.875
 4642SOL     OW14824   1.652   1.784   4.058
 4642SOL    HW114825   1.594   1.865   4.057
 4642SOL    HW214826   1.610   1.712   4.002
 4643SOL     OW14827   6.723   2.178   0.294
 4643SOL    HW114828   6.661   2.148   0.367
 4643SOL    HW214829   6.702   2.272   0.269
 4644SOL     OW14830   1.155   1.495   6.774
 4644SOL    HW114831   1.105   1.533   6.696
 4644SOL    HW214832   1.237   1.448   6.741
 4645SOL     OW14833   1.508   0.800   3.885
 4645SOL    HW114834   1.567   0.730   3.844
 4645SOL    HW214835   1.427   0.812   3.828
 4646SOL     OW14836   2.440   5.134   4.366
 4646SOL    HW114837   2.397   5.051   4.331
 4646SOL    HW214838   2.370   5.197   4.399
 4647SOL     OW14839   2.031   6.809   2.993
 4647SOL    HW114840   2.041   6.710   2.986
 4647SOL    HW214841   2.075   6.842   3.076
 4648SOL     OW14842   3.105   1.358   3.764
 4648SOL    HW114843   3.186   1.325   3.812
 4648SOL    HW214844   3.116   1.345   3.666
 4649SOL     OW14845   6.210   1.015   0.736
 4649SOL    HW114846   6.201   0.950   0.661
 4649SOL    HW214847   6.240   0.968   0.818
 4650SOL     OW14848   5.183   6.009   1.602
 4650SOL    HW114849   5.241   6.013   1.520
 4650SOL    HW214850   5.234   6.043   1.681
 4651SOL     OW14851   6.832   3.890   6.195
 4651SOL    HW114852   6.747   3.839   6.209
 4651SOL    HW214853   6.833   3.928   6.103
 4652SOL     OW14854   0.093   5.668   4.399
 4652SOL    HW114855   0.093   5.757   4.445
 4652SOL    HW214856   0.187   5.645   4.372
 4653SOL     OW14857   4.775   5.782   0.358
 4653SOL    HW114858   4.751   5.864   0.410
 4653SOL    HW214859   4.870   5.756   0.379
 4654SOL     OW14860   6.718   6.525   4.719
 4654SOL    HW114861   6.709   6.439   4.670
 4654SOL    HW214862   6.742   6.598   4.655
 4655SOL     OW14863   5.538   3.099   1.710
 4655SOL    HW114864   5.443   3.096   1.678
 4655SOL    HW214865   5.554   3.024   1.774
 4656SOL     OW14866   0.625   0.482   1.524
 4656SOL    HW114867   0.581   0.454   1.439
 4656SOL    HW214868   0.611   0.581   1.538
 4657SOL     OW14869   5.014   6.626   2.197
 4657SOL    HW114870   5.091   6.684   2.223
 4657SOL    HW214871   5.003   6.628   2.098
 4658SOL     OW14872   2.381   2.634   5.408
 4658SOL    HW114873   2.385   2.662   5.504
 4658SOL    HW214874   2.298   2.669   5.366
 4659SOL     OW14875   3.575   4.457   1.297
 4659SOL    HW114876   3.558   4.417   1.387
 4659SOL    HW214877   3.661   4.509   1.300
 4660SOL     OW14878   1.197   6.866   3.607
 4660SOL    HW114879   1.106   6.828   3.622
 4660SOL    HW214880   1.196   6.964   3.626
 4661SOL     OW14881   2.281   3.960   5.722
 4661SOL    HW114882   2.190   3.984   5.756
 4661SOL    HW214883   2.276   3.872   5.675
 4662SOL     OW14884   3.143   7.006   5.127
 4662SOL    HW114885   3.056   0.026   5.105
 4662SOL    HW214886   3.125   6.926   5.185
 4663SOL     OW14887   0.982   0.188   0.156
 4663SOL    HW114888   1.022   0.177   0.247
 4663SOL    HW214889   0.890   0.149   0.156
 4664SOL     OW14890   6.632   6.881   0.747
 4664SOL    HW114891   6.643   6.928   0.834
 4664SOL    HW214892   6.562   6.927   0.693
 4665SOL     OW14893   1.888   0.713   5.509
 4665SOL    HW114894   1.788   0.709   5.515
 4665SOL    HW214895   1.916   0.803   5.476
 4666SOL     OW14896   2.049   2.390   6.786
 4666SOL    HW114897   1.955   2.395   6.818
 4666SOL    HW214898   2.111   2.408   6.862
 4667SOL     OW14899   6.455   3.734   1.861
 4667SOL    HW114900   6.456   3.763   1.957
 4667SOL    HW214901   6.396   3.795   1.809
 4668SOL     OW14902   4.029   2.123   4.956
 4668SOL    HW114903   3.932   2.098   4.947
 4668SOL    HW214904   4.043   2.214   4.918
 4669SOL     OW14905   5.254   0.288   0.433
 4669SOL    HW114906   5.311   0.207   0.424
 4669SOL    HW214907   5.298   0.365   0.387
 4670SOL     OW14908   1.737   3.392   0.207
 4670SOL    HW114909   1.690   3.455   0.145
 4670SOL    HW214910   1.833   3.420   0.216
 4671SOL     OW14911   0.657   3.143   0.022
 4671SOL    HW114912   0.684   3.106   6.959
 4671SOL    HW214913   0.691   3.083   0.095
 4672SOL     OW14914   3.873   4.598   5.716
 4672SOL    HW114915   3.882   4.540   5.635
 4672SOL    HW214916   3.877   4.540   5.798
 4673SOL     OW14917   4.848   0.497   7.020
 4673SOL    HW114918   4.807   0.407   7.007
 4673SOL    HW214919   4.914   0.514   6.947
 4674SOL     OW14920   0.032   1.516   0.505
 4674SOL    HW114921   0.018   1.611   0.533
 4674SOL    HW214922   6.969   1.470   0.494
 4675SOL     OW14923   3.354   6.108   6.525
 4675SOL    HW114924   3.313   6.187   6.479
 4675SOL    HW214925   3.404   6.139   6.606
 4676SOL     OW14926   0.993   6.505   4.988
 4676SOL    HW114927   0.989   6.536   5.083
 4676SOL    HW214928   1.009   6.584   4.928
 4677SOL     OW14929   3.523   0.290   6.641
 4677SOL    HW114930   3.593   0.361   6.645
 4677SOL    HW214931   3.438   0.326   6.682
 4678SOL     OW14932   1.983   5.292   1.716
 4678SOL    HW114933   1.916   5.292   1.641
 4678SOL    HW214934   1.992   5.385   1.751
 4679SOL     OW14935   2.671   1.308   6.219
 4679SOL    HW114936   2.606   1.368   6.172
 4679SOL    HW214937   2.724   1.362   6.284
 4680SOL     OW14938   1.829   5.347   1.482
 4680SOL    HW114939   1.914   5.348   1.430
 4680SOL    HW214940   1.812   5.438   1.519
 4681SOL     OW14941   0.592   5.464   5.021
 4681SOL    HW114942   0.565   5.532   5.089
 4681SOL    HW214943   0.648   5.507   4.950
 4682SOL     OW14944   4.062   6.195   0.246
 4682SOL    HW114945   4.075   6.110   0.194
 4682SOL    HW214946   3.973   6.192   0.291
 4683SOL     OW14947   6.487   3.889   2.189
 4683SOL    HW114948   6.495   3.962   2.257
 4683SOL    HW214949   6.392   3.858   2.183
 4684SOL     OW14950   1.597   2.533   4.282
 4684SOL    HW114951   1.505   2.573   4.281
 4684SOL    HW214952   1.661   2.598   4.324
 4685SOL     OW14953   6.369   5.292   4.303
 4685SOL    HW114954   6.299   5.283   4.233
 4685SOL    HW214955   6.347   5.233   4.381
 4686SOL     OW14956   5.024   6.156   7.017
 4686SOL    HW114957   5.025   6.061   6.986
 4686SOL    HW214958   5.100   6.206   6.975
 4687SOL     OW14959   6.722   3.995   4.479
 4687SOL    HW114960   6.647   3.941   4.517
 4687SOL    HW214961   6.721   4.086   4.520
 4688SOL     OW14962   0.454   3.272   6.549
 4688SOL    HW114963   0.416   3.181   6.561
 4688SOL    HW214964   0.554   3.268   6.553
 4689SOL     OW14965   0.120   0.156   5.514
 4689SOL    HW114966   0.090   0.168   5.609
 4689SOL    HW214967   0.110   0.242   5.465
 4690SOL     OW14968   1.502   1.396   0.229
 4690SOL    HW114969   1.424   1.425   0.172
 4690SOL    HW214970   1.517   1.298   0.218
 4691SOL     OW14971   2.645   4.156   1.014
 4691SOL    HW114972   2.643   4.222   1.089
 4691SOL    HW214973   2.661   4.064   1.049
 4692SOL     OW14974   0.268   5.163   3.073
 4692SOL    HW114975   0.250   5.065   3.069
 4692SOL    HW214976   0.366   5.180   3.080
 4693SOL     OW14977   0.364   1.510   4.565
 4693SOL    HW114978   0.452   1.509   4.612
 4693SOL    HW214979   0.336   1.417   4.545
 4694SOL     OW14980   2.596   1.119   0.189
 4694SOL    HW114981   2.496   1.123   0.186
 4694SOL    HW214982   2.633   1.132   0.097
 4695SOL     OW14983   4.049   2.904   1.821
 4695SOL    HW114984   4.097   2.816   1.815
 4695SOL    HW214985   3.985   2.902   1.898
 4696SOL     OW14986   0.481   3.573   6.218
 4696SOL    HW114987   0.566   3.594   6.169
 4696SOL    HW214988   0.423   3.654   6.218
 4697SOL     OW14989   1.608   3.848   0.410
 4697SOL    HW114990   1.621   3.769   0.470
 4697SOL    HW214991   1.690   3.862   0.355
 4698SOL     OW14992   5.583   4.774   1.376
 4698SOL    HW114993   5.645   4.810   1.306
 4698SOL    HW214994   5.536   4.850   1.421
 4699SOL     OW14995   6.984   0.142   2.134
 4699SOL    HW114996   6.936   0.055   2.141
 4699SOL    HW214997   6.983   0.173   2.039
 4700SOL     OW14998   5.160   1.623   1.073
 4700SOL    HW114999   5.155   1.719   1.098
 4700SOL    HW215000   5.132   1.612   0.978
 4701SOL     OW15001   1.005   1.285   0.426
 4701SOL    HW115002   0.991   1.220   0.501
 4701SOL    HW215003   0.952   1.256   0.346
 4702SOL     OW15004   4.295   3.950   6.697
 4702SOL    HW115005   4.311   3.955   6.796
 4702SOL    HW215006   4.201   3.920   6.680
 4703SOL     OW15007   1.556   1.506   3.510
 4703SOL    HW115008   1.597   1.447   3.580
 4703SOL    HW215009   1.628   1.557   3.462
 4704SOL     OW15010   0.070   6.629   0.894
 4704SOL    HW115011   0.098   6.666   0.805
 4704SOL    HW215012   7.022   6.685   0.931
 4705SOL     OW15013   3.772   2.908   4.310
 4705SOL    HW115014   3.802   2.830   4.365
 4705SOL    HW215015   3.805   2.992   4.352
 4706SOL     OW15016   3.225   5.878   6.678
 4706SOL    HW115017   3.319   5.898   6.650
 4706SOL    HW215018   3.211   5.779   6.680
 4707SOL     OW15019   1.672   5.611   0.911
 4707SOL    HW115020   1.623   5.658   0.838
 4707SOL    HW215021   1.671   5.668   0.993
 4708SOL     OW15022   3.184   1.941   0.737
 4708SOL    HW115023   3.229   1.994   0.664
 4708SOL    HW215024   3.173   1.999   0.818
 4709SOL     OW15025   3.793   4.833   5.257
 4709SOL    HW115026   3.717   4.875   5.207
 4709SOL    HW215027   3.764   4.744   5.292
 4710SOL     OW15028   4.610   1.637   6.862
 4710SOL    HW115029   4.611   1.616   6.765
 4710SOL    HW215030   4.680   1.705   6.883
 4711SOL     OW15031   3.158   0.030   2.511
 4711SOL    HW115032   3.240   0.061   2.464
 4711SOL    HW215033   3.101   7.002   2.448
 4712SOL     OW15034   1.833   4.812   1.162
 4712SOL    HW115035   1.761   4.855   1.108
 4712SOL    HW215036   1.869   4.878   1.228
 4713SOL     OW15037   2.722   5.204   1.619
 4713SOL    HW115038   2.661   5.138   1.574
 4713SOL    HW215039   2.668   5.265   1.676
 4714SOL     OW15040   2.474   1.360   1.572
 4714SOL    HW115041   2.375   1.362   1.558
 4714SOL    HW215042   2.514   1.291   1.511
 4715SOL     OW15043   7.008   3.050   2.558
 4715SOL    HW115044   6.953   3.026   2.478
 4715SOL    HW215045   6.971   3.005   2.639
 4716SOL     OW15046   3.706   5.064   6.669
 4716SOL    HW115047   3.627   5.124   6.654
 4716SOL    HW215048   3.674   4.974   6.699
 4717SOL     OW15049   1.042   5.818   2.406
 4717SOL    HW115050   1.059   5.738   2.348
 4717SOL    HW215051   0.951   5.855   2.385
 4718SOL     OW15052   5.050   1.800   6.494
 4718SOL    HW115053   4.971   1.739   6.487
 4718SOL    HW215054   5.033   1.882   6.440
 4719SOL     OW15055   5.837   3.616   2.722
 4719SOL    HW115056   5.780   3.567   2.789
 4719SOL    HW215057   5.778   3.663   2.656
 4720SOL     OW15058   2.492   6.559   5.602
 4720SOL    HW115059   2.395   6.539   5.589
 4720SOL    HW215060   2.532   6.590   5.515
 4721SOL     OW15061   1.161   2.146   1.160
 4721SOL    HW115062   1.240   2.150   1.100
 4721SOL    HW215063   1.087   2.096   1.115
 4722SOL     OW15064   1.917   6.707   0.288
 4722SOL    HW115065   1.863   6.779   0.247
 4722SOL    HW215066   1.934   6.728   0.384
 4723SOL     OW15067   2.623   6.711   6.572
 4723SOL    HW115068   2.708   6.745   6.532
 4723SOL    HW215069   2.551   6.709   6.502
 4724SOL     OW15070   3.919   6.560   2.335
 4724SOL    HW115071   3.895   6.622   2.260
 4724SOL    HW215072   3.881   6.469   2.316
 4725SOL     OW15073   5.048   6.668   3.261
 4725SOL    HW115074   5.145   6.662   3.286
 4725SOL    HW215075   5.034   6.631   3.169
 4726SOL     OW15076   1.280   4.249   6.671
 4726SOL    HW115077   1.269   4.280   6.576
 4726SOL    HW215078   1.332   4.163   6.672
 4727SOL     OW15079   6.716   5.666   0.389
 4727SOL    HW115080   6.729   5.592   0.323
 4727SOL    HW215081   6.716   5.754   0.342
 4728SOL     OW15082   6.502   1.458   0.015
 4728SOL    HW115083   6.513   1.477   6.943
 4728SOL    HW215084   6.414   1.493   0.046
 4729SOL     OW15085   2.234   0.073   2.239
 4729SOL    HW115086   2.257   0.140   2.168
 4729SOL    HW215087   2.272   0.103   2.326
 4730SOL     OW15088   2.295   6.107   5.462
 4730SOL    HW115089   2.394   6.093   5.469
 4730SOL    HW215090   2.257   6.123   5.554
 4731SOL     OW15091   5.419   1.290   5.031
 4731SOL    HW115092   5.455   1.291   4.938
 4731SOL    HW215093   5.367   1.207   5.047
 4732SOL     OW15094   0.214   3.387   6.611
 4732SOL    HW115095   0.312   3.369   6.601
 4732SOL    HW215096   0.196   3.425   6.702
 4733SOL     OW15097   0.159   3.571   2.776
 4733SOL    HW115098   0.209   3.624   2.708
 4733SOL    HW215099   0.063   3.598   2.774
 4734SOL     OW15100   5.150   3.439   0.119
 4734SOL    HW115101   5.145   3.533   0.153
 4734SOL    HW215102   5.095   3.430   0.036
 4735SOL     OW15103   0.829   4.070   4.290
 4735SOL    HW115104   0.846   4.149   4.230
 4735SOL    HW215105   0.775   4.002   4.241
 4736SOL     OW15106   0.487   1.330   6.941
 4736SOL    HW115107   0.427   1.333   6.861
 4736SOL    HW215108   0.563   1.393   6.927
 4737SOL     OW15109   2.835   4.781   1.794
 4737SOL    HW115110   2.807   4.709   1.857
 4737SOL    HW215111   2.771   4.784   1.717
 4738SOL     OW15112   6.634   6.199   1.709
 4738SOL    HW115113   6.686   6.277   1.744
 4738SOL    HW215114   6.589   6.151   1.784
 4739SOL     OW15115   4.082   0.475   2.132
 4739SOL    HW115116   4.001   0.511   2.084
 4739SOL    HW215117   4.052   0.421   2.211
 4740SOL     OW15118   1.048   1.920   2.306
 4740SOL    HW115119   1.047   1.886   2.400
 4740SOL    HW215120   0.960   1.963   2.285
 4741SOL     OW15121   4.176   2.659   1.734
 4741SOL    HW115122   4.161   2.561   1.745
 4741SOL    HW215123   4.134   2.690   1.649
 4742SOL     OW15124   2.955   6.848   0.155
 4742SOL    HW115125   2.984   6.753   0.144
 4742SOL    HW215126   2.886   6.870   0.086
 4743SOL     OW15127   1.758   4.291   1.963
 4743SOL    HW115128   1.851   4.285   1.999
 4743SOL    HW215129   1.758   4.334   1.874
 4744SOL     OW15130   2.071   6.045   0.865
 4744SOL    HW115131   2.078   6.012   0.771
 4744SOL    HW215132   2.020   6.131   0.867
 4745SOL     OW15133   2.114   3.975   0.720
 4745SOL    HW115134   2.124   3.940   0.627
 4745SOL    HW215135   2.203   3.978   0.765
 4746SOL     OW15136   4.595   5.056   4.326
 4746SOL    HW115137   4.563   5.151   4.328
 4746SOL    HW215138   4.645   5.036   4.410
 4747SOL     OW15139   1.761   2.849   0.735
 4747SOL    HW115140   1.828   2.815   0.801
 4747SOL    HW215141   1.709   2.923   0.776
 4748SOL     OW15142   1.770   6.356   2.522
 4748SOL    HW115143   1.753   6.420   2.597
 4748SOL    HW215144   1.835   6.287   2.551
 4749SOL     OW15145   2.166   6.991   0.519
 4749SOL    HW115146   2.141   0.019   0.438
 4749SOL    HW215147   2.265   6.985   0.525
 4750SOL     OW15148   5.742   3.537   5.041
 4750SOL    HW115149   5.719   3.441   5.053
 4750SOL    HW215150   5.662   3.588   5.010
 4751SOL     OW15151   4.643   0.963   2.378
 4751SOL    HW115152   4.633   0.974   2.477
 4751SOL    HW215153   4.717   1.021   2.345
 4752SOL     OW15154   4.291   2.164   0.114
 4752SOL    HW115155   4.337   2.090   0.163
 4752SOL    HW215156   4.359   2.231   0.084
 4753SOL     OW15157   2.055   6.621   5.314
 4753SOL    HW115158   2.133   6.602   5.255
 4753SOL    HW215159   2.015   6.535   5.345
 4754SOL     OW15160   4.259   4.295   6.669
 4754SOL    HW115161   4.171   4.250   6.653
 4754SOL    HW215162   4.244   4.394   6.679
 4755SOL     OW15163   1.551   0.426   1.934
 4755SOL    HW115164   1.612   0.366   1.882
 4755SOL    HW215165   1.457   0.393   1.926
 4756SOL     OW15166   6.020   4.192   6.684
 4756SOL    HW115167   6.081   4.188   6.762
 4756SOL    HW215168   6.060   4.144   6.606
 4757SOL     OW15169   1.711   3.107   1.485
 4757SOL    HW115170   1.619   3.129   1.454
 4757SOL    HW215171   1.778   3.150   1.423
 4758SOL     OW15172   1.781   0.118   3.006
 4758SOL    HW115173   1.738   0.152   3.089
 4758SOL    HW215174   1.715   0.122   2.930
 4759SOL     OW15175   0.744   5.063   1.054
 4759SOL    HW115176   0.806   5.141   1.060
 4759SOL    HW215177   0.689   5.058   1.138
 4760SOL     OW15178   1.516   6.841   0.753
 4760SOL    HW115179   1.525   6.940   0.752
 4760SOL    HW215180   1.531   6.806   0.845
 4761SOL     OW15181   0.446   6.744   0.498
 4761SOL    HW115182   0.416   6.662   0.547
 4761SOL    HW215183   0.389   6.757   0.417
 4762SOL     OW15184   1.992   5.725   2.539
 4762SOL    HW115185   1.913   5.703   2.596
 4762SOL    HW215186   2.076   5.709   2.591
 4763SOL     OW15187   4.510   5.574   1.758
 4763SOL    HW115188   4.547   5.483   1.739
 4763SOL    HW215189   4.555   5.641   1.698
 4764SOL     OW15190   4.683   4.081   6.038
 4764SOL    HW115191   4.663   4.128   6.124
 4764SOL    HW215192   4.690   3.983   6.054
 4765SOL     OW15193   3.883   1.477   5.384
 4765SOL    HW115194   3.978   1.449   5.375
 4765SOL    HW215195   3.837   1.467   5.295
 4766SOL     OW15196   6.549   6.808   4.275
 4766SOL    HW115197   6.528   6.778   4.369
 4766SOL    HW215198   6.571   6.728   4.219
 4767SOL     OW15199   2.164   5.069   4.526
 4767SOL    HW115200   2.085   5.051   4.467
 4767SOL    HW215201   2.231   4.996   4.514
 4768SOL     OW15202   4.614   2.712   6.577
 4768SOL    HW115203   4.658   2.798   6.601
 4768SOL    HW215204   4.670   2.664   6.509
 4769SOL     OW15205   3.361   5.726   1.234
 4769SOL    HW115206   3.285   5.715   1.298
 4769SOL    HW215207   3.417   5.804   1.262
 4770SOL     OW15208   6.944   1.872   5.155
 4770SOL    HW115209   0.001   1.911   5.196
 4770SOL    HW215210   6.969   1.817   5.075
 4771SOL     OW15211   2.791   0.204   5.282
 4771SOL    HW115212   2.719   0.259   5.239
 4771SOL    HW215213   2.824   0.136   5.216
 4772SOL     OW15214   2.856   5.573   0.816
 4772SOL    HW115215   2.830   5.597   0.909
 4772SOL    HW215216   2.796   5.499   0.782
 4773SOL     OW15217   2.402   5.936   4.537
 4773SOL    HW115218   2.398   5.912   4.440
 4773SOL    HW215219   2.423   5.854   4.591
 4774SOL     OW15220   1.759   4.034   0.040
 4774SOL    HW115221   1.711   4.050   0.126
 4774SOL    HW215222   1.705   3.971   7.008
 4775SOL     OW15223   5.702   6.520   4.847
 4775SOL    HW115224   5.723   6.518   4.945
 4775SOL    HW215225   5.751   6.445   4.801
 4776SOL     OW15226   1.447   0.739   5.947
 4776SOL    HW115227   1.363   0.769   5.990
 4776SOL    HW215228   1.464   0.792   5.864
 4777SOL     OW15229   0.848   5.913   0.604
 4777SOL    HW115230   0.822   6.005   0.575
 4777SOL    HW215231   0.919   5.877   0.543
 4778SOL     OW15232   0.592   2.071   4.627
 4778SOL    HW115233   0.510   2.090   4.573
 4778SOL    HW215234   0.573   2.088   4.724
 4779SOL     OW15235   5.876   1.285   3.710
 4779SOL    HW115236   5.954   1.276   3.648
 4779SOL    HW215237   5.851   1.382   3.717
 4780SOL     OW15238   5.814   2.638   5.525
 4780SOL    HW115239   5.818   2.581   5.607
 4780SOL    HW215240   5.894   2.619   5.468
 4781SOL     OW15241   1.643   5.839   2.228
 4781SOL    HW115242   1.648   5.739   2.219
 4781SOL    HW215243   1.631   5.880   2.138
 4782SOL     OW15244   5.505   5.154   5.203
 4782SOL    HW115245   5.552   5.068   5.185
 4782SOL    HW215246   5.543   5.226   5.144
 4783SOL     OW15247   5.887   3.208   0.843
 4783SOL    HW115248   5.793   3.177   0.848
 4783SOL    HW215249   5.889   3.306   0.819
 4784SOL     OW15250   5.743   2.775   6.412
 4784SOL    HW115251   5.812   2.739   6.475
 4784SOL    HW215252   5.655   2.783   6.460
 4785SOL     OW15253   0.981   6.117   3.437
 4785SOL    HW115254   0.918   6.043   3.460
 4785SOL    HW215255   0.984   6.183   3.512
 4786SOL     OW15256   2.745   6.597   0.654
 4786SOL    HW115257   2.710   6.650   0.730
 4786SOL    HW215258   2.818   6.536   0.686
 4787SOL     OW15259   4.191   1.757   4.490
 4787SOL    HW115260   4.200   1.837   4.549
 4787SOL    HW215261   4.104   1.761   4.441
 4788SOL     OW15262   6.146   5.874   6.890
 4788SOL    HW115263   6.050   5.883   6.915
 4788SOL    HW215264   6.176   5.957   6.842
 4789SOL     OW15265   4.761   0.610   2.183
 4789SOL    HW115266   4.688   0.547   2.210
 4789SOL    HW215267   4.721   0.693   2.146
 4790SOL     OW15268   5.704   1.724   5.012
 4790SOL    HW115269   5.611   1.757   5.003
 4790SOL    HW215270   5.740   1.699   4.922
 4791SOL     OW15271   0.208   2.598   0.992
 4791SOL    HW115272   0.208   2.585   0.893
 4791SOL    HW215273   0.299   2.580   1.029
 4792SOL     OW15274   2.158   3.837   4.363
 4792SOL    HW115275   2.153   3.861   4.266
 4792SOL    HW215276   2.158   3.921   4.418
 4793SOL     OW15277   1.489   4.165   6.388
 4793SOL    HW115278   1.570   4.116   6.422
 4793SOL    HW215279   1.407   4.120   6.423
 4794SOL     OW15280   4.930   0.869   4.380
 4794SOL    HW115281   4.999   0.878   4.452
 4794SOL    HW215282   4.871   0.950   4.379
 4795SOL     OW15283   0.440   0.273   4.894
 4795SOL    HW115284   0.497   0.340   4.941
 4795SOL    HW215285   0.345   0.304   4.896
 4796SOL     OW15286   3.451   1.293   5.565
 4796SOL    HW115287   3.484   1.305   5.472
 4796SOL    HW215288   3.435   1.382   5.607
 4797SOL     OW15289   0.870   5.149   4.877
 4797SOL    HW115290   0.798   5.168   4.944
 4797SOL    HW215291   0.836   5.170   4.785
 4798SOL     OW15292   4.886   4.921   6.248
 4798SOL    HW115293   4.813   4.982   6.220
 4798SOL    HW215294   4.966   4.974   6.275
 4799SOL     OW15295   3.507   2.767   6.526
 4799SOL    HW115296   3.533   2.859   6.498
 4799SOL    HW215297   3.585   2.723   6.572
 4800SOL     OW15298   1.467   4.950   6.889
 4800SOL    HW115299   1.399   5.023   6.886
 4800SOL    HW215300   1.474   4.907   6.799
 4801SOL     OW15301   5.171   2.700   1.816
 4801SOL    HW115302   5.129   2.774   1.869
 4801SOL    HW215303   5.224   2.738   1.741
 4802SOL     OW15304   0.080   6.166   2.461
 4802SOL    HW115305   0.093   6.117   2.547
 4802SOL    HW215306   0.170   6.188   2.422
 4803SOL     OW15307   5.277   4.505   6.762
 4803SOL    HW115308   5.363   4.459   6.739
 4803SOL    HW215309   5.287   4.603   6.749
 4804SOL     OW15310   5.195   2.264   0.174
 4804SOL    HW115311   5.213   2.307   0.263
 4804SOL    HW215312   5.147   2.329   0.115
 4805SOL     OW15313   6.208   2.129   1.031
 4805SOL    HW115314   6.276   2.197   1.003
 4805SOL    HW215315   6.228   2.042   0.985
 4806SOL     OW15316   1.268   2.647   2.860
 4806SOL    HW115317   1.326   2.705   2.917
 4806SOL    HW215318   1.316   2.627   2.774
 4807SOL     OW15319   1.268   2.986   6.869
 4807SOL    HW115320   1.175   2.952   6.853
 4807SOL    HW215321   1.286   3.063   6.808
 4808SOL     OW15322   3.483   5.711   0.786
 4808SOL    HW115323   3.414   5.680   0.721
 4808SOL    HW215324   3.547   5.772   0.740
 4809SOL     OW15325   3.502   4.945   1.638
 4809SOL    HW115326   3.476   4.996   1.557
 4809SOL    HW215327   3.423   4.936   1.699
 4810SOL     OW15328   1.268   4.028   3.616
 4810SOL    HW115329   1.317   4.038   3.529
 4810SOL    HW215330   1.196   3.959   3.605
 4811SOL     OW15331   3.234   4.005   4.815
 4811SOL    HW115332   3.325   4.048   4.812
 4811SOL    HW215333   3.185   4.026   4.731
 4812SOL     OW15334   0.395   6.601   2.130
 4812SOL    HW115335   0.337   6.520   2.120
 4812SOL    HW215336   0.486   6.573   2.161
 4813SOL     OW15337   6.318   1.561   0.205
 4813SOL    HW115338   6.385   1.597   0.270
 4813SOL    HW215339   6.229   1.604   0.221
 4814SOL     OW15340   0.209   3.905   1.668
 4814SOL    HW115341   0.111   3.908   1.646
 4814SOL    HW215342   0.223   3.845   1.747
 4815SOL     OW15343   5.667   4.737   2.455
 4815SOL    HW115344   5.692   4.673   2.382
 4815SOL    HW215345   5.645   4.826   2.415
 4816SOL     OW15346   1.248   6.832   2.440
 4816SOL    HW115347   1.325   6.876   2.394
 4816SOL    HW215348   1.277   6.744   2.477
 4817SOL     OW15349   3.722   1.441   1.553
 4817SOL    HW115350   3.637   1.472   1.597
 4817SOL    HW215351   3.735   1.344   1.571
 4818SOL     OW15352   3.056   0.430   4.495
 4818SOL    HW115353   3.014   0.521   4.497
 4818SOL    HW215354   3.129   0.429   4.426
 4819SOL     OW15355   3.062   0.964   1.670
 4819SOL    HW115356   3.129   1.035   1.648
 4819SOL    HW215357   3.055   0.900   1.594
 4820SOL     OW15358   0.175   4.353   2.426
 4820SOL    HW115359   0.153   4.368   2.330
 4820SOL    HW215360   0.095   4.317   2.474
 4821SOL     OW15361   6.511   5.332   1.762
 4821SOL    HW115362   6.607   5.318   1.788
 4821SOL    HW215363   6.500   5.310   1.665
 4822SOL     OW15364   2.287   4.160   3.936
 4822SOL    HW115365   2.249   4.253   3.930
 4822SOL    HW215366   2.335   4.138   3.852
 4823SOL     OW15367   0.988   0.264   4.185
 4823SOL    HW115368   0.961   0.243   4.092
 4823SOL    HW215369   1.053   0.195   4.218
 4824SOL     OW15370   5.550   2.244   2.411
 4824SOL    HW115371   5.637   2.293   2.412
 4824SOL    HW215372   5.475   2.310   2.400
 4825SOL     OW15373   2.100   3.592   3.884
 4825SOL    HW115374   2.124   3.690   3.888
 4825SOL    HW215375   2.085   3.559   3.977
 4826SOL     OW15376   0.360   6.497   0.586
 4826SOL    HW115377   0.387   6.450   0.671
 4826SOL    HW215378   0.273   6.460   0.554
 4827SOL     OW15379   4.528   1.051   1.368
 4827SOL    HW115380   4.433   1.044   1.396
 4827SOL    HW215381   4.536   1.028   1.270
 4828SOL     OW15382   5.532   3.502   1.984
 4828SOL    HW115383   5.438   3.536   1.990
 4828SOL    HW215384   5.567   3.516   1.891
 4829SOL     OW15385   2.997   0.503   6.048
 4829SOL    HW115386   2.911   0.477   6.003
 4829SOL    HW215387   2.979   0.525   6.144
 4830SOL     OW15388   4.852   6.089   3.643
 4830SOL    HW115389   4.854   6.028   3.723
 4830SOL    HW215390   4.885   6.180   3.670
 4831SOL     OW15391   6.611   4.678   5.320
 4831SOL    HW115392   6.675   4.635   5.384
 4831SOL    HW215393   6.520   4.683   5.362
 4832SOL     OW15394   3.061   3.123   5.937
 4832SOL    HW115395   3.004   3.205   5.948
 4832SOL    HW215396   3.004   3.047   5.906
 4833SOL     OW15397   4.238   1.304   3.225
 4833SOL    HW115398   4.160   1.356   3.189
 4833SOL    HW215399   4.221   1.206   3.214
 4834SOL     OW15400   4.322   1.237   0.930
 4834SOL    HW115401   4.263   1.236   1.010
 4834SOL    HW215402   4.288   1.173   0.862
 4835SOL     OW15403   1.853   0.096   6.399
 4835SOL    HW115404   1.859   0.119   6.496
 4835SOL    HW215405   1.924   0.146   6.349
 4836SOL     OW15406   5.041   1.936   4.187
 4836SOL    HW115407   5.068   1.961   4.280
 4836SOL    HW215408   5.115   1.883   4.144
 4837SOL     OW15409   2.967   2.673   1.516
 4837SOL    HW115410   2.904   2.603   1.483
 4837SOL    HW215411   2.958   2.756   1.461
 4838SOL     OW15412   3.779   4.895   2.149
 4838SOL    HW115413   3.722   4.849   2.082
 4838SOL    HW215414   3.757   4.993   2.151
 4839SOL     OW15415   0.422   5.258   5.751
 4839SOL    HW115416   0.503   5.312   5.771
 4839SOL    HW215417   0.388   5.280   5.660
 4840SOL     OW15418   6.087   6.677   0.473
 4840SOL    HW115419   6.106   6.767   0.433
 4840SOL    HW215420   6.046   6.689   0.563
 4841SOL     OW15421   3.333   5.882   1.728
 4841SOL    HW115422   3.409   5.826   1.761
 4841SOL    HW215423   3.280   5.916   1.805
 4842SOL     OW15424   3.851   5.924   1.532
 4842SOL    HW115425   3.945   5.894   1.549
 4842SOL    HW215426   3.788   5.851   1.560
 4843SOL     OW15427   0.112   3.931   0.266
 4843SOL    HW115428   0.164   3.919   0.350
 4843SOL    HW215429   0.103   4.029   0.246
 4844SOL     OW15430   6.689   3.069   0.187
 4844SOL    HW115431   6.711   3.048   0.092
 4844SOL    HW215432   6.756   3.134   0.223
 4845SOL     OW15433   6.088   5.522   3.932
 4845SOL    HW115434   6.022   5.584   3.975
 4845SOL    HW215435   6.173   5.521   3.985
 4846SOL     OW15436   1.207   2.921   0.938
 4846SOL    HW115437   1.162   2.947   0.853
 4846SOL    HW215438   1.303   2.900   0.920
 4847SOL     OW15439   3.775   2.040   4.887
 4847SOL    HW115440   3.680   2.012   4.898
 4847SOL    HW215441   3.805   2.023   4.793
 4848SOL     OW15442   1.778   1.684   3.750
 4848SOL    HW115443   1.696   1.699   3.806
 4848SOL    HW215444   1.814   1.592   3.768
 4849SOL     OW15445   1.542   0.018   0.228
 4849SOL    HW115446   1.483   0.089   0.190
 4849SOL    HW215447   1.491   6.957   0.233
 4850SOL     OW15448   3.984   0.212   1.953
 4850SOL    HW115449   3.998   0.297   1.903
 4850SOL    HW215450   4.046   0.209   2.032
 4851SOL     OW15451   4.284   5.775   5.610
 4851SOL    HW115452   4.283   5.694   5.669
 4851SOL    HW215453   4.221   5.843   5.646
 4852SOL     OW15454   1.571   1.111   0.173
 4852SOL    HW115455   1.624   1.144   0.095
 4852SOL    HW215456   1.567   1.011   0.170
 4853SOL     OW15457   3.335   1.487   3.007
 4853SOL    HW115458   3.345   1.421   3.081
 4853SOL    HW215459   3.297   1.441   2.927
 4854SOL     OW15460   4.846   5.345   2.257
 4854SOL    HW115461   4.910   5.271   2.279
 4854SOL    HW215462   4.889   5.409   2.194
 4855SOL     OW15463   5.950   1.644   2.075
 4855SOL    HW115464   5.856   1.645   2.040
 4855SOL    HW215465   5.963   1.720   2.138
 4856SOL     OW15466   2.785   4.817   3.927
 4856SOL    HW115467   2.824   4.810   3.835
 4856SOL    HW215468   2.794   4.729   3.974
 4857SOL     OW15469   0.826   1.944   5.764
 4857SOL    HW115470   0.773   1.988   5.837
 4857SOL    HW215471   0.853   1.852   5.792
 4858SOL     OW15472   1.682   1.934   4.900
 4858SOL    HW115473   1.740   1.995   4.847
 4858SOL    HW215474   1.730   1.849   4.919
 4859SOL     OW15475   1.684   5.739   4.808
 4859SOL    HW115476   1.779   5.708   4.807
 4859SOL    HW215477   1.632   5.683   4.874
 4860SOL     OW15478   4.471   5.197   1.555
 4860SOL    HW115479   4.550   5.190   1.494
 4860SOL    HW215480   4.400   5.252   1.512
 4861SOL     OW15481   5.149   5.042   6.851
 4861SOL    HW115482   5.121   5.138   6.862
 4861SOL    HW215483   5.193   5.011   6.936
 4862SOL     OW15484   1.239   5.371   3.048
 4862SOL    HW115485   1.319   5.317   3.075
 4862SOL    HW215486   1.269   5.452   2.997
 4863SOL     OW15487   5.587   4.154   0.691
 4863SOL    HW115488   5.568   4.056   0.700
 4863SOL    HW215489   5.679   4.173   0.726
 4864SOL     OW15490   2.868   0.851   3.196
 4864SOL    HW115491   2.785   0.861   3.141
 4864SOL    HW215492   2.942   0.818   3.138
 4865SOL     OW15493   2.350   6.848   4.349
 4865SOL    HW115494   2.366   6.892   4.438
 4865SOL    HW215495   2.252   6.852   4.328
 4866SOL     OW15496   6.859   3.451   1.581
 4866SOL    HW115497   6.948   3.496   1.588
 4866SOL    HW215498   6.849   3.411   1.490
 4867SOL     OW15499   4.552   5.474   2.158
 4867SOL    HW115500   4.601   5.556   2.187
 4867SOL    HW215501   4.580   5.397   2.216
 4868SOL     OW15502   6.433   4.489   1.845
 4868SOL    HW115503   6.417   4.587   1.835
 4868SOL    HW215504   6.530   4.472   1.863
 4869SOL     OW15505   1.779   1.587   0.559
 4869SOL    HW115506   1.707   1.520   0.576
 4869SOL    HW215507   1.836   1.556   0.483
 4870SOL     OW15508   0.470   6.122   1.939
 4870SOL    HW115509   0.452   6.187   1.865
 4870SOL    HW215510   0.433   6.159   2.024
 4871SOL     OW15511   1.503   0.694   4.614
 4871SOL    HW115512   1.457   0.783   4.616
 4871SOL    HW215513   1.509   0.657   4.706
 4872SOL     OW15514   0.043   6.575   3.091
 4872SOL    HW115515   0.084   6.507   3.151
 4872SOL    HW215516   0.067   6.555   2.996
 4873SOL     OW15517   6.533   5.413   4.652
 4873SOL    HW115518   6.562   5.489   4.594
 4873SOL    HW215519   6.569   5.426   4.745
 4874SOL     OW15520   4.861   2.382   2.897
 4874SOL    HW115521   4.781   2.368   2.955
 4874SOL    HW215522   4.846   2.340   2.808
 4875SOL     OW15523   4.793   6.866   0.130
 4875SOL    HW115524   4.756   6.802   0.063
 4875SOL    HW215525   4.860   6.925   0.086
 4876SOL     OW15526   0.606   1.656   3.189
 4876SOL    HW115527   0.588   1.695   3.279
 4876SOL    HW215528   0.682   1.591   3.195
 4877SOL     OW15529   0.524   1.991   5.031
 4877SOL    HW115530   0.568   1.988   5.121
 4877SOL    HW215531   0.425   1.980   5.042
 4878SOL     OW15532   6.830   1.784   1.847
 4878SOL    HW115533   6.741   1.817   1.813
 4878SOL    HW215534   6.854   1.699   1.801
 4879SOL     OW15535   5.057   1.781   2.513
 4879SOL    HW115536   5.104   1.716   2.572
 4879SOL    HW215537   5.023   1.858   2.568
 4880SOL     OW15538   6.763   3.007   6.962
 4880SOL    HW115539   6.759   2.907   6.966
 4880SOL    HW215540   6.778   3.036   6.867
 4881SOL     OW15541   1.845   2.560   1.185
 4881SOL    HW115542   1.766   2.584   1.128
 4881SOL    HW215543   1.833   2.597   1.277
 4882SOL     OW15544   4.227   2.083   5.145
 4882SOL    HW115545   4.153   2.068   5.079
 4882SOL    HW215546   4.283   2.000   5.150
 4883SOL     OW15547   5.073   3.871   1.903
 4883SOL    HW115548   5.076   3.773   1.924
 4883SOL    HW215549   5.131   3.921   1.968
 4884SOL     OW15550   2.426   5.488   0.793
 4884SOL    HW115551   2.472   5.576   0.806
 4884SOL    HW215552   2.382   5.487   0.703
 4885SOL     OW15553   2.520   4.851   1.687
 4885SOL    HW115554   2.493   4.926   1.747
 4885SOL    HW215555   2.539   4.770   1.742
 4886SOL     OW15556   3.292   6.933   1.956
 4886SOL    HW115557   3.216   6.900   1.899
 4886SOL    HW215558   3.311   6.866   2.027
 4887SOL     OW15559   0.997   6.657   1.706
 4887SOL    HW115560   1.011   6.574   1.761
 4887SOL    HW215561   1.064   6.658   1.631
 4888SOL     OW15562   3.133   6.522   3.191
 4888SOL    HW115563   3.110   6.512   3.094
 4888SOL    HW215564   3.055   6.495   3.247
 4889SOL     OW15565   6.758   1.829   4.560
 4889SOL    HW115566   6.681   1.869   4.510
 4889SOL    HW215567   6.725   1.787   4.644
 4890SOL     OW15568   0.853   1.155   5.389
 4890SOL    HW115569   0.816   1.082   5.331
 4890SOL    HW215570   0.953   1.147   5.392
 4891SOL     OW15571   2.357   5.005   6.279
 4891SOL    HW115572   2.376   5.102   6.266
 4891SOL    HW215573   2.305   4.993   6.364
 4892SOL     OW15574   5.711   6.590   2.189
 4892SOL    HW115575   5.698   6.673   2.242
 4892SOL    HW215576   5.685   6.511   2.244
 4893SOL     OW15577   0.327   3.361   2.107
 4893SOL    HW115578   0.413   3.393   2.146
 4893SOL    HW215579   0.340   3.338   2.010
 4894SOL     OW15580   3.507   0.161   2.179
 4894SOL    HW115581   3.604   0.164   2.205
 4894SOL    HW215582   3.496   0.199   2.087
 4895SOL     OW15583   0.448   4.866   3.646
 4895SOL    HW115584   0.397   4.904   3.724
 4895SOL    HW215585   0.409   4.900   3.561
 4896SOL     OW15586   2.204   4.916   3.544
 4896SOL    HW115587   2.209   5.015   3.539
 4896SOL    HW215588   2.220   4.886   3.638
 4897SOL     OW15589   1.744   5.752   5.253
 4897SOL    HW115590   1.751   5.660   5.214
 4897SOL    HW215591   1.753   5.747   5.352
 4898SOL     OW15592   4.367   0.923   5.207
 4898SOL    HW115593   4.413   1.010   5.192
 4898SOL    HW215594   4.272   0.929   5.176
 4899SOL     OW15595   6.212   5.766   2.270
 4899SOL    HW115596   6.200   5.853   2.318
 4899SOL    HW215597   6.208   5.690   2.335
 4900SOL     OW15598   4.553   5.634   5.714
 4900SOL    HW115599   4.586   5.670   5.802
 4900SOL    HW215600   4.461   5.598   5.725
 4901SOL     OW15601   1.364   2.473   5.054
 4901SOL    HW115602   1.331   2.379   5.049
 4901SOL    HW215603   1.341   2.521   4.969
 4902SOL     OW15604   1.827   0.459   6.140
 4902SOL    HW115605   1.760   0.437   6.211
 4902SOL    HW215606   1.880   0.377   6.118
 4903SOL     OW15607   4.524   5.819   0.898
 4903SOL    HW115608   4.477   5.838   0.812
 4903SOL    HW215609   4.548   5.721   0.902
 4904SOL     OW15610   2.199   0.757   5.953
 4904SOL    HW115611   2.275   0.692   5.943
 4904SOL    HW215612   2.116   0.707   5.978
 4905SOL     OW15613   3.041   0.275   3.013
 4905SOL    HW115614   3.007   0.363   2.979
 4905SOL    HW215615   2.982   0.201   2.979
 4906SOL     OW15616   4.792   3.386   5.351
 4906SOL    HW115617   4.751   3.300   5.322
 4906SOL    HW215618   4.781   3.454   5.279
 4907SOL     OW15619   4.836   1.345   0.472
 4907SOL    HW115620   4.867   1.438   0.453
 4907SOL    HW215621   4.769   1.346   0.546
 4908SOL     OW15622   4.909   0.456   0.877
 4908SOL    HW115623   4.963   0.457   0.793
 4908SOL    HW215624   4.945   0.524   0.940
 4909SOL     OW15625   6.429   4.078   3.400
 4909SOL    HW115626   6.517   4.124   3.388
 4909SOL    HW215627   6.442   3.991   3.448
 4910SOL     OW15628   5.663   1.337   4.458
 4910SOL    HW115629   5.651   1.430   4.424
 4910SOL    HW215630   5.576   1.288   4.451
 4911SOL     OW15631   1.825   2.445   3.076
 4911SOL    HW115632   1.806   2.540   3.103
 4911SOL    HW215633   1.774   2.383   3.135
 4912SOL     OW15634   5.254   1.810   5.468
 4912SOL    HW115635   5.202   1.734   5.508
 4912SOL    HW215636   5.337   1.775   5.425
 4913SOL     OW15637   5.580   2.905   5.713
 4913SOL    HW115638   5.494   2.925   5.760
 4913SOL    HW215639   5.564   2.899   5.615
 4914SOL     OW15640   4.404   0.033   5.343
 4914SOL    HW115641   4.465   6.995   5.295
 4914SOL    HW215642   4.434   0.043   5.438
 4915SOL     OW15643   2.911   6.058   5.365
 4915SOL    HW115644   2.955   6.140   5.403
 4915SOL    HW215645   2.892   6.073   5.268
 4916SOL     OW15646   7.015   0.700   4.293
 4916SOL    HW115647   6.918   0.727   4.299
 4916SOL    HW215648   0.045   0.780   4.270
 4917SOL     OW15649   3.343   5.978   0.908
 4917SOL    HW115650   3.408   5.908   0.881
 4917SOL    HW215651   3.259   5.935   0.942
 4918SOL     OW15652   6.422   5.617   2.142
 4918SOL    HW115653   6.508   5.659   2.113
 4918SOL    HW215654   6.359   5.687   2.174
 4919SOL     OW15655   3.714   3.050   2.224
 4919SOL    HW115656   3.615   3.039   2.235
 4919SOL    HW215657   3.757   3.057   2.314
 4920SOL     OW15658   5.617   0.468   5.033
 4920SOL    HW115659   5.593   0.430   5.123
 4920SOL    HW215660   5.716   0.478   5.026
 4921SOL     OW15661   1.071   5.836   0.415
 4921SOL    HW115662   1.121   5.919   0.441
 4921SOL    HW215663   1.068   5.829   0.315
 4922SOL     OW15664   3.400   2.091   5.217
 4922SOL    HW115665   3.322   2.038   5.251
 4922SOL    HW215666   3.393   2.185   5.250
 4923SOL     OW15667   3.164   1.833   2.643
 4923SOL    HW115668   3.156   1.923   2.686
 4923SOL    HW215669   3.182   1.844   2.546
 4924SOL     OW15670   2.316   1.635   5.927
 4924SOL    HW115671   2.340   1.662   5.834
 4924SOL    HW215672   2.227   1.675   5.950
 4925SOL     OW15673   4.088   6.969   3.252
 4925SOL    HW115674   4.065   0.012   3.321
 4925SOL    HW215675   4.154   7.007   3.187
 4926SOL     OW15676   5.471   1.707   1.533
 4926SOL    HW115677   5.528   1.753   1.600
 4926SOL    HW215678   5.482   1.751   1.444
 4927SOL     OW15679   3.035   2.471   6.276
 4927SOL    HW115680   3.050   2.556   6.327
 4927SOL    HW215681   3.075   2.478   6.185
 4928SOL     OW15682   1.328   1.361   0.749
 4928SOL    HW115683   1.361   1.375   0.656
 4928SOL    HW215684   1.367   1.432   0.809
 4929SOL     OW15685   0.165   0.151   3.404
 4929SOL    HW115686   0.127   0.078   3.348
 4929SOL    HW215687   0.115   0.236   3.387
 4930SOL     OW15688   6.079   6.812   2.123
 4930SOL    HW115689   6.167   6.773   2.097
 4930SOL    HW215690   6.035   6.755   2.192
 4931SOL     OW15691   6.067   6.411   1.778
 4931SOL    HW115692   6.050   6.313   1.764
 4931SOL    HW215693   6.011   6.444   1.854
 4932SOL     OW15694   3.447   4.131   3.412
 4932SOL    HW115695   3.472   4.035   3.425
 4932SOL    HW215696   3.445   4.177   3.500
 4933SOL     OW15697   2.413   6.504   4.354
 4933SOL    HW115698   2.460   6.570   4.414
 4933SOL    HW215699   2.416   6.414   4.396
 4934SOL     OW15700   3.495   6.296   2.693
 4934SOL    HW115701   3.554   6.377   2.691
 4934SOL    HW215702   3.552   6.214   2.703
 4935SOL     OW15703   1.299   2.069   7.005
 4935SOL    HW115704   1.345   2.137   0.038
 4935SOL    HW215705   1.260   2.114   6.925
 4936SOL     OW15706   2.583   4.523   0.981
 4936SOL    HW115707   2.603   4.557   1.074
 4936SOL    HW215708   2.669   4.497   0.936
 4937SOL     OW15709   4.786   3.100   5.238
 4937SOL    HW115710   4.831   3.134   5.155
 4937SOL    HW215711   4.824   3.011   5.262
 4938SOL     OW15712   3.656   5.568   5.475
 4938SOL    HW115713   3.592   5.643   5.494
 4938SOL    HW215714   3.745   5.605   5.448
 4939SOL     OW15715   4.661   3.130   5.658
 4939SOL    HW115716   4.743   3.185   5.672
 4939SOL    HW215717   4.580   3.183   5.685
 4940SOL     OW15718   1.901   0.203   5.435
 4940SOL    HW115719   1.823   0.141   5.429
 4940SOL    HW215720   1.982   0.157   5.398
 4941SOL     OW15721   4.207   1.592   0.004
 4941SOL    HW115722   4.153   1.676   0.009
 4941SOL    HW215723   4.293   1.604   0.052
 4942SOL     OW15724   5.183   3.633   5.460
 4942SOL    HW115725   5.252   3.564   5.441
 4942SOL    HW215726   5.181   3.651   5.559
 4943SOL     OW15727   4.638   2.268   0.624
 4943SOL    HW115728   4.572   2.335   0.589
 4943SOL    HW215729   4.717   2.316   0.662
 4944SOL     OW15730   2.263   4.166   2.693
 4944SOL    HW115731   2.317   4.084   2.673
 4944SOL    HW215732   2.180   4.139   2.743
 4945SOL     OW15733   0.952   0.164   3.933
 4945SOL    HW115734   0.872   0.167   3.873
 4945SOL    HW215735   1.008   0.246   3.918
 4946SOL     OW15736   1.499   2.833   2.094
 4946SOL    HW115737   1.442   2.889   2.153
 4946SOL    HW215738   1.572   2.888   2.054
 4947SOL     OW15739   0.790   0.025   0.717
 4947SOL    HW115740   0.777   6.978   0.650
 4947SOL    HW215741   0.767   7.016   0.808
 4948SOL     OW15742   2.152   0.905   2.673
 4948SOL    HW115743   2.146   0.902   2.773
 4948SOL    HW215744   2.063   0.880   2.634
 4949SOL     OW15745   5.250   0.655   5.246
 4949SOL    HW115746   5.325   0.719   5.228
 4949SOL    HW215747   5.278   0.563   5.215
 4950SOL     OW15748   2.388   6.271   4.481
 4950SOL    HW115749   2.315   6.204   4.494
 4950SOL    HW215750   2.475   6.231   4.510
 4951SOL     OW15751   4.157   1.547   4.203
 4951SOL    HW115752   4.147   1.646   4.192
 4951SOL    HW215753   4.117   1.519   4.291
 4952SOL     OW15754   0.427   6.323   5.005
 4952SOL    HW115755   0.427   6.314   4.905
 4952SOL    HW215756   0.362   6.393   5.032
 4953SOL     OW15757   2.155   5.473   0.970
 4953SOL    HW115758   2.067   5.430   0.953
 4953SOL    HW215759   2.176   5.539   0.898
 4954SOL     OW15760   5.160   4.745   0.356
 4954SOL    HW115761   5.189   4.789   0.441
 4954SOL    HW215762   5.221   4.773   0.282
 4955SOL     OW15763   1.612   6.536   0.631
 4955SOL    HW115764   1.536   6.600   0.617
 4955SOL    HW215765   1.672   6.571   0.703
 4956SOL     OW15766   4.168   0.069   5.685
 4956SOL    HW115767   4.087   0.021   5.649
 4956SOL    HW215768   4.170   0.162   5.648
 4957SOL     OW15769   0.464   1.449   4.322
 4957SOL    HW115770   0.551   1.405   4.345
 4957SOL    HW215771   0.428   1.495   4.403
 4958SOL     OW15772   0.335   6.446   6.402
 4958SOL    HW115773   0.242   6.413   6.393
 4958SOL    HW215774   0.399   6.368   6.402
 4959SOL     OW15775   1.237   0.823   0.123
 4959SOL    HW115776   1.250   0.725   0.110
 4959SOL    HW215777   1.260   0.871   0.039
 4960SOL     OW15778   3.740   6.704   4.208
 4960SOL    HW115779   3.679   6.691   4.129
 4960SOL    HW215780   3.820   6.757   4.180
 4961SOL     OW15781   5.470   6.896   4.760
 4961SOL    HW115782   5.434   6.915   4.669
 4961SOL    HW215783   5.457   6.975   4.819
 4962SOL     OW15784   5.775   2.553   1.697
 4962SOL    HW115785   5.850   2.487   1.699
 4962SOL    HW215786   5.813   2.645   1.692
 4963SOL     OW15787   0.312   5.297   1.048
 4963SOL    HW115788   0.277   5.386   1.017
 4963SOL    HW215789   0.242   5.252   1.103
 4964SOL     OW15790   3.660   5.933   3.591
 4964SOL    HW115791   3.760   5.945   3.585
 4964SOL    HW215792   3.622   5.933   3.499
 4965SOL     OW15793   0.469   6.780   4.542
 4965SOL    HW115794   0.524   6.855   4.505
 4965SOL    HW215795   0.428   6.808   4.629
 4966SOL     OW15796   2.937   6.360   5.144
 4966SOL    HW115797   3.030   6.383   5.116
 4966SOL    HW215798   2.918   6.402   5.233
 4967SOL     OW15799   3.868   2.664   0.030
 4967SOL    HW115800   3.836   2.570   0.036
 4967SOL    HW215801   3.912   2.679   6.967
 4968SOL     OW15802   4.721   2.806   3.289
 4968SOL    HW115803   4.790   2.740   3.320
 4968SOL    HW215804   4.640   2.758   3.258
 4969SOL     OW15805   1.662   1.443   1.712
 4969SOL    HW115806   1.733   1.480   1.772
 4969SOL    HW215807   1.684   1.467   1.617
 4970SOL     OW15808   1.024   2.117   4.860
 4970SOL    HW115809   1.085   2.038   4.861
 4970SOL    HW215810   0.936   2.090   4.821
 4971SOL     OW15811   6.095   6.166   3.046
 4971SOL    HW115812   6.086   6.082   2.992
 4971SOL    HW215813   6.095   6.245   2.985
 4972SOL     OW15814   1.911   3.508   1.253
 4972SOL    HW115815   1.941   3.514   1.348
 4972SOL    HW215816   1.971   3.564   1.195
 4973SOL     OW15817   6.167   6.072   2.144
 4973SOL    HW115818   6.154   6.104   2.050
 4973SOL    HW215819   6.258   6.032   2.153
 4974SOL     OW15820   5.472   6.003   2.851
 4974SOL    HW115821   5.428   5.948   2.921
 4974SOL    HW215822   5.517   5.943   2.785
 4975SOL     OW15823   5.987   6.290   0.517
 4975SOL    HW115824   5.964   6.344   0.436
 4975SOL    HW215825   5.927   6.316   0.592
 4976SOL     OW15826   3.330   0.431   5.039
 4976SOL    HW115827   3.357   0.349   4.988
 4976SOL    HW215828   3.288   0.497   4.976
 4977SOL     OW15829   4.318   3.690   0.394
 4977SOL    HW115830   4.378   3.742   0.454
 4977SOL    HW215831   4.365   3.669   0.308
 4978SOL     OW15832   5.834   4.068   5.283
 4978SOL    HW115833   5.743   4.039   5.310
 4978SOL    HW215834   5.895   4.064   5.362
 4979SOL     OW15835   0.488   0.884   5.757
 4979SOL    HW115836   0.583   0.856   5.739
 4979SOL    HW215837   0.445   0.913   5.672
 4980SOL     OW15838   3.928   5.221   2.407
 4980SOL    HW115839   3.979   5.221   2.320
 4980SOL    HW215840   3.831   5.207   2.388
 4981SOL     OW15841   4.490   0.028   5.605
 4981SOL    HW115842   4.575   0.078   5.586
 4981SOL    HW215843   4.429   0.087   5.658
 4982SOL     OW15844   1.965   2.235   0.283
 4982SOL    HW115845   1.988   2.195   0.195
 4982SOL    HW215846   2.048   2.274   0.325
 4983SOL     OW15847   5.187   2.734   3.600
 4983SOL    HW115848   5.202   2.723   3.698
 4983SOL    HW215849   5.229   2.819   3.570
 4984SOL     OW15850   4.868   3.710   4.491
 4984SOL    HW115851   4.857   3.630   4.431
 4984SOL    HW215852   4.964   3.718   4.518
 4985SOL     OW15853   5.180   5.495   3.105
 4985SOL    HW115854   5.208   5.537   3.018
 4985SOL    HW215855   5.259   5.449   3.147
 4986SOL     OW15856   5.969   4.461   2.668
 4986SOL    HW115857   5.895   4.524   2.691
 4986SOL    HW215858   5.960   4.432   2.572
 4987SOL     OW15859   0.070   3.081   1.310
 4987SOL    HW115860   0.166   3.102   1.288
 4987SOL    HW215861   0.012   3.102   1.231
 4988SOL     OW15862   0.267   1.747   4.504
 4988SOL    HW115863   0.168   1.743   4.513
 4988SOL    HW215864   0.308   1.664   4.543
 4989SOL     OW15865   6.770   1.433   0.701
 4989SOL    HW115866   6.796   1.354   0.756
 4989SOL    HW215867   6.687   1.473   0.738
 4990SOL     OW15868   0.668   2.580   5.359
 4990SOL    HW115869   0.695   2.495   5.315
 4990SOL    HW215870   0.581   2.612   5.319
 4991SOL     OW15871   0.258   3.081   4.132
 4991SOL    HW115872   0.273   3.051   4.038
 4991SOL    HW215873   0.161   3.095   4.148
 4992SOL     OW15874   3.317   0.686   5.286
 4992SOL    HW115875   3.409   0.654   5.262
 4992SOL    HW215876   3.260   0.688   5.203
 4993SOL     OW15877   3.246   6.116   3.895
 4993SOL    HW115878   3.271   6.149   3.804
 4993SOL    HW215879   3.174   6.047   3.887
 4994SOL     OW15880   0.792   6.770   2.682
 4994SOL    HW115881   0.848   6.697   2.644
 4994SOL    HW215882   0.716   6.790   2.620
 4995SOL     OW15883   6.642   2.566   6.395
 4995SOL    HW115884   6.635   2.652   6.344
 4995SOL    HW215885   6.687   2.584   6.483
 4996SOL     OW15886   0.260   2.301   2.100
 4996SOL    HW115887   0.205   2.305   2.017
 4996SOL    HW215888   0.258   2.208   2.137
 4997SOL     OW15889   6.837   2.129   2.820
 4997SOL    HW115890   6.880   2.101   2.734
 4997SOL    HW215891   6.856   2.225   2.838
 4998SOL     OW15892   1.529   5.203   4.880
 4998SOL    HW115893   1.545   5.234   4.787
 4998SOL    HW215894   1.448   5.248   4.917
 4999SOL     OW15895   5.275   5.736   0.743
 4999SOL    HW115896   5.370   5.746   0.713
 4999SOL    HW215897   5.234   5.827   0.751
 5000SOL     OW15898   0.934   0.272   4.860
 5000SOL    HW115899   0.887   0.210   4.923
 5000SOL    HW215900   0.870   0.342   4.828
 5001SOL     OW15901   2.613   3.927   5.568
 5001SOL    HW115902   2.673   3.934   5.488
 5001SOL    HW215903   2.579   4.018   5.592
 5002SOL     OW15904   2.017   1.050   2.433
 5002SOL    HW115905   2.094   1.113   2.441
 5002SOL    HW215906   1.939   1.098   2.391
 5003SOL     OW15907   6.798   6.207   2.702
 5003SOL    HW115908   6.861   6.283   2.721
 5003SOL    HW215909   6.775   6.207   2.605
 5004SOL     OW15910   2.280   5.798   6.387
 5004SOL    HW115911   2.363   5.744   6.376
 5004SOL    HW215912   2.273   5.865   6.313
 5005SOL     OW15913   4.565   2.959   0.566
 5005SOL    HW115914   4.554   2.936   0.663
 5005SOL    HW215915   4.479   2.941   0.518
 5006SOL     OW15916   5.506   6.698   5.138
 5006SOL    HW115917   5.543   6.637   5.208
 5006SOL    HW215918   5.436   6.650   5.085
 5007SOL     OW15919   4.051   1.023   6.045
 5007SOL    HW115920   4.046   1.117   6.011
 5007SOL    HW215921   4.135   1.011   6.098
 5008SOL     OW15922   5.637   1.211   3.404
 5008SOL    HW115923   5.612   1.122   3.442
 5008SOL    HW215924   5.662   1.201   3.308
 5009SOL     OW15925   0.770   6.143   1.923
 5009SOL    HW115926   0.695   6.082   1.898
 5009SOL    HW215927   0.773   6.155   2.022
 5010SOL     OW15928   3.749   4.083   3.627
 5010SOL    HW115929   3.748   4.070   3.726
 5010SOL    HW215930   3.833   4.045   3.589
 5011SOL     OW15931   0.498   3.179   2.264
 5011SOL    HW115932   0.480   3.270   2.301
 5011SOL    HW215933   0.581   3.182   2.208
 5012SOL     OW15934   6.902   2.699   6.170
 5012SOL    HW115935   6.808   2.686   6.201
 5012SOL    HW215936   6.904   2.771   6.100
 5013SOL     OW15937   3.861   1.084   6.550
 5013SOL    HW115938   3.932   1.045   6.609
 5013SOL    HW215939   3.839   1.177   6.580
 5014SOL     OW15940   6.258   6.265   0.573
 5014SOL    HW115941   6.160   6.265   0.548
 5014SOL    HW215942   6.284   6.174   0.603
 5015SOL     OW15943   4.363   2.145   3.601
 5015SOL    HW115944   4.426   2.132   3.677
 5015SOL    HW215945   4.272   2.113   3.627
 5016SOL     OW15946   1.609   0.464   2.931
 5016SOL    HW115947   1.651   0.447   3.020
 5016SOL    HW215948   1.509   0.465   2.942
 5017SOL     OW15949   2.410   2.044   0.989
 5017SOL    HW115950   2.507   2.024   0.976
 5017SOL    HW215951   2.363   1.959   1.014
 5018SOL     OW15952   0.323   4.324   3.111
 5018SOL    HW115953   0.298   4.369   3.026
 5018SOL    HW215954   0.241   4.291   3.157
 5019SOL     OW15955   2.602   4.289   0.720
 5019SOL    HW115956   2.531   4.256   0.783
 5019SOL    HW215957   2.680   4.225   0.721
 5020SOL     OW15958   4.651   5.107   6.210
 5020SOL    HW115959   4.606   5.035   6.157
 5020SOL    HW215960   4.630   5.196   6.170
 5021SOL     OW15961   2.021   5.029   5.826
 5021SOL    HW115962   2.101   5.036   5.886
 5021SOL    HW215963   2.038   5.080   5.741
 5022SOL     OW15964   1.952   6.335   0.816
 5022SOL    HW115965   2.037   6.388   0.829
 5022SOL    HW215966   1.874   6.390   0.847
 5023SOL     OW15967   6.339   2.903   1.086
 5023SOL    HW115968   6.257   2.867   1.041
 5023SOL    HW215969   6.400   2.828   1.110
 5024SOL     OW15970   6.512   3.978   3.628
 5024SOL    HW115971   6.606   4.000   3.653
 5024SOL    HW215972   6.484   3.894   3.673
 5025SOL     OW15973   4.992   1.648   3.150
 5025SOL    HW115974   4.895   1.669   3.139
 5025SOL    HW215975   5.041   1.730   3.180
 5026SOL     OW15976   6.084   5.494   4.246
 5026SOL    HW115977   6.050   5.561   4.179
 5026SOL    HW215978   6.139   5.425   4.199
 5027SOL     OW15979   0.070   6.946   3.225
 5027SOL    HW115980   0.128   6.866   3.237
 5027SOL    HW215981   0.069   6.971   3.128
 5028SOL     OW15982   0.332   6.330   2.400
 5028SOL    HW115983   0.403   6.334   2.470
 5028SOL    HW215984   0.269   6.407   2.411
 5029SOL     OW15985   0.394   2.466   1.486
 5029SOL    HW115986   0.423   2.555   1.521
 5029SOL    HW215987   0.336   2.480   1.405
 5030SOL     OW15988   6.580   0.427   6.590
 5030SOL    HW115989   6.644   0.405   6.663
 5030SOL    HW215990   6.552   0.342   6.543
 5031SOL     OW15991   5.863   0.586   4.305
 5031SOL    HW115992   5.856   0.684   4.286
 5031SOL    HW215993   5.812   0.535   4.236
 5032SOL     OW15994   1.395   5.352   0.447
 5032SOL    HW115995   1.338   5.382   0.523
 5032SOL    HW215996   1.488   5.334   0.479
 5033SOL     OW15997   2.573   4.593   5.588
 5033SOL    HW115998   2.639   4.520   5.604
 5033SOL    HW215999   2.529   4.580   5.499
 5034SOL     OW16000   6.262   2.085   2.241
 5034SOL    HW116001   6.192   2.152   2.263
 5034SOL    HW216002   6.247   2.050   2.149
 5035SOL     OW16003   4.616   5.329   0.520
 5035SOL    HW116004   4.554   5.325   0.442
 5035SOL    HW216005   4.570   5.291   0.601
 5036SOL     OW16006   0.764   6.192   0.514
 5036SOL    HW116007   0.857   6.210   0.547
 5036SOL    HW216008   0.769   6.152   0.422
 5037SOL     OW16009   4.291   1.459   3.552
 5037SOL    HW116010   4.289   1.546   3.602
 5037SOL    HW216011   4.333   1.389   3.609
 5038SOL     OW16012   1.368   5.791   5.989
 5038SOL    HW116013   1.445   5.836   5.944
 5038SOL    HW216014   1.372   5.693   5.970
 5039SOL     OW16015   2.365   2.935   5.396
 5039SOL    HW116016   2.313   2.858   5.360
 5039SOL    HW216017   2.427   2.969   5.325
 5040SOL     OW16018   3.290   3.615   6.304
 5040SOL    HW116019   3.333   3.704   6.285
 5040SOL    HW216020   3.193   3.628   6.320
 5041SOL     OW16021   0.864   3.182   1.772
 5041SOL    HW116022   0.847   3.273   1.812
 5041SOL    HW216023   0.961   3.161   1.780
 5042SOL     OW16024   5.691   3.499   6.487
 5042SOL    HW116025   5.773   3.535   6.443
 5042SOL    HW216026   5.610   3.546   6.451
 5043SOL     OW16027   3.804   0.504   3.390
 5043SOL    HW116028   3.825   0.478   3.295
 5043SOL    HW216029   3.786   0.422   3.444
 5044SOL     OW16030   5.935   5.660   3.397
 5044SOL    HW116031   5.969   5.663   3.491
 5044SOL    HW216032   5.952   5.569   3.358
 5045SOL     OW16033   6.342   3.204   0.257
 5045SOL    HW116034   6.379   3.282   0.205
 5045SOL    HW216035   6.417   3.150   0.294
 5046SOL     OW16036   3.563   3.183   5.143
 5046SOL    HW116037   3.624   3.242   5.196
 5046SOL    HW216038   3.551   3.095   5.191
 5047SOL     OW16039   6.193   0.196   2.947
 5047SOL    HW116040   6.188   0.190   3.046
 5047SOL    HW216041   6.254   0.124   2.912
 5048SOL     OW16042   6.910   1.970   1.606
 5048SOL    HW116043   6.919   1.893   1.669
 5048SOL    HW216044   6.957   1.949   1.520
 5049SOL     OW16045   0.810   2.040   2.280
 5049SOL    HW116046   0.791   2.095   2.198
 5049SOL    HW216047   0.731   1.981   2.299
 5050SOL     OW16048   0.652   2.530   1.816
 5050SOL    HW116049   0.689   2.456   1.760
 5050SOL    HW216050   0.663   2.508   1.913
 5051SOL     OW16051   2.947   4.474   0.783
 5051SOL    HW116052   2.889   4.545   0.822
 5051SOL    HW216053   2.943   4.392   0.841
 5052SOL     OW16054   4.375   5.214   0.659
 5052SOL    HW116055   4.316   5.158   0.716
 5052SOL    HW216056   4.363   5.188   0.563
 5053SOL     OW16057   2.583   4.163   1.436
 5053SOL    HW116058   2.540   4.087   1.387
 5053SOL    HW216059   2.578   4.146   1.535
 5054SOL     OW16060   3.372   6.046   4.762
 5054SOL    HW116061   3.357   6.122   4.698
 5054SOL    HW216062   3.341   5.961   4.720
 5055SOL     OW16063   0.932   1.743   5.138
 5055SOL    HW116064   0.945   1.817   5.204
 5055SOL    HW216065   0.858   1.767   5.076
 5056SOL     OW16066   0.040   3.860   5.766
 5056SOL    HW116067   0.029   3.847   5.668
 5056SOL    HW216068   0.081   3.778   5.806
 5057SOL     OW16069   0.901   5.865   3.510
 5057SOL    HW116070   0.914   5.790   3.446
 5057SOL    HW216071   0.896   5.828   3.603
 5058SOL     OW16072   4.326   4.127   6.429
 5058SOL    HW116073   4.297   4.136   6.525
 5058SOL    HW216074   4.381   4.045   6.418
 5059SOL     OW16075   3.504   1.953   4.925
 5059SOL    HW116076   3.510   1.875   4.988
 5059SOL    HW216077   3.432   2.015   4.955
 5060SOL     OW16078   0.420   3.483   5.255
 5060SOL    HW116079   0.397   3.579   5.266
 5060SOL    HW216080   0.457   3.468   5.163
 5061SOL     OW16081   3.718   3.555   4.436
 5061SOL    HW116082   3.624   3.586   4.450
 5061SOL    HW216083   3.721   3.455   4.442
 5062SOL     OW16084   4.748   1.031   3.000
 5062SOL    HW116085   4.822   1.067   3.057
 5062SOL    HW216086   4.771   1.041   2.904
 5063SOL     OW16087   1.324   6.645   2.083
 5063SOL    HW116088   1.407   6.687   2.118
 5063SOL    HW216089   1.259   6.630   2.158
 5064SOL     OW16090   4.506   5.629   0.548
 5064SOL    HW116091   4.596   5.624   0.506
 5064SOL    HW216092   4.492   5.719   0.589
 5065SOL     OW16093   2.452   6.989   3.237
 5065SOL    HW116094   2.392   6.912   3.260
 5065SOL    HW216095   2.514   6.962   3.163
 5066SOL     OW16096   2.128   4.760   1.628
 5066SOL    HW116097   2.115   4.859   1.626
 5066SOL    HW216098   2.150   4.731   1.721
 5067SOL     OW16099   4.049   2.311   1.373
 5067SOL    HW116100   4.106   2.326   1.454
 5067SOL    HW216101   3.976   2.247   1.396
 5068SOL     OW16102   3.773   6.331   0.578
 5068SOL    HW116103   3.696   6.328   0.514
 5068SOL    HW216104   3.828   6.412   0.559
 5069SOL     OW16105   3.326   4.366   6.276
 5069SOL    HW116106   3.282   4.410   6.197
 5069SOL    HW216107   3.388   4.295   6.243
 5070SOL     OW16108   5.600   3.307   4.404
 5070SOL    HW116109   5.557   3.290   4.493
 5070SOL    HW216110   5.698   3.288   4.411
 5071SOL     OW16111   3.571   1.093   3.357
 5071SOL    HW116112   3.494   1.154   3.372
 5071SOL    HW216113   3.655   1.147   3.350
 5072SOL     OW16114   1.835   1.073   1.039
 5072SOL    HW116115   1.916   1.025   1.005
 5072SOL    HW216116   1.766   1.006   1.067
 5073SOL     OW16117   2.773   6.625   2.498
 5073SOL    HW116118   2.798   6.564   2.572
 5073SOL    HW216119   2.826   6.602   2.416
 5074SOL     OW16120   3.778   2.222   1.672
 5074SOL    HW116121   3.775   2.128   1.706
 5074SOL    HW216122   3.719   2.280   1.728
 5075SOL     OW16123   1.848   3.400   6.915
 5075SOL    HW116124   1.923   3.457   6.881
 5075SOL    HW216125   1.880   3.346   6.992
 5076SOL     OW16126   5.187   1.125   0.458
 5076SOL    HW116127   5.269   1.148   0.511
 5076SOL    HW216128   5.119   1.082   0.518
 5077SOL     OW16129   1.325   4.890   3.953
 5077SOL    HW116130   1.254   4.888   4.023
 5077SOL    HW216131   1.398   4.826   3.978
 5078SOL     OW16132   0.654   0.970   3.856
 5078SOL    HW116133   0.640   1.067   3.834
 5078SOL    HW216134   0.715   0.962   3.934
 5079SOL     OW16135   1.938   2.656   5.915
 5079SOL    HW116136   1.982   2.593   5.852
 5079SOL    HW216137   1.985   2.744   5.913
 5080SOL     OW16138   6.543   5.115   5.961
 5080SOL    HW116139   6.489   5.104   5.878
 5080SOL    HW216140   6.572   5.025   5.994
 5081SOL     OW16141   3.703   6.084   5.502
 5081SOL    HW116142   3.667   6.177   5.507
 5081SOL    HW216143   3.629   6.018   5.514
 5082SOL     OW16144   4.756   6.564   1.093
 5082SOL    HW116145   4.749   6.508   1.176
 5082SOL    HW216146   4.666   6.570   1.050
 5083SOL     OW16147   2.546   0.530   2.698
 5083SOL    HW116148   2.628   0.569   2.658
 5083SOL    HW216149   2.512   0.456   2.639
 5084SOL     OW16150   0.712   5.108   5.129
 5084SOL    HW116151   0.673   5.198   5.151
 5084SOL    HW216152   0.642   5.051   5.086
 5085SOL     OW16153   1.307   3.647   6.551
 5085SOL    HW116154   1.366   3.684   6.623
 5085SOL    HW216155   1.288   3.551   6.569
 5086SOL     OW16156   1.099   4.730   2.322
 5086SOL    HW116157   1.147   4.643   2.317
 5086SOL    HW216158   1.052   4.748   2.235
 5087SOL     OW16159   6.711   5.343   2.445
 5087SOL    HW116160   6.810   5.358   2.439
 5087SOL    HW216161   6.664   5.431   2.449
 5088SOL     OW16162   4.370   5.877   2.147
 5088SOL    HW116163   4.363   5.824   2.063
 5088SOL    HW216164   4.450   5.847   2.199
 5089SOL     OW16165   5.289   4.267   4.403
 5089SOL    HW116166   5.342   4.240   4.483
 5089SOL    HW216167   5.306   4.363   4.382
 5090SOL     OW16168   1.809   0.188   3.669
 5090SOL    HW116169   1.884   0.210   3.733
 5090SOL    HW216170   1.847   0.172   3.578
 5091SOL     OW16171   6.497   0.176   0.237
 5091SOL    HW116172   6.472   0.237   0.313
 5091SOL    HW216173   6.504   0.082   0.271
 5092SOL     OW16174   3.544   3.683   4.207
 5092SOL    HW116175   3.606   3.614   4.169
 5092SOL    HW216176   3.591   3.737   4.276
 5093SOL     OW16177   1.734   1.619   3.090
 5093SOL    HW116178   1.759   1.552   3.019
 5093SOL    HW216179   1.635   1.633   3.089
 5094SOL     OW16180   2.506   5.649   6.307
 5094SOL    HW116181   2.515   5.582   6.233
 5094SOL    HW216182   2.531   5.606   6.394
 5095SOL     OW16183   0.480   1.443   3.434
 5095SOL    HW116184   0.426   1.481   3.509
 5095SOL    HW216185   0.431   1.456   3.348
 5096SOL     OW16186   5.240   3.885   6.265
 5096SOL    HW116187   5.189   3.806   6.233
 5096SOL    HW216188   5.209   3.967   6.216
 5097SOL     OW16189   6.290   0.202   5.915
 5097SOL    HW116190   6.239   0.237   5.993
 5097SOL    HW216191   6.311   0.277   5.852
 5098SOL     OW16192   3.677   1.991   1.840
 5098SOL    HW116193   3.774   1.967   1.839
 5098SOL    HW216194   3.663   2.071   1.898
 5099SOL     OW16195   0.358   5.665   1.498
 5099SOL    HW116196   0.384   5.660   1.594
 5099SOL    HW216197   0.258   5.656   1.490
 5100SOL     OW16198   5.079   4.501   2.863
 5100SOL    HW116199   5.053   4.419   2.914
 5100SOL    HW216200   5.164   4.538   2.901
 5101SOL     OW16201   4.168   0.328   5.622
 5101SOL    HW116202   4.083   0.353   5.576
 5101SOL    HW216203   4.246   0.360   5.568
 5102SOL     OW16204   4.885   5.291   4.085
 5102SOL    HW116205   4.903   5.211   4.142
 5102SOL    HW216206   4.962   5.354   4.091
 5103SOL     OW16207   0.756   0.916   5.247
 5103SOL    HW116208   0.777   0.932   5.150
 5103SOL    HW216209   0.657   0.906   5.258
 5104SOL     OW16210   3.615   5.518   1.968
 5104SOL    HW116211   3.557   5.477   2.038
 5104SOL    HW216212   3.593   5.478   1.879
 5105SOL     OW16213   3.616   3.377   6.925
 5105SOL    HW116214   3.654   3.353   7.014
 5105SOL    HW216215   3.518   3.392   6.934
 5106SOL     OW16216   4.035   2.490   0.622
 5106SOL    HW116217   4.050   2.513   0.718
 5106SOL    HW216218   4.102   2.422   0.593
 5107SOL     OW16219   5.165   2.719   1.217
 5107SOL    HW116220   5.165   2.628   1.259
 5107SOL    HW216221   5.177   2.709   1.118
 5108SOL     OW16222   4.513   3.941   6.359
 5108SOL    HW116223   4.576   3.977   6.428
 5108SOL    HW216224   4.562   3.930   6.273
 5109SOL     OW16225   1.947   2.967   1.255
 5109SOL    HW116226   1.914   3.039   1.315
 5109SOL    HW216227   1.940   2.996   1.160
 5110SOL     OW16228   5.958   6.993   6.117
 5110SOL    HW116229   5.992   6.903   6.143
 5110SOL    HW216230   5.867   7.006   6.155
 5111SOL     OW16231   1.268   5.765   4.882
 5111SOL    HW116232   1.348   5.817   4.853
 5111SOL    HW216233   1.220   5.730   4.801
 5112SOL     OW16234   0.273   0.466   3.457
 5112SOL    HW116235   0.369   0.455   3.430
 5112SOL    HW216236   0.252   0.403   3.532
 5113SOL     OW16237   1.777   5.097   0.867
 5113SOL    HW116238   1.744   5.048   0.947
 5113SOL    HW216239   1.865   5.140   0.887
 5114SOL     OW16240   3.971   6.926   0.355
 5114SOL    HW116241   4.015   6.965   0.436
 5114SOL    HW216242   3.915   6.848   0.382
 5115SOL     OW16243   2.119   3.859   1.647
 5115SOL    HW116244   2.053   3.923   1.685
 5115SOL    HW216245   2.123   3.777   1.704
 5116SOL     OW16246   2.407   0.141   6.785
 5116SOL    HW116247   2.465   0.203   6.732
 5116SOL    HW216248   2.449   0.050   6.787
 5117SOL     OW16249   0.959   3.184   4.495
 5117SOL    HW116250   0.979   3.101   4.546
 5117SOL    HW216251   0.892   3.164   4.423
 5118SOL     OW16252   5.772   0.170   0.000
 5118SOL    HW116253   5.796   0.086   6.977
 5118SOL    HW216254   5.832   0.244   6.996
 5119SOL     OW16255   5.536   1.825   7.025
 5119SOL    HW116256   5.470   1.812   0.074
 5119SOL    HW216257   5.601   1.749   7.025
 5120SOL     OW16258   5.320   0.839   4.859
 5120SOL    HW116259   5.397   0.892   4.824
 5120SOL    HW216260   5.351   0.746   4.882
 5121SOL     OW16261   3.067   3.725   0.164
 5121SOL    HW116262   3.098   3.697   0.254
 5121SOL    HW216263   2.982   3.676   0.142
 5122SOL     OW16264   4.261   5.607   3.100
 5122SOL    HW116265   4.318   5.584   3.021
 5122SOL    HW216266   4.298   5.563   3.181
 5123SOL     OW16267   5.338   1.898   2.055
 5123SOL    HW116268   5.311   1.829   1.987
 5123SOL    HW216269   5.261   1.959   2.073
 5124SOL     OW16270   1.814   6.128   4.169
 5124SOL    HW116271   1.841   6.213   4.123
 5124SOL    HW216272   1.768   6.068   4.104
 5125SOL     OW16273   0.388   2.060   3.971
 5125SOL    HW116274   0.431   1.972   3.992
 5125SOL    HW216275   0.323   2.047   3.896
 5126SOL     OW16276   1.756   6.747   0.511
 5126SOL    HW116277   1.709   6.835   0.505
 5126SOL    HW216278   1.698   6.675   0.473
 5127SOL     OW16279   2.028   5.437   0.427
 5127SOL    HW116280   1.973   5.380   0.487
 5127SOL    HW216281   1.970   5.509   0.387
 5128SOL     OW16282   6.778   6.137   1.274
 5128SOL    HW116283   6.769   6.178   1.183
 5128SOL    HW216284   6.789   6.208   1.342
 5129SOL     OW16285   4.665   6.184   1.504
 5129SOL    HW116286   4.619   6.252   1.561
 5129SOL    HW216287   4.753   6.221   1.472
 5130SOL     OW16288   6.738   4.772   2.814
 5130SOL    HW116289   6.710   4.685   2.853
 5130SOL    HW216290   6.836   4.771   2.796
 5131SOL     OW16291   0.866   3.066   3.221
 5131SOL    HW116292   0.960   3.031   3.222
 5131SOL    HW216293   0.804   2.992   3.195
 5132SOL     OW16294   3.785   4.385   6.614
 5132SOL    HW116295   3.873   4.337   6.606
 5132SOL    HW216296   3.796   4.465   6.673
 5133SOL     OW16297   3.523   5.819   6.712
 5133SOL    HW116298   3.611   5.795   6.671
 5133SOL    HW216299   3.537   5.885   6.785
 5134SOL     OW16300   0.486   3.184   1.440
 5134SOL    HW116301   0.554   3.237   1.389
 5134SOL    HW216302   0.525   3.156   1.528
 5135SOL     OW16303   6.827   2.217   5.168
 5135SOL    HW116304   6.926   2.221   5.172
 5135SOL    HW216305   6.787   2.286   5.228
 5136SOL     OW16306   5.163   0.625   4.601
 5136SOL    HW116307   5.074   0.612   4.646
 5136SOL    HW216308   5.190   0.541   4.555
 5137SOL     OW16309   5.100   3.878   6.657
 5137SOL    HW116310   5.102   3.962   6.602
 5137SOL    HW216311   5.139   3.803   6.603
 5138SOL     OW16312   3.556   3.106   6.716
 5138SOL    HW116313   3.469   3.155   6.727
 5138SOL    HW216314   3.603   3.101   6.805
 5139SOL     OW16315   1.897   6.711   4.200
 5139SOL    HW116316   1.964   6.661   4.147
 5139SOL    HW216317   1.815   6.655   4.212
 5140SOL     OW16318   3.207   1.674   0.586
 5140SOL    HW116319   3.187   1.718   0.674
 5140SOL    HW216320   3.292   1.711   0.549
 5141SOL     OW16321   5.418   3.605   1.343
 5141SOL    HW116322   5.436   3.580   1.438
 5141SOL    HW216323   5.460   3.693   1.323
 5142SOL     OW16324   6.060   3.043   4.273
 5142SOL    HW116325   6.144   3.063   4.223
 5142SOL    HW216326   5.982   3.053   4.211
 5143SOL     OW16327   0.698   5.067   3.960
 5143SOL    HW116328   0.719   5.135   4.030
 5143SOL    HW216329   0.749   5.086   3.877
 5144SOL     OW16330   1.480   6.923   6.125
 5144SOL    HW116331   1.380   6.919   6.129
 5144SOL    HW216332   1.510   6.913   6.030
 5145SOL     OW16333   1.999   5.282   6.101
 5145SOL    HW116334   2.083   5.329   6.129
 5145SOL    HW216335   1.987   5.200   6.158
 5146SOL     OW16336   3.865   3.782   6.410
 5146SOL    HW116337   3.799   3.753   6.340
 5146SOL    HW216338   3.850   3.879   6.431
 5147SOL     OW16339   6.926   4.567   0.433
 5147SOL    HW116340   6.886   4.637   0.491
 5147SOL    HW216341   7.025   4.566   0.445
 5148SOL     OW16342   7.022   6.032   1.153
 5148SOL    HW116343   6.934   6.071   1.180
 5148SOL    HW216344   0.053   6.016   1.235
 5149SOL     OW16345   6.465   0.682   3.009
 5149SOL    HW116346   6.478   0.585   2.986
 5149SOL    HW216347   6.498   0.739   2.934
 5150SOL     OW16348   1.707   5.905   3.764
 5150SOL    HW116349   1.701   5.885   3.862
 5150SOL    HW216350   1.779   5.972   3.748
 5151SOL     OW16351   5.046   1.525   6.737
 5151SOL    HW116352   5.038   1.590   6.812
 5151SOL    HW216353   5.142   1.505   6.720
 5152SOL     OW16354   1.632   4.755   0.336
 5152SOL    HW116355   1.722   4.795   0.349
 5152SOL    HW216356   1.587   4.799   0.258
 5153SOL     OW16357   2.342   2.409   0.642
 5153SOL    HW116358   2.440   2.416   0.625
 5153SOL    HW216359   2.326   2.345   0.717
 5154SOL     OW16360   1.694   3.630   6.285
 5154SOL    HW116361   1.682   3.531   6.287
 5154SOL    HW216362   1.775   3.653   6.232
 5155SOL     OW16363   4.271   6.100   2.004
 5155SOL    HW116364   4.235   6.153   2.080
 5155SOL    HW216365   4.321   6.020   2.039
 5156SOL     OW16366   6.591   2.141   6.122
 5156SOL    HW116367   6.518   2.079   6.095
 5156SOL    HW216368   6.568   2.184   6.209
 5157SOL     OW16369   4.640   2.708   3.612
 5157SOL    HW116370   4.716   2.728   3.550
 5157SOL    HW216371   4.596   2.622   3.585
 5158SOL     OW16372   3.253   1.699   1.229
 5158SOL    HW116373   3.185   1.655   1.170
 5158SOL    HW216374   3.308   1.628   1.274
 5159SOL     OW16375   0.568   2.766   3.989
 5159SOL    HW116376   0.512   2.788   3.909
 5159SOL    HW216377   0.664   2.763   3.962
 5160SOL     OW16378   1.286   3.692   4.274
 5160SOL    HW116379   1.293   3.634   4.355
 5160SOL    HW216380   1.315   3.785   4.297
 5161SOL     OW16381   1.512   4.258   5.660
 5161SOL    HW116382   1.468   4.232   5.746
 5161SOL    HW216383   1.466   4.213   5.583
 5162SOL     OW16384   6.802   5.193   4.054
 5162SOL    HW116385   6.720   5.218   4.106
 5162SOL    HW216386   6.776   5.132   3.980
 5163SOL     OW16387   4.969   5.255   1.238
 5163SOL    HW116388   5.020   5.339   1.218
 5163SOL    HW216389   4.989   5.186   1.168
 5164SOL     OW16390   5.316   2.686   5.278
 5164SOL    HW116391   5.306   2.774   5.233
 5164SOL    HW216392   5.405   2.680   5.323
 5165SOL     OW16393   6.275   4.715   4.556
 5165SOL    HW116394   6.339   4.727   4.481
 5165SOL    HW216395   6.293   4.784   4.627
 5166SOL     OW16396   1.626   4.922   1.499
 5166SOL    HW116397   1.585   4.891   1.413
 5166SOL    HW216398   1.724   4.901   1.500
 5167SOL     OW16399   5.835   6.354   5.473
 5167SOL    HW116400   5.795   6.444   5.493
 5167SOL    HW216401   5.894   6.327   5.549
 5168SOL     OW16402   4.107   2.162   3.213
 5168SOL    HW116403   4.194   2.167   3.262
 5168SOL    HW216404   4.112   2.216   3.129
 5169SOL     OW16405   3.334   3.880   6.292
 5169SOL    HW116406   3.246   3.917   6.264
 5169SOL    HW216407   3.393   3.955   6.322
 5170SOL     OW16408   6.839   4.368   5.206
 5170SOL    HW116409   6.898   4.422   5.266
 5170SOL    HW216410   6.883   4.280   5.188
 5171SOL     OW16411   2.198   4.614   4.420
 5171SOL    HW116412   2.120   4.561   4.387
 5171SOL    HW216413   2.282   4.561   4.410
 5172SOL     OW16414   0.440   3.648   1.731
 5172SOL    HW116415   0.498   3.722   1.766
 5172SOL    HW216416   0.447   3.645   1.631
 5173SOL     OW16417   5.993   4.130   6.126
 5173SOL    HW116418   6.021   4.224   6.109
 5173SOL    HW216419   5.932   4.099   6.054
 5174SOL     OW16420   1.730   5.065   5.027
 5174SOL    HW116421   1.656   5.116   4.982
 5174SOL    HW216422   1.747   4.980   4.978
 5175SOL     OW16423   2.096   4.393   0.183
 5175SOL    HW116424   2.043   4.442   0.252
 5175SOL    HW216425   2.036   4.335   0.129
 5176SOL     OW16426   4.213   3.536   0.625
 5176SOL    HW116427   4.116   3.543   0.645
 5176SOL    HW216428   4.247   3.624   0.592
 5177SOL     OW16429   4.611   6.816   5.647
 5177SOL    HW116430   4.690   6.813   5.708
 5177SOL    HW216431   4.568   6.906   5.654
 5178SOL     OW16432   2.303   2.774   1.759
 5178SOL    HW116433   2.339   2.750   1.849
 5178SOL    HW216434   2.349   2.719   1.689
 5179SOL     OW16435   4.439   6.615   5.677
 5179SOL    HW116436   4.502   6.689   5.653
 5179SOL    HW216437   4.386   6.641   5.757
 5180SOL     OW16438   3.288   2.083   6.814
 5180SOL    HW116439   3.288   2.182   6.829
 5180SOL    HW216440   3.379   2.047   6.832
 5181SOL     OW16441   3.952   0.287   2.650
 5181SOL    HW116442   3.894   0.297   2.570
 5181SOL    HW216443   3.995   0.375   2.672
 5182SOL     OW16444   5.650   4.983   1.749
 5182SOL    HW116445   5.719   4.978   1.677
 5182SOL    HW216446   5.660   4.906   1.812
 5183SOL     OW16447   4.505   6.655   2.203
 5183SOL    HW116448   4.479   6.569   2.247
 5183SOL    HW216449   4.576   6.700   2.256
 5184SOL     OW16450   0.830   1.259   3.409
 5184SOL    HW116451   0.902   1.218   3.464
 5184SOL    HW216452   0.744   1.212   3.425
 5185SOL     OW16453   3.618   6.605   2.651
 5185SOL    HW116454   3.662   6.694   2.644
 5185SOL    HW216455   3.670   6.546   2.713
 5186SOL     OW16456   6.859   3.682   1.201
 5186SOL    HW116457   6.947   3.726   1.222
 5186SOL    HW216458   6.843   3.683   1.102
 5187SOL     OW16459   6.509   1.714   3.394
 5187SOL    HW116460   6.483   1.797   3.443
 5187SOL    HW216461   6.479   1.721   3.298
 5188SOL     OW16462   0.349   5.351   0.058
 5188SOL    HW116463   0.326   5.431   0.113
 5188SOL    HW216464   0.377   5.276   0.119
 5189SOL     OW16465   5.010   4.957   6.598
 5189SOL    HW116466   5.083   4.920   6.541
 5189SOL    HW216467   5.048   4.989   6.685
 5190SOL     OW16468   0.783   2.192   4.014
 5190SOL    HW116469   0.868   2.165   3.970
 5190SOL    HW216470   0.770   2.138   4.097
 5191SOL     OW16471   3.387   1.356   2.129
 5191SOL    HW116472   3.304   1.305   2.107
 5191SOL    HW216473   3.378   1.398   2.219
 5192SOL     OW16474   5.844   5.723   2.874
 5192SOL    HW116475   5.782   5.789   2.831
 5192SOL    HW216476   5.893   5.768   2.949
 5193SOL     OW16477   4.740   4.470   3.750
 5193SOL    HW116478   4.674   4.493   3.678
 5193SOL    HW216479   4.726   4.375   3.779
 5194SOL     OW16480   5.056   1.124   5.898
 5194SOL    HW116481   5.122   1.060   5.859
 5194SOL    HW216482   5.099   1.214   5.908
 5195SOL     OW16483   6.580   6.795   4.885
 5195SOL    HW116484   6.485   6.771   4.902
 5195SOL    HW216485   6.640   6.734   4.938
 5196SOL     OW16486   0.653   4.337   1.624
 5196SOL    HW116487   0.590   4.291   1.560
 5196SOL    HW216488   0.602   4.366   1.705
 5197SOL     OW16489   2.015   6.425   4.733
 5197SOL    HW116490   1.981   6.397   4.823
 5197SOL    HW216491   1.957   6.386   4.662
 5198SOL     OW16492   3.190   6.231   5.425
 5198SOL    HW116493   3.145   6.291   5.490
 5198SOL    HW216494   3.267   6.279   5.382
 5199SOL     OW16495   2.222   5.807   1.660
 5199SOL    HW116496   2.273   5.725   1.636
 5199SOL    HW216497   2.124   5.789   1.650
 5200SOL     OW16498   0.615   1.695   4.668
 5200SOL    HW116499   0.643   1.602   4.646
 5200SOL    HW216500   0.633   1.754   4.589
 5201SOL     OW16501   5.565   4.962   3.951
 5201SOL    HW116502   5.635   4.918   4.007
 5201SOL    HW216503   5.527   4.895   3.887
 5202SOL     OW16504   4.599   3.245   6.736
 5202SOL    HW116505   4.674   3.217   6.796
 5202SOL    HW216506   4.633   3.316   6.674
 5203SOL     OW16507   1.951   0.511   0.650
 5203SOL    HW116508   1.984   0.438   0.590
 5203SOL    HW216509   2.025   0.575   0.669
 5204SOL     OW16510   3.256   0.231   6.524
 5204SOL    HW116511   3.344   0.224   6.572
 5204SOL    HW216512   3.268   0.285   6.441
 5205SOL     OW16513   6.797   6.246   1.019
 5205SOL    HW116514   6.870   6.313   1.002
 5205SOL    HW216515   6.711   6.295   1.034
 5206SOL     OW16516   0.532   4.670   4.896
 5206SOL    HW116517   0.588   4.591   4.921
 5206SOL    HW216518   0.452   4.640   4.846
 5207SOL     OW16519   0.041   6.973   4.342
 5207SOL    HW116520   7.017   6.996   4.426
 5207SOL    HW216521   7.008   6.994   4.263
 5208SOL     OW16522   4.874   2.464   0.105
 5208SOL    HW116523   4.856   2.395   0.174
 5208SOL    HW216524   4.814   2.449   0.026
 5209SOL     OW16525   4.837   6.712   3.435
 5209SOL    HW116526   4.879   6.742   3.521
 5209SOL    HW216527   4.900   6.731   3.360
 5210SOL     OW16528   5.067   4.336   0.981
 5210SOL    HW116529   5.069   4.257   0.919
 5210SOL    HW216530   4.976   4.342   1.023
 5211SOL     OW16531   4.738   2.231   4.118
 5211SOL    HW116532   4.734   2.242   4.217
 5211SOL    HW216533   4.710   2.316   4.074
 5212SOL     OW16534   1.421   3.082   0.766
 5212SOL    HW116535   1.380   3.150   0.827
 5212SOL    HW216536   1.461   3.008   0.819
 5213SOL     OW16537   3.806   3.007   2.469
 5213SOL    HW116538   3.812   2.907   2.460
 5213SOL    HW216539   3.768   3.030   2.558
 5214SOL     OW16540   5.410   4.209   6.494
 5214SOL    HW116541   5.422   4.217   6.593
 5214SOL    HW216542   5.411   4.112   6.468
 5215SOL     OW16543   6.433   3.541   4.816
 5215SOL    HW116544   6.447   3.466   4.751
 5215SOL    HW216545   6.409   3.503   4.905
 5216SOL     OW16546   5.502   4.561   0.898
 5216SOL    HW116547   5.465   4.585   0.988
 5216SOL    HW216548   5.473   4.468   0.874
 5217SOL     OW16549   3.982   5.767   4.170
 5217SOL    HW116550   4.056   5.705   4.143
 5217SOL    HW216551   3.920   5.781   4.093
 5218SOL     OW16552   0.787   0.435   0.873
 5218SOL    HW116553   0.720   0.464   0.804
 5218SOL    HW216554   0.771   0.339   0.896
 5219SOL     OW16555   2.019   2.022   5.037
 5219SOL    HW116556   1.954   1.960   5.081
 5219SOL    HW216557   2.048   1.982   4.950
 5220SOL     OW16558   2.388   4.838   2.805
 5220SOL    HW116559   2.430   4.760   2.759
 5220SOL    HW216560   2.442   4.861   2.887
 5221SOL     OW16561   7.016   0.606   1.794
 5221SOL    HW116562   0.022   0.544   1.722
 5221SOL    HW216563   7.007   0.556   1.880
 5222SOL     OW16564   4.352   4.970   1.860
 5222SOL    HW116565   4.325   4.911   1.784
 5222SOL    HW216566   4.420   4.923   1.916
 5223SOL     OW16567   0.736   2.952   0.806
 5223SOL    HW116568   0.789   2.947   0.721
 5223SOL    HW216569   0.741   2.864   0.853
 5224SOL     OW16570   0.911   1.914   4.114
 5224SOL    HW116571   0.876   1.846   4.049
 5224SOL    HW216572   0.841   1.932   4.184
 5225SOL     OW16573   0.109   1.312   4.986
 5225SOL    HW116574   0.119   1.214   5.003
 5225SOL    HW216575   0.200   1.354   4.982
 5226SOL     OW16576   0.553   5.865   3.976
 5226SOL    HW116577   0.490   5.911   4.038
 5226SOL    HW216578   0.510   5.853   3.887
 5227SOL     OW16579   6.769   3.209   5.224
 5227SOL    HW116580   6.796   3.273   5.151
 5227SOL    HW216581   6.841   3.205   5.292
 5228SOL     OW16582   1.846   3.083   5.577
 5228SOL    HW116583   1.853   3.134   5.663
 5228SOL    HW216584   1.888   2.993   5.588
 5229SOL     OW16585   3.411   0.380   6.314
 5229SOL    HW116586   3.504   0.402   6.283
 5229SOL    HW216587   3.380   0.450   6.378
 5230SOL     OW16588   6.670   0.375   1.435
 5230SOL    HW116589   6.630   0.434   1.505
 5230SOL    HW216590   6.761   0.345   1.465
 5231SOL     OW16591   5.824   1.690   2.851
 5231SOL    HW116592   5.862   1.634   2.778
 5231SOL    HW216593   5.752   1.749   2.814
 5232SOL     OW16594   1.929   3.855   5.954
 5232SOL    HW116595   1.936   3.776   5.892
 5232SOL    HW216596   1.985   3.929   5.918
 5233SOL     OW16597   2.817   0.238   2.606
 5233SOL    HW116598   2.753   0.181   2.658
 5233SOL    HW216599   2.819   0.207   2.511
 5234SOL     OW16600   2.044   2.337   0.892
 5234SOL    HW116601   2.072   2.409   0.955
 5234SOL    HW216602   2.118   2.271   0.881
 5235SOL     OW16603   2.532   1.873   1.217
 5235SOL    HW116604   2.460   1.909   1.277
 5235SOL    HW216605   2.492   1.814   1.147
 5236SOL     OW16606   3.679   5.149   2.106
 5236SOL    HW116607   3.646   5.236   2.144
 5236SOL    HW216608   3.603   5.084   2.101
 5237SOL     OW16609   2.181   2.413   4.733
 5237SOL    HW116610   2.182   2.335   4.796
 5237SOL    HW216611   2.094   2.462   4.741
 5238SOL     OW16612   1.061   5.482   2.675
 5238SOL    HW116613   1.067   5.401   2.734
 5238SOL    HW216614   1.063   5.564   2.731
 5239SOL     OW16615   2.929   3.668   1.480
 5239SOL    HW116616   2.908   3.735   1.552
 5239SOL    HW216617   2.939   3.577   1.521
 5240SOL     OW16618   2.484   2.569   6.205
 5240SOL    HW116619   2.412   2.632   6.234
 5240SOL    HW216620   2.571   2.596   6.249
 5241SOL     OW16621   1.126   6.000   2.585
 5241SOL    HW116622   1.213   5.990   2.634
 5241SOL    HW216623   1.105   5.914   2.538
 5242SOL     OW16624   4.577   0.552   0.570
 5242SOL    HW116625   4.530   0.508   0.647
 5242SOL    HW216626   4.596   0.647   0.594
 5243SOL     OW16627   1.731   6.062   1.628
 5243SOL    HW116628   1.769   6.009   1.703
 5243SOL    HW216629   1.636   6.084   1.648
 5244SOL     OW16630   5.286   3.505   0.717
 5244SOL    HW116631   5.201   3.454   0.733
 5244SOL    HW216632   5.267   3.582   0.655
 5245SOL     OW16633   4.186   4.190   0.238
 5245SOL    HW116634   4.183   4.281   0.279
 5245SOL    HW216635   4.231   4.126   0.301
 5246SOL     OW16636   6.516   2.562   1.528
 5246SOL    HW116637   6.525   2.555   1.628
 5246SOL    HW216638   6.596   2.610   1.491
 5247SOL     OW16639   3.858   2.062   5.934
 5247SOL    HW116640   3.884   2.011   6.016
 5247SOL    HW216641   3.807   2.003   5.872
 5248SOL     OW16642   6.391   1.689   2.405
 5248SOL    HW116643   6.488   1.666   2.394
 5248SOL    HW216644   6.374   1.723   2.497
 5249SOL     OW16645   0.376   5.006   0.009
 5249SOL    HW116646   0.289   5.050   7.009
 5249SOL    HW216647   0.365   4.906   0.006
 5250SOL     OW16648   2.096   5.688   0.146
 5250SOL    HW116649   2.109   5.786   0.164
 5250SOL    HW216650   2.140   5.664   0.060
 5251SOL     OW16651   0.781   3.894   0.785
 5251SOL    HW116652   0.784   3.811   0.841
 5251SOL    HW216653   0.874   3.924   0.765
 5252SOL     OW16654   3.326   6.655   2.401
 5252SOL    HW116655   3.340   6.754   2.396
 5252SOL    HW216656   3.315   6.628   2.497
 5253SOL     OW16657   5.712   4.740   4.555
 5253SOL    HW116658   5.662   4.794   4.623
 5253SOL    HW216659   5.803   4.718   4.591
 5254SOL     OW16660   6.118   6.976   3.156
 5254SOL    HW116661   6.181   6.913   3.200
 5254SOL    HW216662   6.075   6.930   3.078
 5255SOL     OW16663   5.721   1.606   4.742
 5255SOL    HW116664   5.757   1.519   4.777
 5255SOL    HW216665   5.795   1.662   4.707
 5256SOL     OW16666   5.380   0.693   3.092
 5256SOL    HW116667   5.414   0.599   3.083
 5256SOL    HW216668   5.349   0.725   3.002
 5257SOL     OW16669   4.128   0.726   6.854
 5257SOL    HW116670   4.148   0.783   6.774
 5257SOL    HW216671   4.213   0.694   6.895
 5258SOL     OW16672   5.233   1.445   2.253
 5258SOL    HW116673   5.195   1.362   2.211
 5258SOL    HW216674   5.293   1.491   2.188
 5259SOL     OW16675   4.829   5.263   3.074
 5259SOL    HW116676   4.858   5.191   3.138
 5259SOL    HW216677   4.778   5.333   3.123
 5260SOL     OW16678   2.274   0.011   0.208
 5260SOL    HW116679   2.368   0.012   0.243
 5260SOL    HW216680   2.236   6.945   0.220
 5261SOL     OW16681   6.350   4.833   0.483
 5261SOL    HW116682   6.348   4.791   0.574
 5261SOL    HW216683   6.439   4.876   0.469
 5262SOL     OW16684   1.993   0.603   2.740
 5262SOL    HW116685   2.020   0.620   2.645
 5262SOL    HW216686   2.070   0.625   2.801
 5263SOL     OW16687   1.718   1.385   3.731
 5263SOL    HW116688   1.771   1.318   3.679
 5263SOL    HW216689   1.735   1.372   3.829
 5264SOL     OW16690   6.613   1.769   1.436
 5264SOL    HW116691   6.647   1.779   1.342
 5264SOL    HW216692   6.620   1.857   1.483
 5265SOL     OW16693   5.482   2.951   4.666
 5265SOL    HW116694   5.428   3.002   4.732
 5265SOL    HW216695   5.442   2.860   4.652
 5266SOL     OW16696   2.588   6.743   0.254
 5266SOL    HW116697   2.564   6.719   0.349
 5266SOL    HW216698   2.567   6.840   0.238
 5267SOL     OW16699   4.371   2.376   4.506
 5267SOL    HW116700   4.352   2.425   4.422
 5267SOL    HW216701   4.428   2.433   4.566
 5268SOL     OW16702   5.458   1.089   6.381
 5268SOL    HW116703   5.485   1.183   6.357
 5268SOL    HW216704   5.397   1.053   6.310
 5269SOL     OW16705   0.145   6.527   2.399
 5269SOL    HW116706   0.172   6.616   2.362
 5269SOL    HW216707   0.051   6.507   2.371
 5270SOL     OW16708   0.003   2.093   0.033
 5270SOL    HW116709   0.032   2.110   6.964
 5270SOL    HW216710   6.943   2.042   0.033
 5271SOL     OW16711   6.167   5.831   4.240
 5271SOL    HW116712   6.253   5.874   4.212
 5271SOL    HW216713   6.186   5.747   4.290
 5272SOL     OW16714   3.855   6.935   0.104
 5272SOL    HW116715   3.888   6.950   0.197
 5272SOL    HW216716   3.917   6.978   0.039
 5273SOL     OW16717   1.230   2.887   2.601
 5273SOL    HW116718   1.199   2.893   2.696
 5273SOL    HW216719   1.267   2.976   2.573
 5274SOL     OW16720   5.099   6.009   2.444
 5274SOL    HW116721   5.185   6.036   2.486
 5274SOL    HW216722   5.040   6.089   2.434
 5275SOL     OW16723   3.050   0.759   0.630
 5275SOL    HW116724   3.053   0.793   0.724
 5275SOL    HW216725   2.971   0.798   0.582
 5276SOL     OW16726   2.695   6.319   1.622
 5276SOL    HW116727   2.644   6.287   1.542
 5276SOL    HW216728   2.767   6.253   1.644
 5277SOL     OW16729   1.730   1.149   2.459
 5277SOL    HW116730   1.641   1.177   2.496
 5277SOL    HW216731   1.748   1.054   2.484
 5278SOL     OW16732   4.353   5.038   2.319
 5278SOL    HW116733   4.363   5.106   2.391
 5278SOL    HW216734   4.258   5.039   2.286
 5279SOL     OW16735   2.470   5.442   1.069
 5279SOL    HW116736   2.375   5.433   1.100
 5279SOL    HW216737   2.471   5.449   0.969
 5280SOL     OW16738   3.398   6.002   5.034
 5280SOL    HW116739   3.376   6.017   4.938
 5280SOL    HW216740   3.327   6.043   5.092
 5281SOL     OW16741   0.565   2.010   2.145
 5281SOL    HW116742   0.588   1.941   2.077
 5281SOL    HW216743   0.562   2.100   2.102
 5282SOL     OW16744   2.694   1.849   3.383
 5282SOL    HW116745   2.648   1.863   3.471
 5282SOL    HW216746   2.676   1.927   3.324
 5283SOL     OW16747   5.031   5.750   0.422
 5283SOL    HW116748   5.075   5.663   0.442
 5283SOL    HW216749   5.100   5.819   0.400
 5284SOL     OW16750   5.624   3.489   2.805
 5284SOL    HW116751   5.534   3.491   2.849
 5284SOL    HW216752   5.643   3.397   2.773
 5285SOL     OW16753   3.308   5.212   3.798
 5285SOL    HW116754   3.229   5.247   3.848
 5285SOL    HW216755   3.301   5.238   3.702
 5286SOL     OW16756   1.559   4.357   1.500
 5286SOL    HW116757   1.467   4.318   1.507
 5286SOL    HW216758   1.592   4.381   1.591
 5287SOL     OW16759   2.450   1.896   0.675
 5287SOL    HW116760   2.377   1.905   0.744
 5287SOL    HW216761   2.538   1.883   0.721
 5288SOL     OW16762   2.898   0.164   1.438
 5288SOL    HW116763   2.826   0.099   1.459
 5288SOL    HW216764   2.921   0.159   1.341
 5289SOL     OW16765   0.901   5.245   0.827
 5289SOL    HW116766   0.862   5.154   0.814
 5289SOL    HW216767   0.927   5.257   0.923
 5290SOL     OW16768   3.452   5.595   0.408
 5290SOL    HW116769   3.368   5.601   0.354
 5290SOL    HW216770   3.462   5.679   0.463
 5291SOL     OW16771   1.980   5.231   5.412
 5291SOL    HW116772   1.889   5.241   5.372
 5291SOL    HW216773   2.034   5.169   5.356
 5292SOL     OW16774   4.890   3.226   6.257
 5292SOL    HW116775   4.966   3.236   6.321
 5292SOL    HW216776   4.804   3.239   6.305
 5293SOL     OW16777   0.528   0.423   4.428
 5293SOL    HW116778   0.465   0.379   4.491
 5293SOL    HW216779   0.612   0.448   4.477
 5294SOL     OW16780   6.391   2.908   6.492
 5294SOL    HW116781   6.360   2.817   6.517
 5294SOL    HW216782   6.355   2.975   6.557
 5295SOL     OW16783   6.179   0.659   3.025
 5295SOL    HW116784   6.129   0.593   2.968
 5295SOL    HW216785   6.265   0.683   2.980
 5296SOL     OW16786   0.694   4.402   0.746
 5296SOL    HW116787   0.773   4.374   0.801
 5296SOL    HW216788   0.610   4.383   0.797
 5297SOL     OW16789   1.958   1.532   1.642
 5297SOL    HW116790   1.946   1.519   1.741
 5297SOL    HW216791   1.987   1.626   1.624
 5298SOL     OW16792   6.836   5.213   0.819
 5298SOL    HW116793   6.877   5.144   0.879
 5298SOL    HW216794   6.746   5.182   0.790
 5299SOL     OW16795   2.824   0.379   1.971
 5299SOL    HW116796   2.859   0.361   2.064
 5299SOL    HW216797   2.729   0.409   1.976
 5300SOL     OW16798   0.023   5.847   3.785
 5300SOL    HW116799   0.042   5.945   3.789
 5300SOL    HW216800   6.994   5.827   3.704
 5301SOL     OW16801   4.147   1.183   6.906
 5301SOL    HW116802   4.219   1.245   6.939
 5301SOL    HW216803   4.170   1.151   6.814
 5302SOL     OW16804   6.419   4.238   2.518
 5302SOL    HW116805   6.444   4.166   2.583
 5302SOL    HW216806   6.474   4.319   2.536
 5303SOL     OW16807   6.169   4.199   3.760
 5303SOL    HW116808   6.178   4.236   3.668
 5303SOL    HW216809   6.148   4.101   3.754
 5304SOL     OW16810   5.517   1.920   5.934
 5304SOL    HW116811   5.602   1.900   5.886
 5304SOL    HW216812   5.441   1.875   5.886
 5305SOL     OW16813   2.356   0.973   3.172
 5305SOL    HW116814   2.451   0.996   3.194
 5305SOL    HW216815   2.296   1.008   3.244
 5306SOL     OW16816   3.292   0.018   5.601
 5306SOL    HW116817   3.273   0.054   5.510
 5306SOL    HW216818   3.354   0.079   5.649
 5307SOL     OW16819   4.561   6.898   6.772
 5307SOL    HW116820   4.496   6.974   6.780
 5307SOL    HW216821   4.553   6.840   6.854
 5308SOL     OW16822   6.754   1.454   3.145
 5308SOL    HW116823   6.753   1.552   3.125
 5308SOL    HW216824   6.849   1.422   3.147
 5309SOL     OW16825   3.600   3.890   3.493
 5309SOL    HW116826   3.656   3.949   3.552
 5309SOL    HW216827   3.638   3.890   3.400
 5310SOL     OW16828   5.119   2.179   0.919
 5310SOL    HW116829   5.044   2.239   0.949
 5310SOL    HW216830   5.193   2.182   0.986
 5311SOL     OW16831   2.254   5.451   6.690
 5311SOL    HW116832   2.200   5.451   6.606
 5311SOL    HW216833   2.239   5.365   6.739
 5312SOL     OW16834   0.707   3.882   3.221
 5312SOL    HW116835   0.709   3.937   3.305
 5312SOL    HW216836   0.779   3.913   3.159
 5313SOL     OW16837   0.964   5.873   6.711
 5313SOL    HW116838   1.012   5.872   6.624
 5313SOL    HW216839   0.899   5.796   6.714
 5314SOL     OW16840   3.445   5.351   0.545
 5314SOL    HW116841   3.455   5.444   0.511
 5314SOL    HW216842   3.510   5.291   0.497
 5315SOL     OW16843   5.925   2.729   2.204
 5315SOL    HW116844   6.017   2.730   2.165
 5315SOL    HW216845   5.870   2.801   2.161
 5316SOL     OW16846   0.023   4.044   3.524
 5316SOL    HW116847   6.975   3.985   3.489
 5316SOL    HW216848   0.098   3.987   3.557
 5317SOL     OW16849   5.459   6.742   2.853
 5317SOL    HW116850   5.434   6.708   2.762
 5317SOL    HW216851   5.555   6.770   2.854
 5318SOL     OW16852   0.670   2.616   4.195
 5318SOL    HW116853   0.607   2.553   4.242
 5318SOL    HW216854   0.624   2.659   4.118
 5319SOL     OW16855   5.162   0.730   0.355
 5319SOL    HW116856   5.183   0.810   0.298
 5319SOL    HW216857   5.067   0.703   0.342
 5320SOL     OW16858   6.025   3.232   6.319
 5320SOL    HW116859   5.982   3.143   6.337
 5320SOL    HW216860   5.971   3.282   6.252
 5321SOL     OW16861   1.765   5.127   5.920
 5321SOL    HW116862   1.837   5.196   5.925
 5321SOL    HW216863   1.805   5.038   5.899
 5322SOL     OW16864   2.987   6.030   6.456
 5322SOL    HW116865   2.968   5.935   6.481
 5322SOL    HW216866   2.902   6.083   6.456
 5323SOL     OW16867   5.140   2.697   0.940
 5323SOL    HW116868   5.095   2.678   0.853
 5323SOL    HW216869   5.228   2.742   0.923
 5324SOL     OW16870   3.887   3.058   1.599
 5324SOL    HW116871   3.869   3.060   1.697
 5324SOL    HW216872   3.976   3.100   1.580
 5325SOL     OW16873   5.655   6.190   2.942
 5325SOL    HW116874   5.605   6.277   2.936
 5325SOL    HW216875   5.594   6.115   2.917
 5326SOL     OW16876   7.023   6.390   1.378
 5326SOL    HW116877   0.040   6.393   1.287
 5326SOL    HW216878   6.934   6.435   1.374
 5327SOL     OW16879   6.537   0.482   3.956
 5327SOL    HW116880   6.631   0.451   3.973
 5327SOL    HW216881   6.482   0.471   4.039
 5328SOL     OW16882   3.776   4.156   0.140
 5328SOL    HW116883   3.842   4.094   0.098
 5328SOL    HW216884   3.803   4.173   0.235
 5329SOL     OW16885   0.336   4.722   0.470
 5329SOL    HW116886   0.274   4.801   0.475
 5329SOL    HW216887   0.428   4.750   0.499
 5330SOL     OW16888   4.389   4.114   1.455
 5330SOL    HW116889   4.376   4.090   1.359
 5330SOL    HW216890   4.404   4.213   1.463
 5331SOL     OW16891   4.596   3.271   0.224
 5331SOL    HW116892   4.573   3.196   0.287
 5331SOL    HW216893   4.627   3.350   0.277
 5332SOL     OW16894   5.909   4.058   0.582
 5332SOL    HW116895   5.890   4.153   0.609
 5332SOL    HW216896   6.006   4.048   0.564
 5333SOL     OW16897   2.380   1.041   4.038
 5333SOL    HW116898   2.467   1.055   3.991
 5333SOL    HW216899   2.361   0.943   4.043
 5334SOL     OW16900   4.523   4.863   2.464
 5334SOL    HW116901   4.465   4.937   2.430
 5334SOL    HW216902   4.519   4.786   2.401
 5335SOL     OW16903   0.316   4.718   1.639
 5335SOL    HW116904   0.301   4.816   1.650
 5335SOL    HW216905   0.354   4.701   1.548
 5336SOL     OW16906   1.233   2.834   4.036
 5336SOL    HW116907   1.145   2.794   4.062
 5336SOL    HW216908   1.266   2.892   4.110
 5337SOL     OW16909   0.152   4.301   0.818
 5337SOL    HW116910   0.177   4.343   0.906
 5337SOL    HW216911   0.054   4.282   0.818
 5338SOL     OW16912   6.724   3.264   0.781
 5338SOL    HW116913   6.680   3.267   0.870
 5338SOL    HW216914   6.659   3.230   0.713
 5339SOL     OW16915   5.953   2.364   2.578
 5339SOL    HW116916   5.910   2.366   2.488
 5339SOL    HW216917   5.882   2.362   2.649
 5340SOL     OW16918   5.429   2.742   2.598
 5340SOL    HW116919   5.346   2.796   2.608
 5340SOL    HW216920   5.416   2.654   2.645
 5341SOL     OW16921   4.452   5.609   3.504
 5341SOL    HW116922   4.409   5.536   3.450
 5341SOL    HW216923   4.459   5.692   3.449
 5342SOL     OW16924   5.984   6.641   4.344
 5342SOL    HW116925   5.962   6.731   4.305
 5342SOL    HW216926   6.022   6.583   4.272
 5343SOL     OW16927   3.963   3.586   5.819
 5343SOL    HW116928   4.025   3.613   5.746
 5343SOL    HW216929   3.877   3.553   5.780
 5344SOL     OW16930   1.103   1.667   6.174
 5344SOL    HW116931   1.179   1.647   6.235
 5344SOL    HW216932   1.084   1.587   6.117
 5345SOL     OW16933   5.605   2.097   6.928
 5345SOL    HW116934   5.617   2.005   6.966
 5345SOL    HW216935   5.624   2.165   6.999
 5346SOL     OW16936   3.153   5.591   3.845
 5346SOL    HW116937   3.135   5.621   3.751
 5346SOL    HW216938   3.180   5.495   3.845
 5347SOL     OW16939   5.649   1.914   4.005
 5347SOL    HW116940   5.573   1.851   4.015
 5347SOL    HW216941   5.622   1.989   3.945
 5348SOL     OW16942   5.199   1.382   3.525
 5348SOL    HW116943   5.223   1.460   3.583
 5348SOL    HW216944   5.227   1.298   3.570
 5349SOL     OW16945   0.137   3.856   2.574
 5349SOL    HW116946   0.041   3.885   2.580
 5349SOL    HW216947   0.150   3.803   2.491
 5350SOL     OW16948   1.921   6.505   6.460
 5350SOL    HW116949   1.846   6.506   6.527
 5350SOL    HW216950   1.997   6.561   6.493
 5351SOL     OW16951   0.194   5.387   1.425
 5351SOL    HW116952   0.288   5.388   1.390
 5351SOL    HW216953   0.187   5.316   1.496
 5352SOL     OW16954   1.706   3.490   4.186
 5352SOL    HW116955   1.758   3.521   4.106
 5352SOL    HW216956   1.623   3.444   4.157
 5353SOL     OW16957   4.432   5.856   3.347
 5353SOL    HW116958   4.524   5.869   3.311
 5353SOL    HW216959   4.399   5.942   3.386
 5354SOL     OW16960   3.681   5.726   0.569
 5354SOL    HW116961   3.698   5.628   0.582
 5354SOL    HW216962   3.703   5.774   0.654
 5355SOL     OW16963   5.071   4.639   5.214
 5355SOL    HW116964   5.047   4.733   5.192
 5355SOL    HW216965   5.165   4.637   5.250
 5356SOL     OW16966   0.078   5.196   1.601
 5356SOL    HW116967   0.021   5.156   1.529
 5356SOL    HW216968   0.030   5.274   1.641
 5357SOL     OW16969   5.697   4.280   2.373
 5357SOL    HW116970   5.638   4.235   2.305
 5357SOL    HW216971   5.640   4.325   2.442
 5358SOL     OW16972   4.627   2.058   0.392
 5358SOL    HW116973   4.585   1.982   0.441
 5358SOL    HW216974   4.677   2.116   0.456
 5359SOL     OW16975   2.422   1.734   6.433
 5359SOL    HW116976   2.472   1.746   6.519
 5359SOL    HW216977   2.479   1.764   6.357
 5360SOL     OW16978   5.271   4.503   3.203
 5360SOL    HW116979   5.286   4.408   3.228
 5360SOL    HW216980   5.281   4.561   3.284
 5361SOL     OW16981   2.743   6.075   2.269
 5361SOL    HW116982   2.776   5.991   2.312
 5361SOL    HW216983   2.812   6.109   2.204
 5362SOL     OW16984   6.014   0.444   2.114
 5362SOL    HW116985   6.098   0.434   2.061
 5362SOL    HW216986   6.029   0.408   2.206
 5363SOL     OW16987   5.914   5.249   4.153
 5363SOL    HW116988   5.873   5.170   4.198
 5363SOL    HW216989   5.904   5.330   4.211
 5364SOL     OW16990   4.897   1.105   2.320
 5364SOL    HW116991   4.962   1.138   2.389
 5364SOL    HW216992   4.875   1.180   2.257
 5365SOL     OW16993   3.366   3.003   4.064
 5365SOL    HW116994   3.269   3.017   4.086
 5365SOL    HW216995   3.375   2.965   3.973
 5366SOL     OW16996   6.569   6.226   2.189
 5366SOL    HW116997   6.486   6.171   2.187
 5366SOL    HW216998   6.590   6.252   2.283
 5367SOL     OW16999   6.223   6.085   1.548
 5367SOL    HW117000   6.304   6.043   1.507
 5367SOL    HW217001   6.250   6.163   1.603
 5368SOL     OW17002   6.790   5.528   3.863
 5368SOL    HW117003   6.850   5.477   3.802
 5368SOL    HW217004   6.730   5.587   3.808
 5369SOL     OW17005   2.484   5.945   2.030
 5369SOL    HW117006   2.543   6.023   2.009
 5369SOL    HW217007   2.389   5.971   2.019
 5370SOL     OW17008   2.653   3.670   1.631
 5370SOL    HW117009   2.715   3.748   1.632
 5370SOL    HW217010   2.619   3.656   1.538
 5371SOL     OW17011   5.540   5.533   4.843
 5371SOL    HW117012   5.468   5.520   4.775
 5371SOL    HW217013   5.591   5.616   4.821
 5372SOL     OW17014   0.626   0.424   2.907
 5372SOL    HW117015   0.685   0.384   2.837
 5372SOL    HW217016   0.675   0.497   2.955
 5373SOL     OW17017   3.242   0.711   6.949
 5373SOL    HW117018   3.155   0.685   6.991
 5373SOL    HW217019   3.316   0.697   7.014
 5374SOL     OW17020   2.542   5.017   1.945
 5374SOL    HW117021   2.463   5.059   1.901
 5374SOL    HW217022   2.622   5.075   1.931
 5375SOL     OW17023   1.135   5.116   4.165
 5375SOL    HW117024   1.137   5.104   4.265
 5375SOL    HW217025   1.084   5.041   4.123
 5376SOL     OW17026   0.026   1.100   6.155
 5376SOL    HW117027   0.020   1.010   6.113
 5376SOL    HW217028   6.961   1.143   6.156
 5377SOL     OW17029   2.446   0.715   3.042
 5377SOL    HW117030   2.514   0.767   2.991
 5377SOL    HW217031   2.394   0.776   3.102
 5378SOL     OW17032   5.656   0.995   1.880
 5378SOL    HW117033   5.621   1.065   1.942
 5378SOL    HW217034   5.646   0.905   1.921
 5379SOL     OW17035   1.551   2.670   6.304
 5379SOL    HW117036   1.650   2.667   6.292
 5379SOL    HW217037   1.506   2.620   6.230
 5380SOL     OW17038   4.602   7.019   1.500
 5380SOL    HW117039   4.542   0.069   1.475
 5380SOL    HW217040   4.571   6.935   1.455
 5381SOL     OW17041   4.882   6.291   4.117
 5381SOL    HW117042   4.932   6.206   4.130
 5381SOL    HW217043   4.817   6.280   4.042
 5382SOL     OW17044   4.271   1.879   1.698
 5382SOL    HW117045   4.351   1.820   1.705
 5382SOL    HW217046   4.268   1.941   1.777
 5383SOL     OW17047   2.141   2.663   4.396
 5383SOL    HW117048   2.203   2.626   4.465
 5383SOL    HW217049   2.100   2.748   4.430
 5384SOL     OW17050   5.343   5.423   4.683
 5384SOL    HW117051   5.269   5.481   4.718
 5384SOL    HW217052   5.329   5.329   4.714
 5385SOL     OW17053   4.628   2.460   5.641
 5385SOL    HW117054   4.626   2.398   5.563
 5385SOL    HW217055   4.673   2.415   5.719
 5386SOL     OW17056   6.101   4.249   4.080
 5386SOL    HW117057   6.188   4.222   4.038
 5386SOL    HW217058   6.105   4.345   4.105
 5387SOL     OW17059   1.351   0.978   3.146
 5387SOL    HW117060   1.321   0.999   3.053
 5387SOL    HW217061   1.451   0.980   3.150
 5388SOL     OW17062   1.009   6.593   1.994
 5388SOL    HW117063   0.914   6.583   1.964
 5388SOL    HW217064   1.028   6.528   2.067
 5389SOL     OW17065   4.077   1.401   3.921
 5389SOL    HW117066   4.060   1.308   3.887
 5389SOL    HW217067   4.168   1.405   3.963
 5390SOL     OW17068   0.179   2.879   3.578
 5390SOL    HW117069   0.217   2.968   3.603
 5390SOL    HW217070   0.249   2.809   3.586
 5391SOL     OW17071   2.221   3.453   0.891
 5391SOL    HW117072   2.318   3.468   0.909
 5391SOL    HW217073   2.209   3.399   0.807
 5392SOL     OW17074   5.799   2.164   3.496
 5392SOL    HW117075   5.813   2.158   3.397
 5392SOL    HW217076   5.808   2.259   3.525
 5393SOL     OW17077   3.622   1.835   5.538
 5393SOL    HW117078   3.625   1.868   5.444
 5393SOL    HW217079   3.636   1.736   5.539
 5394SOL     OW17080   1.381   0.776   1.244
 5394SOL    HW117081   1.458   0.735   1.294
 5394SOL    HW217082   1.297   0.756   1.294
 5395SOL     OW17083   6.308   1.502   0.895
 5395SOL    HW117084   6.271   1.549   0.815
 5395SOL    HW217085   6.330   1.570   0.965
 5396SOL     OW17086   5.532   5.214   2.495
 5396SOL    HW117087   5.464   5.287   2.486
 5396SOL    HW217088   5.490   5.133   2.536
 5397SOL     OW17089   0.107   0.935   2.391
 5397SOL    HW117090   0.171   1.012   2.395
 5397SOL    HW217091   0.134   0.866   2.458
 5398SOL     OW17092   5.221   1.920   3.195
 5398SOL    HW117093   5.235   2.016   3.171
 5398SOL    HW217094   5.271   1.899   3.278
 5399SOL     OW17095   2.509   0.476   6.121
 5399SOL    HW117096   2.465   0.387   6.133
 5399SOL    HW217097   2.551   0.504   6.207
 5400SOL     OW17098   4.492   3.059   1.683
 5400SOL    HW117099   4.511   3.148   1.643
 5400SOL    HW217100   4.535   3.053   1.773
 5401SOL     OW17101   5.968   3.813   1.529
 5401SOL    HW117102   6.031   3.803   1.605
 5401SOL    HW217103   5.957   3.910   1.506
 5402SOL     OW17104   0.904   6.541   1.223
 5402SOL    HW117105   0.946   6.459   1.263
 5402SOL    HW217106   0.967   6.618   1.231
 5403SOL     OW17107   5.327   2.636   0.151
 5403SOL    HW117108   5.339   2.690   0.234
 5403SOL    HW217109   5.231   2.607   0.144
 5404SOL     OW17110   6.693   1.019   0.660
 5404SOL    HW117111   6.770   0.956   0.646
 5404SOL    HW217112   6.632   0.981   0.729
 5405SOL     OW17113   5.555   5.567   7.023
 5405SOL    HW117114   5.645   5.538   0.031
 5405SOL    HW217115   5.493   5.579   0.075
 5406SOL     OW17116   2.993   0.601   4.244
 5406SOL    HW117117   2.974   0.680   4.185
 5406SOL    HW217118   2.943   0.521   4.211
 5407SOL     OW17119   1.657   6.788   2.545
 5407SOL    HW117120   1.595   6.863   2.522
 5407SOL    HW217121   1.711   6.764   2.465
 5408SOL     OW17122   3.639   1.839   4.540
 5408SOL    HW117123   3.598   1.801   4.457
 5408SOL    HW217124   3.615   1.782   4.619
 5409SOL     OW17125   1.122   3.003   0.714
 5409SOL    HW117126   1.037   3.005   0.661
 5409SOL    HW217127   1.198   2.980   0.653
 5410SOL     OW17128   1.441   2.660   0.664
 5410SOL    HW117129   1.501   2.614   0.599
 5410SOL    HW217130   1.352   2.613   0.667
 5411SOL     OW17131   3.346   4.892   6.709
 5411SOL    HW117132   3.254   4.877   6.745
 5411SOL    HW217133   3.361   4.990   6.696
 5412SOL     OW17134   0.030   2.011   5.970
 5412SOL    HW117135   0.069   2.083   6.028
 5412SOL    HW217136   6.962   2.036   5.946
 5413SOL     OW17137   0.097   6.464   4.657
 5413SOL    HW117138   0.131   6.514   4.737
 5413SOL    HW217139   7.022   6.460   4.662
 5414SOL     OW17140   5.580   3.928   4.978
 5414SOL    HW117141   5.673   3.900   5.002
 5414SOL    HW217142   5.580   3.973   4.889
 5415SOL     OW17143   3.746   0.286   6.932
 5415SOL    HW117144   3.779   0.325   7.018
 5415SOL    HW217145   3.660   0.329   6.906
 5416SOL     OW17146   3.137   5.676   6.109
 5416SOL    HW117147   3.042   5.646   6.118
 5416SOL    HW217148   3.154   5.755   6.168
 5417SOL     OW17149   4.592   6.010   4.135
 5417SOL    HW117150   4.581   6.090   4.076
 5417SOL    HW217151   4.558   6.030   4.226
 5418SOL     OW17152   6.425   3.520   4.372
 5418SOL    HW117153   6.471   3.486   4.454
 5418SOL    HW217154   6.493   3.541   4.302
 5419SOL     OW17155   4.382   7.012   6.377
 5419SOL    HW117156   4.454   0.057   6.386
 5419SOL    HW217157   4.293   0.031   6.373
 5420SOL     OW17158   1.178   0.787   1.787
 5420SOL    HW117159   1.109   0.719   1.811
 5420SOL    HW217160   1.262   0.771   1.840
 5421SOL     OW17161   4.034   4.753   2.369
 5421SOL    HW117162   3.937   4.744   2.391
 5421SOL    HW217163   4.074   4.824   2.426
 5422SOL     OW17164   2.586   5.865   3.761
 5422SOL    HW117165   2.641   5.782   3.762
 5422SOL    HW217166   2.643   5.943   3.734
 5423SOL     OW17167   5.494   5.760   1.786
 5423SOL    HW117168   5.484   5.664   1.812
 5423SOL    HW217169   5.411   5.790   1.738
 5424SOL     OW17170   4.280   3.853   5.620
 5424SOL    HW117171   4.359   3.795   5.599
 5424SOL    HW217172   4.303   3.914   5.696
 5425SOL     OW17173   1.313   4.207   5.846
 5425SOL    HW117174   1.294   4.251   5.934
 5425SOL    HW217175   1.244   4.233   5.780
 5426SOL     OW17176   5.244   5.097   1.744
 5426SOL    HW117177   5.264   5.182   1.696
 5426SOL    HW217178   5.158   5.106   1.794
 5427SOL     OW17179   4.872   2.461   6.583
 5427SOL    HW117180   4.806   2.386   6.579
 5427SOL    HW217181   4.931   2.457   6.502
 5428SOL     OW17182   6.283   6.015   3.344
 5428SOL    HW117183   6.242   5.924   3.341
 5428SOL    HW217184   6.226   6.075   3.401
 5429SOL     OW17185   3.224   0.150   4.365
 5429SOL    HW117186   3.250   0.065   4.319
 5429SOL    HW217187   3.133   0.140   4.406
 5430SOL     OW17188   2.914   3.891   6.036
 5430SOL    HW117189   2.945   3.796   6.040
 5430SOL    HW217190   2.891   3.914   5.942
 5431SOL     OW17191   3.244   4.720   6.494
 5431SOL    HW117192   3.263   4.773   6.576
 5431SOL    HW217193   3.318   4.655   6.478
 5432SOL     OW17194   5.797   5.422   6.977
 5432SOL    HW117195   5.733   5.410   6.901
 5432SOL    HW217196   5.878   5.365   6.963
 5433SOL     OW17197   1.656   0.547   1.421
 5433SOL    HW117198   1.681   0.593   1.336
 5433SOL    HW217199   1.607   0.611   1.480
 5434SOL     OW17200   5.494   0.263   4.762
 5434SOL    HW117201   5.469   0.259   4.858
 5434SOL    HW217202   5.457   0.347   4.721
 5435SOL     OW17203   0.038   3.914   0.682
 5435SOL    HW117204   6.994   3.869   0.625
 5435SOL    HW217205   0.002   4.000   0.717
 5436SOL     OW17206   1.109   4.910   3.087
 5436SOL    HW117207   1.100   4.868   3.177
 5436SOL    HW217208   1.036   4.878   3.027
 5437SOL     OW17209   3.667   5.741   1.243
 5437SOL    HW117210   3.603   5.695   1.181
 5437SOL    HW217211   3.638   5.836   1.256
 5438SOL     OW17212   4.764   4.870   2.561
 5438SOL    HW117213   4.802   4.963   2.562
 5438SOL    HW217214   4.670   4.873   2.528
 5439SOL     OW17215   1.169   5.117   1.332
 5439SOL    HW117216   1.261   5.102   1.369
 5439SOL    HW217217   1.174   5.189   1.262
 5440SOL     OW17218   6.560   6.192   3.745
 5440SOL    HW117219   6.500   6.198   3.825
 5440SOL    HW217220   6.601   6.281   3.728
 5441SOL     OW17221   5.113   2.768   3.320
 5441SOL    HW117222   5.160   2.745   3.404
 5441SOL    HW217223   5.154   2.718   3.243
 5442SOL     OW17224   4.282   6.702   5.913
 5442SOL    HW117225   4.313   6.640   5.985
 5442SOL    HW217226   4.283   6.796   5.946
 5443SOL     OW17227   4.499   0.465   4.054
 5443SOL    HW117228   4.501   0.367   4.037
 5443SOL    HW217229   4.585   0.506   4.023
 5444SOL     OW17230   5.916   1.300   5.029
 5444SOL    HW117231   5.843   1.231   5.023
 5444SOL    HW217232   5.962   1.292   5.117
 5445SOL     OW17233   5.747   5.089   5.450
 5445SOL    HW117234   5.702   5.173   5.422
 5445SOL    HW217235   5.823   5.069   5.388
 5446SOL     OW17236   0.521   4.072   6.061
 5446SOL    HW117237   0.620   4.088   6.066
 5446SOL    HW217238   0.493   4.019   6.141
 5447SOL     OW17239   1.371   1.899   0.626
 5447SOL    HW117240   1.461   1.890   0.669
 5447SOL    HW217241   1.333   1.808   0.608
 5448SOL     OW17242   4.384   5.143   3.078
 5448SOL    HW117243   4.466   5.126   3.024
 5448SOL    HW217244   4.408   5.197   3.159
 5449SOL     OW17245   2.745   1.293   1.697
 5449SOL    HW117246   2.762   1.389   1.674
 5449SOL    HW217247   2.646   1.277   1.703
 5450SOL     OW17248   4.198   5.516   1.682
 5450SOL    HW117249   4.238   5.426   1.702
 5450SOL    HW217250   4.193   5.529   1.583
 5451SOL     OW17251   0.315   6.803   3.315
 5451SOL    HW117252   0.345   6.732   3.252
 5451SOL    HW217253   0.394   6.851   3.352
 5452SOL     OW17254   2.208   4.715   1.869
 5452SOL    HW117255   2.294   4.669   1.846
 5452SOL    HW217256   2.223   4.774   1.949
 5453SOL     OW17257   5.841   4.094   3.072
 5453SOL    HW117258   5.889   4.149   3.004
 5453SOL    HW217259   5.786   4.024   3.026
 5454SOL     OW17260   5.211   5.337   2.689
 5454SOL    HW117261   5.131   5.340   2.749
 5454SOL    HW217262   5.291   5.311   2.743
 5455SOL     OW17263   1.368   1.283   3.488
 5455SOL    HW117264   1.417   1.339   3.421
 5455SOL    HW217265   1.289   1.334   3.523
 5456SOL     OW17266   6.347   1.028   6.893
 5456SOL    HW117267   6.445   1.018   6.911
 5456SOL    HW217268   6.295   0.968   6.954
 5457SOL     OW17269   5.885   2.659   6.640
 5457SOL    HW117270   5.800   2.650   6.693
 5457SOL    HW217271   5.898   2.578   6.583
 5458SOL     OW17272   5.826   3.942   0.329
 5458SOL    HW117273   5.890   3.869   0.308
 5458SOL    HW217274   5.859   3.994   0.408
 5459SOL     OW17275   2.085   3.658   5.497
 5459SOL    HW117276   2.034   3.597   5.437
 5459SOL    HW217277   2.145   3.717   5.443
 5460SOL     OW17278   1.874   0.705   0.974
 5460SOL    HW117279   1.907   0.782   0.919
 5460SOL    HW217280   1.935   0.627   0.962
 5461SOL     OW17281   6.383   0.833   5.705
 5461SOL    HW117282   6.350   0.900   5.772
 5461SOL    HW217283   6.483   0.837   5.702
 5462SOL     OW17284   4.835   5.495   6.722
 5462SOL    HW117285   4.748   5.537   6.747
 5462SOL    HW217286   4.897   5.496   6.800
 5463SOL     OW17287   0.707   3.239   6.560
 5463SOL    HW117288   0.752   3.155   6.589
 5463SOL    HW217289   0.766   3.289   6.496
 5464SOL     OW17290   7.007   6.264   5.641
 5464SOL    HW117291   7.000   6.270   5.542
 5464SOL    HW217292   6.942   6.197   5.676
 5465SOL     OW17293   6.770   5.833   3.879
 5465SOL    HW117294   6.869   5.839   3.867
 5465SOL    HW217295   6.748   5.831   3.976
 5466SOL     OW17296   6.074   2.625   6.034
 5466SOL    HW117297   6.105   2.605   6.127
 5466SOL    HW217298   5.992   2.682   6.037
 5467SOL     OW17299   5.446   3.377   3.757
 5467SOL    HW117300   5.495   3.436   3.692
 5467SOL    HW217301   5.411   3.433   3.832
 5468SOL     OW17302   0.711   1.367   1.506
 5468SOL    HW117303   0.704   1.461   1.540
 5468SOL    HW217304   0.781   1.363   1.435
 5469SOL     OW17305   2.849   0.512   5.154
 5469SOL    HW117306   2.763   0.472   5.123
 5469SOL    HW217307   2.843   0.530   5.253
 5470SOL     OW17308   3.940   5.423   4.465
 5470SOL    HW117309   3.998   5.346   4.492
 5470SOL    HW217310   3.845   5.403   4.488
 5471SOL     OW17311   4.622   0.656   2.954
 5471SOL    HW117312   4.548   0.723   2.954
 5471SOL    HW217313   4.691   0.683   3.021
 5472SOL     OW17314   2.407   2.258   6.828
 5472SOL    HW117315   2.360   2.191   6.771
 5472SOL    HW217316   2.447   2.329   6.770
 5473SOL     OW17317   2.779   3.880   0.994
 5473SOL    HW117318   2.790   3.881   1.094
 5473SOL    HW217319   2.857   3.926   0.951
 5474SOL     OW17320   0.336   5.277   3.727
 5474SOL    HW117321   0.434   5.295   3.719
 5474SOL    HW217322   0.296   5.343   3.791
 5475SOL     OW17323   6.519   1.944   5.107
 5475SOL    HW117324   6.540   1.849   5.087
 5475SOL    HW217325   6.563   1.971   5.193
 5476SOL     OW17326   2.480   6.670   6.327
 5476SOL    HW117327   2.476   6.756   6.275
 5476SOL    HW217328   2.390   6.626   6.325
 5477SOL     OW17329   2.072   4.651   3.902
 5477SOL    HW117330   2.090   4.747   3.878
 5477SOL    HW217331   1.988   4.621   3.856
 5478SOL     OW17332   5.562   4.960   5.916
 5478SOL    HW117333   5.520   4.971   5.826
 5478SOL    HW217334   5.582   4.863   5.932
 5479SOL     OW17335   3.625   1.734   5.074
 5479SOL    HW117336   3.554   1.668   5.051
 5479SOL    HW217337   3.714   1.700   5.045
 5480SOL     OW17338   6.726   3.630   4.477
 5480SOL    HW117339   6.668   3.675   4.545
 5480SOL    HW217340   6.787   3.566   4.522
 5481SOL     OW17341   4.549   1.200   6.689
 5481SOL    HW117342   4.647   1.220   6.692
 5481SOL    HW217343   4.534   1.106   6.721
 5482SOL     OW17344   4.731   3.131   1.237
 5482SOL    HW117345   4.713   3.138   1.335
 5482SOL    HW217346   4.811   3.073   1.222
 5483SOL     OW17347   0.039   3.405   5.874
 5483SOL    HW117348   0.075   3.498   5.885
 5483SOL    HW217349   7.024   3.375   5.960
 5484SOL     OW17350   6.615   6.369   4.111
 5484SOL    HW117351   6.573   6.431   4.045
 5484SOL    HW217352   6.632   6.281   4.068
 5485SOL     OW17353   3.707   6.858   5.582
 5485SOL    HW117354   3.650   6.806   5.645
 5485SOL    HW217355   3.666   6.948   5.567
 5486SOL     OW17356   0.992   1.081   3.072
 5486SOL    HW117357   0.943   1.138   3.006
 5486SOL    HW217358   1.087   1.071   3.043
 5487SOL     OW17359   6.271   4.542   0.398
 5487SOL    HW117360   6.330   4.622   0.401
 5487SOL    HW217361   6.187   4.564   0.349
 5488SOL     OW17362   5.237   1.982   6.282
 5488SOL    HW117363   5.240   2.032   6.369
 5488SOL    HW217364   5.302   2.022   6.218
 5489SOL     OW17365   1.694   4.390   2.944
 5489SOL    HW117366   1.766   4.366   3.009
 5489SOL    HW217367   1.690   4.489   2.933
 5490SOL     OW17368   2.435   1.504   0.881
 5490SOL    HW117369   2.414   1.413   0.917
 5490SOL    HW217370   2.526   1.503   0.841
 5491SOL     OW17371   1.517   5.115   0.733
 5491SOL    HW117372   1.538   5.043   0.667
 5491SOL    HW217373   1.601   5.142   0.781
 5492SOL     OW17374   0.864   1.790   6.454
 5492SOL    HW117375   0.890   1.878   6.413
 5492SOL    HW217376   0.778   1.801   6.503
 5493SOL     OW17377   3.600   3.003   6.449
 5493SOL    HW117378   3.664   3.072   6.415
 5493SOL    HW217379   3.561   3.035   6.536
 5494SOL     OW17380   6.097   3.572   1.438
 5494SOL    HW117381   6.032   3.498   1.454
 5494SOL    HW217382   6.051   3.660   1.453
 5495SOL     OW17383   4.058   3.262   2.763
 5495SOL    HW117384   4.086   3.260   2.859
 5495SOL    HW217385   3.986   3.194   2.748
 5496SOL     OW17386   3.549   5.720   1.775
 5496SOL    HW117387   3.602   5.704   1.858
 5496SOL    HW217388   3.608   5.709   1.695
 5497SOL     OW17389   6.849   1.142   2.585
 5497SOL    HW117390   6.941   1.176   2.603
 5497SOL    HW217391   6.849   1.042   2.588
 5498SOL     OW17392   4.498   1.700   5.982
 5498SOL    HW117393   4.440   1.678   6.061
 5498SOL    HW217394   4.446   1.757   5.918
 5499SOL     OW17395   6.751   1.719   3.057
 5499SOL    HW117396   6.692   1.793   3.089
 5499SOL    HW217397   6.723   1.690   2.966
 5500SOL     OW17398   2.076   6.353   0.432
 5500SOL    HW117399   2.131   6.296   0.370
 5500SOL    HW217400   1.985   6.311   0.442
 5501SOL     OW17401   2.808   0.112   2.336
 5501SOL    HW117402   2.828   0.014   2.338
 5501SOL    HW217403   2.721   0.128   2.289
 5502SOL     OW17404   6.434   4.061   5.809
 5502SOL    HW117405   6.370   4.080   5.883
 5502SOL    HW217406   6.420   3.967   5.776
 5503SOL     OW17407   1.179   4.603   3.199
 5503SOL    HW117408   1.222   4.523   3.240
 5503SOL    HW217409   1.242   4.681   3.203
 5504SOL     OW17410   3.547   1.691   4.741
 5504SOL    HW117411   3.542   1.599   4.780
 5504SOL    HW217412   3.502   1.756   4.803
 5505SOL     OW17413   3.392   5.492   5.271
 5505SOL    HW117414   3.414   5.558   5.199
 5505SOL    HW217415   3.349   5.539   5.348
 5506SOL     OW17416   6.276   0.634   5.320
 5506SOL    HW117417   6.361   0.588   5.292
 5506SOL    HW217418   6.243   0.690   5.244
 5507SOL     OW17419   2.866   6.775   3.910
 5507SOL    HW117420   2.796   6.771   3.838
 5507SOL    HW217421   2.892   6.870   3.926
 5508SOL     OW17422   2.542   0.346   6.643
 5508SOL    HW117423   2.640   0.341   6.664
 5508SOL    HW217424   2.517   0.441   6.624
 5509SOL     OW17425   5.861   6.855   0.387
 5509SOL    HW117426   5.896   6.782   0.327
 5509SOL    HW217427   5.892   6.943   0.351
 5510SOL     OW17428   4.810   0.612   5.692
 5510SOL    HW117429   4.846   0.586   5.781
 5510SOL    HW217430   4.876   0.585   5.621
 5511SOL     OW17431   0.470   0.682   2.366
 5511SOL    HW117432   0.401   0.610   2.373
 5511SOL    HW217433   0.560   0.645   2.392
 5512SOL     OW17434   1.348   1.205   6.838
 5512SOL    HW117435   1.292   1.195   6.756
 5512SOL    HW217436   1.443   1.185   6.816
 5513SOL     OW17437   4.737   4.168   4.385
 5513SOL    HW117438   4.723   4.169   4.484
 5513SOL    HW217439   4.777   4.080   4.357
 5514SOL     OW17440   5.184   4.810   2.419
 5514SOL    HW117441   5.114   4.787   2.352
 5514SOL    HW217442   5.167   4.761   2.504
 5515SOL     OW17443   6.632   2.236   1.991
 5515SOL    HW117444   6.661   2.269   1.902
 5515SOL    HW217445   6.650   2.306   2.060
 5516SOL     OW17446   1.320   3.951   6.710
 5516SOL    HW117447   1.297   3.939   6.614
 5516SOL    HW217448   1.247   3.915   6.767
 5517SOL     OW17449   2.923   1.735   1.109
 5517SOL    HW117450   2.862   1.808   1.081
 5517SOL    HW217451   2.945   1.678   1.030
 5518SOL     OW17452   5.882   4.946   5.682
 5518SOL    HW117453   5.782   4.950   5.685
 5518SOL    HW217454   5.919   5.038   5.700
 5519SOL     OW17455   5.746   3.627   3.937
 5519SOL    HW117456   5.827   3.568   3.943
 5519SOL    HW217457   5.774   3.721   3.919
 5520SOL     OW17458   1.035   3.955   2.125
 5520SOL    HW117459   1.094   3.877   2.104
 5520SOL    HW217460   1.035   4.018   2.048
 5521SOL     OW17461   5.705   6.356   1.376
 5521SOL    HW117462   5.719   6.430   1.441
 5521SOL    HW217463   5.789   6.339   1.325
 5522SOL     OW17464   2.623   3.427   1.726
 5522SOL    HW117465   2.647   3.514   1.684
 5522SOL    HW217466   2.537   3.437   1.777
 5523SOL     OW17467   3.033   6.979   2.756
 5523SOL    HW117468   3.089   7.009   2.834
 5523SOL    HW217469   3.074   7.012   2.671
 5524SOL     OW17470   0.772   4.804   5.351
 5524SOL    HW117471   0.825   4.842   5.275
 5524SOL    HW217472   0.821   4.819   5.437
 5525SOL     OW17473   6.714   5.219   6.541
 5525SOL    HW117474   6.716   5.316   6.518
 5525SOL    HW217475   6.804   5.179   6.525
 5526SOL     OW17476   5.955   3.270   3.472
 5526SOL    HW117477   5.952   3.187   3.528
 5526SOL    HW217478   6.021   3.334   3.511
 5527SOL     OW17479   1.524   2.828   1.641
 5527SOL    HW117480   1.590   2.771   1.593
 5527SOL    HW217481   1.481   2.776   1.714
 5528SOL     OW17482   0.380   2.502   4.609
 5528SOL    HW117483   0.352   2.592   4.644
 5528SOL    HW217484   0.303   2.460   4.560
 5529SOL     OW17485   2.431   0.854   4.486
 5529SOL    HW117486   2.365   0.848   4.561
 5529SOL    HW217487   2.520   0.883   4.521
 5530SOL     OW17488   0.328   2.000   0.499
 5530SOL    HW117489   0.388   2.000   0.419
 5530SOL    HW217490   0.376   1.957   0.576
 5531SOL     OW17491   4.105   3.016   5.274
 5531SOL    HW117492   4.013   2.978   5.264
 5531SOL    HW217493   4.099   3.113   5.295
 5532SOL     OW17494   2.104   1.777   0.615
 5532SOL    HW117495   2.166   1.711   0.658
 5532SOL    HW217496   2.105   1.764   0.516
 5533SOL     OW17497   3.572   0.590   2.083
 5533SOL    HW117498   3.489   0.552   2.042
 5533SOL    HW217499   3.567   0.690   2.084
 5534SOL     OW17500   1.068   3.774   6.441
 5534SOL    HW117501   1.012   3.723   6.506
 5534SOL    HW217502   1.161   3.736   6.441
 5535SOL     OW17503   6.338   3.020   3.115
 5535SOL    HW117504   6.263   2.953   3.111
 5535SOL    HW217505   6.365   3.045   3.022
 5536SOL     OW17506   2.470   0.591   4.347
 5536SOL    HW117507   2.484   0.665   4.413
 5536SOL    HW217508   2.506   0.506   4.385
 5537SOL     OW17509   3.822   0.453   4.990
 5537SOL    HW117510   3.910   0.494   5.012
 5537SOL    HW217511   3.795   0.390   5.062
 5538SOL     OW17512   3.604   1.350   5.990
 5538SOL    HW117513   3.538   1.425   5.985
 5538SOL    HW217514   3.646   1.349   6.080
 5539SOL     OW17515   1.391   0.721   1.993
 5539SOL    HW117516   1.473   0.770   1.963
 5539SOL    HW217517   1.363   0.754   2.083
 5540SOL     OW17518   5.293   2.974   0.507
 5540SOL    HW117519   5.223   3.004   0.443
 5540SOL    HW217520   5.267   3.001   0.600
 5541SOL     OW17521   5.031   3.631   6.029
 5541SOL    HW117522   5.127   3.632   6.001
 5541SOL    HW217523   4.973   3.614   5.949
 5542SOL     OW17524   5.262   4.891   6.450
 5542SOL    HW117525   5.281   4.804   6.405
 5542SOL    HW217526   5.223   4.955   6.384
 5543SOL     OW17527   1.867   6.477   0.188
 5543SOL    HW117528   1.875   6.555   0.250
 5543SOL    HW217529   1.948   6.472   0.130
 5544SOL     OW17530   4.606   4.890   6.039
 5544SOL    HW117531   4.598   4.801   6.083
 5544SOL    HW217532   4.627   4.878   5.942
 5545SOL     OW17533   4.257   1.338   2.764
 5545SOL    HW117534   4.209   1.408   2.817
 5545SOL    HW217535   4.242   1.353   2.667
 5546SOL     OW17536   0.838   6.183   5.104
 5546SOL    HW117537   0.766   6.141   5.048
 5546SOL    HW217538   0.923   6.131   5.093
 5547SOL     OW17539   5.050   2.015   5.513
 5547SOL    HW117540   5.118   1.958   5.468
 5547SOL    HW217541   4.961   1.971   5.509
 5548SOL     OW17542   0.015   3.806   5.508
 5548SOL    HW117543   7.020   3.867   5.432
 5548SOL    HW217544   0.017   3.711   5.475
 5549SOL     OW17545   4.092   3.535   1.938
 5549SOL    HW117546   4.015   3.600   1.935
 5549SOL    HW217547   4.146   3.545   1.855
 5550SOL     OW17548   2.397   4.392   2.715
 5550SOL    HW117549   2.354   4.303   2.694
 5550SOL    HW217550   2.434   4.390   2.808
 5551SOL     OW17551   1.844   5.234   2.859
 5551SOL    HW117552   1.760   5.182   2.871
 5551SOL    HW217553   1.923   5.173   2.873
 5552SOL     OW17554   6.406   6.922   6.069
 5552SOL    HW117555   6.355   6.927   5.984
 5552SOL    HW217556   6.480   6.989   6.068
 5553SOL     OW17557   4.159   0.309   6.981
 5553SOL    HW117558   4.160   0.397   0.004
 5553SOL    HW217559   4.117   0.320   6.892
 5554SOL     OW17560   4.907   3.062   1.518
 5554SOL    HW117561   4.893   3.152   1.560
 5554SOL    HW217562   4.865   2.992   1.575
 5555SOL     OW17563   0.877   4.027   3.066
 5555SOL    HW117564   0.799   4.081   3.036
 5555SOL    HW217565   0.956   4.045   3.006
 5556SOL     OW17566   6.131   1.199   4.393
 5556SOL    HW117567   6.143   1.241   4.303
 5556SOL    HW217568   6.190   1.119   4.401
 5557SOL     OW17569   3.193   5.790   1.484
 5557SOL    HW117570   3.193   5.882   1.444
 5557SOL    HW217571   3.247   5.791   1.569
 5558SOL     OW17572   3.438   4.191   0.802
 5558SOL    HW117573   3.509   4.147   0.857
 5558SOL    HW217574   3.466   4.284   0.780
 5559SOL     OW17575   1.084   0.276   2.535
 5559SOL    HW117576   1.084   0.254   2.437
 5559SOL    HW217577   1.073   0.191   2.588
 5560SOL     OW17578   6.494   5.847   3.009
 5560SOL    HW117579   6.406   5.853   3.056
 5560SOL    HW217580   6.552   5.923   3.037
 5561SOL     OW17581   2.984   0.631   4.819
 5561SOL    HW117582   2.988   0.695   4.743
 5561SOL    HW217583   2.903   0.572   4.809
 5562SOL     OW17584   4.529   4.320   0.049
 5562SOL    HW117585   4.505   4.253   0.119
 5562SOL    HW217586   4.526   4.412   0.088
 5563SOL     OW17587   3.058   5.121   2.813
 5563SOL    HW117588   3.002   5.043   2.786
 5563SOL    HW217589   3.095   5.106   2.905
 5564SOL     OW17590   4.877   6.901   6.500
 5564SOL    HW117591   4.806   6.852   6.449
 5564SOL    HW217592   4.839   6.933   6.587
 5565SOL     OW17593   4.251   3.392   0.368
 5565SOL    HW117594   4.230   3.452   0.445
 5565SOL    HW217595   4.312   3.439   0.304
 5566SOL     OW17596   1.674   4.305   1.037
 5566SOL    HW117597   1.623   4.245   1.098
 5566SOL    HW217598   1.712   4.252   0.961
 5567SOL     OW17599   6.765   3.673   2.012
 5567SOL    HW117600   6.808   3.641   2.097
 5567SOL    HW217601   6.791   3.768   1.995
 5568SOL     OW17602   4.541   7.020   3.125
 5568SOL    HW117603   4.602   7.005   3.047
 5568SOL    HW217604   4.450   0.021   3.092
 5569SOL     OW17605   2.299   1.811   3.088
 5569SOL    HW117606   2.233   1.809   3.163
 5569SOL    HW217607   2.362   1.734   3.096
 5570SOL     OW17608   6.031   3.534   3.271
 5570SOL    HW117609   5.998   3.452   3.225
 5570SOL    HW217610   6.131   3.534   3.272
 5571SOL     OW17611   6.965   4.980   2.309
 5571SOL    HW117612   6.957   5.073   2.273
 5571SOL    HW217613   0.013   4.977   2.377
 5572SOL     OW17614   1.867   4.591   4.924
 5572SOL    HW117615   1.930   4.564   4.997
 5572SOL    HW217616   1.859   4.517   4.857
 5573SOL     OW17617   1.473   5.273   5.253
 5573SOL    HW117618   1.464   5.228   5.342
 5573SOL    HW217619   1.413   5.228   5.187
 5574SOL     OW17620   0.388   2.843   6.761
 5574SOL    HW117621   0.480   2.877   6.742
 5574SOL    HW217622   0.394   2.765   6.824
 5575SOL     OW17623   0.387   0.069   1.101
 5575SOL    HW117624   0.427   7.007   1.074
 5575SOL    HW217625   0.313   0.092   1.038
 5576SOL     OW17626   1.732   4.108   2.847
 5576SOL    HW117627   1.694   4.198   2.869
 5576SOL    HW217628   1.659   4.041   2.843
 5577SOL     OW17629   2.396   3.128   0.615
 5577SOL    HW117630   2.419   3.066   0.539
 5577SOL    HW217631   2.365   3.215   0.578
 5578SOL     OW17632   4.002   3.842   2.558
 5578SOL    HW117633   4.026   3.892   2.642
 5578SOL    HW217634   3.963   3.753   2.583
 5579SOL     OW17635   0.534   3.567   1.123
 5579SOL    HW117636   0.541   3.467   1.126
 5579SOL    HW217637   0.457   3.593   1.064
 5580SOL     OW17638   4.538   2.163   6.080
 5580SOL    HW117639   4.440   2.150   6.069
 5580SOL    HW217640   4.556   2.211   6.167
 5581SOL     OW17641   0.961   1.460   1.369
 5581SOL    HW117642   1.024   1.538   1.361
 5581SOL    HW217643   1.006   1.385   1.417
 5582SOL     OW17644   2.724   4.273   6.829
 5582SOL    HW117645   2.758   4.317   6.912
 5582SOL    HW217646   2.780   4.192   6.810
 5583SOL     OW17647   4.056   0.861   2.441
 5583SOL    HW117648   3.990   0.823   2.506
 5583SOL    HW217649   4.144   0.816   2.454
 5584SOL     OW17650   6.282   3.486   4.116
 5584SOL    HW117651   6.319   3.491   4.209
 5584SOL    HW217652   6.345   3.534   4.054
 5585SOL     OW17653   4.719   5.262   3.477
 5585SOL    HW117654   4.802   5.317   3.483
 5585SOL    HW217655   4.740   5.166   3.492
 5586SOL     OW17656   6.645   3.668   5.613
 5586SOL    HW117657   6.684   3.646   5.523
 5586SOL    HW217658   6.651   3.766   5.629
 5587SOL     OW17659   4.351   0.028   0.800
 5587SOL    HW117660   4.336   0.094   0.874
 5587SOL    HW217661   4.449   0.025   0.777
 5588SOL     OW17662   2.814   6.496   2.809
 5588SOL    HW117663   2.860   6.566   2.754
 5588SOL    HW217664   2.731   6.536   2.850
 5589SOL     OW17665   6.142   4.540   6.768
 5589SOL    HW117666   6.207   4.482   6.719
 5589SOL    HW217667   6.115   4.495   6.853
 5590SOL     OW17668   6.015   6.389   3.699
 5590SOL    HW117669   5.932   6.337   3.678
 5590SOL    HW217670   6.065   6.344   3.772
 5591SOL     OW17671   0.572   1.493   1.073
 5591SOL    HW117672   0.561   1.569   1.136
 5591SOL    HW217673   0.483   1.451   1.056
 5592SOL     OW17674   1.718   5.460   3.846
 5592SOL    HW117675   1.725   5.494   3.752
 5592SOL    HW217676   1.798   5.488   3.898
 5593SOL     OW17677   0.249   2.573   6.583
 5593SOL    HW117678   0.296   2.491   6.549
 5593SOL    HW217679   0.260   2.648   6.518
 5594SOL     OW17680   4.925   0.586   4.747
 5594SOL    HW117681   4.837   0.570   4.702
 5594SOL    HW217682   4.918   0.668   4.804
 5595SOL     OW17683   0.982   1.564   4.705
 5595SOL    HW117684   1.075   1.555   4.740
 5595SOL    HW217685   0.964   1.660   4.685
 5596SOL     OW17686   4.611   6.670   2.590
 5596SOL    HW117687   4.618   6.573   2.563
 5596SOL    HW217688   4.623   6.678   2.689
 5597SOL     OW17689   4.769   2.340   4.469
 5597SOL    HW117690   4.823   2.422   4.453
 5597SOL    HW217691   4.778   2.312   4.565
 5598SOL     OW17692   4.907   3.477   4.353
 5598SOL    HW117693   4.896   3.525   4.266
 5598SOL    HW217694   4.886   3.380   4.341
 5599SOL     OW17695   1.084   0.959   3.983
 5599SOL    HW117696   1.146   1.027   3.943
 5599SOL    HW217697   1.132   0.871   3.992
 5600SOL     OW17698   0.389   1.443   2.538
 5600SOL    HW117699   0.410   1.364   2.597
 5600SOL    HW217700   0.292   1.464   2.544
 5601SOL     OW17701   2.959   0.207   5.997
 5601SOL    HW117702   2.898   0.259   5.937
 5601SOL    HW217703   3.017   0.269   6.050
 5602SOL     OW17704   0.464   1.395   0.320
 5602SOL    HW117705   0.525   1.358   0.390
 5602SOL    HW217706   0.399   1.458   0.362
 5603SOL     OW17707   5.160   2.562   6.384
 5603SOL    HW117708   5.149   2.621   6.304
 5603SOL    HW217709   5.240   2.504   6.372
 5604SOL     OW17710   6.291   1.902   5.337
 5604SOL    HW117711   6.200   1.942   5.346
 5604SOL    HW217712   6.359   1.967   5.370
 5605SOL     OW17713   0.781   0.824   4.591
 5605SOL    HW117714   0.809   0.787   4.503
 5605SOL    HW217715   0.767   0.923   4.583
 5606SOL     OW17716   5.214   0.023   0.979
 5606SOL    HW117717   5.172   7.012   0.897
 5606SOL    HW217718   5.160   7.022   1.059
 5607SOL     OW17719   5.800   0.446   2.762
 5607SOL    HW117720   5.706   0.426   2.788
 5607SOL    HW217721   5.824   0.394   2.680
 5608SOL     OW17722   4.686   0.131   5.129
 5608SOL    HW117723   4.666   0.220   5.088
 5608SOL    HW217724   4.781   0.106   5.111
 5609SOL     OW17725   2.410   4.841   0.691
 5609SOL    HW117726   2.394   4.758   0.746
 5609SOL    HW217727   2.503   4.838   0.655
 5610SOL     OW17728   4.612   6.806   0.566
 5610SOL    HW117729   4.608   6.891   0.618
 5610SOL    HW217730   4.563   6.818   0.480
 5611SOL     OW17731   1.515   5.250   2.531
 5611SOL    HW117732   1.445   5.266   2.600
 5611SOL    HW217733   1.474   5.211   2.449
 5612SOL     OW17734   4.010   2.165   6.705
 5612SOL    HW117735   4.063   2.186   6.787
 5612SOL    HW217736   4.035   2.074   6.671
 5613SOL     OW17737   5.211   3.810   3.175
 5613SOL    HW117738   5.253   3.901   3.182
 5613SOL    HW217739   5.241   3.766   3.091
 5614SOL     OW17740   4.385   2.401   4.237
 5614SOL    HW117741   4.318   2.430   4.169
 5614SOL    HW217742   4.469   2.372   4.190
 5615SOL     OW17743   0.758   0.895   5.569
 5615SOL    HW117744   0.782   0.805   5.605
 5615SOL    HW217745   0.711   0.883   5.481
 5616SOL     OW17746   2.243   1.309   5.212
 5616SOL    HW117747   2.182   1.238   5.246
 5616SOL    HW217748   2.335   1.295   5.250
 5617SOL     OW17749   2.220   6.618   6.291
 5617SOL    HW117750   2.163   6.693   6.257
 5617SOL    HW217751   2.205   6.607   6.389
 5618SOL     OW17752   6.184   3.425   3.533
 5618SOL    HW117753   6.187   3.518   3.571
 5618SOL    HW217754   6.215   3.428   3.438
 5619SOL     OW17755   2.983   3.917   6.421
 5619SOL    HW117756   3.029   3.990   6.369
 5619SOL    HW217757   2.890   3.946   6.443
 5620SOL     OW17758   3.803   3.557   0.920
 5620SOL    HW117759   3.712   3.591   0.945
 5620SOL    HW217760   3.861   3.556   1.002
 5621SOL     OW17761   1.136   2.382   5.806
 5621SOL    HW117762   1.226   2.416   5.778
 5621SOL    HW217763   1.066   2.449   5.782
 5622SOL     OW17764   4.422   0.241   5.780
 5622SOL    HW117765   4.477   0.317   5.747
 5622SOL    HW217766   4.415   0.246   5.880
 5623SOL     OW17767   2.345   6.014   6.222
 5623SOL    HW117768   2.304   6.098   6.257
 5623SOL    HW217769   2.314   5.997   6.129
 5624SOL     OW17770   1.016   4.469   3.467
 5624SOL    HW117771   1.114   4.478   3.450
 5624SOL    HW217772   0.965   4.490   3.383
 5625SOL     OW17773   5.774   2.013   4.246
 5625SOL    HW117774   5.738   2.011   4.152
 5625SOL    HW217775   5.869   1.984   4.245
 5626SOL     OW17776   2.798   6.965   4.847
 5626SOL    HW117777   2.859   6.964   4.769
 5626SOL    HW217778   2.763   6.872   4.863
 5627SOL     OW17779   0.985   5.876   0.134
 5627SOL    HW117780   1.006   5.974   0.144
 5627SOL    HW217781   1.027   5.842   0.050
 5628SOL     OW17782   1.491   3.168   5.542
 5628SOL    HW117783   1.500   3.267   5.545
 5628SOL    HW217784   1.529   3.128   5.626
 5629SOL     OW17785   3.313   3.703   2.269
 5629SOL    HW117786   3.380   3.771   2.238
 5629SOL    HW217787   3.295   3.638   2.195
 5630SOL     OW17788   1.281   4.793   0.352
 5630SOL    HW117789   1.291   4.710   0.406
 5630SOL    HW217790   1.347   4.792   0.276
 5631SOL     OW17791   4.340   1.733   6.794
 5631SOL    HW117792   4.437   1.747   6.814
 5631SOL    HW217793   4.302   1.668   6.860
 5632SOL     OW17794   4.090   2.466   5.986
 5632SOL    HW117795   4.043   2.553   5.999
 5632SOL    HW217796   4.142   2.443   6.068
 5633SOL     OW17797   5.867   2.496   4.014
 5633SOL    HW117798   5.897   2.576   4.066
 5633SOL    HW217799   5.930   2.420   4.030
 5634SOL     OW17800   2.199   6.124   5.194
 5634SOL    HW117801   2.111   6.084   5.170
 5634SOL    HW217802   2.222   6.101   5.289
 5635SOL     OW17803   2.265   3.860   5.337
 5635SOL    HW117804   2.343   3.805   5.366
 5635SOL    HW217805   2.278   3.890   5.242
 5636SOL     OW17806   3.332   6.176   2.306
 5636SOL    HW117807   3.277   6.234   2.366
 5636SOL    HW217808   3.422   6.219   2.293
 5637SOL     OW17809   5.104   0.414   3.964
 5637SOL    HW117810   5.026   0.399   4.025
 5637SOL    HW217811   5.186   0.433   4.019
 5638SOL     OW17812   5.457   3.645   1.625
 5638SOL    HW117813   5.557   3.640   1.621
 5638SOL    HW217814   5.427   3.739   1.610
 5639SOL     OW17815   0.599   0.619   0.309
 5639SOL    HW117816   0.569   0.619   0.213
 5639SOL    HW217817   0.644   0.706   0.330
 5640SOL     OW17818   2.961   0.764   4.037
 5640SOL    HW117819   2.990   0.762   3.941
 5640SOL    HW217820   2.909   0.848   4.054
 5641SOL     OW17821   0.769   4.775   5.699
 5641SOL    HW117822   0.684   4.822   5.678
 5641SOL    HW217823   0.760   4.678   5.678
 5642SOL     OW17824   2.182   6.436   6.798
 5642SOL    HW117825   2.277   6.451   6.823
 5642SOL    HW217826   2.123   6.454   6.877
 5643SOL     OW17827   4.585   1.376   4.967
 5643SOL    HW117828   4.597   1.435   4.887
 5643SOL    HW217829   4.628   1.417   5.047
 5644SOL     OW17830   3.065   6.782   5.310
 5644SOL    HW117831   3.049   6.771   5.408
 5644SOL    HW217832   2.979   6.799   5.263
 5645SOL     OW17833   6.219   3.659   3.683
 5645SOL    HW117834   6.314   3.629   3.673
 5645SOL    HW217835   6.217   3.749   3.726
 5646SOL     OW17836   2.150   5.181   2.956
 5646SOL    HW117837   2.224   5.244   2.981
 5646SOL    HW217838   2.114   5.139   3.040
 5647SOL     OW17839   5.521   6.182   1.742
 5647SOL    HW117840   5.527   6.169   1.643
 5647SOL    HW217841   5.571   6.264   1.768
 5648SOL     OW17842   2.553   5.730   3.043
 5648SOL    HW117843   2.611   5.718   2.963
 5648SOL    HW217844   2.578   5.815   3.090
 5649SOL     OW17845   0.884   6.763   4.173
 5649SOL    HW117846   0.786   6.772   4.153
 5649SOL    HW217847   0.937   6.810   4.102
 5650SOL     OW17848   0.684   4.627   0.567
 5650SOL    HW117849   0.708   4.721   0.588
 5650SOL    HW217850   0.676   4.575   0.652
 5651SOL     OW17851   1.889   0.950   0.574
 5651SOL    HW117852   1.948   0.931   0.496
 5651SOL    HW217853   1.804   0.899   0.564
 5652SOL     OW17854   0.113   5.558   1.775
 5652SOL    HW117855   0.037   5.523   1.721
 5652SOL    HW217856   0.115   5.512   1.863
 5653SOL     OW17857   0.428   6.154   0.306
 5653SOL    HW117858   0.358   6.123   0.371
 5653SOL    HW217859   0.438   6.254   0.313
 5654SOL     OW17860   1.160   5.442   4.372
 5654SOL    HW117861   1.074   5.392   4.387
 5654SOL    HW217862   1.230   5.379   4.341
 5655SOL     OW17863   6.456   2.380   3.923
 5655SOL    HW117864   6.395   2.429   3.986
 5655SOL    HW217865   6.402   2.315   3.870
 5656SOL     OW17866   6.695   3.508   6.289
 5656SOL    HW117867   6.622   3.447   6.257
 5656SOL    HW217868   6.703   3.501   6.388
 5657SOL     OW17869   4.630   4.293   5.086
 5657SOL    HW117870   4.720   4.290   5.043
 5657SOL    HW217871   4.583   4.206   5.074
 5658SOL     OW17872   2.608   3.125   6.228
 5658SOL    HW117873   2.657   3.197   6.178
 5658SOL    HW217874   2.653   3.037   6.214
 5659SOL     OW17875   3.555   3.758   5.935
 5659SOL    HW117876   3.577   3.796   6.024
 5659SOL    HW217877   3.545   3.659   5.942
 5660SOL     OW17878   4.355   0.251   6.631
 5660SOL    HW117879   4.424   0.306   6.678
 5660SOL    HW217880   4.354   0.159   6.671
 5661SOL     OW17881   1.076   5.421   6.059
 5661SOL    HW117882   1.029   5.508   6.075
 5661SOL    HW217883   1.166   5.423   6.102
 5662SOL     OW17884   2.436   6.885   2.735
 5662SOL    HW117885   2.406   6.793   2.713
 5662SOL    HW217886   2.495   6.920   2.662
 5663SOL     OW17887   1.469   2.826   0.872
 5663SOL    HW117888   1.521   2.792   0.950
 5663SOL    HW217889   1.488   2.769   0.792
 5664SOL     OW17890   5.502   4.109   4.586
 5664SOL    HW117891   5.602   4.105   4.586
 5664SOL    HW217892   5.465   4.028   4.540
 5665SOL     OW17893   1.457   6.176   0.167
 5665SOL    HW117894   1.549   6.165   0.131
 5665SOL    HW217895   1.435   6.099   0.227
 5666SOL     OW17896   6.418   0.954   3.680
 5666SOL    HW117897   6.328   0.923   3.647
 5666SOL    HW217898   6.466   0.877   3.722
 5667SOL     OW17899   1.544   4.743   3.932
 5667SOL    HW117900   1.488   4.702   3.861
 5667SOL    HW217901   1.620   4.793   3.890
 5668SOL     OW17902   6.264   2.811   2.521
 5668SOL    HW117903   6.272   2.759   2.606
 5668SOL    HW217904   6.168   2.830   2.503
 5669SOL     OW17905   6.449   4.560   0.113
 5669SOL    HW117906   6.391   4.482   0.137
 5669SOL    HW217907   6.539   4.550   0.157
 5670SOL     OW17908   1.546   3.677   3.040
 5670SOL    HW117909   1.512   3.716   3.125
 5670SOL    HW217910   1.621   3.615   3.059
 5671SOL     OW17911   5.942   5.455   4.500
 5671SOL    HW117912   5.995   5.499   4.428
 5671SOL    HW217913   5.852   5.498   4.508
 5672SOL     OW17914   4.621   4.030   5.641
 5672SOL    HW117915   4.695   3.990   5.695
 5672SOL    HW217916   4.551   4.066   5.703
 5673SOL     OW17917   0.586   6.813   1.425
 5673SOL    HW117918   0.570   6.906   1.457
 5673SOL    HW217919   0.652   6.768   1.486
 5674SOL     OW17920   2.107   4.771   4.657
 5674SOL    HW117921   2.140   4.704   4.591
 5674SOL    HW217922   2.142   4.750   4.748
 5675SOL     OW17923   3.753   1.389   0.423
 5675SOL    HW117924   3.776   1.449   0.346
 5675SOL    HW217925   3.739   1.296   0.389
 5676SOL     OW17926   2.707   2.186   1.966
 5676SOL    HW117927   2.791   2.240   1.980
 5676SOL    HW217928   2.631   2.248   1.947
 5677SOL     OW17929   6.843   0.732   0.669
 5677SOL    HW117930   6.838   0.640   0.708
 5677SOL    HW217931   6.807   0.730   0.576
 5678SOL     OW17932   3.779   1.271   2.219
 5678SOL    HW117933   3.807   1.350   2.273
 5678SOL    HW217934   3.846   1.197   2.231
 5679SOL     OW17935   6.095   2.113   4.752
 5679SOL    HW117936   6.148   2.040   4.796
 5679SOL    HW217937   6.040   2.160   4.820
 5680SOL     OW17938   1.721   4.757   5.492
 5680SOL    HW117939   1.686   4.742   5.585
 5680SOL    HW217940   1.653   4.725   5.426
 5681SOL     OW17941   0.464   3.959   3.070
 5681SOL    HW117942   0.557   3.923   3.082
 5681SOL    HW217943   0.433   3.942   2.977
 5682SOL     OW17944   2.982   5.749   3.248
 5682SOL    HW117945   2.988   5.823   3.182
 5682SOL    HW217946   2.953   5.665   3.203
 5683SOL     OW17947   4.160   2.727   6.808
 5683SOL    HW117948   4.127   2.639   6.774
 5683SOL    HW217949   4.235   2.759   6.750
 5684SOL     OW17950   2.392   4.130   6.289
 5684SOL    HW117951   2.374   4.170   6.199
 5684SOL    HW217952   2.411   4.032   6.280
 5685SOL     OW17953   1.757   2.314   3.959
 5685SOL    HW117954   1.764   2.325   3.860
 5685SOL    HW217955   1.777   2.401   4.004
 5686SOL     OW17956   3.123   1.447   5.990
 5686SOL    HW117957   3.029   1.414   5.987
 5686SOL    HW217958   3.168   1.429   5.902
 5687SOL     OW17959   0.385   6.157   5.547
 5687SOL    HW117960   0.336   6.234   5.587
 5687SOL    HW217961   0.330   6.116   5.474
 5688SOL     OW17962   2.297   2.767   3.502
 5688SOL    HW117963   2.353   2.686   3.521
 5688SOL    HW217964   2.253   2.798   3.586
 5689SOL     OW17965   2.190   0.620   1.868
 5689SOL    HW117966   2.231   0.653   1.953
 5689SOL    HW217967   2.116   0.681   1.840
 5690SOL     OW17968   0.517   5.293   6.726
 5690SOL    HW117969   0.546   5.215   6.782
 5690SOL    HW217970   0.513   5.375   6.784
 5691SOL     OW17971   3.181   0.849   2.176
 5691SOL    HW117972   3.271   0.826   2.213
 5691SOL    HW217973   3.113   0.841   2.248
 5692SOL     OW17974   4.722   5.083   0.733
 5692SOL    HW117975   4.783   5.077   0.654
 5692SOL    HW217976   4.697   5.178   0.749
 5693SOL     OW17977   3.971   1.014   0.980
 5693SOL    HW117978   3.917   1.061   0.911
 5693SOL    HW217979   3.945   0.918   0.984
 5694SOL     OW17980   0.415   0.068   2.509
 5694SOL    HW117981   0.332   0.028   2.549
 5694SOL    HW217982   0.484   7.022   2.498
 5695SOL     OW17983   1.232   0.789   2.188
 5695SOL    HW117984   1.228   0.705   2.242
 5695SOL    HW217985   1.139   0.824   2.174
 5696SOL     OW17986   1.559   0.866   4.140
 5696SOL    HW117987   1.516   0.850   4.051
 5696SOL    HW217988   1.526   0.800   4.206
 5697SOL     OW17989   6.431   2.224   1.786
 5697SOL    HW117990   6.487   2.187   1.860
 5697SOL    HW217991   6.338   2.187   1.794
 5698SOL     OW17992   1.821   3.491   3.511
 5698SOL    HW117993   1.918   3.516   3.513
 5698SOL    HW217994   1.766   3.574   3.498
 5699SOL     OW17995   2.662   2.062   3.192
 5699SOL    HW117996   2.747   2.105   3.162
 5699SOL    HW217997   2.606   2.040   3.112
 5700SOL     OW17998   6.859   0.285   1.846
 5700SOL    HW117999   6.871   0.355   1.916
 5700SOL    HW218000   6.774   0.302   1.795
 5701SOL     OW18001   7.020   1.602   1.124
 5701SOL    HW118002   6.990   1.693   1.094
 5701SOL    HW218003   6.964   1.571   1.200
 5702SOL     OW18004   1.883   6.405   4.479
 5702SOL    HW118005   1.788   6.381   4.456
 5702SOL    HW218006   1.885   6.498   4.516
 5703SOL     OW18007   0.263   4.050   6.311
 5703SOL    HW118008   0.242   4.116   6.238
 5703SOL    HW218009   0.200   3.973   6.305
 5704SOL     OW18010   5.400   4.511   3.663
 5704SOL    HW118011   5.394   4.479   3.569
 5704SOL    HW218012   5.364   4.603   3.670
 5705SOL     OW18013   5.857   6.217   6.409
 5705SOL    HW118014   5.759   6.223   6.392
 5705SOL    HW218015   5.899   6.308   6.400
 5706SOL     OW18016   5.388   2.782   0.916
 5706SOL    HW118017   5.466   2.788   0.855
 5706SOL    HW218018   5.420   2.765   1.010
 5707SOL     OW18019   5.000   7.007   1.149
 5707SOL    HW118020   4.987   6.910   1.172
 5707SOL    HW218021   4.913   0.029   1.151
 5708SOL     OW18022   5.184   5.638   3.346
 5708SOL    HW118023   5.236   5.600   3.269
 5708SOL    HW218024   5.129   5.714   3.314
 5709SOL     OW18025   1.025   0.952   2.192
 5709SOL    HW118026   1.054   1.011   2.267
 5709SOL    HW218027   1.039   0.999   2.105
 5710SOL     OW18028   2.972   2.598   0.940
 5710SOL    HW118029   3.011   2.683   0.974
 5710SOL    HW218030   3.043   2.544   0.896
 5711SOL     OW18031   5.281   0.626   2.086
 5711SOL    HW118032   5.221   0.564   2.136
 5711SOL    HW218033   5.291   0.594   1.992
 5712SOL     OW18034   6.355   6.003   1.014
 5712SOL    HW118035   6.282   5.966   1.071
 5712SOL    HW218036   6.385   6.091   1.052
 5713SOL     OW18037   2.508   5.486   0.359
 5713SOL    HW118038   2.488   5.389   0.348
 5713SOL    HW218039   2.425   5.533   0.390
 5714SOL     OW18040   6.816   6.384   1.764
 5714SOL    HW118041   6.846   6.453   1.830
 5714SOL    HW218042   6.895   6.334   1.729
 5715SOL     OW18043   0.477   6.455   1.122
 5715SOL    HW118044   0.521   6.365   1.114
 5715SOL    HW218045   0.461   6.476   1.219
 5716SOL     OW18046   1.021   4.928   6.463
 5716SOL    HW118047   1.001   4.940   6.365
 5716SOL    HW218048   1.037   5.017   6.504
 5717SOL     OW18049   2.355   5.170   2.539
 5717SOL    HW118050   2.312   5.109   2.605
 5717SOL    HW218051   2.296   5.250   2.524
 5718SOL     OW18052   0.902   2.670   0.289
 5718SOL    HW118053   0.989   2.708   0.319
 5718SOL    HW218054   0.836   2.744   0.275
 5719SOL     OW18055   2.880   3.179   1.126
 5719SOL    HW118056   2.904   3.160   1.030
 5719SOL    HW218057   2.797   3.129   1.149
 5720SOL     OW18058   2.026   5.929   5.456
 5720SOL    HW118059   2.073   5.859   5.510
 5720SOL    HW218060   2.013   5.895   5.363
 5721SOL     OW18061   5.355   4.288   0.837
 5721SOL    HW118062   5.295   4.213   0.864
 5721SOL    HW218063   5.434   4.251   0.788
 5722SOL     OW18064   0.509   1.280   4.990
 5722SOL    HW118065   0.471   1.370   4.966
 5722SOL    HW218066   0.484   1.214   4.920
 5723SOL     OW18067   3.926   3.178   0.100
 5723SOL    HW118068   3.988   3.230   0.042
 5723SOL    HW218069   3.902   3.092   0.054
 5724SOL     OW18070   6.484   3.004   3.447
 5724SOL    HW118071   6.525   3.067   3.381
 5724SOL    HW218072   6.411   2.952   3.402
 5725SOL     OW18073   5.670   5.161   2.876
 5725SOL    HW118074   5.688   5.154   2.974
 5725SOL    HW218075   5.600   5.231   2.860
 5726SOL     OW18076   5.419   3.846   3.557
 5726SOL    HW118077   5.470   3.786   3.496
 5726SOL    HW218078   5.344   3.889   3.507
 5727SOL     OW18079   7.019   2.693   4.548
 5727SOL    HW118080   0.012   2.602   4.511
 5727SOL    HW218081   0.080   2.734   4.578
 5728SOL     OW18082   4.972   5.888   5.350
 5728SOL    HW118083   4.937   5.869   5.259
 5728SOL    HW218084   5.059   5.839   5.363
 5729SOL     OW18085   2.300   2.117   6.141
 5729SOL    HW118086   2.214   2.112   6.089
 5729SOL    HW218087   2.319   2.213   6.164
 5730SOL     OW18088   6.995   4.289   5.741
 5730SOL    HW118089   6.903   4.300   5.777
 5730SOL    HW218090   0.024   4.234   5.805
 5731SOL     OW18091   6.941   0.033   1.365
 5731SOL    HW118092   0.013   0.055   1.365
 5731SOL    HW218093   6.928   6.967   1.404
 5732SOL     OW18094   1.315   6.223   4.249
 5732SOL    HW118095   1.224   6.181   4.256
 5732SOL    HW218096   1.324   6.292   4.321
 5733SOL     OW18097   3.807   6.612   5.122
 5733SOL    HW118098   3.818   6.551   5.043
 5733SOL    HW218099   3.806   6.707   5.091
 5734SOL     OW18100   1.760   6.137   4.626
 5734SOL    HW118101   1.756   6.049   4.579
 5734SOL    HW218102   1.705   6.204   4.576
 5735SOL     OW18103   3.016   1.545   1.522
 5735SOL    HW118104   3.088   1.608   1.552
 5735SOL    HW218105   3.058   1.461   1.488
 5736SOL     OW18106   0.771   4.890   0.267
 5736SOL    HW118107   0.809   4.896   0.175
 5736SOL    HW218108   0.685   4.838   0.265
 5737SOL     OW18109   5.271   5.807   6.356
 5737SOL    HW118110   5.297   5.722   6.402
 5737SOL    HW218111   5.278   5.883   6.420
 5738SOL     OW18112   1.940   3.254   6.601
 5738SOL    HW118113   2.025   3.295   6.633
 5738SOL    HW218114   1.863   3.315   6.622
 5739SOL     OW18115   1.684   1.272   0.597
 5739SOL    HW118116   1.715   1.249   0.689
 5739SOL    HW218117   1.644   1.191   0.554
 5740SOL     OW18118   4.393   5.817   6.786
 5740SOL    HW118119   4.424   5.888   6.849
 5740SOL    HW218120   4.303   5.783   6.816
 5741SOL     OW18121   6.431   5.687   4.801
 5741SOL    HW118122   6.524   5.715   4.780
 5741SOL    HW218123   6.367   5.734   4.739
 5742SOL     OW18124   6.516   6.421   2.557
 5742SOL    HW118125   6.451   6.347   2.540
 5742SOL    HW218126   6.524   6.435   2.656
 5743SOL     OW18127   2.550   0.050   5.080
 5743SOL    HW118128   2.546   6.984   5.121
 5743SOL    HW218129   2.491   0.112   5.131
 5744SOL     OW18130   5.586   1.357   0.190
 5744SOL    HW118131   5.593   1.266   0.149
 5744SOL    HW218132   5.563   1.348   0.287
 5745SOL     OW18133   1.753   1.894   4.628
 5745SOL    HW118134   1.810   1.826   4.675
 5745SOL    HW218135   1.665   1.853   4.605
 5746SOL     OW18136   4.971   1.968   0.061
 5746SOL    HW118137   4.893   2.017   0.023
 5746SOL    HW218138   4.956   1.951   0.158
 5747SOL     OW18139   0.530   5.597   3.003
 5747SOL    HW118140   0.486   5.542   2.931
 5747SOL    HW218141   0.618   5.555   3.027
 5748SOL     OW18142   2.351   5.111   1.759
 5748SOL    HW118143   2.261   5.075   1.734
 5748SOL    HW218144   2.361   5.204   1.722
 5749SOL     OW18145   2.301   2.157   3.291
 5749SOL    HW118146   2.209   2.190   3.268
 5749SOL    HW218147   2.301   2.118   3.383
 5750SOL     OW18148   6.324   5.081   4.495
 5750SOL    HW118149   6.281   5.016   4.433
 5750SOL    HW218150   6.418   5.052   4.514
 5751SOL     OW18151   2.147   3.315   5.413
 5751SOL    HW118152   2.197   3.397   5.384
 5751SOL    HW218153   2.174   3.238   5.354
 5752SOL     OW18154   6.398   6.443   6.101
 5752SOL    HW118155   6.449   6.526   6.079
 5752SOL    HW218156   6.461   6.366   6.111
 5753SOL     OW18157   3.356   3.022   0.131
 5753SOL    HW118158   3.437   3.028   0.190
 5753SOL    HW218159   3.280   3.072   0.174
 5754SOL     OW18160   5.554   5.455   1.855
 5754SOL    HW118161   5.641   5.426   1.896
 5754SOL    HW218162   5.569   5.476   1.758
 5755SOL     OW18163   3.518   3.859   6.534
 5755SOL    HW118164   3.508   3.822   6.441
 5755SOL    HW218165   3.428   3.869   6.576
 5756SOL     OW18166   6.701   4.971   3.506
 5756SOL    HW118167   6.703   5.051   3.566
 5756SOL    HW218168   6.776   4.910   3.529
 5757SOL     OW18169   6.414   5.418   1.143
 5757SOL    HW118170   6.363   5.360   1.079
 5757SOL    HW218171   6.462   5.489   1.093
 5758SOL     OW18172   1.867   2.263   5.092
 5758SOL    HW118173   1.928   2.336   5.063
 5758SOL    HW218174   1.907   2.174   5.068
 5759SOL     OW18175   5.359   1.500   6.026
 5759SOL    HW118176   5.358   1.600   6.024
 5759SOL    HW218177   5.399   1.466   5.941
 5760SOL     OW18178   1.385   5.042   2.282
 5760SOL    HW118179   1.465   4.983   2.298
 5760SOL    HW218180   1.306   5.005   2.331
 5761SOL     OW18181   4.545   6.390   5.101
 5761SOL    HW118182   4.460   6.429   5.135
 5761SOL    HW218183   4.528   6.297   5.068
 5762SOL     OW18184   5.691   6.541   1.562
 5762SOL    HW118185   5.762   6.563   1.628
 5762SOL    HW218186   5.649   6.626   1.529
 5763SOL     OW18187   1.616   0.641   0.872
 5763SOL    HW118188   1.667   0.690   0.943
 5763SOL    HW218189   1.616   0.543   0.892
 5764SOL     OW18190   5.879   4.300   5.551
 5764SOL    HW118191   5.812   4.360   5.507
 5764SOL    HW218192   5.932   4.353   5.617
 5765SOL     OW18193   6.011   4.410   0.015
 5765SOL    HW118194   5.919   4.373   0.002
 5765SOL    HW218195   6.012   4.468   0.097
 5766SOL     OW18196   3.108   1.779   2.024
 5766SOL    HW118197   3.189   1.817   1.980
 5766SOL    HW218198   3.027   1.828   1.992
 5767SOL     OW18199   0.343   6.595   0.948
 5767SOL    HW118200   0.243   6.592   0.948
 5767SOL    HW218201   0.377   6.543   1.027
 5768SOL     OW18202   6.543   1.180   3.113
 5768SOL    HW118203   6.534   1.280   3.112
 5768SOL    HW218204   6.455   1.139   3.091
 5769SOL     OW18205   2.669   6.243   4.179
 5769SOL    HW118206   2.702   6.304   4.250
 5769SOL    HW218207   2.633   6.296   4.102
 5770SOL     OW18208   6.351   0.265   1.426
 5770SOL    HW118209   6.335   0.283   1.329
 5770SOL    HW218210   6.386   0.172   1.437
 5771SOL     OW18211   1.425   0.434   1.306
 5771SOL    HW118212   1.368   0.450   1.386
 5771SOL    HW218213   1.518   0.466   1.324
 5772SOL     OW18214   6.016   3.422   0.988
 5772SOL    HW118215   5.971   3.333   0.994
 5772SOL    HW218216   6.084   3.431   1.061
 5773SOL     OW18217   5.477   6.362   4.024
 5773SOL    HW118218   5.399   6.424   4.023
 5773SOL    HW218219   5.539   6.386   3.950
 5774SOL     OW18220   2.040   5.273   3.743
 5774SOL    HW118221   2.008   5.224   3.824
 5774SOL    HW218222   2.069   5.365   3.770
 5775SOL     OW18223   0.208   6.644   6.064
 5775SOL    HW118224   0.185   6.676   6.156
 5775SOL    HW218225   0.306   6.650   6.051
 5776SOL     OW18226   4.659   0.076   5.843
 5776SOL    HW118227   4.560   0.083   5.828
 5776SOL    HW218228   4.707   0.110   5.762
 5777SOL     OW18229   0.246   1.109   4.358
 5777SOL    HW118230   0.346   1.117   4.352
 5777SOL    HW218231   0.204   1.181   4.302
 5778SOL     OW18232   1.296   6.815   3.275
 5778SOL    HW118233   1.258   6.894   3.226
 5778SOL    HW218234   1.347   6.847   3.355
 5779SOL     OW18235   3.822   1.169   1.644
 5779SOL    HW118236   3.738   1.117   1.660
 5779SOL    HW218237   3.876   1.172   1.727
 5780SOL     OW18238   0.012   4.036   1.409
 5780SOL    HW118239   6.962   4.004   1.350
 5780SOL    HW218240   0.099   4.024   1.361
 5781SOL     OW18241   2.146   5.100   5.227
 5781SOL    HW118242   2.139   5.078   5.130
 5781SOL    HW218243   2.189   5.024   5.276
 5782SOL     OW18244   2.463   1.261   1.895
 5782SOL    HW118245   2.374   1.236   1.856
 5782SOL    HW218246   2.531   1.192   1.871
 5783SOL     OW18247   1.421   0.401   1.020
 5783SOL    HW118248   1.428   0.434   1.114
 5783SOL    HW218249   1.368   0.467   0.966
 5784SOL     OW18250   0.688   6.069   0.280
 5784SOL    HW118251   0.592   6.098   0.278
 5784SOL    HW218252   0.692   5.970   0.291
 5785SOL     OW18253   2.036   1.948   0.299
 5785SOL    HW118254   2.075   1.857   0.290
 5785SOL    HW218255   2.109   2.017   0.297
 5786SOL     OW18256   1.519   3.612   1.716
 5786SOL    HW118257   1.504   3.671   1.637
 5786SOL    HW218258   1.513   3.516   1.688
 5787SOL     OW18259   5.796   2.489   4.912
 5787SOL    HW118260   5.879   2.535   4.880
 5787SOL    HW218261   5.816   2.392   4.926
 5788SOL     OW18262   2.827   1.201   2.120
 5788SOL    HW118263   2.851   1.142   2.044
 5788SOL    HW218264   2.740   1.247   2.100
 5789SOL     OW18265   4.382   4.171   6.889
 5789SOL    HW118266   4.452   4.225   6.935
 5789SOL    HW218267   4.353   4.217   6.805
 5790SOL     OW18268   5.370   5.592   4.365
 5790SOL    HW118269   5.403   5.624   4.277
 5790SOL    HW218270   5.386   5.661   4.435
 5791SOL     OW18271   3.945   0.996   2.704
 5791SOL    HW118272   4.022   0.989   2.641
 5791SOL    HW218273   3.964   1.067   2.772
 5792SOL     OW18274   5.357   3.745   2.948
 5792SOL    HW118275   5.403   3.743   2.860
 5792SOL    HW218276   5.399   3.815   3.006
 5793SOL     OW18277   5.022   2.290   5.247
 5793SOL    HW118278   5.062   2.368   5.200
 5793SOL    HW218279   4.996   2.316   5.340
 5794SOL     OW18280   3.809   6.608   6.204
 5794SOL    HW118281   3.710   6.625   6.205
 5794SOL    HW218282   3.827   6.512   6.187
 5795SOL     OW18283   1.351   5.641   1.698
 5795SOL    HW118284   1.400   5.723   1.668
 5795SOL    HW218285   1.394   5.604   1.780
 5796SOL     OW18286   4.342   2.522   6.963
 5796SOL    HW118287   4.413   2.461   6.999
 5796SOL    HW218288   4.349   2.611   7.006
 5797SOL     OW18289   5.191   2.387   0.426
 5797SOL    HW118290   5.159   2.478   0.398
 5797SOL    HW218291   5.171   2.374   0.523
 5798SOL     OW18292   1.798   4.179   5.651
 5798SOL    HW118293   1.711   4.213   5.614
 5798SOL    HW218294   1.820   4.092   5.607
 5799SOL     OW18295   1.743   6.745   2.910
 5799SOL    HW118296   1.656   6.788   2.931
 5799SOL    HW218297   1.815   6.784   2.968
 5800SOL     OW18298   0.721   6.385   0.794
 5800SOL    HW118299   0.771   6.351   0.714
 5800SOL    HW218300   0.784   6.393   0.872
 5801SOL     OW18301   2.040   2.140   2.825
 5801SOL    HW118302   2.060   2.113   2.919
 5801SOL    HW218303   1.965   2.206   2.824
 5802SOL     OW18304   6.983   1.302   2.166
 5802SOL    HW118305   6.958   1.349   2.081
 5802SOL    HW218306   6.908   1.245   2.196
 5803SOL     OW18307   0.855   5.095   3.739
 5803SOL    HW118308   0.810   5.009   3.714
 5803SOL    HW218309   0.796   5.172   3.714
 5804SOL     OW18310   6.573   0.707   3.518
 5804SOL    HW118311   6.525   0.737   3.435
 5804SOL    HW218312   6.670   0.730   3.510
 5805SOL     OW18313   2.235   2.771   1.088
 5805SOL    HW118314   2.215   2.788   0.992
 5805SOL    HW218315   2.189   2.839   1.145
 5806SOL     OW18316   0.335   3.655   3.004
 5806SOL    HW118317   0.428   3.668   2.970
 5806SOL    HW218318   0.274   3.638   2.926
 5807SOL     OW18319   1.013   6.960   0.966
 5807SOL    HW118320   0.986   6.891   0.900
 5807SOL    HW218321   0.971   6.940   1.055
 5808SOL     OW18322   6.132   0.246   4.983
 5808SOL    HW118323   6.082   0.283   4.905
 5808SOL    HW218324   6.210   0.304   5.004
 5809SOL     OW18325   0.434   2.165   5.829
 5809SOL    HW118326   0.450   2.204   5.919
 5809SOL    HW218327   0.373   2.086   5.837
 5810SOL     OW18328   4.017   0.172   5.174
 5810SOL    HW118329   4.001   0.073   5.179
 5810SOL    HW218330   4.115   0.189   5.163
 5811SOL     OW18331   3.069   3.730   5.797
 5811SOL    HW118332   3.111   3.821   5.790
 5811SOL    HW218333   3.077   3.697   5.891
 5812SOL     OW18334   5.591   2.685   0.717
 5812SOL    HW118335   5.570   2.588   0.715
 5812SOL    HW218336   5.615   2.716   0.625
 5813SOL     OW18337   4.727   6.589   1.420
 5813SOL    HW118338   4.691   6.535   1.496
 5813SOL    HW218339   4.825   6.602   1.431
 5814SOL     OW18340   5.541   1.996   1.918
 5814SOL    HW118341   5.614   2.012   1.983
 5814SOL    HW218342   5.460   1.962   1.966
 5815SOL     OW18343   6.554   1.674   3.821
 5815SOL    HW118344   6.582   1.584   3.788
 5815SOL    HW218345   6.458   1.671   3.850
 5816SOL     OW18346   6.945   4.385   2.916
 5816SOL    HW118347   6.883   4.411   2.843
 5816SOL    HW218348   6.922   4.293   2.948
 5817SOL     OW18349   5.924   4.354   3.502
 5817SOL    HW118350   5.882   4.285   3.561
 5817SOL    HW218351   6.000   4.312   3.452
 5818SOL     OW18352   2.068   0.606   5.674
 5818SOL    HW118353   2.018   0.661   5.607
 5818SOL    HW218354   2.012   0.597   5.757
 5819SOL     OW18355   4.132   5.024   0.257
 5819SOL    HW118356   4.071   4.949   0.231
 5819SOL    HW218357   4.190   5.048   0.179
 5820SOL     OW18358   6.165   5.215   2.406
 5820SOL    HW118359   6.146   5.122   2.440
 5820SOL    HW218360   6.081   5.269   2.411
 5821SOL     OW18361   6.349   0.682   1.280
 5821SOL    HW118362   6.362   0.697   1.182
 5821SOL    HW218363   6.432   0.709   1.329
 5822SOL     OW18364   1.744   2.974   2.591
 5822SOL    HW118365   1.829   3.002   2.548
 5822SOL    HW218366   1.677   2.948   2.521
 5823SOL     OW18367   1.831   6.393   4.069
 5823SOL    HW118368   1.786   6.451   4.001
 5823SOL    HW218369   1.921   6.430   4.090
 5824SOL     OW18370   0.617   6.805   1.810
 5824SOL    HW118371   0.659   6.770   1.726
 5824SOL    HW218372   0.541   6.865   1.787
 5825SOL     OW18373   6.024   0.344   4.333
 5825SOL    HW118374   5.997   0.440   4.319
 5825SOL    HW218375   5.960   0.285   4.283
 5826SOL     OW18376   0.683   6.948   4.854
 5826SOL    HW118377   0.776   6.956   4.890
 5826SOL    HW218378   0.668   7.020   4.785
 5827SOL     OW18379   2.062   4.697   5.309
 5827SOL    HW118380   1.993   4.761   5.275
 5827SOL    HW218381   2.077   4.625   5.241
 5828SOL     OW18382   4.288   6.647   4.438
 5828SOL    HW118383   4.189   6.646   4.455
 5828SOL    HW218384   4.318   6.554   4.418
 5829SOL     OW18385   2.864   1.104   3.721
 5829SOL    HW118386   2.890   1.137   3.630
 5829SOL    HW218387   2.895   1.168   3.790
 5830SOL     OW18388   3.597   5.577   4.655
 5830SOL    HW118389   3.628   5.487   4.624
 5830SOL    HW218390   3.586   5.638   4.576
 5831SOL     OW18391   1.507   1.790   5.202
 5831SOL    HW118392   1.523   1.803   5.300
 5831SOL    HW218393   1.441   1.857   5.170
 5832SOL     OW18394   2.435   5.076   1.066
 5832SOL    HW118395   2.441   4.977   1.054
 5832SOL    HW218396   2.411   5.119   0.979
 5833SOL     OW18397   4.469   3.679   6.770
 5833SOL    HW118398   4.555   3.647   6.810
 5833SOL    HW218399   4.433   3.755   6.824
 5834SOL     OW18400   5.506   3.884   6.842
 5834SOL    HW118401   5.583   3.836   6.882
 5834SOL    HW218402   5.538   3.942   6.767
 5835SOL     OW18403   5.629   0.958   2.347
 5835SOL    HW118404   5.557   0.899   2.383
 5835SOL    HW218405   5.700   0.970   2.417
 5836SOL     OW18406   4.132   7.001   2.450
 5836SOL    HW118407   4.144   6.928   2.383
 5836SOL    HW218408   4.222   0.014   2.473
 5837SOL     OW18409   3.142   4.394   6.970
 5837SOL    HW118410   3.110   4.304   6.941
 5837SOL    HW218411   3.236   4.408   6.939
 5838SOL     OW18412   3.402   1.920   0.286
 5838SOL    HW118413   3.442   1.847   0.231
 5838SOL    HW218414   3.369   1.993   0.225
 5839SOL     OW18415   1.611   2.104   0.831
 5839SOL    HW118416   1.611   2.005   0.823
 5839SOL    HW218417   1.663   2.144   0.755
 5840SOL     OW18418   1.287   3.195   3.093
 5840SOL    HW118419   1.200   3.244   3.100
 5840SOL    HW218420   1.340   3.232   3.016
 5841SOL     OW18421   5.050   2.270   0.647
 5841SOL    HW118422   5.064   2.232   0.739
 5841SOL    HW218423   4.978   2.339   0.650
 5842SOL     OW18424   2.728   1.557   0.793
 5842SOL    HW118425   2.742   1.651   0.763
 5842SOL    HW218426   2.758   1.494   0.721
 5843SOL     OW18427   1.893   3.251   1.349
 5843SOL    HW118428   1.980   3.253   1.397
 5843SOL    HW218429   1.897   3.311   1.269
 5844SOL     OW18430   0.700   0.524   4.767
 5844SOL    HW118431   0.640   0.447   4.790
 5844SOL    HW218432   0.667   0.607   4.812
 5845SOL     OW18433   1.077   6.385   1.718
 5845SOL    HW118434   1.048   6.289   1.717
 5845SOL    HW218435   1.095   6.415   1.625
 5846SOL     OW18436   6.493   4.322   5.873
 5846SOL    HW118437   6.523   4.373   5.793
 5846SOL    HW218438   6.464   4.230   5.845
 5847SOL     OW18439   2.838   3.394   0.771
 5847SOL    HW118440   2.813   3.491   0.777
 5847SOL    HW218441   2.774   3.348   0.709
 5848SOL     OW18442   2.515   4.886   3.066
 5848SOL    HW118443   2.562   4.824   3.129
 5848SOL    HW218444   2.557   4.976   3.070
 5849SOL     OW18445   2.827   6.415   5.392
 5849SOL    HW118446   2.768   6.336   5.373
 5849SOL    HW218447   2.813   6.445   5.486
 5850SOL     OW18448   0.853   1.781   2.098
 5850SOL    HW118449   0.932   1.835   2.068
 5850SOL    HW218450   0.774   1.804   2.040
 5851SOL     OW18451   6.197   3.640   4.724
 5851SOL    HW118452   6.151   3.571   4.667
 5851SOL    HW218453   6.283   3.603   4.758
 5852SOL     OW18454   5.170   4.852   2.939
 5852SOL    HW118455   5.085   4.834   2.890
 5852SOL    HW218456   5.210   4.766   2.971
 5853SOL     OW18457   3.597   4.642   5.533
 5853SOL    HW118458   3.518   4.645   5.471
 5853SOL    HW218459   3.676   4.605   5.485
 5854SOL     OW18460   3.042   5.368   5.978
 5854SOL    HW118461   2.972   5.338   6.042
 5854SOL    HW218462   3.108   5.428   6.024
 5855SOL     OW18463   2.085   2.904   3.977
 5855SOL    HW118464   2.124   2.877   3.889
 5855SOL    HW218465   2.156   2.903   4.047
 5856SOL     OW18466   1.510   6.588   3.594
 5856SOL    HW118467   1.430   6.621   3.645
 5856SOL    HW218468   1.483   6.511   3.537
 5857SOL     OW18469   6.891   4.095   6.410
 5857SOL    HW118470   6.987   4.103   6.436
 5857SOL    HW218471   6.882   4.030   6.335
 5858SOL     OW18472   2.178   0.610   3.682
 5858SOL    HW118473   2.158   0.707   3.669
 5858SOL    HW218474   2.205   0.594   3.777
 5859SOL     OW18475   5.791   6.972   2.396
 5859SOL    HW118476   5.865   0.011   2.411
 5859SOL    HW218477   5.784   6.951   2.298
 5860SOL     OW18478   0.137   2.798   3.896
 5860SOL    HW118479   0.127   2.819   3.799
 5860SOL    HW218480   0.193   2.717   3.907
 5861SOL     OW18481   4.747   1.065   5.125
 5861SOL    HW118482   4.753   1.146   5.183
 5861SOL    HW218483   4.788   0.987   5.173
 5862SOL     OW18484   6.523   5.060   3.311
 5862SOL    HW118485   6.578   5.122   3.255
 5862SOL    HW218486   6.579   5.025   3.387
 5863SOL     OW18487   3.957   0.012   5.486
 5863SOL    HW118488   3.869   0.056   5.505
 5863SOL    HW218489   3.943   6.952   5.436
 5864SOL     OW18490   2.917   3.681   2.444
 5864SOL    HW118491   2.930   3.646   2.351
 5864SOL    HW218492   2.950   3.775   2.449
 5865SOL     OW18493   5.931   0.880   5.649
 5865SOL    HW118494   5.944   0.905   5.745
 5865SOL    HW218495   6.002   0.815   5.621
 5866SOL     OW18496   3.568   3.261   2.697
 5866SOL    HW118497   3.648   3.210   2.727
 5866SOL    HW218498   3.485   3.208   2.717
 5867SOL     OW18499   3.114   1.997   1.603
 5867SOL    HW118500   3.090   1.957   1.514
 5867SOL    HW218501   3.035   2.045   1.640
 5868SOL     OW18502   1.232   1.106   6.600
 5868SOL    HW118503   1.140   1.068   6.594
 5868SOL    HW218504   1.295   1.051   6.545
 5869SOL     OW18505   1.364   5.268   4.255
 5869SOL    HW118506   1.343   5.204   4.180
 5869SOL    HW218507   1.454   5.309   4.239
 5870SOL     OW18508   4.520   4.600   4.711
 5870SOL    HW118509   4.585   4.523   4.717
 5870SOL    HW218510   4.437   4.577   4.761
 5871SOL     OW18511   3.282   3.404   3.335
 5871SOL    HW118512   3.273   3.503   3.324
 5871SOL    HW218513   3.233   3.357   3.261
 5872SOL     OW18514   3.857   5.956   2.026
 5872SOL    HW118515   3.763   5.927   2.043
 5872SOL    HW218516   3.896   5.994   2.110
 5873SOL     OW18517   4.073   4.724   2.089
 5873SOL    HW118518   3.992   4.672   2.064
 5873SOL    HW218519   4.084   4.725   2.189
 5874SOL     OW18520   3.193   5.092   5.945
 5874SOL    HW118521   3.125   5.161   5.970
 5874SOL    HW218522   3.248   5.070   6.026
 5875SOL     OW18523   2.686   1.032   0.671
 5875SOL    HW118524   2.715   1.068   0.760
 5875SOL    HW218525   2.592   1.000   0.677
 5876SOL     OW18526   3.609   3.502   1.919
 5876SOL    HW118527   3.644   3.424   1.971
 5876SOL    HW218528   3.621   3.485   1.821
 5877SOL     OW18529   5.714   4.482   1.201
 5877SOL    HW118530   5.637   4.431   1.164
 5877SOL    HW218531   5.780   4.419   1.242
 5878SOL     OW18532   2.331   4.856   2.072
 5878SOL    HW118533   2.316   4.897   2.162
 5878SOL    HW218534   2.393   4.913   2.019
 5879SOL     OW18535   0.157   4.063   6.628
 5879SOL    HW118536   0.255   4.058   6.615
 5879SOL    HW218537   0.131   4.158   6.648
 5880SOL     OW18538   2.643   5.931   1.116
 5880SOL    HW118539   2.576   5.912   1.188
 5880SOL    HW218540   2.728   5.964   1.157
 5881SOL     OW18541   0.315   5.267   4.251
 5881SOL    HW118542   0.302   5.366   4.249
 5881SOL    HW218543   0.298   5.229   4.160
 5882SOL     OW18544   4.451   0.550   1.520
 5882SOL    HW118545   4.524   0.597   1.570
 5882SOL    HW218546   4.421   0.470   1.573
 5883SOL     OW18547   6.820   3.086   6.712
 5883SOL    HW118548   6.894   3.019   6.723
 5883SOL    HW218549   6.813   3.113   6.616
 5884SOL     OW18550   0.869   1.355   2.585
 5884SOL    HW118551   0.928   1.382   2.509
 5884SOL    HW218552   0.836   1.437   2.631
 5885SOL     OW18553   6.382   6.203   1.176
 5885SOL    HW118554   6.343   6.290   1.204
 5885SOL    HW218555   6.421   6.157   1.257
 5886SOL     OW18556   0.722   1.790   5.425
 5886SOL    HW118557   0.816   1.760   5.407
 5886SOL    HW218558   0.711   1.885   5.397
 5887SOL     OW18559   3.244   0.969   4.167
 5887SOL    HW118560   3.158   1.019   4.155
 5887SOL    HW218561   3.321   1.034   4.162
 5888SOL     OW18562   2.040   6.449   3.519
 5888SOL    HW118563   2.045   6.548   3.523
 5888SOL    HW218564   1.992   6.415   3.600
 5889SOL     OW18565   2.283   0.160   1.201
 5889SOL    HW118566   2.230   0.243   1.181
 5889SOL    HW218567   2.340   0.138   1.122
 5890SOL     OW18568   2.349   5.495   5.494
 5890SOL    HW118569   2.297   5.497   5.409
 5890SOL    HW218570   2.415   5.570   5.495
 5891SOL     OW18571   3.606   2.875   0.433
 5891SOL    HW118572   3.521   2.824   0.421
 5891SOL    HW218573   3.666   2.825   0.495
 5892SOL     OW18574   0.197   5.972   1.335
 5892SOL    HW118575   0.211   5.874   1.336
 5892SOL    HW218576   0.242   6.014   1.414
 5893SOL     OW18577   1.103   1.570   4.004
 5893SOL    HW118578   1.105   1.618   3.916
 5893SOL    HW218579   1.008   1.565   4.037
 5894SOL     OW18580   1.322   3.520   2.897
 5894SOL    HW118581   1.363   3.428   2.892
 5894SOL    HW218582   1.371   3.574   2.966
 5895SOL     OW18583   5.631   3.637   4.200
 5895SOL    HW118584   5.675   3.620   4.112
 5895SOL    HW218585   5.536   3.608   4.195
 5896SOL     OW18586   3.685   1.744   0.436
 5896SOL    HW118587   3.722   1.656   0.464
 5896SOL    HW218588   3.585   1.737   0.429
 5897SOL     OW18589   3.518   0.237   0.888
 5897SOL    HW118590   3.450   0.307   0.906
 5897SOL    HW218591   3.494   0.153   0.937
 5898SOL     OW18592   1.754   0.115   2.686
 5898SOL    HW118593   1.823   0.082   2.750
 5898SOL    HW218594   1.755   0.214   2.684
 5899SOL     OW18595   5.967   6.500   4.572
 5899SOL    HW118596   5.980   6.561   4.494
 5899SOL    HW218597   5.898   6.431   4.549
 5900SOL     OW18598   4.664   4.648   3.365
 5900SOL    HW118599   4.672   4.573   3.300
 5900SOL    HW218600   4.616   4.616   3.447
 5901SOL     OW18601   2.513   6.913   6.777
 5901SOL    HW118602   2.420   6.902   6.814
 5901SOL    HW218603   2.535   6.835   6.718
 5902SOL     OW18604   6.687   2.446   0.218
 5902SOL    HW118605   6.611   2.484   0.165
 5902SOL    HW218606   6.762   2.512   0.220
 5903SOL     OW18607   5.769   3.780   6.887
 5903SOL    HW118608   5.753   3.827   6.973
 5903SOL    HW218609   5.865   3.791   6.861
 5904SOL     OW18610   0.137   3.657   2.379
 5904SOL    HW118611   0.142   3.670   2.280
 5904SOL    HW218612   0.084   3.576   2.401
 5905SOL     OW18613   6.904   6.488   2.377
 5905SOL    HW118614   6.872   6.541   2.455
 5905SOL    HW218615   6.877   6.392   2.388
 5906SOL     OW18616   5.627   1.185   3.742
 5906SOL    HW118617   5.719   1.215   3.766
 5906SOL    HW218618   5.632   1.116   3.670
 5907SOL     OW18619   0.314   5.964   1.772
 5907SOL    HW118620   0.388   6.013   1.818
 5907SOL    HW218621   0.274   6.023   1.702
 5908SOL     OW18622   0.427   2.673   5.160
 5908SOL    HW118623   0.393   2.767   5.168
 5908SOL    HW218624   0.436   2.648   5.064
 5909SOL     OW18625   0.246   5.992   0.688
 5909SOL    HW118626   0.202   5.965   0.603
 5909SOL    HW218627   0.346   5.983   0.679
 5910SOL     OW18628   1.521   2.146   3.435
 5910SOL    HW118629   1.441   2.123   3.379
 5910SOL    HW218630   1.539   2.072   3.499
 5911SOL     OW18631   6.622   5.477   6.573
 5911SOL    HW118632   6.615   5.560   6.629
 5911SOL    HW218633   6.549   5.477   6.504
 5912SOL     OW18634   6.434   1.677   4.754
 5912SOL    HW118635   6.483   1.660   4.840
 5912SOL    HW218636   6.375   1.599   4.733
 5913SOL     OW18637   5.805   2.538   0.332
 5913SOL    HW118638   5.807   2.548   0.232
 5913SOL    HW218639   5.758   2.617   0.372
 5914SOL     OW18640   0.723   6.405   6.196
 5914SOL    HW118641   0.786   6.357   6.135
 5914SOL    HW218642   0.744   6.503   6.195
 5915SOL     OW18643   3.886   0.288   6.581
 5915SOL    HW118644   3.893   0.259   6.485
 5915SOL    HW218645   3.811   0.353   6.591
 5916SOL     OW18646   1.819   6.746   2.338
 5916SOL    HW118647   1.847   6.650   2.333
 5916SOL    HW218648   1.809   6.782   2.245
 5917SOL     OW18649   3.121   4.116   6.941
 5917SOL    HW118650   3.190   4.047   6.964
 5917SOL    HW218651   3.090   4.103   6.848
 5918SOL     OW18652   3.111   6.722   6.190
 5918SOL    HW118653   3.135   6.749   6.096
 5918SOL    HW218654   3.049   6.644   6.187
 5919SOL     OW18655   3.475   2.861   3.125
 5919SOL    HW118656   3.478   2.777   3.071
 5919SOL    HW218657   3.568   2.891   3.145
 5920SOL     OW18658   6.634   0.057   6.022
 5920SOL    HW118659   6.712   0.018   6.071
 5920SOL    HW218660   6.666   0.100   5.938
 5921SOL     OW18661   3.352   4.457   6.528
 5921SOL    HW118662   3.332   4.419   6.438
 5921SOL    HW218663   3.273   4.441   6.588
 5922SOL     OW18664   6.074   3.722   2.819
 5922SOL    HW118665   5.978   3.707   2.797
 5922SOL    HW218666   6.098   3.668   2.900
 5923SOL     OW18667   6.768   1.124   1.256
 5923SOL    HW118668   6.731   1.031   1.254
 5923SOL    HW218669   6.868   1.121   1.262
 5924SOL     OW18670   6.025   0.090   2.719
 5924SOL    HW118671   5.938   0.052   2.753
 5924SOL    HW218672   6.068   0.143   2.791
 5925SOL     OW18673   4.660   5.596   0.946
 5925SOL    HW118674   4.738   5.654   0.970
 5925SOL    HW218675   4.664   5.511   0.998
 5926SOL     OW18676   3.826   4.913   2.697
 5926SOL    HW118677   3.879   4.861   2.763
 5926SOL    HW218678   3.758   4.854   2.654
 5927SOL     OW18679   1.190   3.941   1.452
 5927SOL    HW118680   1.102   3.895   1.436
 5927SOL    HW218681   1.213   3.997   1.372
 5928SOL     OW18682   3.592   0.447   1.148
 5928SOL    HW118683   3.497   0.425   1.124
 5928SOL    HW218684   3.652   0.372   1.119
 5929SOL     OW18685   6.981   1.091   5.737
 5929SOL    HW118686   6.953   1.005   5.780
 5929SOL    HW218687   6.909   1.159   5.750
 5930SOL     OW18688   1.600   3.677   1.989
 5930SOL    HW118689   1.567   3.678   1.895
 5930SOL    HW218690   1.689   3.722   1.993
 5931SOL     OW18691   5.853   6.026   2.850
 5931SOL    HW118692   5.871   6.025   2.752
 5931SOL    HW218693   5.776   6.087   2.869
 5932SOL     OW18694   2.883   0.575   6.305
 5932SOL    HW118695   2.913   0.597   6.399
 5932SOL    HW218696   2.821   0.646   6.273
 5933SOL     OW18697   6.626   5.004   4.548
 5933SOL    HW118698   6.689   4.929   4.525
 5933SOL    HW218699   6.675   5.091   4.542
 5934SOL     OW18700   3.315   3.615   5.770
 5934SOL    HW118701   3.308   3.534   5.828
 5934SOL    HW218702   3.231   3.669   5.777
 5935SOL     OW18703   0.563   6.064   4.862
 5935SOL    HW118704   0.559   6.069   4.961
 5935SOL    HW218705   0.641   6.006   4.835
 5936SOL     OW18706   3.445   3.169   3.041
 5936SOL    HW118707   3.383   3.149   2.965
 5936SOL    HW218708   3.429   3.104   3.115
 5937SOL     OW18709   6.912   3.151   2.112
 5937SOL    HW118710   6.921   3.168   2.210
 5937SOL    HW218711   7.003   3.152   2.070
 5938SOL     OW18712   6.472   4.850   5.072
 5938SOL    HW118713   6.513   4.937   5.046
 5938SOL    HW218714   6.534   4.799   5.132
 5939SOL     OW18715   3.793   6.976   4.248
 5939SOL    HW118716   3.733   0.017   4.203
 5939SOL    HW218717   3.750   6.946   4.333
 5940SOL     OW18718   4.985   5.783   2.558
 5940SOL    HW118719   5.007   5.865   2.507
 5940SOL    HW218720   4.962   5.709   2.495
 5941SOL     OW18721   6.576   1.974   1.858
 5941SOL    HW118722   6.502   1.914   1.888
 5941SOL    HW218723   6.632   1.999   1.937
 5942SOL     OW18724   6.245   3.663   6.229
 5942SOL    HW118725   6.343   3.682   6.221
 5942SOL    HW218726   6.230   3.565   6.225
 5943SOL     OW18727   3.948   3.581   0.669
 5943SOL    HW118728   3.931   3.618   0.761
 5943SOL    HW218729   3.866   3.535   0.635
 5944SOL     OW18730   0.860   3.630   6.566
 5944SOL    HW118731   0.883   3.561   6.498
 5944SOL    HW218732   0.792   3.692   6.529
 5945SOL     OW18733   0.658   5.715   5.579
 5945SOL    HW118734   0.609   5.639   5.537
 5945SOL    HW218735   0.731   5.680   5.637
 5946SOL     OW18736   3.908   4.842   0.163
 5946SOL    HW118737   3.882   4.772   0.097
 5946SOL    HW218738   3.828   4.897   0.187
 5947SOL     OW18739   3.253   3.106   4.704
 5947SOL    HW118740   3.207   3.165   4.770
 5947SOL    HW218741   3.279   3.020   4.748
 5948SOL     OW18742   5.184   3.613   2.194
 5948SOL    HW118743   5.167   3.548   2.269
 5948SOL    HW218744   5.180   3.564   2.107
 5949SOL     OW18745   6.462   5.817   1.179
 5949SOL    HW118746   6.439   5.867   1.096
 5949SOL    HW218747   6.399   5.739   1.189
 5950SOL     OW18748   5.340   2.544   5.682
 5950SOL    HW118749   5.295   2.601   5.750
 5950SOL    HW218750   5.292   2.551   5.594
 5951SOL     OW18751   0.947   4.347   5.760
 5951SOL    HW118752   1.009   4.301   5.697
 5951SOL    HW218753   0.974   4.442   5.770
 5952SOL     OW18754   4.075   5.135   1.752
 5952SOL    HW118755   4.082   5.088   1.840
 5952SOL    HW218756   4.130   5.218   1.754
 5953SOL     OW18757   5.950   2.439   5.364
 5953SOL    HW118758   6.014   2.409   5.435
 5953SOL    HW218759   5.899   2.360   5.330
 5954SOL     OW18760   0.608   6.159   4.414
 5954SOL    HW118761   0.698   6.120   4.433
 5954SOL    HW218762   0.547   6.087   4.380
 5955SOL     OW18763   5.321   4.312   1.472
 5955SOL    HW118764   5.298   4.343   1.379
 5955SOL    HW218765   5.310   4.388   1.536
 5956SOL     OW18766   4.955   2.737   4.627
 5956SOL    HW118767   4.982   2.645   4.657
 5956SOL    HW218768   4.856   2.741   4.617
 5957SOL     OW18769   0.995   1.195   2.745
 5957SOL    HW118770   0.953   1.270   2.695
 5957SOL    HW218771   1.095   1.201   2.734
 5958SOL     OW18772   4.284   6.718   2.535
 5958SOL    HW118773   4.199   6.720   2.588
 5958SOL    HW218774   4.342   6.795   2.562
 5959SOL     OW18775   4.853   2.270   4.965
 5959SOL    HW118776   4.952   2.284   4.959
 5959SOL    HW218777   4.818   2.318   5.046
 5960SOL     OW18778   3.544   6.696   6.216
 5960SOL    HW118779   3.500   6.685   6.126
 5960SOL    HW218780   3.503   6.774   6.263
 5961SOL     OW18781   3.478   1.578   2.692
 5961SOL    HW118782   3.421   1.602   2.771
 5961SOL    HW218783   3.533   1.657   2.666
 5962SOL     OW18784   5.432   6.329   0.233
 5962SOL    HW118785   5.447   6.345   0.135
 5962SOL    HW218786   5.345   6.281   0.247
 5963SOL     OW18787   3.518   4.861   6.997
 5963SOL    HW118788   3.465   4.878   6.914
 5963SOL    HW218789   3.521   4.762   7.015
 5964SOL     OW18790   2.039   6.450   2.707
 5964SOL    HW118791   2.069   6.545   2.712
 5964SOL    HW218792   2.002   6.421   2.795
 5965SOL     OW18793   1.715   6.759   7.001
 5965SOL    HW118794   1.774   6.774   6.921
 5965SOL    HW218795   1.755   6.804   0.055
 5966SOL     OW18796   2.291   0.691   5.411
 5966SOL    HW118797   2.371   0.684   5.352
 5966SOL    HW218798   2.302   0.770   5.471
 5967SOL     OW18799   2.376   1.882   4.496
 5967SOL    HW118800   2.427   1.936   4.563
 5967SOL    HW218801   2.404   1.787   4.501
 5968SOL     OW18802   5.761   2.339   0.566
 5968SOL    HW118803   5.813   2.357   0.649
 5968SOL    HW218804   5.774   2.415   0.501
 5969SOL     OW18805   5.386   0.909   6.587
 5969SOL    HW118806   5.408   0.936   6.494
 5969SOL    HW218807   5.348   0.987   6.637
 5970SOL     OW18808   0.899   2.988   0.558
 5970SOL    HW118809   0.883   2.891   0.539
 5970SOL    HW218810   0.853   3.044   0.489
 5971SOL     OW18811   6.408   7.012   3.439
 5971SOL    HW118812   6.378   6.932   3.386
 5971SOL    HW218813   6.436   6.983   3.530
 5972SOL     OW18814   5.019   5.042   1.023
 5972SOL    HW118815   5.089   4.979   1.055
 5972SOL    HW218816   4.937   4.990   0.998
 5973SOL     OW18817   1.744   3.120   2.808
 5973SOL    HW118818   1.785   3.084   2.724
 5973SOL    HW218819   1.738   3.220   2.801
 5974SOL     OW18820   3.724   0.950   6.744
 5974SOL    HW118821   3.743   0.975   6.649
 5974SOL    HW218822   3.741   0.853   6.757
 5975SOL     OW18823   5.363   4.517   0.224
 5975SOL    HW118824   5.394   4.423   0.235
 5975SOL    HW218825   5.372   4.566   0.311
 5976SOL     OW18826   3.675   3.501   5.979
 5976SOL    HW118827   3.725   3.562   6.041
 5976SOL    HW218828   3.590   3.471   6.024
 5977SOL     OW18829   0.218   5.303   0.444
 5977SOL    HW118830   0.139   5.354   0.410
 5977SOL    HW218831   0.272   5.361   0.504
 5978SOL     OW18832   3.375   5.628   6.833
 5978SOL    HW118833   3.446   5.690   6.799
 5978SOL    HW218834   3.351   5.654   6.926
 5979SOL     OW18835   6.434   0.384   1.668
 5979SOL    HW118836   6.411   0.338   1.582
 5979SOL    HW218837   6.454   0.480   1.649
 5980SOL     OW18838   3.661   3.030   1.779
 5980SOL    HW118839   3.714   2.960   1.730
 5980SOL    HW218840   3.620   3.093   1.713
 5981SOL     OW18841   4.804   2.495   0.404
 5981SOL    HW118842   4.814   2.398   0.382
 5981SOL    HW218843   4.713   2.526   0.376
 5982SOL     OW18844   6.044   1.767   2.465
 5982SOL    HW118845   6.090   1.678   2.461
 5982SOL    HW218846   6.112   1.839   2.481
 5983SOL     OW18847   6.883   0.784   4.668
 5983SOL    HW118848   6.894   0.819   4.761
 5983SOL    HW218849   6.972   0.757   4.632
 5984SOL     OW18850   6.433   6.590   3.525
 5984SOL    HW118851   6.438   6.541   3.438
 5984SOL    HW218852   6.494   6.669   3.523
 5985SOL     OW18853   6.104   2.366   3.028
 5985SOL    HW118854   6.160   2.406   3.101
 5985SOL    HW218855   6.134   2.272   3.012
 5986SOL     OW18856   4.291   3.903   5.334
 5986SOL    HW118857   4.281   3.896   5.433
 5986SOL    HW218858   4.228   3.840   5.290
 5987SOL     OW18859   6.488   0.759   4.803
 5987SOL    HW118860   6.509   0.661   4.801
 5987SOL    HW218861   6.571   0.810   4.826
 5988SOL     OW18862   2.733   1.825   0.015
 5988SOL    HW118863   2.812   1.847   6.983
 5988SOL    HW218864   2.762   1.770   0.093
 5989SOL     OW18865   0.620   6.110   6.870
 5989SOL    HW118866   0.606   6.194   6.819
 5989SOL    HW218867   0.560   6.109   6.950
 5990SOL     OW18868   3.763   4.480   1.665
 5990SOL    HW118869   3.803   4.518   1.582
 5990SOL    HW218870   3.697   4.545   1.703
 5991SOL     OW18871   5.319   5.981   1.096
 5991SOL    HW118872   5.364   5.953   1.011
 5991SOL    HW218873   5.284   6.075   1.085
 5992SOL     OW18874   3.155   6.873   1.701
 5992SOL    HW118875   3.149   6.962   1.657
 5992SOL    HW218876   3.244   6.832   1.683
 5993SOL     OW18877   6.316   2.808   0.717
 5993SOL    HW118878   6.376   2.877   0.758
 5993SOL    HW218879   6.367   2.723   0.705
 5994SOL     OW18880   0.039   2.788   1.079
 5994SOL    HW118881   0.013   2.763   1.173
 5994SOL    HW218882   0.118   2.733   1.051
 5995SOL     OW18883   4.880   3.654   1.588
 5995SOL    HW118884   4.813   3.695   1.527
 5995SOL    HW218885   4.852   3.666   1.683
 5996SOL     OW18886   2.704   5.658   1.452
 5996SOL    HW118887   2.748   5.748   1.456
 5996SOL    HW218888   2.774   5.587   1.449
 5997SOL     OW18889   6.580   6.779   3.206
 5997SOL    HW118890   6.671   6.763   3.167
 5997SOL    HW218891   6.590   6.806   3.302
 5998SOL     OW18892   6.351   0.592   2.014
 5998SOL    HW118893   6.323   0.540   1.934
 5998SOL    HW218894   6.296   0.675   2.021
 5999SOL     OW18895   3.708   4.285   1.108
 5999SOL    HW118896   3.665   4.339   1.181
 5999SOL    HW218897   3.798   4.254   1.139
 6000SOL     OW18898   6.982   5.681   0.618
 6000SOL    HW118899   6.990   5.670   0.519
 6000SOL    HW218900   6.915   5.753   0.639
 6001SOL     OW18901   5.302   6.157   5.233
 6001SOL    HW118902   5.371   6.152   5.161
 6001SOL    HW218903   5.238   6.231   5.213
 6002SOL     OW18904   6.858   6.731   5.048
 6002SOL    HW118905   6.882   6.637   5.071
 6002SOL    HW218906   6.903   6.758   4.963
 6003SOL     OW18907   6.371   2.963   4.641
 6003SOL    HW118908   6.277   2.964   4.607
 6003SOL    HW218909   6.433   2.938   4.566
 6004SOL     OW18910   4.958   2.410   3.580
 6004SOL    HW118911   4.988   2.418   3.675
 6004SOL    HW218912   4.988   2.321   3.543
 6005SOL     OW18913   4.547   4.272   5.441
 6005SOL    HW118914   4.460   4.232   5.413
 6005SOL    HW218915   4.535   4.318   5.529
 6006SOL     OW18916   3.492   6.744   5.757
 6006SOL    HW118917   3.505   6.646   5.769
 6006SOL    HW218918   3.451   6.761   5.667
 6007SOL     OW18919   0.816   4.511   5.538
 6007SOL    HW118920   0.766   4.510   5.451
 6007SOL    HW218921   0.801   4.425   5.587
 6008SOL     OW18922   2.363   4.569   5.398
 6008SOL    HW118923   2.267   4.541   5.401
 6008SOL    HW218924   2.389   4.586   5.303
 6009SOL     OW18925   4.584   5.364   2.895
 6009SOL    HW118926   4.634   5.389   2.978
 6009SOL    HW218927   4.507   5.426   2.883
 6010SOL     OW18928   0.219   4.095   4.622
 6010SOL    HW118929   0.279   4.139   4.689
 6010SOL    HW218930   0.179   4.165   4.562
 6011SOL     OW18931   5.365   1.592   2.940
 6011SOL    HW118932   5.443   1.602   2.878
 6011SOL    HW218933   5.283   1.628   2.897
 6012SOL     OW18934   6.306   0.513   6.378
 6012SOL    HW118935   6.296   0.451   6.456
 6012SOL    HW218936   6.367   0.588   6.403
 6013SOL     OW18937   5.366   0.939   2.584
 6013SOL    HW118938   5.389   0.881   2.506
 6013SOL    HW218939   5.282   0.989   2.564
 6014SOL     OW18940   3.474   3.123   4.543
 6014SOL    HW118941   3.381   3.128   4.581
 6014SOL    HW218942   3.475   3.059   4.466
 6015SOL     OW18943   6.348   2.349   4.295
 6015SOL    HW118944   6.300   2.306   4.371
 6015SOL    HW218945   6.434   2.301   4.277
 6016SOL     OW18946   4.944   1.781   4.632
 6016SOL    HW118947   4.943   1.870   4.587
 6016SOL    HW218948   4.929   1.709   4.564
 6017SOL     OW18949   6.805   3.441   5.050
 6017SOL    HW118950   6.831   3.505   5.121
 6017SOL    HW218951   6.818   3.483   4.960
 6018SOL     OW18952   3.308   1.092   5.004
 6018SOL    HW118953   3.349   1.012   4.961
 6018SOL    HW218954   3.312   1.084   5.103
 6019SOL     OW18955   0.824   3.856   6.325
 6019SOL    HW118956   0.818   3.920   6.249
 6019SOL    HW218957   0.919   3.826   6.336
 6020SOL     OW18958   0.778   5.213   0.464
 6020SOL    HW118959   0.738   5.169   0.384
 6020SOL    HW218960   0.877   5.215   0.455
 6021SOL     OW18961   4.096   0.543   2.500
 6021SOL    HW118962   4.055   0.630   2.473
 6021SOL    HW218963   4.149   0.556   2.584
 6022SOL     OW18964   6.306   1.045   3.008
 6022SOL    HW118965   6.342   0.965   2.962
 6022SOL    HW218966   6.233   1.018   3.071
 6023SOL     OW18967   4.752   0.713   1.148
 6023SOL    HW118968   4.669   0.687   1.198
 6023SOL    HW218969   4.747   0.680   1.054
 6024SOL     OW18970   0.453   4.573   0.945
 6024SOL    HW118971   0.406   4.660   0.930
 6024SOL    HW218972   0.430   4.510   0.871
 6025SOL     OW18973   2.624   1.370   4.097
 6025SOL    HW118974   2.625   1.310   4.177
 6025SOL    HW218975   2.554   1.440   4.109
 6026SOL     OW18976   6.292   4.047   4.082
 6026SOL    HW118977   6.382   4.036   4.038
 6026SOL    HW218978   6.302   4.031   4.180
 6027SOL     OW18979   5.890   3.749   6.155
 6027SOL    HW118980   5.965   3.811   6.133
 6027SOL    HW218981   5.861   3.701   6.072
 6028SOL     OW18982   5.624   5.173   0.060
 6028SOL    HW118983   5.721   5.193   0.072
 6028SOL    HW218984   5.575   5.195   0.145
 6029SOL     OW18985   2.703   0.866   2.983
 6029SOL    HW118986   2.706   0.961   2.952
 6029SOL    HW218987   2.750   0.808   2.917
 6030SOL     OW18988   4.890   3.698   4.788
 6030SOL    HW118989   4.803   3.722   4.744
 6030SOL    HW218990   4.872   3.672   4.883
 6031SOL     OW18991   0.804   5.973   3.983
 6031SOL    HW118992   0.709   5.943   3.976
 6031SOL    HW218993   0.853   5.912   4.046
 6032SOL     OW18994   3.314   6.722   3.790
 6032SOL    HW118995   3.353   6.632   3.806
 6032SOL    HW218996   3.220   6.713   3.755
 6033SOL     OW18997   2.374   2.786   2.556
 6033SOL    HW118998   2.438   2.724   2.512
 6033SOL    HW218999   2.314   2.735   2.617
 6034SOL     OW19000   1.302   0.309   6.937
 6034SOL    HW119001   1.217   0.279   6.894
 6034SOL    HW219002   1.316   0.258   7.022
 6035SOL     OW19003   1.184   0.867   2.778
 6035SOL    HW119004   1.152   0.856   2.684
 6035SOL    HW219005   1.126   0.814   2.839
 6036SOL     OW19006   5.940   4.284   1.301
 6036SOL    HW119007   6.009   4.316   1.236
 6036SOL    HW219008   5.905   4.195   1.271
 6037SOL     OW19009   4.327   1.574   1.118
 6037SOL    HW119010   4.398   1.512   1.084
 6037SOL    HW219011   4.361   1.668   1.113
 6038SOL     OW19012   1.091   2.263   6.732
 6038SOL    HW119013   1.158   2.330   6.764
 6038SOL    HW219014   1.101   2.251   6.633
 6039SOL     OW19015   3.605   4.104   3.942
 6039SOL    HW119016   3.699   4.071   3.936
 6039SOL    HW219017   3.583   4.125   4.037
 6040SOL     OW19018   1.731   1.662   6.994
 6040SOL    HW119019   1.799   1.677   6.922
 6040SOL    HW219020   1.652   1.615   6.955
 6041SOL     OW19021   2.722   2.381   5.683
 6041SOL    HW119022   2.788   2.450   5.654
 6041SOL    HW219023   2.701   2.320   5.607
 6042SOL     OW19024   3.542   6.150   3.708
 6042SOL    HW119025   3.604   6.086   3.663
 6042SOL    HW219026   3.453   6.149   3.661
 6043SOL     OW19027   1.986   0.712   4.040
 6043SOL    HW119028   2.055   0.654   3.997
 6043SOL    HW219029   2.030   0.773   4.106
 6044SOL     OW19030   2.043   1.793   1.609
 6044SOL    HW119031   2.138   1.766   1.620
 6044SOL    HW219032   2.038   1.888   1.578
 6045SOL     OW19033   5.165   3.031   3.253
 6045SOL    HW119034   5.118   2.944   3.268
 6045SOL    HW219035   5.097   3.103   3.239
 6046SOL     OW19036   3.655   2.571   1.717
 6046SOL    HW119037   3.751   2.586   1.692
 6046SOL    HW219038   3.648   2.487   1.770
 6047SOL     OW19039   5.775   1.911   0.466
 6047SOL    HW119040   5.769   1.888   0.369
 6047SOL    HW219041   5.699   1.972   0.491
 6048SOL     OW19042   5.547   5.308   4.971
 6048SOL    HW119043   5.460   5.277   4.931
 6048SOL    HW219044   5.575   5.394   4.927
 6049SOL     OW19045   5.310   5.197   5.919
 6049SOL    HW119046   5.353   5.284   5.893
 6049SOL    HW219047   5.236   5.215   5.984
 6050SOL     OW19048   3.144   5.805   0.925
 6050SOL    HW119049   3.119   5.709   0.912
 6050SOL    HW219050   3.109   5.837   1.013
 6051SOL     OW19051   0.214   1.734   2.818
 6051SOL    HW119052   0.139   1.668   2.812
 6051SOL    HW219053   0.223   1.782   2.731
 6052SOL     OW19054   5.396   6.745   1.006
 6052SOL    HW119055   5.487   6.773   0.976
 6052SOL    HW219056   5.332   6.750   0.930
 6053SOL     OW19057   4.149   1.385   6.226
 6053SOL    HW119058   4.232   1.392   6.171
 6053SOL    HW219059   4.093   1.466   6.213
 6054SOL     OW19060   3.654   5.157   0.725
 6054SOL    HW119061   3.670   5.138   0.628
 6054SOL    HW219062   3.670   5.254   0.743
 6055SOL     OW19063   3.225   5.604   6.627
 6055SOL    HW119064   3.285   5.584   6.704
 6055SOL    HW219065   3.199   5.518   6.582
 6056SOL     OW19066   5.819   3.716   4.863
 6056SOL    HW119067   5.799   3.639   4.923
 6056SOL    HW219068   5.753   3.717   4.787
 6057SOL     OW19069   4.902   0.253   2.655
 6057SOL    HW119070   4.903   0.287   2.749
 6057SOL    HW219071   4.819   0.200   2.639
 6058SOL     OW19072   6.202   3.325   0.474
 6058SOL    HW119073   6.136   3.260   0.514
 6058SOL    HW219074   6.244   3.283   0.393
 6059SOL     OW19075   5.355   4.124   5.970
 6059SOL    HW119076   5.361   4.156   6.065
 6059SOL    HW219077   5.260   4.133   5.938
 6060SOL     OW19078   3.084   3.331   0.496
 6060SOL    HW119079   3.179   3.362   0.484
 6060SOL    HW219080   3.083   3.255   0.562
 6061SOL     OW19081   3.833   4.748   0.852
 6061SOL    HW119082   3.890   4.665   0.848
 6061SOL    HW219083   3.750   4.734   0.798
 6062SOL     OW19084   2.779   2.147   7.017
 6062SOL    HW119085   2.779   2.247   0.003
 6062SOL    HW219086   2.685   2.113   7.022
 6063SOL     OW19087   4.180   4.129   5.854
 6063SOL    HW119088   4.201   4.183   5.773
 6063SOL    HW219089   4.083   4.138   5.876
 6064SOL     OW19090   0.162   0.586   0.557
 6064SOL    HW119091   0.258   0.560   0.546
 6064SOL    HW219092   0.125   0.542   0.639
 6065SOL     OW19093   1.113   5.097   1.950
 6065SOL    HW119094   1.017   5.072   1.936
 6065SOL    HW219095   1.171   5.033   1.900
 6066SOL     OW19096   5.207   1.041   3.442
 6066SOL    HW119097   5.228   1.083   3.354
 6066SOL    HW219098   5.126   0.983   3.432
 6067SOL     OW19099   6.102   6.789   5.443
 6067SOL    HW119100   6.126   6.837   5.358
 6067SOL    HW219101   6.004   6.768   5.442
 6068SOL     OW19102   4.825   1.332   4.755
 6068SOL    HW119103   4.736   1.302   4.789
 6068SOL    HW219104   4.869   1.257   4.705
 6069SOL     OW19105   0.115   2.766   5.817
 6069SOL    HW119106   0.044   2.787   5.884
 6069SOL    HW219107   0.091   2.807   5.729
 6070SOL     OW19108   3.415   2.204   1.789
 6070SOL    HW119109   3.498   2.256   1.809
 6070SOL    HW219110   3.420   2.169   1.695
 6071SOL     OW19111   6.864   6.259   5.043
 6071SOL    HW119112   6.872   6.199   5.122
 6071SOL    HW219113   6.844   6.205   4.961
 6072SOL     OW19114   1.042   1.877   0.842
 6072SOL    HW119115   0.952   1.854   0.805
 6072SOL    HW219116   1.070   1.967   0.809
 6073SOL     OW19117   4.841   2.933   0.870
 6073SOL    HW119118   4.889   2.939   0.782
 6073SOL    HW219119   4.883   2.996   0.935
 6074SOL     OW19120   1.175   6.573   2.303
 6074SOL    HW119121   1.125   6.659   2.315
 6074SOL    HW219122   1.231   6.556   2.384
 6075SOL     OW19123   4.316   6.603   6.555
 6075SOL    HW119124   4.335   6.645   6.467
 6075SOL    HW219125   4.319   6.504   6.547
 6076SOL     OW19126   2.397   4.693   4.126
 6076SOL    HW119127   2.340   4.675   4.046
 6076SOL    HW219128   2.352   4.760   4.185
 6077SOL     OW19129   6.032   6.563   1.259
 6077SOL    HW119130   6.001   6.608   1.342
 6077SOL    HW219131   6.017   6.464   1.267
 6078SOL     OW19132   4.199   4.292   0.549
 6078SOL    HW119133   4.211   4.335   0.459
 6078SOL    HW219134   4.222   4.357   0.621
 6079SOL     OW19135   4.567   4.504   6.836
 6079SOL    HW119136   4.637   4.457   6.781
 6079SOL    HW219137   4.551   4.452   6.920
 6080SOL     OW19138   1.293   4.539   1.183
 6080SOL    HW119139   1.291   4.477   1.105
 6080SOL    HW219140   1.234   4.503   1.256
 6081SOL     OW19141   0.343   3.739   5.253
 6081SOL    HW119142   0.401   3.788   5.188
 6081SOL    HW219143   0.247   3.764   5.238
 6082SOL     OW19144   4.274   0.360   1.628
 6082SOL    HW119145   4.257   0.277   1.574
 6082SOL    HW219146   4.296   0.334   1.722
 6083SOL     OW19147   5.164   6.729   6.865
 6083SOL    HW119148   5.227   6.800   6.896
 6083SOL    HW219149   5.111   6.695   6.943
 6084SOL     OW19150   0.658   6.538   2.200
 6084SOL    HW119151   0.727   6.469   2.221
 6084SOL    HW219152   0.677   6.578   2.111
 6085SOL     OW19153   6.158   6.510   6.969
 6085SOL    HW119154   6.210   6.449   0.004
 6085SOL    HW219155   6.216   6.586   6.940
 6086SOL     OW19156   3.934   3.659   6.752
 6086SOL    HW119157   3.981   3.687   6.668
 6086SOL    HW219158   3.908   3.562   6.744
 6087SOL     OW19159   4.496   6.567   0.198
 6087SOL    HW119160   4.561   6.554   0.272
 6087SOL    HW219161   4.404   6.545   0.230
 6088SOL     OW19162   4.951   6.038   4.867
 6088SOL    HW119163   4.981   6.054   4.773
 6088SOL    HW219164   4.937   6.126   4.912
 6089SOL     OW19165   6.525   2.072   2.185
 6089SOL    HW119166   6.553   2.146   2.124
 6089SOL    HW219167   6.431   2.088   2.215
 6090SOL     OW19168   3.146   5.342   3.965
 6090SOL    HW119169   3.195   5.384   4.042
 6090SOL    HW219170   3.049   5.367   3.970
 6091SOL     OW19171   2.508   0.789   1.491
 6091SOL    HW119172   2.426   0.734   1.512
 6091SOL    HW219173   2.570   0.787   1.569
 6092SOL     OW19174   4.438   0.086   2.055
 6092SOL    HW119175   4.531   0.104   2.088
 6092SOL    HW219176   4.424   7.013   2.049
 6093SOL     OW19177   1.606   1.717   2.290
 6093SOL    HW119178   1.517   1.699   2.330
 6093SOL    HW219179   1.597   1.788   2.220
 6094SOL     OW19180   0.876   6.881   4.438
 6094SOL    HW119181   0.904   6.869   4.343
 6094SOL    HW219182   0.946   6.934   4.487
 6095SOL     OW19183   4.165   5.368   0.039
 6095SOL    HW119184   4.148   5.377   6.966
 6095SOL    HW219185   4.116   5.440   0.088
 6096SOL     OW19186   5.792   6.140   2.267
 6096SOL    HW119187   5.855   6.214   2.292
 6096SOL    HW219188   5.783   6.137   2.168
 6097SOL     OW19189   1.413   6.082   2.015
 6097SOL    HW119190   1.445   6.172   2.046
 6097SOL    HW219191   1.340   6.050   2.075
 6098SOL     OW19192   6.806   0.630   5.353
 6098SOL    HW119193   6.882   0.689   5.328
 6098SOL    HW219194   6.832   0.534   5.339
 6099SOL     OW19195   5.535   6.383   5.778
 6099SOL    HW119196   5.438   6.385   5.754
 6099SOL    HW219197   5.572   6.292   5.758
 6100SOL     OW19198   0.669   6.099   2.742
 6100SOL    HW119199   0.653   6.000   2.742
 6100SOL    HW219200   0.767   6.116   2.734
 6101SOL     OW19201   6.653   1.991   1.599
 6101SOL    HW119202   6.752   1.978   1.599
 6101SOL    HW219203   6.618   1.987   1.692
 6102SOL     OW19204   4.656   6.421   2.472
 6102SOL    HW119205   4.557   6.425   2.455
 6102SOL    HW219206   4.686   6.326   2.469
 6103SOL     OW19207   6.647   1.773   1.166
 6103SOL    HW119208   6.676   1.689   1.120
 6103SOL    HW219209   6.690   1.852   1.123
 6104SOL     OW19210   6.199   1.412   5.018
 6104SOL    HW119211   6.126   1.478   5.034
 6104SOL    HW219212   6.160   1.321   5.008
 6105SOL     OW19213   2.865   5.610   5.607
 6105SOL    HW119214   2.893   5.648   5.696
 6105SOL    HW219215   2.894   5.672   5.534
 6106SOL     OW19216   0.912   3.778   0.158
 6106SOL    HW119217   0.877   3.871   0.150
 6106SOL    HW219218   0.847   3.722   0.210
 6107SOL     OW19219   4.898   5.070   4.853
 6107SOL    HW119220   4.828   5.125   4.899
 6107SOL    HW219221   4.853   4.998   4.800
 6108SOL     OW19222   1.427   1.407   2.081
 6108SOL    HW119223   1.403   1.359   2.166
 6108SOL    HW219224   1.350   1.465   2.053
 6109SOL     OW19225   5.265   0.316   3.702
 6109SOL    HW119226   5.361   0.294   3.715
 6109SOL    HW219227   5.230   0.366   3.782
 6110SOL     OW19228   0.658   1.993   5.968
 6110SOL    HW119229   0.562   1.974   5.950
 6110SOL    HW219230   0.666   2.068   6.033
 6111SOL     OW19231   1.264   3.663   1.815
 6111SOL    HW119232   1.254   3.756   1.782
 6111SOL    HW219233   1.360   3.637   1.814
 6112SOL     OW19234   3.308   0.537   2.507
 6112SOL    HW119235   3.403   0.546   2.539
 6112SOL    HW219236   3.308   0.505   2.413
 6113SOL     OW19237   2.367   4.494   6.949
 6113SOL    HW119238   2.431   4.559   6.908
 6113SOL    HW219239   2.381   4.404   6.909
 6114SOL     OW19240   5.043   1.745   1.541
 6114SOL    HW119241   4.951   1.717   1.515
 6114SOL    HW219242   5.110   1.683   1.499
 6115SOL     OW19243   0.588   1.149   5.470
 6115SOL    HW119244   0.565   1.235   5.515
 6115SOL    HW219245   0.677   1.118   5.502
 6116SOL     OW19246   3.975   2.281   5.300
 6116SOL    HW119247   3.932   2.322   5.381
 6116SOL    HW219248   3.912   2.216   5.259
 6117SOL     OW19249   1.363   1.955   2.907
 6117SOL    HW119250   1.427   2.025   2.875
 6117SOL    HW219251   1.415   1.878   2.946
 6118SOL     OW19252   6.270   1.214   0.929
 6118SOL    HW119253   6.313   1.301   0.905
 6118SOL    HW219254   6.241   1.167   0.846
 6119SOL     OW19255   0.319   2.382   0.149
 6119SOL    HW119256   0.401   2.372   0.205
 6119SOL    HW219257   0.337   2.348   0.057
 6120SOL     OW19258   2.416   6.899   5.482
 6120SOL    HW119259   2.337   6.839   5.491
 6120SOL    HW219260   2.386   6.994   5.479
 6121SOL     OW19261   0.454   3.601   5.773
 6121SOL    HW119262   0.413   3.651   5.697
 6121SOL    HW219263   0.485   3.666   5.843
 6122SOL     OW19264   5.090   6.151   5.408
 6122SOL    HW119265   5.177   6.137   5.359
 6122SOL    HW219266   5.036   6.066   5.404
 6123SOL     OW19267   5.068   1.451   5.830
 6123SOL    HW119268   5.136   1.423   5.897
 6123SOL    HW219269   5.069   1.387   5.753
 6124SOL     OW19270   2.370   0.268   5.135
 6124SOL    HW119271   2.311   0.211   5.077
 6124SOL    HW219272   2.313   0.322   5.197
 6125SOL     OW19273   2.566   4.214   0.330
 6125SOL    HW119274   2.631   4.273   0.379
 6125SOL    HW219275   2.518   4.268   0.261
 6126SOL     OW19276   0.585   2.278   5.130
 6126SOL    HW119277   0.665   2.286   5.190
 6126SOL    HW219278   0.503   2.265   5.185
 6127SOL     OW19279   4.277   1.190   1.686
 6127SOL    HW119280   4.318   1.281   1.693
 6127SOL    HW219281   4.180   1.195   1.711
 6128SOL     OW19282   5.536   5.820   0.534
 6128SOL    HW119283   5.630   5.854   0.539
 6128SOL    HW219284   5.536   5.726   0.500
 6129SOL     OW19285   2.096   4.609   3.501
 6129SOL    HW119286   2.169   4.645   3.559
 6129SOL    HW219287   2.085   4.668   3.421
 6130SOL     OW19288   5.422   2.685   2.021
 6130SOL    HW119289   5.419   2.586   2.007
 6130SOL    HW219290   5.355   2.711   2.090
 6131SOL     OW19291   6.983   2.082   2.133
 6131SOL    HW119292   6.974   2.158   2.070
 6131SOL    HW219293   0.054   2.057   2.142
 6132SOL     OW19294   3.413   1.696   6.662
 6132SOL    HW119295   3.368   1.619   6.706
 6132SOL    HW219296   3.360   1.724   6.581
 6133SOL     OW19297   1.598   2.390   3.565
 6133SOL    HW119298   1.523   2.445   3.603
 6133SOL    HW219299   1.564   2.300   3.538
 6134SOL     OW19300   5.539   6.400   6.177
 6134SOL    HW119301   5.519   6.302   6.177
 6134SOL    HW219302   5.453   6.452   6.173
 6135SOL     OW19303   6.323   0.095   0.030
 6135SOL    HW119304   6.363   0.137   0.112
 6135SOL    HW219305   6.239   0.143   0.006
 6136SOL     OW19306   1.475   3.001   1.112
 6136SOL    HW119307   1.490   3.086   1.163
 6136SOL    HW219308   1.384   2.966   1.132
 6137SOL     OW19309   0.916   4.154   3.563
 6137SOL    HW119310   0.922   4.248   3.528
 6137SOL    HW219311   1.004   4.129   3.604
 6138SOL     OW19312   4.167   0.131   2.149
 6138SOL    HW119313   4.184   0.213   2.203
 6138SOL    HW219314   4.254   0.093   2.117
 6139SOL     OW19315   0.862   6.628   6.091
 6139SOL    HW119316   0.798   6.579   6.032
 6139SOL    HW219317   0.843   6.726   6.086
 6140SOL     OW19318   1.239   0.251   3.172
 6140SOL    HW119319   1.293   0.311   3.113
 6140SOL    HW219320   1.180   0.306   3.230
 6141SOL     OW19321   0.480   0.308   6.356
 6141SOL    HW119322   0.477   0.401   6.394
 6141SOL    HW219323   0.530   0.309   6.269
 6142SOL     OW19324   1.052   1.023   0.126
 6142SOL    HW119325   1.112   0.944   0.112
 6142SOL    HW219326   1.097   1.105   0.090
 6143SOL     OW19327   6.928   3.755   0.171
 6143SOL    HW119328   7.005   3.819   0.180
 6143SOL    HW219329   6.846   3.796   0.210
 6144SOL     OW19330   4.610   4.352   3.315
 6144SOL    HW119331   4.606   4.288   3.238
 6144SOL    HW219332   4.536   4.419   3.307
 6145SOL     OW19333   5.879   4.206   3.907
 6145SOL    HW119334   5.967   4.212   3.956
 6145SOL    HW219335   5.804   4.213   3.973
 6146SOL     OW19336   3.872   0.471   4.166
 6146SOL    HW119337   3.966   0.445   4.145
 6146SOL    HW219338   3.845   0.432   4.253
 6147SOL     OW19339   1.908   3.149   4.594
 6147SOL    HW119340   1.890   3.248   4.597
 6147SOL    HW219341   1.998   3.131   4.634
 6148SOL     OW19342   3.879   4.851   6.781
 6148SOL    HW119343   3.913   4.844   6.687
 6148SOL    HW219344   3.903   4.941   6.818
 6149SOL     OW19345   2.226   6.863   2.048
 6149SOL    HW119346   2.135   6.821   2.047
 6149SOL    HW219347   2.224   6.944   2.106
 6150SOL     OW19348   6.519   4.202   6.808
 6150SOL    HW119349   6.519   4.124   6.745
 6150SOL    HW219350   6.595   4.193   6.872
 6151SOL     OW19351   5.555   5.371   4.448
 6151SOL    HW119352   5.601   5.357   4.536
 6151SOL    HW219353   5.470   5.421   4.463
 6152SOL     OW19354   0.934   5.776   4.137
 6152SOL    HW119355   0.843   5.785   4.178
 6152SOL    HW219356   1.002   5.767   4.209
 6153SOL     OW19357   4.928   5.387   0.744
 6153SOL    HW119358   4.843   5.377   0.797
 6153SOL    HW219359   5.005   5.359   0.801
 6154SOL     OW19360   4.962   3.719   2.671
 6154SOL    HW119361   4.920   3.751   2.586
 6154SOL    HW219362   4.993   3.625   2.659
 6155SOL     OW19363   2.633   1.036   2.754
 6155SOL    HW119364   2.540   1.050   2.719
 6155SOL    HW219365   2.650   1.098   2.831
 6156SOL     OW19366   5.228   4.093   1.675
 6156SOL    HW119367   5.287   4.152   1.619
 6156SOL    HW219368   5.133   4.124   1.668
 6157SOL     OW19369   0.627   2.333   3.406
 6157SOL    HW119370   0.642   2.398   3.480
 6157SOL    HW219371   0.535   2.295   3.412
 6158SOL     OW19372   3.246   2.254   6.150
 6158SOL    HW119373   3.301   2.191   6.095
 6158SOL    HW219374   3.183   2.303   6.090
 6159SOL     OW19375   5.207   2.912   0.057
 6159SOL    HW119376   5.257   2.829   0.084
 6159SOL    HW219377   5.129   2.887   7.025
 6160SOL     OW19378   6.960   0.332   6.096
 6160SOL    HW119379   6.899   0.315   6.174
 6160SOL    HW219380   6.919   0.293   6.013
 6161SOL     OW19381   5.135   2.721   6.179
 6161SOL    HW119382   5.066   2.653   6.153
 6161SOL    HW219383   5.094   2.811   6.183
 6162SOL     OW19384   5.649   6.722   3.185
 6162SOL    HW119385   5.564   6.772   3.203
 6162SOL    HW219386   5.712   6.735   3.261
 6163SOL     OW19387   5.101   6.297   2.820
 6163SOL    HW119388   5.105   6.206   2.862
 6163SOL    HW219389   5.065   6.289   2.727
 6164SOL     OW19390   3.556   4.104   4.214
 6164SOL    HW119391   3.583   4.056   4.297
 6164SOL    HW219392   3.469   4.152   4.231
 6165SOL     OW19393   4.071   2.363   0.223
 6165SOL    HW119394   4.151   2.318   0.263
 6165SOL    HW219395   4.085   2.462   0.223
 6166SOL     OW19396   6.752   2.032   0.072
 6166SOL    HW119397   6.729   2.087   7.018
 6166SOL    HW219398   6.737   2.086   0.155
 6167SOL     OW19399   1.540   4.923   2.890
 6167SOL    HW119400   1.596   4.978   2.829
 6167SOL    HW219401   1.446   4.958   2.891
 6168SOL     OW19402   6.349   2.547   3.443
 6168SOL    HW119403   6.440   2.520   3.476
 6168SOL    HW219404   6.280   2.518   3.509
 6169SOL     OW19405   0.994   0.686   6.231
 6169SOL    HW119406   0.974   0.640   6.317
 6169SOL    HW219407   0.932   0.651   6.160
 6170SOL     OW19408   3.382   4.472   6.835
 6170SOL    HW119409   3.439   4.392   6.814
 6170SOL    HW219410   3.417   4.518   6.917
 6171SOL     OW19411   1.141   3.993   2.367
 6171SOL    HW119412   1.073   3.974   2.438
 6171SOL    HW219413   1.096   3.993   2.278
 6172SOL     OW19414   0.388   0.725   2.050
 6172SOL    HW119415   0.360   0.672   2.131
 6172SOL    HW219416   0.436   0.807   2.079
 6173SOL     OW19417   0.873   4.962   2.605
 6173SOL    HW119418   0.948   4.900   2.580
 6173SOL    HW219419   0.884   5.049   2.556
 6174SOL     OW19420   5.818   4.684   2.665
 6174SOL    HW119421   5.764   4.679   2.581
 6174SOL    HW219422   5.814   4.777   2.701
 6175SOL     OW19423   5.670   6.375   2.596
 6175SOL    HW119424   5.575   6.373   2.626
 6175SOL    HW219425   5.730   6.369   2.676
 6176SOL     OW19426   6.261   3.510   6.843
 6176SOL    HW119427   6.187   3.563   6.885
 6176SOL    HW219428   6.231   3.474   6.755
 6177SOL     OW19429   5.200   1.070   1.219
 6177SOL    HW119430   5.253   1.112   1.145
 6177SOL    HW219431   5.248   1.084   1.305
 6178SOL     OW19432   4.704   4.780   1.612
 6178SOL    HW119433   4.666   4.868   1.643
 6178SOL    HW219434   4.746   4.733   1.690
 6179SOL     OW19435   0.008   3.682   4.978
 6179SOL    HW119436   6.962   3.665   4.910
 6179SOL    HW219437   0.056   3.596   4.997
 6180SOL     OW19438   3.486   6.903   0.364
 6180SOL    HW119439   3.435   6.849   0.432
 6180SOL    HW219440   3.441   6.896   0.275
 6181SOL     OW19441   4.702   6.496   0.354
 6181SOL    HW119442   4.676   6.443   0.435
 6181SOL    HW219443   4.802   6.501   0.348
 6182SOL     OW19444   5.109   5.327   5.300
 6182SOL    HW119445   5.018   5.306   5.263
 6182SOL    HW219446   5.130   5.264   5.375
 6183SOL     OW19447   1.823   0.382   2.766
 6183SOL    HW119448   1.892   0.451   2.744
 6183SOL    HW219449   1.758   0.420   2.832
 6184SOL     OW19450   1.796   6.970   0.174
 6184SOL    HW119451   1.867   7.022   0.126
 6184SOL    HW219452   1.715   0.001   0.188
 6185SOL     OW19453   1.041   3.657   6.782
 6185SOL    HW119454   0.973   3.674   6.710
 6185SOL    HW219455   1.016   3.710   6.863
 6186SOL     OW19456   5.403   0.182   4.413
 6186SOL    HW119457   5.448   0.263   4.378
 6186SOL    HW219458   5.435   0.102   4.362
 6187SOL     OW19459   5.236   5.029   3.715
 6187SOL    HW119460   5.274   5.075   3.795
 6187SOL    HW219461   5.149   4.986   3.739
 6188SOL     OW19462   2.079   6.283   1.345
 6188SOL    HW119463   2.114   6.334   1.424
 6188SOL    HW219464   2.066   6.187   1.371
 6189SOL     OW19465   4.952   4.946   3.123
 6189SOL    HW119466   5.045   4.917   3.098
 6189SOL    HW219467   4.916   4.886   3.194
 6190SOL     OW19468   5.473   3.935   6.402
 6190SOL    HW119469   5.379   3.904   6.387
 6190SOL    HW219470   5.518   3.948   6.313
 6191SOL     OW19471   5.554   2.131   0.865
 6191SOL    HW119472   5.643   2.090   0.882
 6191SOL    HW219473   5.501   2.132   0.949
 6192SOL     OW19474   3.150   3.628   0.433
 6192SOL    HW119475   3.053   3.611   0.451
 6192SOL    HW219476   3.170   3.725   0.449
 6193SOL     OW19477   4.746   0.252   1.929
 6193SOL    HW119478   4.772   0.346   1.906
 6193SOL    HW219479   4.780   0.191   1.858
 6194SOL     OW19480   2.242   0.176   0.787
 6194SOL    HW119481   2.148   0.151   0.807
 6194SOL    HW219482   2.244   0.256   0.727
 6195SOL     OW19483   4.165   5.172   5.603
 6195SOL    HW119484   4.215   5.147   5.520
 6195SOL    HW219485   4.160   5.093   5.664
 6196SOL     OW19486   0.360   2.854   6.145
 6196SOL    HW119487   0.420   2.830   6.069
 6196SOL    HW219488   0.321   2.945   6.130
 6197SOL     OW19489   2.895   4.252   0.957
 6197SOL    HW119490   2.807   4.206   0.953
 6197SOL    HW219491   2.913   4.283   1.051
 6198SOL     OW19492   3.741   6.082   2.903
 6198SOL    HW119493   3.837   6.103   2.882
 6198SOL    HW219494   3.692   6.063   2.818
 6199SOL     OW19495   0.155   0.130   0.938
 6199SOL    HW119496   0.234   0.113   0.879
 6199SOL    HW219497   0.152   0.227   0.963
 6200SOL     OW19498   2.525   1.438   6.721
 6200SOL    HW119499   2.614   1.483   6.712
 6200SOL    HW219500   2.468   1.461   6.642
 6201SOL     OW19501   2.332   5.075   5.641
 6201SOL    HW119502   2.348   4.976   5.643
 6201SOL    HW219503   2.418   5.123   5.662
 6202SOL     OW19504   4.115   1.742   1.513
 6202SOL    HW119505   4.062   1.811   1.462
 6202SOL    HW219506   4.167   1.787   1.586
 6203SOL     OW19507   5.035   0.144   3.639
 6203SOL    HW119508   5.003   0.135   3.733
 6203SOL    HW219509   5.116   0.203   3.636
 6204SOL     OW19510   0.548   4.675   5.245
 6204SOL    HW119511   0.626   4.706   5.299
 6204SOL    HW219512   0.532   4.739   5.170
 6205SOL     OW19513   5.249   5.457   6.733
 6205SOL    HW119514   5.245   5.415   6.642
 6205SOL    HW219515   5.244   5.556   6.724
 6206SOL     OW19516   6.999   0.320   2.333
 6206SOL    HW119517   6.976   0.236   2.284
 6206SOL    HW219518   0.069   0.315   2.364
 6207SOL     OW19519   1.527   3.944   4.687
 6207SOL    HW119520   1.452   3.879   4.684
 6207SOL    HW219521   1.597   3.912   4.751
 6208SOL     OW19522   6.010   0.482   5.755
 6208SOL    HW119523   6.030   0.517   5.847
 6208SOL    HW219524   6.093   0.443   5.715
 6209SOL     OW19525   3.817   6.132   0.339
 6209SOL    HW119526   3.783   6.039   0.329
 6209SOL    HW219527   3.764   6.194   0.282
 6210SOL     OW19528   5.555   4.274   3.270
 6210SOL    HW119529   5.607   4.189   3.275
 6210SOL    HW219530   5.609   4.349   3.308
 6211SOL     OW19531   2.751   0.005   6.414
 6211SOL    HW119532   2.839   0.028   6.373
 6211SOL    HW219533   2.766   6.975   6.496
 6212SOL     OW19534   0.202   5.923   3.031
 6212SOL    HW119535   0.141   5.848   3.004
 6212SOL    HW219536   0.293   5.888   3.051
 6213SOL     OW19537   5.714   0.016   6.248
 6213SOL    HW119538   5.687   0.094   6.191
 6213SOL    HW219539   5.748   0.048   6.336
 6214SOL     OW19540   5.961   4.969   2.950
 6214SOL    HW119541   5.873   4.940   2.988
 6214SOL    HW219542   5.990   4.906   2.879
 6215SOL     OW19543   3.666   1.580   0.080
 6215SOL    HW119544   3.731   1.588   0.156
 6215SOL    HW219545   3.661   1.485   0.050
 6216SOL     OW19546   6.369   1.816   1.915
 6216SOL    HW119547   6.362   1.774   1.825
 6216SOL    HW219548   6.335   1.752   1.984
 6217SOL     OW19549   5.466   2.714   1.652
 6217SOL    HW119550   5.517   2.761   1.724
 6217SOL    HW219551   5.521   2.640   1.614
 6218SOL     OW19552   3.666   4.957   3.820
 6218SOL    HW119553   3.575   4.959   3.861
 6218SOL    HW219554   3.721   5.032   3.857
 6219SOL     OW19555   1.247   1.513   4.770
 6219SOL    HW119556   1.333   1.529   4.722
 6219SOL    HW219557   1.260   1.529   4.868
 6220SOL     OW19558   1.852   4.475   5.510
 6220SOL    HW119559   1.927   4.482   5.576
 6220SOL    HW219560   1.829   4.567   5.477
 6221SOL     OW19561   5.063   4.954   5.233
 6221SOL    HW119562   5.086   5.008   5.314
 6221SOL    HW219563   4.966   4.966   5.211
 6222SOL     OW19564   0.724   6.794   1.192
 6222SOL    HW119565   0.771   6.714   1.228
 6222SOL    HW219566   0.668   6.835   1.265
 6223SOL     OW19567   5.883   3.173   4.439
 6223SOL    HW119568   5.947   3.102   4.408
 6223SOL    HW219569   5.922   3.263   4.421
 6224SOL     OW19570   1.853   1.676   6.346
 6224SOL    HW119571   1.842   1.741   6.271
 6224SOL    HW219572   1.777   1.684   6.409
 6225SOL     OW19573   3.249   3.582   1.462
 6225SOL    HW119574   3.202   3.543   1.541
 6225SOL    HW219575   3.347   3.586   1.480
 6226SOL     OW19576   5.864   1.576   3.819
 6226SOL    HW119577   5.963   1.562   3.813
 6226SOL    HW219578   5.844   1.639   3.894
 6227SOL     OW19579   2.917   4.357   6.215
 6227SOL    HW119580   2.958   4.298   6.285
 6227SOL    HW219581   2.928   4.453   6.242
 6228SOL     OW19582   0.158   2.257   3.154
 6228SOL    HW119583   0.207   2.172   3.174
 6228SOL    HW219584   0.071   2.236   3.110
 6229SOL     OW19585   1.695   1.992   3.214
 6229SOL    HW119586   1.664   1.975   3.307
 6229SOL    HW219587   1.640   1.938   3.150
 6230SOL     OW19588   1.693   1.413   4.867
 6230SOL    HW119589   1.756   1.371   4.802
 6230SOL    HW219590   1.659   1.344   4.931
 6231SOL     OW19591   6.903   5.084   1.436
 6231SOL    HW119592   6.857   5.010   1.389
 6231SOL    HW219593   6.869   5.172   1.402
 6232SOL     OW19594   0.049   1.247   6.964
 6232SOL    HW119595   0.042   1.342   6.995
 6232SOL    HW219596   0.140   1.231   6.926
 6233SOL     OW19597   5.536   2.037   6.678
 6233SOL    HW119598   5.467   1.964   6.687
 6233SOL    HW219599   5.580   2.053   6.766
 6234SOL     OW19600   0.727   1.161   4.856
 6234SOL    HW119601   0.733   1.255   4.824
 6234SOL    HW219602   0.652   1.153   4.922
 6235SOL     OW19603   1.652   6.666   3.318
 6235SOL    HW119604   1.655   6.626   3.410
 6235SOL    HW219605   1.564   6.712   3.305
 6236SOL     OW19606   0.436   4.885   1.207
 6236SOL    HW119607   0.373   4.844   1.274
 6236SOL    HW219608   0.483   4.963   1.248
 6237SOL     OW19609   4.736   6.015   0.495
 6237SOL    HW119610   4.660   6.078   0.483
 6237SOL    HW219611   4.765   6.014   0.591
 6238SOL     OW19612   4.555   5.108   2.787
 6238SOL    HW119613   4.650   5.083   2.767
 6238SOL    HW219614   4.553   5.195   2.835
 6239SOL     OW19615   2.824   6.379   1.883
 6239SOL    HW119616   2.760   6.455   1.894
 6239SOL    HW219617   2.859   6.378   1.790
 6240SOL     OW19618   2.700   1.841   0.759
 6240SOL    HW119619   2.720   1.841   0.857
 6240SOL    HW219620   2.779   1.877   0.709
 6241SOL     OW19621   2.368   1.047   2.635
 6241SOL    HW119622   2.354   1.145   2.644
 6241SOL    HW219623   2.280   1.000   2.633
 6242SOL     OW19624   5.511   1.476   3.516
 6242SOL    HW119625   5.558   1.395   3.479
 6242SOL    HW219626   5.412   1.462   3.510
 6243SOL     OW19627   5.850   6.750   3.363
 6243SOL    HW119628   5.945   6.781   3.357
 6243SOL    HW219629   5.794   6.822   3.404
 6244SOL     OW19630   1.837   2.337   1.861
 6244SOL    HW119631   1.765   2.351   1.793
 6244SOL    HW219632   1.884   2.251   1.841
 6245SOL     OW19633   2.930   4.184   1.748
 6245SOL    HW119634   2.981   4.114   1.799
 6245SOL    HW219635   2.919   4.265   1.805
 6246SOL     OW19636   2.655   2.603   6.557
 6246SOL    HW119637   2.695   2.675   6.612
 6246SOL    HW219638   2.696   2.604   6.466
 6247SOL     OW19639   0.197   6.593   3.690
 6247SOL    HW119640   0.264   6.586   3.764
 6247SOL    HW219641   0.146   6.508   3.682
 6248SOL     OW19642   0.730   3.710   1.263
 6248SOL    HW119643   0.761   3.656   1.341
 6248SOL    HW219644   0.637   3.683   1.239
 6249SOL     OW19645   0.348   4.633   0.217
 6249SOL    HW119646   0.347   4.677   0.307
 6249SOL    HW219647   0.363   4.535   0.228
 6250SOL     OW19648   6.498   6.217   0.443
 6250SOL    HW119649   6.466   6.153   0.374
 6250SOL    HW219650   6.420   6.268   0.481
 6251SOL     OW19651   3.864   6.699   1.016
 6251SOL    HW119652   3.769   6.723   0.995
 6251SOL    HW219653   3.891   6.743   1.102
 6252SOL     OW19654   2.018   6.043   4.710
 6252SOL    HW119655   1.936   6.097   4.693
 6252SOL    HW219656   2.095   6.083   4.661
 6253SOL     OW19657   2.271   4.198   2.402
 6253SOL    HW119658   2.240   4.222   2.494
 6253SOL    HW219659   2.256   4.275   2.340
 6254SOL     OW19660   5.194   1.040   6.979
 6254SOL    HW119661   5.188   1.103   6.901
 6254SOL    HW219662   5.136   0.960   6.962
 6255SOL     OW19663   1.248   1.190   1.778
 6255SOL    HW119664   1.200   1.163   1.861
 6255SOL    HW219665   1.336   1.230   1.802
 6256SOL     OW19666   4.117   5.108   3.035
 6256SOL    HW119667   4.213   5.125   3.053
 6256SOL    HW219668   4.089   5.024   3.082
 6257SOL     OW19669   5.592   2.286   1.216
 6257SOL    HW119670   5.566   2.371   1.260
 6257SOL    HW219671   5.637   2.226   1.283
 6258SOL     OW19672   4.503   0.893   3.076
 6258SOL    HW119673   4.445   0.970   3.048
 6258SOL    HW219674   4.598   0.923   3.078
 6259SOL     OW19675   2.828   1.551   1.308
 6259SOL    HW119676   2.901   1.533   1.374
 6259SOL    HW219677   2.850   1.634   1.257
 6260SOL     OW19678   3.255   3.901   0.471
 6260SOL    HW119679   3.183   3.967   0.446
 6260SOL    HW219680   3.345   3.944   0.457
 6261SOL     OW19681   3.382   6.692   6.621
 6261SOL    HW119682   3.394   6.782   6.662
 6261SOL    HW219683   3.469   6.643   6.621
 6262SOL     OW19684   1.955   4.143   0.877
 6262SOL    HW119685   1.988   4.228   0.917
 6262SOL    HW219686   2.030   4.095   0.832
 6263SOL     OW19687   0.354   6.077   6.226
 6263SOL    HW119688   0.375   6.153   6.164
 6263SOL    HW219689   0.391   6.096   6.317
 6264SOL     OW19690   2.057   0.516   1.374
 6264SOL    HW119691   2.039   0.438   1.434
 6264SOL    HW219692   1.970   0.553   1.341
 6265SOL     OW19693   3.074   4.440   1.483
 6265SOL    HW119694   3.158   4.388   1.498
 6265SOL    HW219695   3.094   4.538   1.494
 6266SOL     OW19696   4.215   0.886   4.592
 6266SOL    HW119697   4.213   0.811   4.526
 6266SOL    HW219698   4.131   0.886   4.646
 6267SOL     OW19699   3.392   6.868   0.109
 6267SOL    HW119700   3.379   6.779   0.065
 6267SOL    HW219701   3.349   6.939   0.053
 6268SOL     OW19702   2.634   5.957   3.182
 6268SOL    HW119703   2.633   5.969   3.281
 6268SOL    HW219704   2.568   6.020   3.140
 6269SOL     OW19705   6.659   5.817   2.046
 6269SOL    HW119706   6.732   5.803   2.113
 6269SOL    HW219707   6.679   5.764   1.963
 6270SOL     OW19708   1.678   0.158   5.797
 6270SOL    HW119709   1.602   0.120   5.849
 6270SOL    HW219710   1.729   0.223   5.853
 6271SOL     OW19711   6.643   2.765   6.198
 6271SOL    HW119712   6.580   2.718   6.137
 6271SOL    HW219713   6.610   2.859   6.214
 6272SOL     OW19714   0.705   2.956   4.956
 6272SOL    HW119715   0.749   3.041   4.925
 6272SOL    HW219716   0.769   2.903   5.011
 6273SOL     OW19717   1.264   0.479   1.967
 6273SOL    HW119718   1.167   0.492   1.990
 6273SOL    HW219719   1.314   0.562   1.989
 6274SOL     OW19720   2.621   5.606   5.287
 6274SOL    HW119721   2.614   5.623   5.385
 6274SOL    HW219722   2.717   5.591   5.263
 6275SOL     OW19723   2.861   6.555   5.643
 6275SOL    HW119724   2.901   6.634   5.597
 6275SOL    HW219725   2.787   6.586   5.702
 6276SOL     OW19726   1.638   5.012   3.184
 6276SOL    HW119727   1.625   5.025   3.282
 6276SOL    HW219728   1.620   4.916   3.160
 6277SOL     OW19729   4.376   2.364   2.803
 6277SOL    HW119730   4.446   2.408   2.747
 6277SOL    HW219731   4.308   2.320   2.744
 6278SOL     OW19732   4.790   0.396   4.988
 6278SOL    HW119733   4.859   0.359   4.925
 6278SOL    HW219734   4.833   0.415   5.076
 6279SOL     OW19735   3.678   1.121   0.307
 6279SOL    HW119736   3.620   1.075   0.374
 6279SOL    HW219737   3.754   1.061   0.282
 6280SOL     OW19738   0.372   2.775   5.504
 6280SOL    HW119739   0.370   2.838   5.426
 6280SOL    HW219740   0.444   2.804   5.568
 6281SOL     OW19741   2.619   6.423   5.882
 6281SOL    HW119742   2.686   6.407   5.809
 6281SOL    HW219743   2.657   6.484   5.951
 6282SOL     OW19744   1.475   0.138   4.481
 6282SOL    HW119745   1.514   0.080   4.553
 6282SOL    HW219746   1.480   0.233   4.509
 6283SOL     OW19747   6.192   2.539   4.979
 6283SOL    HW119748   6.232   2.602   5.046
 6283SOL    HW219749   6.192   2.447   5.016
 6284SOL     OW19750   1.793   5.488   5.136
 6284SOL    HW119751   1.777   5.402   5.184
 6284SOL    HW219752   1.877   5.482   5.082
 6285SOL     OW19753   1.594   3.060   4.132
 6285SOL    HW119754   1.625   3.099   4.219
 6285SOL    HW219755   1.654   3.090   4.058
 6286SOL     OW19756   6.770   1.472   3.922
 6286SOL    HW119757   6.868   1.459   3.908
 6286SOL    HW219758   6.726   1.490   3.834
 6287SOL     OW19759   4.560   4.484   2.381
 6287SOL    HW119760   4.599   4.421   2.314
 6287SOL    HW219761   4.496   4.436   2.440
 6288SOL     OW19762   5.470   3.915   1.902
 6288SOL    HW119763   5.510   3.871   1.983
 6288SOL    HW219764   5.541   3.966   1.854
 6289SOL     OW19765   1.574   2.767   3.427
 6289SOL    HW119766   1.523   2.739   3.345
 6289SOL    HW219767   1.661   2.717   3.430
 6290SOL     OW19768   5.618   3.952   4.314
 6290SOL    HW119769   5.661   3.864   4.337
 6290SOL    HW219770   5.522   3.951   4.342
 6291SOL     OW19771   3.913   3.768   3.877
 6291SOL    HW119772   3.989   3.756   3.813
 6291SOL    HW219773   3.828   3.739   3.833
 6292SOL     OW19774   0.431   3.128   3.300
 6292SOL    HW119775   0.452   3.114   3.397
 6292SOL    HW219776   0.335   3.157   3.291
 6293SOL     OW19777   4.237   6.852   0.067
 6293SOL    HW119778   4.307   6.798   0.020
 6293SOL    HW219779   4.181   6.900   7.024
 6294SOL     OW19780   3.673   5.167   3.266
 6294SOL    HW119781   3.714   5.126   3.348
 6294SOL    HW219782   3.667   5.098   3.194
 6295SOL     OW19783   5.158   5.782   5.588
 6295SOL    HW119784   5.197   5.699   5.549
 6295SOL    HW219785   5.199   5.862   5.544
 6296SOL     OW19786   0.011   0.574   3.934
 6296SOL    HW119787   0.074   0.609   4.004
 6296SOL    HW219788   0.036   0.612   3.845
 6297SOL     OW19789   5.363   6.994   5.523
 6297SOL    HW119790   5.302   0.049   5.517
 6297SOL    HW219791   5.311   6.912   5.501
 6298SOL     OW19792   1.715   3.942   6.374
 6298SOL    HW119793   1.724   3.987   6.285
 6298SOL    HW219794   1.716   3.843   6.362
 6299SOL     OW19795   6.116   2.361   6.323
 6299SOL    HW119796   6.028   2.354   6.370
 6299SOL    HW219797   6.129   2.281   6.265
 6300SOL     OW19798   5.467   0.563   4.658
 6300SOL    HW119799   5.540   0.628   4.636
 6300SOL    HW219800   5.382   0.592   4.615
 6301SOL     OW19801   2.606   6.887   1.308
 6301SOL    HW119802   2.518   6.929   1.330
 6301SOL    HW219803   2.625   6.897   1.211
 6302SOL     OW19804   1.021   1.319   3.745
 6302SOL    HW119805   0.961   1.399   3.752
 6302SOL    HW219806   0.966   1.239   3.721
 6303SOL     OW19807   2.552   0.678   5.018
 6303SOL    HW119808   2.612   0.751   4.984
 6303SOL    HW219809   2.595   0.632   5.095
 6304SOL     OW19810   2.492   0.848   1.228
 6304SOL    HW119811   2.495   0.817   1.323
 6304SOL    HW219812   2.480   0.769   1.168
 6305SOL     OW19813   6.306   6.495   1.221
 6305SOL    HW119814   6.372   6.554   1.267
 6305SOL    HW219815   6.215   6.535   1.229
 6306SOL     OW19816   0.017   3.480   4.494
 6306SOL    HW119817   0.072   3.563   4.509
 6306SOL    HW219818   0.021   3.455   4.398
 6307SOL     OW19819   3.286   4.915   5.743
 6307SOL    HW119820   3.250   4.989   5.801
 6307SOL    HW219821   3.278   4.828   5.792
 6308SOL     OW19822   1.363   1.494   5.192
 6308SOL    HW119823   1.369   1.535   5.283
 6308SOL    HW219824   1.450   1.506   5.144
 6309SOL     OW19825   5.018   3.631   3.702
 6309SOL    HW119826   5.105   3.680   3.694
 6309SOL    HW219827   4.967   3.666   3.780
 6310SOL     OW19828   2.177   4.404   3.995
 6310SOL    HW119829   2.134   4.492   3.976
 6310SOL    HW219830   2.141   4.366   4.080
 6311SOL     OW19831   6.203   0.759   5.085
 6311SOL    HW119832   6.258   0.841   5.070
 6311SOL    HW219833   6.233   0.687   5.023
 6312SOL     OW19834   4.416   5.108   5.906
 6312SOL    HW119835   4.329   5.072   5.873
 6312SOL    HW219836   4.475   5.033   5.934
 6313SOL     OW19837   1.435   6.400   3.408
 6313SOL    HW119838   1.376   6.334   3.455
 6313SOL    HW219839   1.408   6.406   3.312
 6314SOL     OW19840   3.688   6.392   1.771
 6314SOL    HW119841   3.694   6.301   1.729
 6314SOL    HW219842   3.612   6.395   1.835
 6315SOL     OW19843   4.709   2.445   6.918
 6315SOL    HW119844   4.715   2.415   6.823
 6315SOL    HW219845   4.728   2.543   6.923
 6316SOL     OW19846   4.522   2.358   6.293
 6316SOL    HW119847   4.576   2.439   6.313
 6316SOL    HW219848   4.471   2.331   6.374
 6317SOL     OW19849   5.541   6.489   3.302
 6317SOL    HW119850   5.619   6.544   3.272
 6317SOL    HW219851   5.559   6.393   3.283
 6318SOL     OW19852   2.532   2.123   5.308
 6318SOL    HW119853   2.570   2.170   5.229
 6318SOL    HW219854   2.567   2.029   5.311
 6319SOL     OW19855   0.494   3.088   3.606
 6319SOL    HW119856   0.576   3.144   3.592
 6319SOL    HW219857   0.413   3.144   3.596
 6320SOL     OW19858   6.159   4.533   3.522
 6320SOL    HW119859   6.063   4.519   3.548
 6320SOL    HW219860   6.209   4.448   3.532
 6321SOL     OW19861   2.870   5.240   0.985
 6321SOL    HW119862   2.842   5.308   1.053
 6321SOL    HW219863   2.874   5.283   0.895
 6322SOL     OW19864   1.446   2.212   6.141
 6322SOL    HW119865   1.362   2.157   6.143
 6322SOL    HW219866   1.478   2.221   6.047
 6323SOL     OW19867   3.464   2.724   1.591
 6323SOL    HW119868   3.391   2.660   1.568
 6323SOL    HW219869   3.522   2.683   1.663
 6324SOL     OW19870   4.379   0.673   5.689
 6324SOL    HW119871   4.421   0.727   5.762
 6324SOL    HW219872   4.280   0.691   5.688
 6325SOL     OW19873   1.552   2.633   1.849
 6325SOL    HW119874   1.649   2.624   1.872
 6325SOL    HW219875   1.497   2.616   1.931
 6326SOL     OW19876   5.229   5.677   0.998
 6326SOL    HW119877   5.205   5.771   1.021
 6326SOL    HW219878   5.266   5.674   0.906
 6327SOL     OW19879   6.948   6.970   5.125
 6327SOL    HW119880   6.882   0.018   5.109
 6327SOL    HW219881   6.900   6.882   5.124
 6328SOL     OW19882   2.309   3.704   6.780
 6328SOL    HW119883   2.224   3.656   6.802
 6328SOL    HW219884   2.372   3.641   6.735
 6329SOL     OW19885   0.812   1.500   3.725
 6329SOL    HW119886   0.854   1.548   3.648
 6329SOL    HW219887   0.723   1.464   3.698
 6330SOL     OW19888   4.725   0.765   0.884
 6330SOL    HW119889   4.660   0.838   0.905
 6330SOL    HW219890   4.805   0.803   0.837
 6331SOL     OW19891   6.945   2.634   0.634
 6331SOL    HW119892   0.007   2.591   0.657
 6331SOL    HW219893   6.914   2.689   0.711
 6332SOL     OW19894   6.092   5.262   1.873
 6332SOL    HW119895   6.026   5.253   1.948
 6332SOL    HW219896   6.148   5.344   1.887
 6333SOL     OW19897   3.800   5.107   3.481
 6333SOL    HW119898   3.820   5.176   3.551
 6333SOL    HW219899   3.834   5.018   3.511
 6334SOL     OW19900   2.231   0.056   2.804
 6334SOL    HW119901   2.308   7.018   2.812
 6334SOL    HW219902   2.251   0.124   2.735
 6335SOL     OW19903   5.748   2.050   0.183
 6335SOL    HW119904   5.827   2.108   0.205
 6335SOL    HW219905   5.665   2.105   0.187
 6336SOL     OW19906   7.001   2.551   5.044
 6336SOL    HW119907   0.022   2.504   4.969
 6336SOL    HW219908   7.008   2.650   5.032
 6337SOL     OW19909   5.127   3.567   6.284
 6337SOL    HW119910   5.065   3.601   6.214
 6337SOL    HW219911   5.165   3.479   6.255
 6338SOL     OW19912   2.859   2.223   2.471
 6338SOL    HW119913   2.799   2.265   2.403
 6338SOL    HW219914   2.942   2.190   2.426
 6339SOL     OW19915   0.507   2.423   3.840
 6339SOL    HW119916   0.592   2.432   3.789
 6339SOL    HW219917   0.497   2.328   3.871
 6340SOL     OW19918   2.233   5.581   3.235
 6340SOL    HW119919   2.248   5.591   3.333
 6340SOL    HW219920   2.195   5.491   3.216
 6341SOL     OW19921   6.771   4.580   3.973
 6341SOL    HW119922   6.810   4.497   4.011
 6341SOL    HW219923   6.809   4.597   3.883
 6342SOL     OW19924   2.468   2.287   2.074
 6342SOL    HW119925   2.530   2.302   2.151
 6342SOL    HW219926   2.374   2.283   2.107
 6343SOL     OW19927   5.017   2.721   0.142
 6343SOL    HW119928   4.960   2.797   0.110
 6343SOL    HW219929   4.964   2.636   0.138
 6344SOL     OW19930   6.716   3.227   5.870
 6344SOL    HW119931   6.725   3.155   5.801
 6344SOL    HW219932   6.803   3.238   5.918
 6345SOL     OW19933   4.215   1.355   2.507
 6345SOL    HW119934   4.154   1.421   2.464
 6345SOL    HW219935   4.308   1.369   2.473
 6346SOL     OW19936   6.298   3.514   3.272
 6346SOL    HW119937   6.373   3.547   3.329
 6346SOL    HW219938   6.320   3.423   3.236
 6347SOL     OW19939   3.107   0.397   1.604
 6347SOL    HW119940   3.058   0.433   1.684
 6347SOL    HW219941   3.051   0.412   1.522
 6348SOL     OW19942   0.709   3.873   4.985
 6348SOL    HW119943   0.705   3.861   4.885
 6348SOL    HW219944   0.677   3.964   5.008
 6349SOL     OW19945   2.604   1.029   1.995
 6349SOL    HW119946   2.543   0.988   2.064
 6349SOL    HW219947   2.696   0.990   2.006
 6350SOL     OW19948   1.649   5.150   3.424
 6350SOL    HW119949   1.720   5.112   3.483
 6350SOL    HW219950   1.561   5.148   3.472
 6351SOL     OW19951   6.535   2.661   2.257
 6351SOL    HW119952   6.471   2.736   2.273
 6351SOL    HW219953   6.508   2.581   2.310
 6352SOL     OW19954   1.329   5.406   3.735
 6352SOL    HW119955   1.364   5.447   3.651
 6352SOL    HW219956   1.381   5.441   3.813
 6353SOL     OW19957   6.529   0.655   6.443
 6353SOL    HW119958   6.564   0.581   6.500
 6353SOL    HW219959   6.597   0.680   6.375
 6354SOL     OW19960   1.006   6.580   2.592
 6354SOL    HW119961   1.075   6.603   2.660
 6354SOL    HW219962   1.006   6.649   2.519
 6355SOL     OW19963   0.628   4.299   4.835
 6355SOL    HW119964   0.546   4.241   4.827
 6355SOL    HW219965   0.700   4.248   4.883
 6356SOL     OW19966   5.337   4.700   2.196
 6356SOL    HW119967   5.291   4.612   2.207
 6356SOL    HW219968   5.329   4.752   2.280
 6357SOL     OW19969   4.543   2.535   0.306
 6357SOL    HW119970   4.486   2.506   0.383
 6357SOL    HW219971   4.526   2.632   0.287
 6358SOL     OW19972   0.144   2.451   4.497
 6358SOL    HW119973   0.132   2.392   4.417
 6358SOL    HW219974   0.108   2.406   4.578
 6359SOL     OW19975   6.859   0.393   5.245
 6359SOL    HW119976   6.838   0.297   5.227
 6359SOL    HW219977   6.869   0.442   5.158
 6360SOL     OW19978   2.496   4.419   4.035
 6360SOL    HW119979   2.527   4.423   4.130
 6360SOL    HW219980   2.401   4.389   4.032
 6361SOL     OW19981   4.862   6.710   6.756
 6361SOL    HW119982   4.845   6.700   6.658
 6361SOL    HW219983   4.960   6.701   6.774
 6362SOL     OW19984   6.081   4.814   0.106
 6362SOL    HW119985   6.027   4.823   0.022
 6362SOL    HW219986   6.178   4.830   0.086
 6363SOL     OW19987   2.155   5.542   3.817
 6363SOL    HW119988   2.136   5.635   3.785
 6363SOL    HW219989   2.251   5.536   3.845
 6364SOL     OW19990   3.145   1.925   5.574
 6364SOL    HW119991   3.203   1.906   5.494
 6364SOL    HW219992   3.171   2.012   5.615
 6365SOL     OW19993   4.644   6.889   4.609
 6365SOL    HW119994   4.549   6.875   4.636
 6365SOL    HW219995   4.683   6.964   4.663
 6366SOL     OW19996   0.955   5.651   5.254
 6366SOL    HW119997   0.903   5.568   5.234
 6366SOL    HW219998   1.004   5.639   5.341
 6367SOL     OW19999   4.864   0.418   3.808
 6367SOL    HW120000   4.938   0.404   3.873
 6367SOL    HW220001   4.802   0.340   3.810
 6368SOL     OW20002   3.366   6.953   4.234
 6368SOL    HW120003   3.346   6.940   4.136
 6368SOL    HW220004   3.455   6.997   4.244
 6369SOL     OW20005   3.278   5.136   4.229
 6369SOL    HW120006   3.359   5.176   4.184
 6369SOL    HW220007   3.242   5.063   4.172
 6370SOL     OW20008   0.769   2.570   2.413
 6370SOL    HW120009   0.739   2.647   2.469
 6370SOL    HW220010   0.854   2.594   2.366
 6371SOL     OW20011   4.866   3.047   3.410
 6371SOL    HW120012   4.916   3.001   3.483
 6371SOL    HW220013   4.788   2.991   3.383
 6372SOL     OW20014   3.419   6.639   1.710
 6372SOL    HW120015   3.470   6.722   1.733
 6372SOL    HW220016   3.380   6.648   1.618
 6373SOL     OW20017   6.627   4.516   4.787
 6373SOL    HW120018   6.648   4.545   4.881
 6373SOL    HW220019   6.603   4.419   4.787
 6374SOL     OW20020   3.527   3.491   3.900
 6374SOL    HW120021   3.537   3.429   3.978
 6374SOL    HW220022   3.590   3.463   3.827
 6375SOL     OW20023   1.095   1.287   3.273
 6375SOL    HW120024   1.047   1.216   3.221
 6375SOL    HW220025   1.174   1.318   3.220
 6376SOL     OW20026   6.973   1.427   5.191
 6376SOL    HW120027   6.991   1.380   5.105
 6376SOL    HW220028   6.886   1.396   5.229
 6377SOL     OW20029   6.637   0.585   5.862
 6377SOL    HW120030   6.562   0.567   5.925
 6377SOL    HW220031   6.623   0.534   5.777
 6378SOL     OW20032   4.910   4.726   3.462
 6378SOL    HW120033   4.815   4.706   3.438
 6378SOL    HW220034   4.927   4.696   3.556
 6379SOL     OW20035   1.900   5.007   4.418
 6379SOL    HW120036   1.890   5.106   4.420
 6379SOL    HW220037   1.876   4.972   4.328
 6380SOL     OW20038   1.202   1.413   5.561
 6380SOL    HW120039   1.234   1.323   5.590
 6380SOL    HW220040   1.106   1.407   5.535
 6381SOL     OW20041   3.024   3.111   2.244
 6381SOL    HW120042   2.971   3.196   2.247
 6381SOL    HW220043   3.029   3.072   2.336
 6382SOL     OW20044   1.514   2.609   6.673
 6382SOL    HW120045   1.596   2.645   6.628
 6382SOL    HW220046   1.474   2.679   6.732
 6383SOL     OW20047   2.155   2.123   3.815
 6383SOL    HW120048   2.166   2.124   3.915
 6383SOL    HW220049   2.065   2.084   3.792
 6384SOL     OW20050   6.445   4.646   1.473
 6384SOL    HW120051   6.466   4.736   1.435
 6384SOL    HW220052   6.358   4.649   1.521
 6385SOL     OW20053   6.282   4.753   4.148
 6385SOL    HW120054   6.356   4.736   4.083
 6385SOL    HW220055   6.251   4.666   4.186
 6386SOL     OW20056   2.558   4.901   0.404
 6386SOL    HW120057   2.614   4.905   0.486
 6386SOL    HW220058   2.540   4.805   0.381
 6387SOL     OW20059   0.863   2.042   6.342
 6387SOL    HW120060   0.892   2.010   6.252
 6387SOL    HW220061   0.904   2.131   6.361
 6388SOL     OW20062   4.032   4.474   1.261
 6388SOL    HW120063   4.086   4.506   1.182
 6388SOL    HW220064   4.090   4.472   1.342
 6389SOL     OW20065   0.676   6.169   2.179
 6389SOL    HW120066   0.674   6.152   2.277
 6389SOL    HW220067   0.585   6.195   2.147
 6390SOL     OW20068   7.006   2.600   3.249
 6390SOL    HW120069   7.016   2.588   3.151
 6390SOL    HW220070   7.005   2.697   3.271
 6391SOL     OW20071   3.012   1.094   0.461
 6391SOL    HW120072   2.934   1.035   0.481
 6391SOL    HW220073   3.061   1.059   0.381
 6392SOL     OW20074   2.043   6.540   4.069
 6392SOL    HW120075   2.105   6.546   4.147
 6392SOL    HW220076   2.095   6.554   3.985
 6393SOL     OW20077   5.623   6.702   1.817
 6393SOL    HW120078   5.711   6.708   1.770
 6393SOL    HW220079   5.554   6.665   1.755
 6394SOL     OW20080   2.777   4.991   0.895
 6394SOL    HW120081   2.822   5.080   0.907
 6394SOL    HW220082   2.678   5.002   0.910
 6395SOL     OW20083   6.047   1.684   1.060
 6395SOL    HW120084   6.127   1.738   1.086
 6395SOL    HW220085   6.053   1.593   1.100
 6396SOL     OW20086   5.643   2.911   6.152
 6396SOL    HW120087   5.647   2.880   6.248
 6396SOL    HW220088   5.551   2.892   6.116
 6397SOL     OW20089   6.651   1.769   6.896
 6397SOL    HW120090   6.625   1.753   6.992
 6397SOL    HW220091   6.740   1.813   6.893
 6398SOL     OW20092   3.305   1.114   1.540
 6398SOL    HW120093   3.371   1.137   1.612
 6398SOL    HW220094   3.352   1.070   1.464
 6399SOL     OW20095   1.643   5.483   6.473
 6399SOL    HW120096   1.572   5.508   6.407
 6399SOL    HW220097   1.659   5.384   6.467
 6400SOL     OW20098   2.108   5.832   3.183
 6400SOL    HW120099   2.008   5.831   3.195
 6400SOL    HW220100   2.143   5.739   3.187
 6401SOL     OW20101   0.208   4.400   3.855
 6401SOL    HW120102   0.195   4.496   3.830
 6401SOL    HW220103   0.138   4.345   3.810
 6402SOL     OW20104   2.743   0.680   2.529
 6402SOL    HW120105   2.696   0.768   2.521
 6402SOL    HW220106   2.756   0.641   2.438
 6403SOL     OW20107   0.797   5.651   6.731
 6403SOL    HW120108   0.704   5.681   6.713
 6403SOL    HW220109   0.795   5.563   6.778
 6404SOL     OW20110   4.074   1.490   3.375
 6404SOL    HW120111   4.047   1.585   3.360
 6404SOL    HW220112   4.156   1.487   3.432
 6405SOL     OW20113   1.946   2.077   3.094
 6405SOL    HW120114   1.980   2.168   3.118
 6405SOL    HW220115   1.868   2.054   3.153
 6406SOL     OW20116   1.360   1.611   3.341
 6406SOL    HW120117   1.442   1.587   3.393
 6406SOL    HW220118   1.357   1.710   3.327
 6407SOL     OW20119   3.134   6.773   4.143
 6407SOL    HW120120   3.072   6.776   4.065
 6407SOL    HW220121   3.181   6.862   4.152
 6408SOL     OW20122   6.075   2.370   6.895
 6408SOL    HW120123   6.095   2.287   6.843
 6408SOL    HW220124   5.981   2.366   6.930
 6409SOL     OW20125   6.764   4.349   2.702
 6409SOL    HW120126   6.700   4.344   2.626
 6409SOL    HW220127   6.828   4.273   2.698
 6410SOL     OW20128   1.620   1.829   0.764
 6410SOL    HW120129   1.717   1.809   0.747
 6410SOL    HW220130   1.575   1.746   0.797
 6411SOL     OW20131   0.679   2.383   3.156
 6411SOL    HW120132   0.589   2.369   3.116
 6411SOL    HW220133   0.674   2.366   3.255
 6412SOL     OW20134   6.987   3.215   5.422
 6412SOL    HW120135   0.058   3.229   5.397
 6412SOL    HW220136   6.960   3.285   5.488
 6413SOL     OW20137   6.246   4.998   2.084
 6413SOL    HW120138   6.261   4.980   1.987
 6413SOL    HW220139   6.260   4.914   2.136
 6414SOL     OW20140   5.716   0.988   1.586
 6414SOL    HW120141   5.674   1.070   1.548
 6414SOL    HW220142   5.687   0.977   1.681
 6415SOL     OW20143   3.077   2.148   2.679
 6415SOL    HW120144   3.137   2.160   2.600
 6415SOL    HW220145   2.981   2.156   2.650
 6416SOL     OW20146   1.020   0.970   6.541
 6416SOL    HW120147   1.017   0.890   6.602
 6416SOL    HW220148   0.928   1.009   6.533
 6417SOL     OW20149   0.901   6.188   3.074
 6417SOL    HW120150   0.984   6.151   3.118
 6417SOL    HW220151   0.928   6.248   2.999
 6418SOL     OW20152   6.784   4.904   2.497
 6418SOL    HW120153   6.839   4.904   2.414
 6418SOL    HW220154   6.836   4.865   2.572
 6419SOL     OW20155   3.307   5.600   1.897
 6419SOL    HW120156   3.395   5.645   1.880
 6419SOL    HW220157   3.269   5.567   1.811
 6420SOL     OW20158   3.123   3.328   6.277
 6420SOL    HW120159   3.181   3.264   6.228
 6420SOL    HW220160   3.166   3.419   6.279
 6421SOL     OW20161   6.359   1.685   1.080
 6421SOL    HW120162   6.377   1.642   1.169
 6421SOL    HW220163   6.396   1.777   1.079
 6422SOL     OW20164   6.912   0.131   3.676
 6422SOL    HW120165   6.947   0.198   3.612
 6422SOL    HW220166   6.969   0.130   3.759
 6423SOL     OW20167   4.682   4.219   1.251
 6423SOL    HW120168   4.682   4.146   1.319
 6423SOL    HW220169   4.715   4.304   1.294
 6424SOL     OW20170   6.756   4.355   6.218
 6424SOL    HW120171   6.670   4.364   6.267
 6424SOL    HW220172   6.832   4.347   6.283
 6425SOL     OW20173   6.917   4.830   3.576
 6425SOL    HW120174   6.919   4.792   3.669
 6425SOL    HW220175   7.003   4.876   3.557
 6426SOL     OW20176   0.913   2.881   4.319
 6426SOL    HW120177   0.814   2.880   4.333
 6426SOL    HW220178   0.950   2.790   4.337
 6427SOL     OW20179   1.624   3.704   6.968
 6427SOL    HW120180   1.719   3.678   6.950
 6427SOL    HW220181   1.615   3.803   6.964
 6428SOL     OW20182   6.495   3.649   1.530
 6428SOL    HW120183   6.433   3.723   1.558
 6428SOL    HW220184   6.566   3.637   1.599
 6429SOL     OW20185   1.508   0.938   4.883
 6429SOL    HW120186   1.450   0.958   4.805
 6429SOL    HW220187   1.505   0.840   4.903
 6430SOL     OW20188   4.635   0.659   1.814
 6430SOL    HW120189   4.679   0.742   1.779
 6430SOL    HW220190   4.538   0.678   1.832
 6431SOL     OW20191   5.762   6.858   3.925
 6431SOL    HW120192   5.687   6.840   3.988
 6431SOL    HW220193   5.802   6.772   3.895
 6432SOL     OW20194   4.259   4.448   0.345
 6432SOL    HW120195   4.340   4.495   0.378
 6432SOL    HW220196   4.194   4.515   0.308
 6433SOL     OW20197   3.100   4.911   1.135
 6433SOL    HW120198   3.159   4.944   1.062
 6433SOL    HW220199   3.120   4.961   1.219
 6434SOL     OW20200   1.254   3.734   1.258
 6434SOL    HW120201   1.312   3.655   1.240
 6434SOL    HW220202   1.282   3.811   1.201
 6435SOL     OW20203   3.298   5.244   6.945
 6435SOL    HW120204   3.368   5.283   6.884
 6435SOL    HW220205   3.328   5.252   0.015
 6436SOL     OW20206   2.192   3.125   3.544
 6436SOL    HW120207   2.281   3.096   3.508
 6436SOL    HW220208   2.120   3.100   3.479
 6437SOL     OW20209   1.735   1.498   0.173
 6437SOL    HW120210   1.727   1.578   0.114
 6437SOL    HW220211   1.645   1.469   0.203
 6438SOL     OW20212   0.423   4.220   5.283
 6438SOL    HW120213   0.446   4.225   5.380
 6438SOL    HW220214   0.431   4.310   5.242
 6439SOL     OW20215   0.678   6.652   0.682
 6439SOL    HW120216   0.596   6.702   0.652
 6439SOL    HW220217   0.652   6.560   0.710
 6440SOL     OW20218   2.183   1.900   2.181
 6440SOL    HW120219   2.233   1.946   2.254
 6440SOL    HW220220   2.094   1.870   2.216
 6441SOL     OW20221   1.193   0.622   2.438
 6441SOL    HW120222   1.123   0.667   2.494
 6441SOL    HW220223   1.232   0.546   2.489
 6442SOL     OW20224   2.669   1.676   4.130
 6442SOL    HW120225   2.711   1.730   4.203
 6442SOL    HW220226   2.569   1.677   4.141
 6443SOL     OW20227   3.410   2.903   0.965
 6443SOL    HW120228   3.375   2.810   0.979
 6443SOL    HW220229   3.476   2.903   0.889
 6444SOL     OW20230   0.463   2.566   3.325
 6444SOL    HW120231   0.404   2.619   3.263
 6444SOL    HW220232   0.453   2.469   3.304
 6445SOL     OW20233   4.533   2.414   5.348
 6445SOL    HW120234   4.508   2.489   5.409
 6445SOL    HW220235   4.469   2.338   5.361
 6446SOL     OW20236   0.227   1.471   5.888
 6446SOL    HW120237   0.206   1.376   5.865
 6446SOL    HW220238   0.162   1.504   5.956
 6447SOL     OW20239   0.543   5.788   2.416
 6447SOL    HW120240   0.626   5.843   2.413
 6447SOL    HW220241   0.549   5.715   2.348
 6448SOL     OW20242   6.588   4.142   2.301
 6448SOL    HW120243   6.529   4.195   2.361
 6448SOL    HW220244   6.667   4.197   2.274
 6449SOL     OW20245   3.698   4.106   1.931
 6449SOL    HW120246   3.704   4.179   1.864
 6449SOL    HW220247   3.612   4.113   1.981
 6450SOL     OW20248   6.636   2.783   1.965
 6450SOL    HW120249   6.661   2.878   1.948
 6450SOL    HW220250   6.652   2.761   2.061
 6451SOL     OW20251   3.066   6.366   5.675
 6451SOL    HW120252   3.127   6.435   5.716
 6451SOL    HW220253   2.994   6.413   5.623
 6452SOL     OW20254   3.957   6.810   4.815
 6452SOL    HW120255   3.995   6.857   4.735
 6452SOL    HW220256   4.021   6.819   4.892
 6453SOL     OW20257   1.312   6.881   6.825
 6453SOL    HW120258   1.306   6.815   6.901
 6453SOL    HW220259   1.230   6.876   6.770
 6454SOL     OW20260   2.818   1.340   3.876
 6454SOL    HW120261   2.876   1.413   3.839
 6454SOL    HW220262   2.791   1.363   3.970
 6455SOL     OW20263   0.830   2.446   4.696
 6455SOL    HW120264   0.766   2.433   4.772
 6455SOL    HW220265   0.923   2.423   4.726
 6456SOL     OW20266   1.476   0.439   3.284
 6456SOL    HW120267   1.402   0.431   3.350
 6456SOL    HW220268   1.453   0.507   3.215
 6457SOL     OW20269   5.669   1.469   1.146
 6457SOL    HW120270   5.648   1.371   1.155
 6457SOL    HW220271   5.583   1.520   1.141
 6458SOL     OW20272   0.884   6.325   2.504
 6458SOL    HW120273   0.896   6.318   2.405
 6458SOL    HW220274   0.902   6.419   2.534
 6459SOL     OW20275   5.482   5.523   0.456
 6459SOL    HW120276   5.533   5.439   0.473
 6459SOL    HW220277   5.399   5.523   0.513
 6460SOL     OW20278   4.050   5.049   6.494
 6460SOL    HW120279   3.980   5.089   6.435
 6460SOL    HW220280   4.028   4.953   6.512
 6461SOL     OW20281   3.057   5.510   4.893
 6461SOL    HW120282   2.986   5.491   4.825
 6461SOL    HW220283   3.086   5.424   4.934
 6462SOL     OW20284   2.164   3.102   5.185
 6462SOL    HW120285   2.153   3.158   5.103
 6462SOL    HW220286   2.242   3.041   5.174
 6463SOL     OW20287   2.678   4.818   6.336
 6463SOL    HW120288   2.709   4.725   6.357
 6463SOL    HW220289   2.615   4.814   6.258
 6464SOL     OW20290   0.580   4.831   4.052
 6464SOL    HW120291   0.603   4.755   3.991
 6464SOL    HW220292   0.614   4.916   4.014
 6465SOL     OW20293   5.754   2.423   3.625
 6465SOL    HW120294   5.729   2.487   3.698
 6465SOL    HW220295   5.794   2.473   3.548
 6466SOL     OW20296   6.797   2.991   4.842
 6466SOL    HW120297   6.762   2.999   4.936
 6466SOL    HW220298   6.791   2.896   4.812
 6467SOL     OW20299   2.232   1.123   6.668
 6467SOL    HW120300   2.265   1.131   6.574
 6467SOL    HW220301   2.170   1.199   6.688
 6468SOL     OW20302   3.895   6.016   1.258
 6468SOL    HW120303   3.904   5.968   1.345
 6468SOL    HW220304   3.880   6.114   1.275
 6469SOL     OW20305   5.802   1.201   5.573
 6469SOL    HW120306   5.763   1.244   5.492
 6469SOL    HW220307   5.863   1.127   5.546
 6470SOL     OW20308   6.702   5.333   6.132
 6470SOL    HW120309   6.611   5.299   6.153
 6470SOL    HW220310   6.750   5.267   6.074
 6471SOL     OW20311   6.852   5.682   6.074
 6471SOL    HW120312   6.761   5.665   6.113
 6471SOL    HW220313   6.922   5.666   6.144
 6472SOL     OW20314   0.993   5.550   0.980
 6472SOL    HW120315   1.068   5.511   0.926
 6472SOL    HW220316   0.941   5.614   0.923
 6473SOL     OW20317   2.320   1.279   5.808
 6473SOL    HW120318   2.375   1.206   5.767
 6473SOL    HW220319   2.311   1.262   5.906
 6474SOL     OW20320   1.788   4.241   6.079
 6474SOL    HW120321   1.701   4.256   6.126
 6474SOL    HW220322   1.785   4.284   5.989
 6475SOL     OW20323   6.348   6.203   4.006
 6475SOL    HW120324   6.341   6.121   4.063
 6475SOL    HW220325   6.349   6.284   4.064
 6476SOL     OW20326   4.917   4.147   2.507
 6476SOL    HW120327   4.987   4.164   2.437
 6476SOL    HW220328   4.911   4.226   2.568
 6477SOL     OW20329   6.615   4.867   0.496
 6477SOL    HW120330   6.688   4.848   0.562
 6477SOL    HW220331   6.651   4.858   0.403
 6478SOL     OW20332   3.327   5.807   2.193
 6478SOL    HW120333   3.304   5.830   2.288
 6478SOL    HW220334   3.280   5.724   2.166
 6479SOL     OW20335   4.149   4.973   2.521
 6479SOL    HW120336   4.163   4.939   2.614
 6479SOL    HW220337   4.123   5.070   2.526
 6480SOL     OW20338   3.910   2.764   5.730
 6480SOL    HW120339   4.003   2.730   5.713
 6480SOL    HW220340   3.883   2.744   5.824
 6481SOL     OW20341   3.359   2.473   1.742
 6481SOL    HW120342   3.441   2.512   1.785
 6481SOL    HW220343   3.360   2.374   1.753
 6482SOL     OW20344   6.716   0.533   0.020
 6482SOL    HW120345   6.729   0.598   0.095
 6482SOL    HW220346   6.755   0.570   6.961
 6483SOL     OW20347   2.509   6.167   2.381
 6483SOL    HW120348   2.584   6.110   2.346
 6483SOL    HW220349   2.501   6.155   2.480
 6484SOL     OW20350   4.352   0.122   2.560
 6484SOL    HW120351   4.378   0.203   2.611
 6484SOL    HW220352   4.409   0.045   2.587
 6485SOL     OW20353   1.728   3.250   3.345
 6485SOL    HW120354   1.756   3.320   3.411
 6485SOL    HW220355   1.674   3.181   3.392
 6486SOL     OW20356   1.217   4.138   3.853
 6486SOL    HW120357   1.233   4.100   3.762
 6486SOL    HW220358   1.173   4.069   3.910
 6487SOL     OW20359   6.253   5.792   4.603
 6487SOL    HW120360   6.337   5.845   4.614
 6487SOL    HW220361   6.256   5.743   4.516
 6488SOL     OW20362   3.248   6.031   5.629
 6488SOL    HW120363   3.295   6.086   5.698
 6488SOL    HW220364   3.214   6.091   5.556
 6489SOL     OW20365   2.028   2.753   6.738
 6489SOL    HW120366   2.014   2.834   6.680
 6489SOL    HW220367   2.095   2.775   6.809
 6490SOL     OW20368   3.815   2.297   0.365
 6490SOL    HW120369   3.882   2.293   0.291
 6490SOL    HW220370   3.772   2.208   0.376
 6491SOL     OW20371   4.024   1.367   0.024
 6491SOL    HW120372   4.053   1.289   6.993
 6491SOL    HW220373   4.095   1.437   0.024
 6492SOL     OW20374   5.887   6.910   6.986
 6492SOL    HW120375   5.794   6.873   6.990
 6492SOL    HW220376   5.922   6.901   6.893
 6493SOL     OW20377   1.547   6.453   5.227
 6493SOL    HW120378   1.503   6.419   5.309
 6493SOL    HW220379   1.642   6.422   5.224
 6494SOL     OW20380   0.572   0.271   3.116
 6494SOL    HW120381   0.637   0.195   3.117
 6494SOL    HW220382   0.584   0.325   3.033
 6495SOL     OW20383   5.045   5.903   3.866
 6495SOL    HW120384   5.105   5.980   3.847
 6495SOL    HW220385   4.970   5.932   3.926
 6496SOL     OW20386   0.045   6.165   2.131
 6496SOL    HW120387   6.971   6.160   2.121
 6496SOL    HW220388   0.072   6.120   2.217
 6497SOL     OW20389   2.467   3.256   1.041
 6497SOL    HW120390   2.509   3.188   0.981
 6497SOL    HW220391   2.388   3.217   1.088
 6498SOL     OW20392   2.228   4.895   3.857
 6498SOL    HW120393   2.204   4.972   3.915
 6498SOL    HW220394   2.328   4.883   3.856
 6499SOL     OW20395   5.007   0.643   5.134
 6499SOL    HW120396   5.012   0.711   5.061
 6499SOL    HW220397   5.095   0.636   5.179
 6500SOL     OW20398   6.214   3.931   3.278
 6500SOL    HW120399   6.190   3.906   3.372
 6500SOL    HW220400   6.290   3.996   3.280
 6501SOL     OW20401   6.318   3.146   1.285
 6501SOL    HW120402   6.295   3.068   1.227
 6501SOL    HW220403   6.363   3.216   1.230
 6502SOL     OW20404   0.369   4.190   3.720
 6502SOL    HW120405   0.404   4.097   3.730
 6502SOL    HW220406   0.273   4.192   3.748
 6503SOL     OW20407   5.824   6.588   3.931
 6503SOL    HW120408   5.790   6.520   3.866
 6503SOL    HW220409   5.920   6.609   3.910
 6504SOL     OW20410   4.015   6.767   6.232
 6504SOL    HW120411   4.086   6.700   6.210
 6504SOL    HW220412   3.925   6.727   6.214
 6505SOL     OW20413   6.294   4.750   0.765
 6505SOL    HW120414   6.310   4.653   0.780
 6505SOL    HW220415   6.215   4.763   0.705
 6506SOL     OW20416   0.864   3.120   1.014
 6506SOL    HW120417   0.832   3.087   1.103
 6506SOL    HW220418   0.816   3.070   0.941
 6507SOL     OW20419   1.402   5.920   0.345
 6507SOL    HW120420   1.404   5.843   0.409
 6507SOL    HW220421   1.353   5.893   0.262
 6508SOL     OW20422   2.356   1.501   3.488
 6508SOL    HW120423   2.414   1.508   3.570
 6508SOL    HW220424   2.314   1.590   3.470
 6509SOL     OW20425   1.673   2.644   4.708
 6509SOL    HW120426   1.645   2.739   4.718
 6509SOL    HW220427   1.609   2.597   4.647
 6510SOL     OW20428   0.227   5.179   6.423
 6510SOL    HW120429   0.256   5.158   6.517
 6510SOL    HW220430   0.197   5.095   6.379
 6511SOL     OW20431   5.992   0.350   4.760
 6511SOL    HW120432   6.010   0.437   4.715
 6511SOL    HW220433   5.909   0.309   4.721
 6512SOL     OW20434   4.777   0.012   2.944
 6512SOL    HW120435   4.813   0.019   3.036
 6512SOL    HW220436   4.850   7.013   2.880
 6513SOL     OW20437   3.398   6.644   4.200
 6513SOL    HW120438   3.380   6.576   4.271
 6513SOL    HW220439   3.318   6.703   4.188
 6514SOL     OW20440   4.942   7.009   4.144
 6514SOL    HW120441   4.973   0.004   4.237
 6514SOL    HW220442   4.987   6.926   4.111
 6515SOL     OW20443   0.119   4.900   4.144
 6515SOL    HW120444   0.114   4.800   4.143
 6515SOL    HW220445   0.101   4.935   4.053
 6516SOL     OW20446   0.332   1.697   6.584
 6516SOL    HW120447   0.400   1.636   6.543
 6516SOL    HW220448   0.376   1.751   6.656
 6517SOL     OW20449   6.851   1.951   0.522
 6517SOL    HW120450   6.840   1.908   0.433
 6517SOL    HW220451   6.858   2.050   0.512
 6518SOL     OW20452   0.792   6.236   0.091
 6518SOL    HW120453   0.732   6.170   0.136
 6518SOL    HW220454   0.857   6.188   0.033
 6519SOL     OW20455   2.754   1.725   3.872
 6519SOL    HW120456   2.729   1.706   3.967
 6519SOL    HW220457   2.830   1.667   3.845
 6520SOL     OW20458   6.385   5.469   3.099
 6520SOL    HW120459   6.310   5.527   3.067
 6520SOL    HW220460   6.348   5.392   3.152
 6521SOL     OW20461   1.081   1.011   4.272
 6521SOL    HW120462   1.114   0.986   4.181
 6521SOL    HW220463   1.159   1.019   4.334
 6522SOL     OW20464   2.467   5.613   6.630
 6522SOL    HW120465   2.395   5.547   6.651
 6522SOL    HW220466   2.534   5.571   6.568
 6523SOL     OW20467   2.831   1.440   6.394
 6523SOL    HW120468   2.782   1.458   6.479
 6523SOL    HW220469   2.906   1.505   6.384
 6524SOL     OW20470   3.611   3.429   4.157
 6524SOL    HW120471   3.589   3.332   4.148
 6524SOL    HW220472   3.592   3.460   4.250
 6525SOL     OW20473   1.501   2.746   2.652
 6525SOL    HW120474   1.505   2.840   2.688
 6525SOL    HW220475   1.466   2.747   2.559
 6526SOL     OW20476   0.747   6.757   5.172
 6526SOL    HW120477   0.835   6.804   5.182
 6526SOL    HW220478   0.673   6.824   5.165
 6527SOL     OW20479   1.372   1.015   5.203
 6527SOL    HW120480   1.390   0.992   5.108
 6527SOL    HW220481   1.321   1.101   5.208
 6528SOL     OW20482   0.342   1.007   4.031
 6528SOL    HW120483   0.408   0.932   4.026
 6528SOL    HW220484   0.277   0.999   3.955
 6529SOL     OW20485   5.776   2.012   3.026
 6529SOL    HW120486   5.822   2.056   2.949
 6529SOL    HW220487   5.786   1.913   3.018
 6530SOL     OW20488   6.554   3.014   0.593
 6530SOL    HW120489   6.632   2.953   0.580
 6530SOL    HW220490   6.537   3.026   0.691
 6531SOL     OW20491   5.434   2.510   4.032
 6531SOL    HW120492   5.495   2.442   4.073
 6531SOL    HW220493   5.469   2.601   4.051
 6532SOL     OW20494   6.528   1.684   0.342
 6532SOL    HW120495   6.504   1.780   0.325
 6532SOL    HW220496   6.621   1.667   0.309
 6533SOL     OW20497   5.478   6.352   1.184
 6533SOL    HW120498   5.556   6.344   1.246
 6533SOL    HW220499   5.435   6.442   1.197
 6534SOL     OW20500   2.534   3.778   1.105
 6534SOL    HW120501   2.601   3.807   1.036
 6534SOL    HW220502   2.495   3.689   1.078
 6535SOL     OW20503   0.311   2.919   5.222
 6535SOL    HW120504   0.302   2.993   5.155
 6535SOL    HW220505   0.220   2.888   5.250
 6536SOL     OW20506   6.273   2.670   6.571
 6536SOL    HW120507   6.281   2.570   6.573
 6536SOL    HW220508   6.230   2.701   6.656
 6537SOL     OW20509   6.672   6.716   6.572
 6537SOL    HW120510   6.704   6.704   6.478
 6537SOL    HW220511   6.731   6.664   6.634
 6538SOL     OW20512   4.024   4.045   0.073
 6538SOL    HW120513   4.075   4.095   0.143
 6538SOL    HW220514   4.064   3.954   0.062
 6539SOL     OW20515   2.228   2.136   6.671
 6539SOL    HW120516   2.251   2.175   6.582
 6539SOL    HW220517   2.136   2.099   6.669
 6540SOL     OW20518   3.931   1.791   4.380
 6540SOL    HW120519   3.905   1.885   4.401
 6540SOL    HW220520   3.905   1.769   4.286
 6541SOL     OW20521   2.877   2.203   4.975
 6541SOL    HW120522   2.873   2.176   4.879
 6541SOL    HW220523   2.963   2.251   4.992
 6542SOL     OW20524   6.163   5.143   3.012
 6542SOL    HW120525   6.076   5.097   3.029
 6542SOL    HW220526   6.236   5.075   3.004
 6543SOL     OW20527   6.230   5.155   7.001
 6543SOL    HW120528   6.143   5.186   6.964
 6543SOL    HW220529   6.231   5.169   0.075
 6544SOL     OW20530   0.220   6.199   4.214
 6544SOL    HW120531   0.205   6.259   4.136
 6544SOL    HW220532   0.231   6.253   4.297
 6545SOL     OW20533   4.884   1.280   6.216
 6545SOL    HW120534   4.810   1.347   6.205
 6545SOL    HW220535   4.876   1.211   6.144
 6546SOL     OW20536   4.565   4.247   6.279
 6546SOL    HW120537   4.494   4.255   6.349
 6546SOL    HW220538   4.654   4.231   6.323
 6547SOL     OW20539   4.228   1.930   6.197
 6547SOL    HW120540   4.244   1.932   6.295
 6547SOL    HW220541   4.240   2.022   6.159
 6548SOL     OW20542   0.425   4.614   6.444
 6548SOL    HW120543   0.464   4.533   6.399
 6548SOL    HW220544   0.470   4.696   6.409
 6549SOL     OW20545   4.025   1.975   1.380
 6549SOL    HW120546   4.043   1.941   1.288
 6549SOL    HW220547   3.954   2.045   1.377
 6550SOL     OW20548   0.470   5.861   3.380
 6550SOL    HW120549   0.560   5.823   3.400
 6550SOL    HW220550   0.450   5.850   3.282
 6551SOL     OW20551   2.406   4.412   1.842
 6551SOL    HW120552   2.359   4.408   1.754
 6551SOL    HW220553   2.374   4.337   1.900
 6552SOL     OW20554   2.263   5.734   5.333
 6552SOL    HW120555   2.178   5.736   5.280
 6552SOL    HW220556   2.242   5.752   5.429
 6553SOL     OW20557   0.338   3.138   1.229
 6553SOL    HW120558   0.385   3.135   1.317
 6553SOL    HW220559   0.370   3.062   1.172
 6554SOL     OW20560   5.985   1.488   5.705
 6554SOL    HW120561   5.994   1.396   5.666
 6554SOL    HW220562   5.934   1.482   5.791
 6555SOL     OW20563   1.711   0.516   2.205
 6555SOL    HW120564   1.668   0.463   2.133
 6555SOL    HW220565   1.810   0.509   2.197
 6556SOL     OW20566   4.741   4.566   4.906
 6556SOL    HW120567   4.834   4.582   4.939
 6556SOL    HW220568   4.743   4.499   4.831
 6557SOL     OW20569   5.837   5.865   0.507
 6557SOL    HW120570   5.783   5.829   0.431
 6557SOL    HW220571   5.909   5.925   0.473
 6558SOL     OW20572   6.285   5.622   0.809
 6558SOL    HW120573   6.340   5.685   0.753
 6558SOL    HW220574   6.315   5.528   0.792
 6559SOL     OW20575   4.928   3.682   1.152
 6559SOL    HW120576   4.998   3.707   1.219
 6559SOL    HW220577   4.897   3.589   1.169
 6560SOL     OW20578   3.719   2.993   1.371
 6560SOL    HW120579   3.768   3.028   1.451
 6560SOL    HW220580   3.771   3.014   1.289
 6561SOL     OW20581   4.104   3.685   2.367
 6561SOL    HW120582   4.108   3.741   2.284
 6561SOL    HW220583   4.092   3.745   2.446
 6562SOL     OW20584   6.690   4.596   6.103
 6562SOL    HW120585   6.685   4.498   6.122
 6562SOL    HW220586   6.734   4.642   6.180
 6563SOL     OW20587   0.464   5.859   0.073
 6563SOL    HW120588   0.415   5.938   0.036
 6563SOL    HW220589   0.549   5.845   0.022
 6564SOL     OW20590   1.214   3.735   2.099
 6564SOL    HW120591   1.298   3.747   2.152
 6564SOL    HW220592   1.234   3.681   2.018
 6565SOL     OW20593   5.650   2.936   5.023
 6565SOL    HW120594   5.610   2.848   4.995
 6565SOL    HW220595   5.738   2.948   4.978
 6566SOL     OW20596   3.359   0.433   1.518
 6566SOL    HW120597   3.379   0.513   1.461
 6566SOL    HW220598   3.269   0.444   1.560
 6567SOL     OW20599   4.954   2.906   1.276
 6567SOL    HW120600   4.963   2.954   1.363
 6567SOL    HW220601   5.025   2.837   1.268
 6568SOL     OW20602   4.560   4.782   1.891
 6568SOL    HW120603   4.488   4.737   1.944
 6568SOL    HW220604   4.646   4.733   1.904
 6569SOL     OW20605   2.365   5.199   0.819
 6569SOL    HW120606   2.378   5.298   0.822
 6569SOL    HW220607   2.374   5.168   0.724
 6570SOL     OW20608   4.769   6.919   1.930
 6570SOL    HW120609   4.839   6.947   1.864
 6570SOL    HW220610   4.684   6.897   1.881
 6571SOL     OW20611   2.445   6.110   3.088
 6571SOL    HW120612   2.390   6.161   3.021
 6571SOL    HW220613   2.385   6.074   3.160
 6572SOL     OW20614   6.156   4.282   5.300
 6572SOL    HW120615   6.069   4.254   5.259
 6572SOL    HW220616   6.150   4.274   5.399
 6573SOL     OW20617   3.650   0.773   2.515
 6573SOL    HW120618   3.568   0.795   2.567
 6573SOL    HW220619   3.727   0.757   2.578
 6574SOL     OW20620   2.304   6.289   2.009
 6574SOL    HW120621   2.224   6.241   2.046
 6574SOL    HW220622   2.320   6.260   1.915
 6575SOL     OW20623   0.636   1.300   1.979
 6575SOL    HW120624   0.639   1.224   1.915
 6575SOL    HW220625   0.726   1.310   2.023
 6576SOL     OW20626   1.036   6.066   6.497
 6576SOL    HW120627   1.053   6.074   6.398
 6576SOL    HW220628   1.121   6.083   6.547
 6577SOL     OW20629   0.541   1.856   3.394
 6577SOL    HW120630   0.453   1.818   3.421
 6577SOL    HW220631   0.558   1.941   3.444
 6578SOL     OW20632   6.353   5.426   3.497
 6578SOL    HW120633   6.284   5.387   3.436
 6578SOL    HW220634   6.360   5.369   3.579
 6579SOL     OW20635   6.753   3.804   3.794
 6579SOL    HW120636   6.812   3.776   3.718
 6579SOL    HW220637   6.792   3.773   3.880
 6580SOL     OW20638   6.009   0.949   1.162
 6580SOL    HW120639   6.007   1.045   1.132
 6580SOL    HW220640   6.097   0.931   1.206
 6581SOL     OW20641   3.540   1.088   5.284
 6581SOL    HW120642   3.535   1.174   5.234
 6581SOL    HW220643   3.582   1.105   5.374
 6582SOL     OW20644   1.063   7.007   2.575
 6582SOL    HW120645   1.001   6.952   2.631
 6582SOL    HW220646   1.141   6.951   2.547
 6583SOL     OW20647   5.309   1.756   6.085
 6583SOL    HW120648   5.303   1.823   6.159
 6583SOL    HW220649   5.227   1.762   6.028
 6584SOL     OW20650   5.841   1.995   6.437
 6584SOL    HW120651   5.860   2.076   6.493
 6584SOL    HW220652   5.745   1.996   6.408
 6585SOL     OW20653   0.024   1.617   0.115
 6585SOL    HW120654   0.105   1.571   0.078
 6585SOL    HW220655   0.053   1.698   0.166
 6586SOL     OW20656   6.558   2.565   5.808
 6586SOL    HW120657   6.571   2.466   5.814
 6586SOL    HW220658   6.483   2.592   5.867
 6587SOL     OW20659   2.578   5.672   4.247
 6587SOL    HW120660   2.592   5.666   4.346
 6587SOL    HW220661   2.560   5.767   4.222
 6588SOL     OW20662   1.554   4.109   1.162
 6588SOL    HW120663   1.544   4.096   1.261
 6588SOL    HW220664   1.615   4.039   1.125
 6589SOL     OW20665   4.563   0.400   6.741
 6589SOL    HW120666   4.600   0.484   6.782
 6589SOL    HW220667   4.631   0.360   6.679
 6590SOL     OW20668   0.113   1.666   4.782
 6590SOL    HW120669   0.209   1.670   4.754
 6590SOL    HW220670   0.056   1.705   4.710
 6591SOL     OW20671   5.832   6.781   2.727
 6591SOL    HW120672   5.824   6.861   2.667
 6591SOL    HW220673   5.801   6.805   2.819
 6592SOL     OW20674   4.272   0.214   4.390
 6592SOL    HW120675   4.208   0.161   4.333
 6592SOL    HW220676   4.365   0.203   4.354
 6593SOL     OW20677   2.740   2.384   3.579
 6593SOL    HW120678   2.687   2.423   3.655
 6593SOL    HW220679   2.833   2.421   3.582
 6594SOL     OW20680   4.459   0.913   0.088
 6594SOL    HW120681   4.529   0.886   0.154
 6594SOL    HW220682   4.394   0.976   0.131
 6595SOL     OW20683   0.996   3.768   1.351
 6595SOL    HW120684   1.077   3.737   1.301
 6595SOL    HW220685   0.917   3.768   1.290
 6596SOL     OW20686   3.990   0.569   5.998
 6596SOL    HW120687   3.953   0.636   5.934
 6596SOL    HW220688   4.046   0.502   5.948
 6597SOL     OW20689   1.010   6.575   4.581
 6597SOL    HW120690   0.981   6.556   4.487
 6597SOL    HW220691   0.929   6.585   4.639
 6598SOL     OW20692   1.738   5.226   5.255
 6598SOL    HW120693   1.638   5.224   5.252
 6598SOL    HW220694   1.774   5.165   5.184
 6599SOL     OW20695   4.243   4.704   6.093
 6599SOL    HW120696   4.273   4.796   6.116
 6599SOL    HW220697   4.243   4.647   6.175
 6600SOL     OW20698   5.364   4.749   4.965
 6600SOL    HW120699   5.437   4.803   5.007
 6600SOL    HW220700   5.318   4.805   4.895
 6601SOL     OW20701   0.089   0.313   0.263
 6601SOL    HW120702   7.019   0.298   0.239
 6601SOL    HW220703   0.127   0.386   0.206
 6602SOL     OW20704   0.453   2.533   1.064
 6602SOL    HW120705   0.433   2.436   1.049
 6602SOL    HW220706   0.503   2.544   1.150
 6603SOL     OW20707   1.954   3.234   4.246
 6603SOL    HW120708   2.027   3.199   4.305
 6603SOL    HW220709   1.974   3.210   4.151
 6604SOL     OW20710   2.632   5.982   1.735
 6604SOL    HW120711   2.630   5.923   1.816
 6604SOL    HW220712   2.654   6.076   1.761
 6605SOL     OW20713   5.107   5.282   0.407
 6605SOL    HW120714   5.009   5.279   0.385
 6605SOL    HW220715   5.125   5.358   0.469
 6606SOL     OW20716   4.892   0.357   2.383
 6606SOL    HW120717   4.835   0.279   2.358
 6606SOL    HW220718   4.947   0.334   2.463
 6607SOL     OW20719   1.696   1.480   2.116
 6607SOL    HW120720   1.681   1.550   2.186
 6607SOL    HW220721   1.611   1.428   2.102
 6608SOL     OW20722   5.423   3.294   2.732
 6608SOL    HW120723   5.418   3.377   2.676
 6608SOL    HW220724   5.351   3.296   2.802
 6609SOL     OW20725   5.209   0.612   7.022
 6609SOL    HW120726   5.157   0.681   0.047
 6609SOL    HW220727   5.153   0.577   6.946
 6610SOL     OW20728   1.852   0.256   0.096
 6610SOL    HW120729   1.776   0.298   0.147
 6610SOL    HW220730   1.924   0.323   0.082
 6611SOL     OW20731   6.570   2.816   3.197
 6611SOL    HW120732   6.491   2.797   3.256
 6611SOL    HW220733   6.626   2.734   3.189
 6612SOL     OW20734   1.705   5.042   6.558
 6612SOL    HW120735   1.752   5.005   6.477
 6612SOL    HW220736   1.707   5.142   6.554
 6613SOL     OW20737   5.355   5.876   3.435
 6613SOL    HW120738   5.308   5.788   3.439
 6613SOL    HW220739   5.302   5.944   3.487
 6614SOL     OW20740   4.880   6.414   6.426
 6614SOL    HW120741   4.898   6.489   6.363
 6614SOL    HW220742   4.967   6.379   6.463
 6615SOL     OW20743   0.509   3.861   4.740
 6615SOL    HW120744   0.469   3.914   4.815
 6615SOL    HW220745   0.473   3.894   4.653
 6616SOL     OW20746   4.139   1.552   5.948
 6616SOL    HW120747   4.212   1.596   6.000
 6616SOL    HW220748   4.053   1.562   5.996
 6617SOL     OW20749   3.697   6.729   3.811
 6617SOL    HW120750   3.679   6.827   3.823
 6617SOL    HW220751   3.651   6.677   3.883
 6618SOL     OW20752   1.060   3.376   2.035
 6618SOL    HW120753   1.051   3.297   2.096
 6618SOL    HW220754   0.970   3.402   1.999
 6619SOL     OW20755   4.371   6.867   4.213
 6619SOL    HW120756   4.458   6.822   4.192
 6619SOL    HW220757   4.330   6.824   4.293
 6620SOL     OW20758   1.508   3.026   5.791
 6620SOL    HW120759   1.584   2.965   5.767
 6620SOL    HW220760   1.445   2.978   5.852
 6621SOL     OW20761   2.811   4.022   0.670
 6621SOL    HW120762   2.739   3.953   0.670
 6621SOL    HW220763   2.882   3.997   0.735
 6622SOL     OW20764   6.129   5.936   1.135
 6622SOL    HW120765   6.100   5.966   1.226
 6622SOL    HW220766   6.144   5.837   1.137
 6623SOL     OW20767   3.970   3.206   1.899
 6623SOL    HW120768   3.998   3.112   1.917
 6623SOL    HW220769   4.034   3.269   1.943
 6624SOL     OW20770   2.588   6.093   4.887
 6624SOL    HW120771   2.649   6.075   4.965
 6624SOL    HW220772   2.534   6.175   4.904
 6625SOL     OW20773   5.808   1.432   6.540
 6625SOL    HW120774   5.864   1.359   6.502
 6625SOL    HW220775   5.777   1.493   6.466
 6626SOL     OW20776   3.403   5.228   3.210
 6626SOL    HW120777   3.340   5.202   3.284
 6626SOL    HW220778   3.496   5.199   3.234
 6627SOL     OW20779   1.941   0.577   5.908
 6627SOL    HW120780   1.847   0.607   5.890
 6627SOL    HW220781   1.943   0.523   5.992
 6628SOL     OW20782   4.932   4.814   2.808
 6628SOL    HW120783   4.883   4.819   2.722
 6628SOL    HW220784   4.945   4.907   2.845
 6629SOL     OW20785   3.168   6.207   0.808
 6629SOL    HW120786   3.228   6.131   0.833
 6629SOL    HW220787   3.154   6.266   0.888
 6630SOL     OW20788   3.681   1.300   0.038
 6630SOL    HW120789   3.737   1.240   7.007
 6630SOL    HW220790   3.672   1.261   0.130
 6631SOL     OW20791   4.663   0.180   2.202
 6631SOL    HW120792   4.664   0.080   2.203
 6631SOL    HW220793   4.700   0.213   2.115
 6632SOL     OW20794   0.239   1.699   1.283
 6632SOL    HW120795   0.259   1.601   1.283
 6632SOL    HW220796   0.143   1.713   1.261
 6633SOL     OW20797   1.388   5.634   6.462
 6633SOL    HW120798   1.361   5.576   6.539
 6633SOL    HW220799   1.425   5.720   6.497
 6634SOL     OW20800   6.562   3.280   6.173
 6634SOL    HW120801   6.662   3.271   6.176
 6634SOL    HW220802   6.531   3.273   6.079
 6635SOL     OW20803   4.007   5.304   3.304
 6635SOL    HW120804   4.025   5.324   3.400
 6635SOL    HW220805   3.972   5.210   3.296
 6636SOL     OW20806   1.314   3.381   5.434
 6636SOL    HW120807   1.220   3.389   5.402
 6636SOL    HW220808   1.334   3.455   5.499
 6637SOL     OW20809   1.021   0.471   0.150
 6637SOL    HW120810   1.002   0.373   0.143
 6637SOL    HW220811   0.982   0.506   0.235
 6638SOL     OW20812   3.184   5.186   4.685
 6638SOL    HW120813   3.284   5.181   4.685
 6638SOL    HW220814   3.152   5.226   4.771
 6639SOL     OW20815   5.894   5.479   6.270
 6639SOL    HW120816   5.859   5.572   6.279
 6639SOL    HW220817   5.819   5.417   6.245
 6640SOL     OW20818   7.017   1.734   4.528
 6640SOL    HW120819   6.998   1.694   4.438
 6640SOL    HW220820   6.935   1.779   4.563
 6641SOL     OW20821   3.236   3.811   6.643
 6641SOL    HW120822   3.178   3.856   6.575
 6641SOL    HW220823   3.179   3.776   6.718
 6642SOL     OW20824   2.241   5.247   6.868
 6642SOL    HW120825   2.297   5.286   6.941
 6642SOL    HW220826   2.264   5.151   6.855
 6643SOL     OW20827   6.352   4.844   6.674
 6643SOL    HW120828   6.266   4.794   6.659
 6643SOL    HW220829   6.421   4.781   6.708
 6644SOL     OW20830   3.076   4.695   1.791
 6644SOL    HW120831   3.050   4.598   1.790
 6644SOL    HW220832   2.994   4.752   1.789
 6645SOL     OW20833   6.840   5.061   0.388
 6645SOL    HW120834   6.753   5.102   0.358
 6645SOL    HW220835   6.872   4.997   0.318
 6646SOL     OW20836   4.310   5.343   4.331
 6646SOL    HW120837   4.410   5.345   4.324
 6646SOL    HW220838   4.274   5.436   4.326
 6647SOL     OW20839   3.113   0.881   2.798
 6647SOL    HW120840   3.071   0.963   2.760
 6647SOL    HW220841   3.138   0.897   2.894
 6648SOL     OW20842   3.906   5.479   2.862
 6648SOL    HW120843   3.983   5.480   2.798
 6648SOL    HW220844   3.941   5.485   2.956
 6649SOL     OW20845   5.372   2.327   6.013
 6649SOL    HW120846   5.449   2.377   5.975
 6649SOL    HW220847   5.303   2.312   5.942
 6650SOL     OW20848   3.958   1.402   3.165
 6650SOL    HW120849   3.859   1.389   3.164
 6650SOL    HW220850   3.985   1.442   3.253
 6651SOL     OW20851   1.605   2.462   0.876
 6651SOL    HW120852   1.557   2.378   0.849
 6651SOL    HW220853   1.691   2.469   0.826
 6652SOL     OW20854   6.828   3.994   0.990
 6652SOL    HW120855   6.848   3.906   0.947
 6652SOL    HW220856   6.836   3.986   1.089
 6653SOL     OW20857   3.790   3.996   2.892
 6653SOL    HW120858   3.752   4.019   2.981
 6653SOL    HW220859   3.809   3.898   2.888
 6654SOL     OW20860   1.899   2.783   0.955
 6654SOL    HW120861   1.923   2.872   0.995
 6654SOL    HW220862   1.983   2.732   0.937
 6655SOL     OW20863   2.891   6.749   1.973
 6655SOL    HW120864   2.798   6.712   1.968
 6655SOL    HW220865   2.889   6.846   1.949
 6656SOL     OW20866   6.751   0.927   2.754
 6656SOL    HW120867   6.848   0.904   2.747
 6656SOL    HW220868   6.741   1.013   2.804
 6657SOL     OW20869   4.420   6.737   6.345
 6657SOL    HW120870   4.378   6.674   6.281
 6657SOL    HW220871   4.381   6.828   6.333
 6658SOL     OW20872   6.002   0.943   5.174
 6658SOL    HW120873   5.952   0.986   5.099
 6658SOL    HW220874   6.050   0.862   5.140
 6659SOL     OW20875   2.851   2.350   0.330
 6659SOL    HW120876   2.812   2.317   0.416
 6659SOL    HW220877   2.779   2.359   0.261
 6660SOL     OW20878   0.060   6.615   1.527
 6660SOL    HW120879   0.060   6.520   1.496
 6660SOL    HW220880   0.042   6.617   1.625
 6661SOL     OW20881   6.657   5.249   3.628
 6661SOL    HW120882   6.572   5.284   3.668
 6661SOL    HW220883   6.686   5.309   3.554
 6662SOL     OW20884   1.946   1.224   0.173
 6662SOL    HW120885   2.027   1.279   0.154
 6662SOL    HW220886   1.896   1.265   0.249
 6663SOL     OW20887   6.961   5.473   3.656
 6663SOL    HW120888   6.902   5.462   3.577
 6663SOL    HW220889   0.000   5.547   3.641
 6664SOL     OW20890   1.502   0.149   1.642
 6664SOL    HW120891   1.455   0.082   1.701
 6664SOL    HW220892   1.476   0.133   1.547
 6665SOL     OW20893   0.737   0.120   3.773
 6665SOL    HW120894   0.688   0.144   3.690
 6665SOL    HW220895   0.752   0.021   3.775
 6666SOL     OW20896   6.564   1.644   5.022
 6666SOL    HW120897   6.545   1.554   4.984
 6666SOL    HW220898   6.653   1.643   5.068
 6667SOL     OW20899   6.042   5.262   4.999
 6667SOL    HW120900   6.063   5.169   4.967
 6667SOL    HW220901   6.122   5.320   4.985
 6668SOL     OW20902   0.247   5.378   1.986
 6668SOL    HW120903   0.313   5.450   2.006
 6668SOL    HW220904   0.223   5.331   2.071
 6669SOL     OW20905   2.304   4.646   3.694
 6669SOL    HW120906   2.231   4.653   3.761
 6669SOL    HW220907   2.389   4.617   3.738
 6670SOL     OW20908   3.503   4.668   6.628
 6670SOL    HW120909   3.458   4.579   6.625
 6670SOL    HW220910   3.440   4.736   6.664
 6671SOL     OW20911   5.658   4.548   0.130
 6671SOL    HW120912   5.560   4.555   0.151
 6671SOL    HW220913   5.696   4.639   0.115
 6672SOL     OW20914   1.003   0.753   5.303
 6672SOL    HW120915   0.924   0.813   5.292
 6672SOL    HW220916   0.984   0.686   5.375
 6673SOL     OW20917   5.224   5.788   2.699
 6673SOL    HW120918   5.132   5.802   2.662
 6673SOL    HW220919   5.274   5.874   2.697
 6674SOL     OW20920   0.912   5.961   5.945
 6674SOL    HW120921   0.833   5.976   6.005
 6674SOL    HW220922   0.987   5.921   5.997
 6675SOL     OW20923   5.413   4.078   1.140
 6675SOL    HW120924   5.377   4.168   1.116
 6675SOL    HW220925   5.341   4.010   1.134
 6676SOL     OW20926   0.767   3.145   5.365
 6676SOL    HW120927   0.713   3.063   5.383
 6676SOL    HW220928   0.858   3.134   5.405
 6677SOL     OW20929   0.156   3.100   0.292
 6677SOL    HW120930   0.127   3.131   0.202
 6677SOL    HW220931   0.225   3.163   0.329
 6678SOL     OW20932   1.122   2.906   6.466
 6678SOL    HW120933   1.179   2.824   6.458
 6678SOL    HW220934   1.026   2.881   6.449
 6679SOL     OW20935   1.219   1.898   4.865
 6679SOL    HW120936   1.217   1.824   4.932
 6679SOL    HW220937   1.226   1.859   4.773
 6680SOL     OW20938   3.742   5.510   5.740
 6680SOL    HW120939   3.678   5.515   5.664
 6680SOL    HW220940   3.797   5.594   5.743
 6681SOL     OW20941   5.488   5.856   6.685
 6681SOL    HW120942   5.451   5.948   6.673
 6681SOL    HW220943   5.463   5.799   6.607
 6682SOL     OW20944   0.650   4.294   2.573
 6682SOL    HW120945   0.561   4.249   2.579
 6682SOL    HW220946   0.642   4.389   2.605
 6683SOL     OW20947   5.092   1.825   5.225
 6683SOL    HW120948   5.137   1.903   5.180
 6683SOL    HW220949   5.147   1.796   5.303
 6684SOL     OW20950   2.013   6.886   2.470
 6684SOL    HW120951   1.933   6.830   2.450
 6684SOL    HW220952   2.014   6.910   2.567
 6685SOL     OW20953   5.551   2.022   6.382
 6685SOL    HW120954   5.510   2.019   6.473
 6685SOL    HW220955   5.491   2.073   6.319
 6686SOL     OW20956   6.297   3.986   4.339
 6686SOL    HW120957   6.295   3.894   4.377
 6686SOL    HW220958   6.204   4.024   4.338
 6687SOL     OW20959   1.451   1.388   1.325
 6687SOL    HW120960   1.452   1.403   1.424
 6687SOL    HW220961   1.360   1.407   1.290
 6688SOL     OW20962   0.679   4.196   2.322
 6688SOL    HW120963   0.685   4.208   2.421
 6688SOL    HW220964   0.610   4.257   2.285
 6689SOL     OW20965   4.613   3.238   0.975
 6689SOL    HW120966   4.614   3.321   1.032
 6689SOL    HW220967   4.647   3.161   1.029
 6690SOL     OW20968   2.521   2.115   1.699
 6690SOL    HW120969   2.614   2.121   1.735
 6690SOL    HW220970   2.505   2.023   1.663
 6691SOL     OW20971   2.477   5.888   1.329
 6691SOL    HW120972   2.448   5.923   1.418
 6691SOL    HW220973   2.448   5.793   1.318
 6692SOL     OW20974   2.912   4.334   5.380
 6692SOL    HW120975   2.846   4.359   5.451
 6692SOL    HW220976   2.930   4.413   5.322
 6693SOL     OW20977   4.814   3.661   6.253
 6693SOL    HW120978   4.847   3.751   6.284
 6693SOL    HW220979   4.858   3.589   6.307
 6694SOL     OW20980   4.411   6.235   0.576
 6694SOL    HW120981   4.475   6.274   0.643
 6694SOL    HW220982   4.331   6.295   0.568
 6695SOL     OW20983   0.579   1.924   6.497
 6695SOL    HW120984   0.535   1.899   6.411
 6695SOL    HW220985   0.529   1.884   6.573
 6696SOL     OW20986   2.028   2.749   1.424
 6696SOL    HW120987   2.126   2.745   1.407
 6696SOL    HW220988   1.989   2.829   1.378
 6697SOL     OW20989   4.645   1.576   2.601
 6697SOL    HW120990   4.671   1.575   2.697
 6697SOL    HW220991   4.714   1.626   2.548
 6698SOL     OW20992   3.613   2.643   0.687
 6698SOL    HW120993   3.648   2.601   0.603
 6698SOL    HW220994   3.552   2.579   0.733
 6699SOL     OW20995   3.728   4.618   6.778
 6699SOL    HW120996   3.761   4.709   6.802
 6699SOL    HW220997   3.638   4.625   6.737
 6700SOL     OW20998   0.365   5.886   1.018
 6700SOL    HW120999   0.303   5.961   0.999
 6700SOL    HW221000   0.318   5.815   1.071
 6701SOL     OW21001   6.336   2.367   0.956
 6701SOL    HW121002   6.431   2.386   0.980
 6701SOL    HW221003   6.322   2.386   0.859
 6702SOL     OW21004   3.030   1.851   0.350
 6702SOL    HW121005   3.026   1.929   0.286
 6702SOL    HW221006   3.125   1.833   0.374
 6703SOL     OW21007   6.322   2.117   6.538
 6703SOL    HW121008   6.339   2.040   6.599
 6703SOL    HW221009   6.335   2.089   6.443
 6704SOL     OW21010   4.308   2.239   2.366
 6704SOL    HW121011   4.390   2.230   2.309
 6704SOL    HW221012   4.228   2.249   2.307
 6705SOL     OW21013   6.962   2.358   2.007
 6705SOL    HW121014   6.893   2.402   1.950
 6705SOL    HW221015   7.005   2.426   2.067
 6706SOL     OW21016   1.006   3.656   0.537
 6706SOL    HW121017   1.070   3.579   0.528
 6706SOL    HW221018   0.918   3.623   0.569
 6707SOL     OW21019   6.249   6.172   4.601
 6707SOL    HW121020   6.166   6.126   4.570
 6707SOL    HW221021   6.253   6.171   4.701
 6708SOL     OW21022   1.502   5.589   2.691
 6708SOL    HW121023   1.457   5.500   2.698
 6708SOL    HW221024   1.468   5.636   2.609
 6709SOL     OW21025   3.869   6.634   1.716
 6709SOL    HW121026   3.797   6.571   1.743
 6709SOL    HW221027   3.954   6.611   1.764
 6710SOL     OW21028   2.549   2.468   5.951
 6710SOL    HW121029   2.543   2.466   6.051
 6710SOL    HW221030   2.580   2.378   5.918
 6711SOL     OW21031   5.063   4.141   6.476
 6711SOL    HW121032   5.128   4.201   6.523
 6711SOL    HW221033   5.092   4.129   6.382
 6712SOL     OW21034   3.912   5.628   0.341
 6712SOL    HW121035   3.910   5.714   0.392
 6712SOL    HW221036   3.956   5.557   0.396
 6713SOL     OW21037   2.501   1.821   1.744
 6713SOL    HW121038   2.489   1.861   1.835
 6713SOL    HW221039   2.598   1.803   1.729
 6714SOL     OW21040   4.987   6.858   5.220
 6714SOL    HW121041   4.911   6.793   5.226
 6714SOL    HW221042   5.063   6.826   5.277
 6715SOL     OW21043   1.078   1.556   0.385
 6715SOL    HW121044   1.043   1.465   0.408
 6715SOL    HW221045   1.001   1.619   0.372
 6716SOL     OW21046   1.911   5.886   1.036
 6716SOL    HW121047   1.972   5.932   0.971
 6716SOL    HW221048   1.965   5.853   1.114
 6717SOL     OW21049   3.754   3.490   0.483
 6717SOL    HW121050   3.709   3.504   0.395
 6717SOL    HW221051   3.686   3.459   0.550
 6718SOL     OW21052   3.480   5.956   6.318
 6718SOL    HW121053   3.442   6.012   6.392
 6718SOL    HW221054   3.501   5.864   6.353
 6719SOL     OW21055   0.491   6.873   5.862
 6719SOL    HW121056   0.502   6.800   5.930
 6719SOL    HW221057   0.503   6.835   5.770
 6720SOL     OW21058   2.211   6.218   1.768
 6720SOL    HW121059   2.227   6.135   1.822
 6720SOL    HW221060   2.148   6.198   1.693
 6721SOL     OW21061   5.126   6.454   4.701
 6721SOL    HW121062   5.217   6.432   4.734
 6721SOL    HW221063   5.098   6.388   4.631
 6722SOL     OW21064   5.007   3.406   0.463
 6722SOL    HW121065   5.091   3.352   0.466
 6722SOL    HW221066   4.929   3.348   0.487
 6723SOL     OW21067   2.121   6.558   3.062
 6723SOL    HW121068   2.030   6.520   3.079
 6723SOL    HW221069   2.159   6.594   3.148
 6724SOL     OW21070   2.608   4.858   5.825
 6724SOL    HW121071   2.541   4.838   5.753
 6724SOL    HW221072   2.560   4.885   5.908
 6725SOL     OW21073   0.997   4.730   2.564
 6725SOL    HW121074   1.049   4.684   2.636
 6725SOL    HW221075   1.045   4.718   2.477
 6726SOL     OW21076   2.212   3.126   4.571
 6726SOL    HW121077   2.266   3.109   4.654
 6726SOL    HW221078   2.184   3.222   4.570
 6727SOL     OW21079   5.190   3.651   6.530
 6727SOL    HW121080   5.177   3.627   6.434
 6727SOL    HW221081   5.192   3.568   6.586
 6728SOL     OW21082   3.925   2.074   4.437
 6728SOL    HW121083   4.022   2.092   4.421
 6728SOL    HW221084   3.871   2.113   4.362
 6729SOL     OW21085   6.934   0.648   2.385
 6729SOL    HW121086   6.946   0.727   2.445
 6729SOL    HW221087   6.924   0.679   2.290
 6730SOL     OW21088   2.581   0.248   0.253
 6730SOL    HW121089   2.658   0.237   0.190
 6730SOL    HW221090   2.597   0.327   0.312
 6731SOL     OW21091   2.644   4.324   1.239
 6731SOL    HW121092   2.611   4.408   1.281
 6731SOL    HW221093   2.637   4.249   1.305
 6732SOL     OW21094   2.228   6.201   0.241
 6732SOL    HW121095   2.269   6.258   0.170
 6732SOL    HW221096   2.295   6.186   0.314
 6733SOL     OW21097   4.297   5.514   5.781
 6733SOL    HW121098   4.208   5.494   5.823
 6733SOL    HW221099   4.341   5.429   5.754
 6734SOL     OW21100   1.070   3.508   5.656
 6734SOL    HW121101   1.123   3.560   5.589
 6734SOL    HW221102   0.973   3.533   5.648
 6735SOL     OW21103   0.217   5.039   5.692
 6735SOL    HW121104   0.203   5.106   5.619
 6735SOL    HW221105   0.285   5.074   5.757
 6736SOL     OW21106   2.603   3.214   1.532
 6736SOL    HW121107   2.612   3.301   1.580
 6736SOL    HW221108   2.693   3.173   1.519
 6737SOL     OW21109   1.651   1.399   2.520
 6737SOL    HW121110   1.709   1.478   2.501
 6737SOL    HW221111   1.693   1.317   2.482
 6738SOL     OW21112   2.053   1.511   2.341
 6738SOL    HW121113   1.966   1.529   2.388
 6738SOL    HW221114   2.071   1.413   2.340
 6739SOL     OW21115   4.057   6.111   4.728
 6739SOL    HW121116   4.041   6.149   4.819
 6739SOL    HW221117   4.064   6.012   4.734
 6740SOL     OW21118   1.306   1.105   4.412
 6740SOL    HW121119   1.350   1.127   4.325
 6740SOL    HW221120   1.286   1.189   4.462
 6741SOL     OW21121   5.664   1.099   6.098
 6741SOL    HW121122   5.709   1.125   6.013
 6741SOL    HW221123   5.564   1.103   6.086
 6742SOL     OW21124   6.536   5.495   5.207
 6742SOL    HW121125   6.482   5.426   5.256
 6742SOL    HW221126   6.594   5.544   5.272
 6743SOL     OW21127   4.017   3.561   1.103
 6743SOL    HW121128   4.081   3.485   1.114
 6743SOL    HW221129   3.968   3.576   1.189
 6744SOL     OW21130   4.241   4.255   5.610
 6744SOL    HW121131   4.156   4.307   5.618
 6744SOL    HW221132   4.257   4.231   5.514
 6745SOL     OW21133   0.891   5.078   3.235
 6745SOL    HW121134   0.932   5.051   3.322
 6745SOL    HW221135   0.922   5.169   3.210
 6746SOL     OW21136   0.747   1.857   1.227
 6746SOL    HW121137   0.692   1.934   1.260
 6746SOL    HW221138   0.739   1.780   1.290
 6747SOL     OW21139   5.468   6.283   4.448
 6747SOL    HW121140   5.439   6.195   4.409
 6747SOL    HW221141   5.519   6.334   4.379
 6748SOL     OW21142   0.777   0.271   2.378
 6748SOL    HW121143   0.834   0.335   2.327
 6748SOL    HW221144   0.709   0.230   2.316
 6749SOL     OW21145   3.899   0.421   0.131
 6749SOL    HW121146   3.995   0.394   0.138
 6749SOL    HW221147   3.855   0.409   0.220
 6750SOL     OW21148   2.637   2.177   4.443
 6750SOL    HW121149   2.735   2.172   4.424
 6750SOL    HW221150   2.613   2.109   4.513
 6751SOL     OW21151   2.556   2.457   4.439
 6751SOL    HW121152   2.611   2.485   4.517
 6751SOL    HW221153   2.563   2.358   4.427
 6752SOL     OW21154   5.578   3.365   1.004
 6752SOL    HW121155   5.621   3.404   1.086
 6752SOL    HW221156   5.603   3.269   0.996
 6753SOL     OW21157   4.134   1.679   6.423
 6753SOL    HW121158   4.040   1.683   6.389
 6753SOL    HW221159   4.137   1.630   6.509
 6754SOL     OW21160   6.228   1.736   6.373
 6754SOL    HW121161   6.320   1.695   6.383
 6754SOL    HW221162   6.169   1.701   6.446
 6755SOL     OW21163   5.051   2.183   3.462
 6755SOL    HW121164   5.059   2.114   3.534
 6755SOL    HW221165   5.136   2.185   3.409
 6756SOL     OW21166   5.236   4.570   3.955
 6756SOL    HW121167   5.159   4.546   3.896
 6756SOL    HW221168   5.243   4.670   3.963
 6757SOL     OW21169   5.326   6.030   1.847
 6757SOL    HW121170   5.331   5.986   1.936
 6757SOL    HW221171   5.408   6.085   1.832
 6758SOL     OW21172   5.224   3.180   2.549
 6758SOL    HW121173   5.257   3.208   2.639
 6758SOL    HW221174   5.288   3.212   2.479
 6759SOL     OW21175   1.294   5.033   2.926
 6759SOL    HW121176   1.222   4.982   2.973
 6759SOL    HW221177   1.348   5.084   2.994
 6760SOL     OW21178   0.180   4.153   4.089
 6760SOL    HW121179   0.233   4.225   4.045
 6760SOL    HW221180   0.103   4.127   4.031
 6761SOL     OW21181   5.191   2.884   5.580
 6761SOL    HW121182   5.096   2.911   5.591
 6761SOL    HW221183   5.196   2.789   5.550
 6762SOL     OW21184   6.684   4.466   3.704
 6762SOL    HW121185   6.639   4.443   3.617
 6762SOL    HW221186   6.624   4.441   3.780
 6763SOL     OW21187   6.200   6.604   5.674
 6763SOL    HW121188   6.175   6.646   5.761
 6763SOL    HW221189   6.163   6.658   5.599
 6764SOL     OW21190   3.039   3.814   6.851
 6764SOL    HW121191   2.946   3.828   6.884
 6764SOL    HW221192   3.105   3.841   6.922
 6765SOL     OW21193   6.679   4.059   2.940
 6765SOL    HW121194   6.772   4.096   2.934
 6765SOL    HW221195   6.673   3.973   2.889
 6766SOL     OW21196   2.075   0.699   5.249
 6766SOL    HW121197   1.981   0.710   5.279
 6766SOL    HW221198   2.137   0.709   5.327
 6767SOL     OW21199   0.605   2.581   6.319
 6767SOL    HW121200   0.577   2.605   6.412
 6767SOL    HW221201   0.705   2.582   6.313
 6768SOL     OW21202   0.724   0.129   4.239
 6768SOL    HW121203   0.815   0.169   4.227
 6768SOL    HW221204   0.657   0.202   4.253
 6769SOL     OW21205   1.999   2.623   5.554
 6769SOL    HW121206   1.935   2.618   5.478
 6769SOL    HW221207   1.990   2.712   5.599
 6770SOL     OW21208   0.431   1.842   3.081
 6770SOL    HW121209   0.480   1.760   3.110
 6770SOL    HW221210   0.496   1.914   3.057
 6771SOL     OW21211   3.573   2.159   3.930
 6771SOL    HW121212   3.513   2.126   3.857
 6771SOL    HW221213   3.560   2.103   4.012
 6772SOL     OW21214   6.469   1.349   2.735
 6772SOL    HW121215   6.493   1.369   2.830
 6772SOL    HW221216   6.370   1.337   2.727
 6773SOL     OW21217   0.081   5.967   1.932
 6773SOL    HW121218   0.069   6.026   2.012
 6773SOL    HW221219   0.176   5.969   1.903
 6774SOL     OW21220   2.070   2.440   5.743
 6774SOL    HW121221   2.044   2.513   5.679
 6774SOL    HW221222   2.166   2.416   5.729
 6775SOL     OW21223   0.460   2.210   4.875
 6775SOL    HW121224   0.484   2.133   4.934
 6775SOL    HW221225   0.492   2.295   4.916
 6776SOL     OW21226   3.584   4.136   2.434
 6776SOL    HW121227   3.484   4.125   2.441
 6776SOL    HW221228   3.623   4.139   2.526
 6777SOL     OW21229   5.591   5.435   1.199
 6777SOL    HW121230   5.542   5.372   1.259
 6777SOL    HW221231   5.563   5.421   1.104
 6778SOL     OW21232   0.408   4.750   2.659
 6778SOL    HW121233   0.485   4.809   2.633
 6778SOL    HW221234   0.390   4.684   2.587
 6779SOL     OW21235   5.809   4.057   5.939
 6779SOL    HW121236   5.821   3.985   5.870
 6779SOL    HW221237   5.760   4.134   5.899
 6780SOL     OW21238   2.826   1.945   2.537
 6780SOL    HW121239   2.909   1.890   2.540
 6780SOL    HW221240   2.847   2.036   2.503
 6781SOL     OW21241   0.120   1.539   4.043
 6781SOL    HW121242   0.157   1.464   4.097
 6781SOL    HW221243   0.085   1.504   3.956
 6782SOL     OW21244   6.622   1.951   3.152
 6782SOL    HW121245   6.594   1.992   3.065
 6782SOL    HW221246   6.709   1.991   3.180
 6783SOL     OW21247   1.581   4.647   5.282
 6783SOL    HW121248   1.550   4.574   5.221
 6783SOL    HW221249   1.584   4.734   5.233
 6784SOL     OW21250   1.894   3.888   1.263
 6784SOL    HW121251   1.883   3.933   1.351
 6784SOL    HW221252   1.987   3.851   1.256
 6785SOL     OW21253   5.222   4.893   4.331
 6785SOL    HW121254   5.293   4.925   4.268
 6785SOL    HW221255   5.155   4.839   4.280
 6786SOL     OW21256   6.350   2.366   7.007
 6786SOL    HW121257   6.315   2.273   6.994
 6786SOL    HW221258   6.393   2.398   6.923
 6787SOL     OW21259   3.776   2.028   6.354
 6787SOL    HW121260   3.787   2.125   6.332
 6787SOL    HW221261   3.729   2.019   6.442
 6788SOL     OW21262   6.711   4.343   3.129
 6788SOL    HW121263   6.780   4.385   3.188
 6788SOL    HW221264   6.740   4.251   3.103
 6789SOL     OW21265   6.194   3.879   3.873
 6789SOL    HW121266   6.189   3.963   3.927
 6789SOL    HW221267   6.159   3.803   3.927
 6790SOL     OW21268   0.540   4.985   5.353
 6790SOL    HW121269   0.637   5.002   5.372
 6790SOL    HW221270   0.531   4.909   5.289
 6791SOL     OW21271   3.426   0.464   3.463
 6791SOL    HW121272   3.412   0.425   3.372
 6791SOL    HW221273   3.479   0.401   3.519
 6792SOL     OW21274   4.172   6.832   5.431
 6792SOL    HW121275   4.251   6.806   5.375
 6792SOL    HW221276   4.199   6.907   5.492
 6793SOL     OW21277   1.642   3.639   0.577
 6793SOL    HW121278   1.737   3.612   0.586
 6793SOL    HW221279   1.583   3.568   0.614
 6794SOL     OW21280   4.862   1.839   5.384
 6794SOL    HW121281   4.925   1.881   5.318
 6794SOL    HW221282   4.877   1.741   5.386
 6795SOL     OW21283   1.115   1.151   1.285
 6795SOL    HW121284   1.185   1.139   1.214
 6795SOL    HW221285   1.131   1.237   1.333
 6796SOL     OW21286   6.753   0.627   2.772
 6796SOL    HW121287   6.789   0.575   2.694
 6796SOL    HW221288   6.705   0.708   2.738
 6797SOL     OW21289   0.905   2.446   1.025
 6797SOL    HW121290   0.911   2.367   0.965
 6797SOL    HW221291   0.966   2.518   0.992
 6798SOL     OW21292   5.325   0.237   1.570
 6798SOL    HW121293   5.390   0.286   1.627
 6798SOL    HW221294   5.291   0.297   1.498
 6799SOL     OW21295   5.683   0.640   3.311
 6799SOL    HW121296   5.739   0.718   3.340
 6799SOL    HW221297   5.738   0.576   3.258
 6800SOL     OW21298   0.400   1.851   1.476
 6800SOL    HW121299   0.401   1.814   1.383
 6800SOL    HW221300   0.493   1.864   1.509
 6801SOL     OW21301   0.756   5.979   5.732
 6801SOL    HW121302   0.820   5.953   5.804
 6801SOL    HW221303   0.749   5.905   5.665
 6802SOL     OW21304   2.997   4.819   2.069
 6802SOL    HW121305   2.963   4.725   2.063
 6802SOL    HW221306   2.941   4.878   2.009
 6803SOL     OW21307   5.217   4.964   6.016
 6803SOL    HW121308   5.240   4.869   5.993
 6803SOL    HW221309   5.271   5.026   5.959
 6804SOL     OW21310   3.236   5.100   3.028
 6804SOL    HW121311   3.281   5.159   3.094
 6804SOL    HW221312   3.298   5.082   2.951
 6805SOL     OW21313   6.947   4.133   5.481
 6805SOL    HW121314   6.983   4.183   5.560
 6805SOL    HW221315   7.022   4.117   5.416
 6806SOL     OW21316   6.751   1.873   2.485
 6806SOL    HW121317   6.747   1.899   2.389
 6806SOL    HW221318   6.845   1.885   2.519
 6807SOL     OW21319   3.201   3.988   2.109
 6807SOL    HW121320   3.152   3.954   2.189
 6807SOL    HW221321   3.285   4.034   2.139
 6808SOL     OW21322   3.486   1.022   4.485
 6808SOL    HW121323   3.479   0.943   4.424
 6808SOL    HW221324   3.561   1.008   4.549
 6809SOL     OW21325   5.592   3.360   1.583
 6809SOL    HW121326   5.511   3.419   1.579
 6809SOL    HW221327   5.571   3.279   1.638
 6810SOL     OW21328   2.493   0.344   3.828
 6810SOL    HW121329   2.484   0.351   3.927
 6810SOL    HW221330   2.576   0.292   3.806
 6811SOL     OW21331   6.724   1.407   1.263
 6811SOL    HW121332   6.734   1.308   1.257
 6811SOL    HW221333   6.703   1.445   1.173
 6812SOL     OW21334   3.581   3.952   5.186
 6812SOL    HW121335   3.494   3.980   5.226
 6812SOL    HW221336   3.646   3.931   5.259
 6813SOL     OW21337   6.117   4.263   1.715
 6813SOL    HW121338   6.210   4.280   1.683
 6813SOL    HW221339   6.120   4.226   1.808
 6814SOL     OW21340   5.137   1.258   6.821
 6814SOL    HW121341   5.205   1.274   6.749
 6814SOL    HW221342   5.060   1.320   6.808
 6815SOL     OW21343   1.832   4.849   5.900
 6815SOL    HW121344   1.861   4.794   5.978
 6815SOL    HW221345   1.911   4.896   5.861
 6816SOL     OW21346   0.803   1.197   2.921
 6816SOL    HW121347   0.876   1.181   2.855
 6816SOL    HW221348   0.744   1.271   2.889
 6817SOL     OW21349   3.755   2.058   2.203
 6817SOL    HW121350   3.733   2.095   2.113
 6817SOL    HW221351   3.780   1.962   2.194
 6818SOL     OW21352   1.942   6.869   5.334
 6818SOL    HW121353   1.933   6.901   5.428
 6818SOL    HW221354   1.986   6.779   5.334
 6819SOL     OW21355   4.806   4.675   1.850
 6819SOL    HW121356   4.890   4.707   1.893
 6819SOL    HW221357   4.787   4.581   1.879
 6820SOL     OW21358   2.840   5.896   1.529
 6820SOL    HW121359   2.759   5.931   1.576
 6820SOL    HW221360   2.890   5.972   1.487
 6821SOL     OW21361   3.937   2.600   5.330
 6821SOL    HW121362   4.025   2.564   5.298
 6821SOL    HW221363   3.925   2.694   5.298
 6822SOL     OW21364   6.798   2.655   6.614
 6822SOL    HW121365   6.719   2.716   6.622
 6822SOL    HW221366   6.881   2.704   6.643
 6823SOL     OW21367   6.174   3.619   6.527
 6823SOL    HW121368   6.086   3.656   6.500
 6823SOL    HW221369   6.235   3.614   6.448
 6824SOL     OW21370   0.559   1.631   5.592
 6824SOL    HW121371   0.489   1.697   5.620
 6824SOL    HW221372   0.634   1.679   5.546
 6825SOL     OW21373   5.686   4.530   1.497
 6825SOL    HW121374   5.643   4.608   1.452
 6825SOL    HW221375   5.708   4.555   1.591
 6826SOL     OW21376   0.081   3.770   3.293
 6826SOL    HW121377   0.115   3.821   3.372
 6826SOL    HW221378   0.091   3.672   3.310
 6827SOL     OW21379   4.377   5.729   4.629
 6827SOL    HW121380   4.313   5.750   4.703
 6827SOL    HW221381   4.329   5.737   4.541
 6828SOL     OW21382   2.795   1.666   2.299
 6828SOL    HW121383   2.797   1.631   2.206
 6828SOL    HW221384   2.819   1.763   2.299
 6829SOL     OW21385   4.371   6.863   4.591
 6829SOL    HW121386   4.346   6.789   4.530
 6829SOL    HW221387   4.288   6.912   4.619
 6830SOL     OW21388   4.852   0.373   3.187
 6830SOL    HW121389   4.825   0.278   3.202
 6830SOL    HW221390   4.936   0.392   3.237
 6831SOL     OW21391   1.502   1.857   6.241
 6831SOL    HW121392   1.514   1.758   6.244
 6831SOL    HW221393   1.591   1.902   6.241
 6832SOL     OW21394   3.043   2.495   0.204
 6832SOL    HW121395   3.045   2.407   0.252
 6832SOL    HW221396   2.999   2.563   0.262
 6833SOL     OW21397   3.253   4.772   6.016
 6833SOL    HW121398   3.157   4.761   6.041
 6833SOL    HW221399   3.311   4.727   6.085
 6834SOL     OW21400   5.484   0.273   0.739
 6834SOL    HW121401   5.389   0.292   0.766
 6834SOL    HW221402   5.542   0.273   0.820
 6835SOL     OW21403   2.478   1.618   4.494
 6835SOL    HW121404   2.544   1.586   4.562
 6835SOL    HW221405   2.438   1.540   4.447
 6836SOL     OW21406   2.212   4.288   5.835
 6836SOL    HW121407   2.236   4.350   5.910
 6836SOL    HW221408   2.267   4.310   5.754
 6837SOL     OW21409   0.648   0.055   1.491
 6837SOL    HW121410   0.746   0.073   1.485
 6837SOL    HW221411   0.603   0.086   1.407
 6838SOL     OW21412   2.997   3.942   5.169
 6838SOL    HW121413   3.068   3.895   5.221
 6838SOL    HW221414   3.022   4.038   5.157
 6839SOL     OW21415   5.657   2.557   3.860
 6839SOL    HW121416   5.577   2.527   3.912
 6839SOL    HW221417   5.740   2.544   3.916
 6840SOL     OW21418   2.657   6.916   5.606
 6840SOL    HW121419   2.660   6.848   5.680
 6840SOL    HW221420   2.578   6.898   5.548
 6841SOL     OW21421   4.099   5.618   1.351
 6841SOL    HW121422   4.139   5.540   1.304
 6841SOL    HW221423   4.026   5.657   1.294
 6842SOL     OW21424   0.265   3.725   6.092
 6842SOL    HW121425   0.196   3.772   6.147
 6842SOL    HW221426   0.330   3.792   6.057
 6843SOL     OW21427   3.344   2.027   2.256
 6843SOL    HW121428   3.352   2.041   2.158
 6843SOL    HW221429   3.315   1.933   2.274
 6844SOL     OW21430   4.781   4.674   3.952
 6844SOL    HW121431   4.747   4.591   3.907
 6844SOL    HW221432   4.715   4.704   4.021
 6845SOL     OW21433   5.139   4.525   2.013
 6845SOL    HW121434   5.103   4.439   1.977
 6845SOL    HW221435   5.198   4.506   2.091
 6846SOL     OW21436   3.456   2.849   2.468
 6846SOL    HW121437   3.457   2.939   2.426
 6846SOL    HW221438   3.466   2.779   2.397
 6847SOL     OW21439   6.418   3.196   1.877
 6847SOL    HW121440   6.515   3.177   1.859
 6847SOL    HW221441   6.406   3.293   1.896
 6848SOL     OW21442   0.898   6.343   3.621
 6848SOL    HW121443   0.809   6.387   3.631
 6848SOL    HW221444   0.964   6.388   3.682
 6849SOL     OW21445   3.597   6.561   4.005
 6849SOL    HW121446   3.651   6.510   4.072
 6849SOL    HW221447   3.516   6.599   4.050
 6850SOL     OW21448   5.365   2.858   3.016
 6850SOL    HW121449   5.415   2.929   3.065
 6850SOL    HW221450   5.287   2.898   2.968
 6851SOL     OW21451   1.545   5.080   5.451
 6851SOL    HW121452   1.468   5.094   5.514
 6851SOL    HW221453   1.630   5.102   5.498
 6852SOL     OW21454   0.853   4.197   1.511
 6852SOL    HW121455   0.784   4.253   1.557
 6852SOL    HW221456   0.830   4.187   1.415
 6853SOL     OW21457   0.496   3.976   5.166
 6853SOL    HW121458   0.558   3.934   5.233
 6853SOL    HW221459   0.475   4.070   5.195
 6854SOL     OW21460   6.526   2.708   6.678
 6854SOL    HW121461   6.449   2.686   6.618
 6854SOL    HW221462   6.491   2.741   6.766
 6855SOL     OW21463   2.926   6.632   2.228
 6855SOL    HW121464   2.903   6.663   2.136
 6855SOL    HW221465   3.015   6.586   2.227
 6856SOL     OW21466   5.908   4.211   5.064
 6856SOL    HW121467   5.985   4.163   5.021
 6856SOL    HW221468   5.878   4.160   5.145
 6857SOL     OW21469   3.391   2.121   5.972
 6857SOL    HW121470   3.472   2.121   6.029
 6857SOL    HW221471   3.373   2.027   5.940
 6858SOL     OW21472   3.885   2.884   5.255
 6858SOL    HW121473   3.817   2.902   5.327
 6858SOL    HW221474   3.838   2.867   5.168
 6859SOL     OW21475   3.288   0.299   0.523
 6859SOL    HW121476   3.227   0.229   0.560
 6859SOL    HW221477   3.240   0.387   0.521
 6860SOL     OW21478   5.363   3.968   0.483
 6860SOL    HW121479   5.409   4.015   0.408
 6860SOL    HW221480   5.429   3.946   0.555
 6861SOL     OW21481   5.746   4.900   0.353
 6861SOL    HW121482   5.683   4.866   0.423
 6861SOL    HW221483   5.698   4.906   0.266
 6862SOL     OW21484   2.896   5.410   4.345
 6862SOL    HW121485   2.987   5.378   4.371
 6862SOL    HW221486   2.829   5.338   4.364
 6863SOL     OW21487   5.733   2.453   4.284
 6863SOL    HW121488   5.680   2.452   4.369
 6863SOL    HW221489   5.686   2.396   4.216
 6864SOL     OW21490   3.011   6.250   4.627
 6864SOL    HW121491   2.949   6.314   4.583
 6864SOL    HW221492   2.984   6.238   4.723
 6865SOL     OW21493   6.775   3.966   4.124
 6865SOL    HW121494   6.688   3.959   4.075
 6865SOL    HW221495   6.759   4.008   4.213
 6866SOL     OW21496   6.594   3.424   2.473
 6866SOL    HW121497   6.685   3.420   2.514
 6866SOL    HW221498   6.584   3.509   2.422
 6867SOL     OW21499   2.320   4.198   2.040
 6867SOL    HW121500   2.302   4.281   2.093
 6867SOL    HW221501   2.358   4.127   2.099
 6868SOL     OW21502   1.894   5.716   4.130
 6868SOL    HW121503   1.930   5.645   4.070
 6868SOL    HW221504   1.914   5.693   4.225
 6869SOL     OW21505   5.532   2.629   5.461
 6869SOL    HW121506   5.630   2.648   5.467
 6869SOL    HW221507   5.510   2.552   5.521
 6870SOL     OW21508   5.766   3.823   2.979
 6870SOL    HW121509   5.826   3.788   3.051
 6870SOL    HW221510   5.717   3.747   2.937
 6871SOL     OW21511   5.592   5.695   1.240
 6871SOL    HW121512   5.616   5.600   1.218
 6871SOL    HW221513   5.545   5.736   1.163
 6872SOL     OW21514   2.242   3.513   6.996
 6872SOL    HW121515   2.234   3.517   0.070
 6872SOL    HW221516   2.294   3.592   6.963
 6873SOL     OW21517   6.488   3.975   6.686
 6873SOL    HW121518   6.556   3.911   6.721
 6873SOL    HW221519   6.397   3.934   6.695
 6874SOL     OW21520   0.249   2.770   4.564
 6874SOL    HW121521   0.305   2.732   4.490
 6874SOL    HW221522   0.278   2.864   4.583
 6875SOL     OW21523   2.058   0.908   2.922
 6875SOL    HW121524   2.077   1.004   2.943
 6875SOL    HW221525   1.972   0.901   2.872
 6876SOL     OW21526   4.027   5.964   0.079
 6876SOL    HW121527   4.046   5.914   7.020
 6876SOL    HW221528   4.079   5.923   0.154
 6877SOL     OW21529   2.282   3.805   0.064
 6877SOL    HW121530   2.320   3.886   0.109
 6877SOL    HW221531   2.200   3.830   0.012
 6878SOL     OW21532   2.011   1.517   5.762
 6878SOL    HW121533   2.101   1.536   5.723
 6878SOL    HW221534   1.977   1.430   5.727
 6879SOL     OW21535   0.959   2.305   6.294
 6879SOL    HW121536   0.997   2.351   6.214
 6879SOL    HW221537   1.031   2.292   6.362
 6880SOL     OW21538   2.229   4.067   4.719
 6880SOL    HW121539   2.196   3.973   4.709
 6880SOL    HW221540   2.316   4.066   4.768
 6881SOL     OW21541   0.226   3.707   1.898
 6881SOL    HW121542   0.312   3.687   1.852
 6881SOL    HW221543   0.214   3.642   1.973
 6882SOL     OW21544   2.123   0.746   4.974
 6882SOL    HW121545   2.193   0.692   4.928
 6882SOL    HW221546   2.137   0.742   5.073
 6883SOL     OW21547   4.098   0.617   1.527
 6883SOL    HW121548   4.091   0.640   1.624
 6883SOL    HW221549   4.118   0.519   1.518
 6884SOL     OW21550   1.944   5.183   4.183
 6884SOL    HW121551   2.027   5.128   4.192
 6884SOL    HW221552   1.937   5.245   4.261
 6885SOL     OW21553   2.775   5.963   4.475
 6885SOL    HW121554   2.824   5.894   4.529
 6885SOL    HW221555   2.727   6.025   4.536
 6886SOL     OW21556   5.790   1.005   2.565
 6886SOL    HW121557   5.833   0.967   2.646
 6886SOL    HW221558   5.833   1.092   2.542
 6887SOL     OW21559   5.768   0.937   4.454
 6887SOL    HW121560   5.779   0.909   4.550
 6887SOL    HW221561   5.808   1.028   4.442
 6888SOL     OW21562   5.787   0.593   4.574
 6888SOL    HW121563   5.753   0.501   4.594
 6888SOL    HW221564   5.818   0.597   4.479
 6889SOL     OW21565   1.588   4.586   6.069
 6889SOL    HW121566   1.566   4.495   6.104
 6889SOL    HW221567   1.546   4.598   5.979
 6890SOL     OW21568   2.434   6.669   1.357
 6890SOL    HW121569   2.447   6.657   1.455
 6890SOL    HW221570   2.507   6.726   1.320
 6891SOL     OW21571   2.038   4.123   3.414
 6891SOL    HW121572   2.135   4.125   3.439
 6891SOL    HW221573   1.994   4.208   3.442
 6892SOL     OW21574   3.096   0.302   3.954
 6892SOL    HW121575   3.137   0.225   3.905
 6892SOL    HW221576   3.160   0.379   3.954
 6893SOL     OW21577   4.908   5.916   2.961
 6893SOL    HW121578   4.910   5.826   3.003
 6893SOL    HW221579   4.998   5.958   2.966
 6894SOL     OW21580   5.899   4.869   6.913
 6894SOL    HW121581   5.844   4.786   6.916
 6894SOL    HW221582   5.841   4.946   6.888
 6895SOL     OW21583   2.658   4.407   6.584
 6895SOL    HW121584   2.693   4.354   6.660
 6895SOL    HW221585   2.584   4.357   6.539
 6896SOL     OW21586   3.658   0.358   2.802
 6896SOL    HW121587   3.593   0.315   2.739
 6896SOL    HW221588   3.751   0.346   2.766
 6897SOL     OW21589   3.703   4.016   0.622
 6897SOL    HW121590   3.708   3.920   0.650
 6897SOL    HW221591   3.720   4.075   0.700
 6898SOL     OW21592   4.337   1.898   2.078
 6898SOL    HW121593   4.239   1.909   2.059
 6898SOL    HW221594   4.362   1.802   2.069
 6899SOL     OW21595   4.602   6.569   6.734
 6899SOL    HW121596   4.604   6.661   6.696
 6899SOL    HW221597   4.617   6.502   6.661
 6900SOL     OW21598   4.972   0.448   6.209
 6900SOL    HW121599   5.034   0.487   6.278
 6900SOL    HW221600   4.982   0.349   6.208
 6901SOL     OW21601   1.748   0.086   6.663
 6901SOL    HW121602   1.713   0.179   6.655
 6901SOL    HW221603   1.671   0.023   6.677
 6902SOL     OW21604   0.071   6.146   0.092
 6902SOL    HW121605   0.104   6.220   0.151
 6902SOL    HW221606   0.031   6.185   0.009
 6903SOL     OW21607   4.362   4.907   0.560
 6903SOL    HW121608   4.400   4.848   0.631
 6903SOL    HW221609   4.271   4.872   0.534
 6904SOL     OW21610   6.391   1.394   3.772
 6904SOL    HW121611   6.300   1.431   3.789
 6904SOL    HW221612   6.403   1.311   3.826
 6905SOL     OW21613   6.039   6.793   0.744
 6905SOL    HW121614   6.114   6.856   0.767
 6905SOL    HW221615   6.014   6.741   0.825
 6906SOL     OW21616   3.748   0.809   2.980
 6906SOL    HW121617   3.762   0.888   2.921
 6906SOL    HW221618   3.654   0.776   2.970
 6907SOL     OW21619   3.471   1.491   1.661
 6907SOL    HW121620   3.450   1.588   1.656
 6907SOL    HW221621   3.397   1.444   1.711
 6908SOL     OW21622   1.445   6.367   4.995
 6908SOL    HW121623   1.527   6.316   4.968
 6908SOL    HW221624   1.460   6.410   5.084
 6909SOL     OW21625   4.606   4.343   0.606
 6909SOL    HW121626   4.680   4.338   0.673
 6909SOL    HW221627   4.546   4.263   0.617
 6910SOL     OW21628   6.282   1.540   1.802
 6910SOL    HW121629   6.188   1.551   1.835
 6910SOL    HW221630   6.305   1.616   1.741
 6911SOL     OW21631   4.119   0.812   5.048
 6911SOL    HW121632   4.104   0.716   5.070
 6911SOL    HW221633   4.094   0.829   4.952
 6912SOL     OW21634   5.222   4.779   0.649
 6912SOL    HW121635   5.137   4.833   0.653
 6912SOL    HW221636   5.203   4.685   0.677
 6913SOL     OW21637   5.338   4.929   4.735
 6913SOL    HW121638   5.300   5.008   4.784
 6913SOL    HW221639   5.307   4.932   4.640
 6914SOL     OW21640   5.861   5.499   0.552
 6914SOL    HW121641   5.954   5.474   0.580
 6914SOL    HW221642   5.846   5.596   0.568
 6915SOL     OW21643   0.566   4.770   3.244
 6915SOL    HW121644   0.647   4.829   3.252
 6915SOL    HW221645   0.571   4.696   3.310
 6916SOL     OW21646   6.479   3.186   6.944
 6916SOL    HW121647   6.508   3.090   6.935
 6916SOL    HW221648   6.400   3.191   7.006
 6917SOL     OW21649   4.838   6.750   5.844
 6917SOL    HW121650   4.925   6.793   5.866
 6917SOL    HW221651   4.854   6.669   5.787
 6918SOL     OW21652   6.959   3.307   3.939
 6918SOL    HW121653   6.970   3.266   4.030
 6918SOL    HW221654   0.021   3.306   3.892
 6919SOL     OW21655   2.138   6.058   2.644
 6919SOL    HW121656   2.201   6.040   2.568
 6919SOL    HW221657   2.175   6.017   2.727
 6920SOL     OW21658   5.093   6.053   4.616
 6920SOL    HW121659   5.030   5.991   4.570
 6920SOL    HW221660   5.185   6.043   4.576
 6921SOL     OW21661   6.945   0.628   3.224
 6921SOL    HW121662   6.875   0.670   3.166
 6921SOL    HW221663   6.921   0.532   3.240
 6922SOL     OW21664   2.415   6.251   0.832
 6922SOL    HW121665   2.471   6.242   0.749
 6922SOL    HW221666   2.427   6.170   0.889
 6923SOL     OW21667   4.677   0.615   3.906
 6923SOL    HW121668   4.732   0.555   3.848
 6923SOL    HW221669   4.687   0.710   3.875
 6924SOL     OW21670   6.924   5.389   1.671
 6924SOL    HW121671   6.856   5.346   1.729
 6924SOL    HW221672   6.890   5.393   1.577
 6925SOL     OW21673   4.603   6.223   2.877
 6925SOL    HW121674   4.627   6.300   2.936
 6925SOL    HW221675   4.506   6.228   2.853
 6926SOL     OW21676   2.979   3.864   4.400
 6926SOL    HW121677   3.006   3.901   4.311
 6926SOL    HW221678   2.930   3.778   4.388
 6927SOL     OW21679   4.821   4.169   6.342
 6927SOL    HW121680   4.907   4.162   6.393
 6927SOL    HW221681   4.840   4.210   6.252
 6928SOL     OW21682   4.797   0.956   6.455
 6928SOL    HW121683   4.712   0.979   6.408
 6928SOL    HW221684   4.875   0.990   6.402
 6929SOL     OW21685   4.397   5.853   0.209
 6929SOL    HW121686   4.301   5.829   0.224
 6929SOL    HW221687   4.422   5.930   0.267
 6930SOL     OW21688   0.811   0.089   2.603
 6930SOL    HW121689   0.901   0.062   2.569
 6930SOL    HW221690   0.768   0.152   2.538
 6931SOL     OW21691   1.728   0.997   1.582
 6931SOL    HW121692   1.661   1.056   1.537
 6931SOL    HW221693   1.714   1.000   1.681
 6932SOL     OW21694   2.803   1.704   0.256
 6932SOL    HW121695   2.722   1.704   0.315
 6932SOL    HW221696   2.878   1.752   0.301
 6933SOL     OW21697   4.055   5.368   5.754
 6933SOL    HW121698   3.963   5.329   5.756
 6933SOL    HW221699   4.115   5.311   5.698
 6934SOL     OW21700   5.194   3.085   0.262
 6934SOL    HW121701   5.203   3.031   0.179
 6934SOL    HW221702   5.250   3.167   0.255
 6935SOL     OW21703   4.644   6.368   3.689
 6935SOL    HW121704   4.598   6.346   3.603
 6935SOL    HW221705   4.739   6.394   3.670
 6936SOL     OW21706   1.222   2.978   1.201
 6936SOL    HW121707   1.158   2.925   1.257
 6936SOL    HW221708   1.208   2.956   1.105
 6937SOL     OW21709   4.666   6.856   6.267
 6937SOL    HW121710   4.607   6.876   6.188
 6937SOL    HW221711   4.611   6.818   6.341
 6938SOL     OW21712   5.005   3.247   5.459
 6938SOL    HW121713   4.964   3.333   5.427
 6938SOL    HW221714   4.969   3.224   5.549
 6939SOL     OW21715   0.388   4.445   2.550
 6939SOL    HW121716   0.302   4.412   2.512
 6939SOL    HW221717   0.450   4.468   2.475
 6940SOL     OW21718   4.710   0.783   6.036
 6940SOL    HW121719   4.774   0.711   6.009
 6940SOL    HW221720   4.675   0.763   6.127
 6941SOL     OW21721   3.993   3.144   3.777
 6941SOL    HW121722   3.919   3.103   3.830
 6941SOL    HW221723   3.978   3.127   3.679
 6942SOL     OW21724   0.048   2.889   0.646
 6942SOL    HW121725   7.014   2.875   0.725
 6942SOL    HW221726   0.034   2.815   0.580
 6943SOL     OW21727   5.488   6.127   6.111
 6943SOL    HW121728   5.434   6.122   6.027
 6943SOL    HW221729   5.500   6.035   6.148
 6944SOL     OW21730   1.098   5.172   6.545
 6944SOL    HW121731   1.070   5.194   6.639
 6944SOL    HW221732   1.176   5.229   6.519
 6945SOL     OW21733   6.181   2.627   6.306
 6945SOL    HW121734   6.233   2.654   6.387
 6945SOL    HW221735   6.148   2.534   6.318
 6946SOL     OW21736   5.807   4.113   2.653
 6946SOL    HW121737   5.884   4.138   2.712
 6946SOL    HW221738   5.781   4.192   2.597
 6947SOL     OW21739   3.511   6.738   3.005
 6947SOL    HW121740   3.580   6.796   3.048
 6947SOL    HW221741   3.447   6.794   2.953
 6948SOL     OW21742   4.653   0.770   6.630
 6948SOL    HW121743   4.555   0.786   6.637
 6948SOL    HW221744   4.693   0.837   6.567
 6949SOL     OW21745   5.306   6.647   3.322
 6949SOL    HW121746   5.346   6.739   3.323
 6949SOL    HW221747   5.374   6.581   3.291
 6950SOL     OW21748   2.248   1.126   2.916
 6950SOL    HW121749   2.284   1.061   2.983
 6950SOL    HW221750   2.320   1.192   2.892
 6951SOL     OW21751   6.308   5.639   6.043
 6951SOL    HW121752   6.396   5.601   6.015
 6951SOL    HW221753   6.239   5.566   6.045
 6952SOL     OW21754   0.415   5.038   4.594
 6952SOL    HW121755   0.402   5.137   4.592
 6952SOL    HW221756   0.359   4.995   4.523
 6953SOL     OW21757   4.398   1.328   6.088
 6953SOL    HW121758   4.451   1.400   6.044
 6953SOL    HW221759   4.383   1.254   6.022
 6954SOL     OW21760   6.574   3.180   4.250
 6954SOL    HW121761   6.545   3.270   4.283
 6954SOL    HW221762   6.592   3.185   4.151
 6955SOL     OW21763   0.240   6.156   1.599
 6955SOL    HW121764   0.290   6.232   1.558
 6955SOL    HW221765   0.147   6.185   1.621
 6956SOL     OW21766   4.607   5.022   1.728
 6956SOL    HW121767   4.578   4.972   1.809
 6956SOL    HW221768   4.528   5.065   1.685
 6957SOL     OW21769   0.356   4.739   1.898
 6957SOL    HW121770   0.333   4.835   1.912
 6957SOL    HW221771   0.348   4.717   1.801
 6958SOL     OW21772   2.736   2.852   6.091
 6958SOL    HW121773   2.816   2.856   6.031
 6958SOL    HW221774   2.659   2.812   6.041
 6959SOL     OW21775   4.005   1.498   5.038
 6959SOL    HW121776   3.988   1.560   4.961
 6959SOL    HW221777   4.082   1.438   5.016
 6960SOL     OW21778   7.025   4.684   0.084
 6960SOL    HW121779   0.008   4.598   0.135
 6960SOL    HW221780   0.089   4.710   0.047
 6961SOL     OW21781   1.269   1.455   3.121
 6961SOL    HW121782   1.256   1.526   3.052
 6961SOL    HW221783   1.277   1.497   3.211
 6962SOL     OW21784   5.133   4.819   1.941
 6962SOL    HW121785   5.115   4.729   1.981
 6962SOL    HW221786   5.172   4.880   2.011
 6963SOL     OW21787   0.609   4.859   2.093
 6963SOL    HW121788   0.554   4.785   2.054
 6963SOL    HW221789   0.686   4.820   2.143
 6964SOL     OW21790   4.683   5.192   4.963
 6964SOL    HW121791   4.588   5.160   4.972
 6964SOL    HW221792   4.686   5.291   4.973
 6965SOL     OW21793   6.507   2.988   6.242
 6965SOL    HW121794   6.464   2.958   6.327
 6965SOL    HW221795   6.561   3.071   6.260
 6966SOL     OW21796   4.796   2.288   2.650
 6966SOL    HW121797   4.775   2.190   2.645
 6966SOL    HW221798   4.836   2.318   2.564
 6967SOL     OW21799   1.206   2.092   6.056
 6967SOL    HW121800   1.260   2.062   5.977
 6967SOL    HW221801   1.115   2.051   6.052
 6968SOL     OW21802   4.108   5.844   1.540
 6968SOL    HW121803   4.143   5.764   1.491
 6968SOL    HW221804   4.181   5.885   1.595
 6969SOL     OW21805   3.427   1.613   0.406
 6969SOL    HW121806   3.361   1.592   0.334
 6969SOL    HW221807   3.459   1.527   0.447
 6970SOL     OW21808   4.122   4.740   0.544
 6970SOL    HW121809   4.133   4.658   0.601
 6970SOL    HW221810   4.128   4.714   0.448
 6971SOL     OW21811   6.326   2.515   1.959
 6971SOL    HW121812   6.261   2.457   1.910
 6971SOL    HW221813   6.369   2.463   2.032
 6972SOL     OW21814   5.573   4.510   4.502
 6972SOL    HW121815   5.637   4.587   4.509
 6972SOL    HW221816   5.566   4.464   4.590
 6973SOL     OW21817   2.169   5.036   4.195
 6973SOL    HW121818   2.160   4.937   4.208
 6973SOL    HW221819   2.253   5.055   4.145
 6974SOL     OW21820   3.227   4.113   3.869
 6974SOL    HW121821   3.278   4.053   3.930
 6974SOL    HW221822   3.155   4.160   3.921
 6975SOL     OW21823   3.646   0.646   5.857
 6975SOL    HW121824   3.656   0.744   5.840
 6975SOL    HW221825   3.697   0.594   5.788
 6976SOL     OW21826   2.466   5.158   6.560
 6976SOL    HW121827   2.370   5.143   6.534
 6976SOL    HW221828   2.512   5.070   6.570
 6977SOL     OW21829   3.338   1.413   2.409
 6977SOL    HW121830   3.351   1.455   2.499
 6977SOL    HW221831   3.269   1.463   2.358
 6978SOL     OW21832   0.337   0.547   1.798
 6978SOL    HW121833   0.321   0.636   1.754
 6978SOL    HW221834   0.401   0.559   1.874
 6979SOL     OW21835   0.730   4.638   2.530
 6979SOL    HW121836   0.690   4.636   2.622
 6979SOL    HW221837   0.828   4.655   2.536
 6980SOL     OW21838   2.619   1.121   3.906
 6980SOL    HW121839   2.610   1.209   3.953
 6980SOL    HW221840   2.690   1.127   3.837
 6981SOL     OW21841   2.182   4.987   0.590
 6981SOL    HW121842   2.101   4.958   0.641
 6981SOL    HW221843   2.264   4.948   0.634
 6982SOL     OW21844   1.575   0.427   4.242
 6982SOL    HW121845   1.639   0.418   4.319
 6982SOL    HW221846   1.516   0.506   4.257
 6983SOL     OW21847   6.827   0.176   4.714
 6983SOL    HW121848   6.767   0.133   4.782
 6983SOL    HW221849   6.918   0.136   4.722
 6984SOL     OW21850   1.861   2.284   5.657
 6984SOL    HW121851   1.850   2.186   5.670
 6984SOL    HW221852   1.943   2.316   5.704
 6985SOL     OW21853   4.199   5.729   2.532
 6985SOL    HW121854   4.120   5.748   2.590
 6985SOL    HW221855   4.222   5.632   2.537
 6986SOL     OW21856   1.531   5.854   5.478
 6986SOL    HW121857   1.562   5.946   5.456
 6986SOL    HW221858   1.609   5.792   5.480
 6987SOL     OW21859   0.281   2.756   6.398
 6987SOL    HW121860   0.184   2.780   6.388
 6987SOL    HW221861   0.332   2.787   6.318
 6988SOL     OW21862   5.266   1.493   3.784
 6988SOL    HW121863   5.358   1.469   3.815
 6988SOL    HW221864   5.200   1.425   3.816
 6989SOL     OW21865   1.107   1.685   3.756
 6989SOL    HW121866   1.113   1.602   3.701
 6989SOL    HW221867   1.087   1.763   3.697
 6990SOL     OW21868   4.599   3.081   0.022
 6990SOL    HW121869   4.587   3.160   0.082
 6990SOL    HW221870   4.514   3.030   0.017
 6991SOL     OW21871   2.558   4.828   5.335
 6991SOL    HW121872   2.582   4.759   5.404
 6991SOL    HW221873   2.632   4.834   5.267
 6992SOL     OW21874   6.146   6.542   4.156
 6992SOL    HW121875   6.176   6.456   4.197
 6992SOL    HW221876   6.151   6.536   4.056
 6993SOL     OW21877   0.207   0.585   3.111
 6993SOL    HW121878   0.139   0.511   3.104
 6993SOL    HW221879   0.237   0.594   3.206
 6994SOL     OW21880   1.517   3.142   6.225
 6994SOL    HW121881   1.479   3.197   6.300
 6994SOL    HW221882   1.480   3.050   6.230
 6995SOL     OW21883   5.248   5.680   4.089
 6995SOL    HW121884   5.180   5.607   4.103
 6995SOL    HW221885   5.336   5.639   4.065
 6996SOL     OW21886   2.613   0.639   5.317
 6996SOL    HW121887   2.668   0.717   5.286
 6996SOL    HW221888   2.654   0.600   5.399
 6997SOL     OW21889   4.591   5.878   4.562
 6997SOL    HW121890   4.516   5.820   4.593
 6997SOL    HW221891   4.677   5.845   4.602
 6998SOL     OW21892   1.903   3.421   2.389
 6998SOL    HW121893   1.967   3.421   2.312
 6998SOL    HW221894   1.900   3.330   2.430
 6999SOL     OW21895   2.489   2.119   5.882
 6999SOL    HW121896   2.571   2.061   5.890
 6999SOL    HW221897   2.435   2.111   5.965
 7000SOL     OW21898   0.684   6.405   2.875
 7000SOL    HW121899   0.710   6.460   2.955
 7000SOL    HW221900   0.699   6.308   2.894
 7001SOL     OW21901   2.190   3.283   5.683
 7001SOL    HW121902   2.149   3.326   5.603
 7001SOL    HW221903   2.148   3.320   5.766
 7002SOL     OW21904   1.198   5.195   3.576
 7002SOL    HW121905   1.174   5.249   3.495
 7002SOL    HW221906   1.245   5.254   3.642
 7003SOL     OW21907   2.943   6.793   0.826
 7003SOL    HW121908   2.932   6.770   0.730
 7003SOL    HW221909   3.023   6.851   0.838
 7004SOL     OW21910   1.576   4.524   1.288
 7004SOL    HW121911   1.558   4.462   1.365
 7004SOL    HW221912   1.526   4.492   1.208
 7005SOL     OW21913   5.579   6.564   6.798
 7005SOL    HW121914   5.525   6.551   6.714
 7005SOL    HW221915   5.664   6.611   6.775
 7006SOL     OW21916   4.794   4.149   4.681
 7006SOL    HW121917   4.734   4.071   4.697
 7006SOL    HW221918   4.889   4.118   4.675
 7007SOL     OW21919   4.760   6.446   2.995
 7007SOL    HW121920   4.715   6.455   3.084
 7007SOL    HW221921   4.858   6.462   3.005
 7008SOL     OW21922   2.313   5.045   4.808
 7008SOL    HW121923   2.387   4.977   4.809
 7008SOL    HW221924   2.268   5.043   4.718
 7009SOL     OW21925   6.522   5.527   2.394
 7009SOL    HW121926   6.444   5.507   2.454
 7009SOL    HW221927   6.490   5.533   2.299
 7010SOL     OW21928   3.556   4.770   6.236
 7010SOL    HW121929   3.644   4.816   6.226
 7010SOL    HW221930   3.548   4.731   6.328
 7011SOL     OW21931   2.016   6.916   5.599
 7011SOL    HW121932   2.086   6.984   5.622
 7011SOL    HW221933   1.925   6.955   5.614
 7012SOL     OW21934   1.183   0.236   1.839
 7012SOL    HW121935   1.180   0.335   1.855
 7012SOL    HW221936   1.275   0.202   1.860
 7013SOL     OW21937   1.002   7.024   1.234
 7013SOL    HW121938   0.947   0.024   1.313
 7013SOL    HW221939   1.057   0.077   1.205
 7014SOL     OW21940   2.931   4.342   1.212
 7014SOL    HW121941   2.833   4.345   1.231
 7014SOL    HW221942   2.977   4.412   1.267
 7015SOL     OW21943   4.746   2.830   2.545
 7015SOL    HW121944   4.763   2.912   2.490
 7015SOL    HW221945   4.648   2.816   2.553
 7016SOL     OW21946   4.519   4.673   1.438
 7016SOL    HW121947   4.583   4.697   1.511
 7016SOL    HW221948   4.490   4.756   1.390
 7017SOL     OW21949   3.136   1.718   3.507
 7017SOL    HW121950   3.137   1.744   3.604
 7017SOL    HW221951   3.042   1.708   3.476
 7018SOL     OW21952   0.141   3.770   4.261
 7018SOL    HW121953   0.136   3.778   4.161
 7018SOL    HW221954   0.077   3.834   4.303
 7019SOL     OW21955   2.893   5.242   6.493
 7019SOL    HW121956   2.882   5.143   6.504
 7019SOL    HW221957   2.836   5.289   6.561
 7020SOL     OW21958   5.398   0.489   6.713
 7020SOL    HW121959   5.482   0.434   6.718
 7020SOL    HW221960   5.340   0.469   6.792
 7021SOL     OW21961   2.477   0.960   5.155
 7021SOL    HW121962   2.414   0.990   5.226
 7021SOL    HW221963   2.446   0.995   5.066
 7022SOL     OW21964   5.683   3.711   0.472
 7022SOL    HW121965   5.752   3.729   0.402
 7022SOL    HW221966   5.660   3.613   0.471
 7023SOL     OW21967   6.215   2.028   1.970
 7023SOL    HW121968   6.286   1.962   1.946
 7023SOL    HW221969   6.125   1.987   1.957
 7024SOL     OW21970   1.856   6.216   6.573
 7024SOL    HW121971   1.892   6.123   6.567
 7024SOL    HW221972   1.905   6.275   6.508
 7025SOL     OW21973   3.260   2.078   6.425
 7025SOL    HW121974   3.356   2.105   6.434
 7025SOL    HW221975   3.202   2.159   6.432
 7026SOL     OW21976   3.422   2.029   1.582
 7026SOL    HW121977   3.469   1.941   1.584
 7026SOL    HW221978   3.324   2.015   1.567
 7027SOL     OW21979   3.843   5.769   3.926
 7027SOL    HW121980   3.750   5.777   3.891
 7027SOL    HW221981   3.897   5.847   3.897
 7028SOL     OW21982   4.655   6.875   3.575
 7028SOL    HW121983   4.702   6.794   3.541
 7028SOL    HW221984   4.570   6.889   3.524
 7029SOL     OW21985   3.788   6.369   0.117
 7029SOL    HW121986   3.883   6.388   0.091
 7029SOL    HW221987   3.756   6.441   0.180
 7030SOL     OW21988   6.944   3.396   5.605
 7030SOL    HW121989   6.845   3.404   5.600
 7030SOL    HW221990   6.974   3.407   5.700
 7031SOL     OW21991   1.960   5.299   4.456
 7031SOL    HW121992   2.050   5.300   4.498
 7031SOL    HW221993   1.899   5.361   4.505
 7032SOL     OW21994   5.300   0.049   2.805
 7032SOL    HW121995   5.290   6.982   2.843
 7032SOL    HW221996   5.365   0.047   2.729
 7033SOL     OW21997   0.491   1.211   4.108
 7033SOL    HW121998   0.431   1.137   4.077
 7033SOL    HW221999   0.525   1.190   4.200
 7034SOL     OW22000   5.395   0.189   3.037
 7034SOL    HW122001   5.373   0.155   2.945
 7034SOL    HW222002   5.319   0.245   3.070
 7035SOL     OW22003   0.137   6.414   2.837
 7035SOL    HW122004   0.162   6.486   2.773
 7035SOL    HW222005   0.220   6.367   2.868
 7036SOL     OW22006   6.694   5.629   1.845
 7036SOL    HW122007   6.707   5.610   1.748
 7036SOL    HW222008   6.777   5.605   1.895
 7037SOL     OW22009   0.900   6.018   5.358
 7037SOL    HW122010   0.831   5.959   5.400
 7037SOL    HW222011   0.864   6.057   5.274
 7038SOL     OW22012   1.283   4.380   3.323
 7038SOL    HW122013   1.249   4.289   3.348
 7038SOL    HW222014   1.357   4.406   3.385
 7039SOL     OW22015   3.698   0.483   6.661
 7039SOL    HW122016   3.628   0.554   6.647
 7039SOL    HW222017   3.777   0.522   6.707
 7040SOL     OW22018   4.357   2.758   6.367
 7040SOL    HW122019   4.341   2.746   6.464
 7040SOL    HW222020   4.269   2.757   6.318
 7041SOL     OW22021   1.198   1.645   2.930
 7041SOL    HW122022   1.189   1.700   2.847
 7041SOL    HW222023   1.119   1.584   2.938
 7042SOL     OW22024   4.117   5.420   6.454
 7042SOL    HW122025   4.196   5.474   6.484
 7042SOL    HW222026   4.137   5.322   6.468
 7043SOL     OW22027   1.567   1.920   3.551
 7043SOL    HW122028   1.533   1.882   3.637
 7043SOL    HW222029   1.658   1.883   3.533
 7044SOL     OW22030   4.848   4.513   3.114
 7044SOL    HW122031   4.834   4.431   3.058
 7044SOL    HW222032   4.857   4.486   3.210
 7045SOL     OW22033   5.067   6.429   1.236
 7045SOL    HW122034   4.991   6.435   1.170
 7045SOL    HW222035   5.148   6.473   1.198
 7046SOL     OW22036   4.154   0.519   4.766
 7046SOL    HW122037   4.093   0.558   4.835
 7046SOL    HW222038   4.241   0.493   4.808
 7047SOL     OW22039   0.659   1.210   3.753
 7047SOL    HW122040   0.722   1.272   3.798
 7047SOL    HW222041   0.567   1.250   3.753
 7048SOL     OW22042   6.629   6.122   0.824
 7048SOL    HW122043   6.626   6.145   0.921
 7048SOL    HW222044   6.718   6.149   0.786
 7049SOL     OW22045   2.145   1.027   1.094
 7049SOL    HW122046   2.190   1.049   1.180
 7049SOL    HW222047   2.133   0.928   1.087
 7050SOL     OW22048   3.475   4.172   4.579
 7050SOL    HW122049   3.479   4.074   4.563
 7050SOL    HW222050   3.521   4.195   4.664
 7051SOL     OW22051   0.172   0.119   1.282
 7051SOL    HW122052   0.145   0.202   1.233
 7051SOL    HW222053   0.268   0.099   1.263
 7052SOL     OW22054   0.148   2.169   4.544
 7052SOL    HW122055   0.118   2.142   4.635
 7052SOL    HW222056   0.228   2.116   4.517
 7053SOL     OW22057   0.457   4.213   6.794
 7053SOL    HW122058   0.444   4.154   6.874
 7053SOL    HW222059   0.461   4.158   6.711
 7054SOL     OW22060   6.089   6.807   1.671
 7054SOL    HW122061   6.178   6.761   1.667
 7054SOL    HW222062   6.102   6.905   1.664
 7055SOL     OW22063   5.025   0.272   5.388
 7055SOL    HW122064   5.012   0.188   5.336
 7055SOL    HW222065   4.956   0.339   5.361
 7056SOL     OW22066   5.761   4.850   3.084
 7056SOL    HW122067   5.678   4.794   3.083
 7056SOL    HW222068   5.841   4.791   3.098
 7057SOL     OW22069   0.608   4.286   3.426
 7057SOL    HW122070   0.576   4.334   3.508
 7057SOL    HW222071   0.637   4.193   3.451
 7058SOL     OW22072   0.535   5.239   4.877
 7058SOL    HW122073   0.601   5.211   4.807
 7058SOL    HW222074   0.573   5.315   4.930
 7059SOL     OW22075   0.420   0.072   1.975
 7059SOL    HW122076   0.483   0.073   1.898
 7059SOL    HW222077   0.357   0.149   1.967
 7060SOL     OW22078   3.379   6.907   1.488
 7060SOL    HW122079   3.353   7.001   1.469
 7060SOL    HW222080   3.472   6.904   1.524
 7061SOL     OW22081   0.132   1.878   3.018
 7061SOL    HW122082   0.166   1.818   2.945
 7061SOL    HW222083   0.200   1.882   3.092
 7062SOL     OW22084   5.781   1.603   5.278
 7062SOL    HW122085   5.880   1.599   5.294
 7062SOL    HW222086   5.764   1.643   5.188
 7063SOL     OW22087   1.851   6.448   1.342
 7063SOL    HW122088   1.931   6.396   1.311
 7063SOL    HW222089   1.825   6.514   1.271
 7064SOL     OW22090   4.289   2.303   1.968
 7064SOL    HW122091   4.350   2.381   1.959
 7064SOL    HW222092   4.268   2.288   2.065
 7065SOL     OW22093   4.450   4.048   1.151
 7065SOL    HW122094   4.538   4.093   1.168
 7065SOL    HW222095   4.465   3.953   1.126
 7066SOL     OW22096   3.907   0.163   0.591
 7066SOL    HW122097   3.958   0.087   0.631
 7066SOL    HW222098   3.809   0.145   0.597
 7067SOL     OW22099   0.899   3.831   5.596
 7067SOL    HW122100   0.867   3.758   5.536
 7067SOL    HW222101   0.998   3.841   5.586
 7068SOL     OW22102   1.116   2.401   3.056
 7068SOL    HW122103   1.036   2.342   3.066
 7068SOL    HW222104   1.104   2.484   3.110
 7069SOL     OW22105   6.342   3.845   5.459
 7069SOL    HW122106   6.415   3.862   5.392
 7069SOL    HW222107   6.323   3.747   5.463
 7070SOL     OW22108   6.386   4.756   5.415
 7070SOL    HW122109   6.331   4.713   5.487
 7070SOL    HW222110   6.332   4.764   5.332
 7071SOL     OW22111   1.322   5.783   5.240
 7071SOL    HW122112   1.400   5.736   5.282
 7071SOL    HW222113   1.265   5.717   5.191
 7072SOL     OW22114   6.479   6.268   5.774
 7072SOL    HW122115   6.441   6.250   5.684
 7072SOL    HW222116   6.416   6.326   5.826
 7073SOL     OW22117   0.117   0.920   5.508
 7073SOL    HW122118   0.082   0.986   5.442
 7073SOL    HW222119   0.060   0.922   5.590
 7074SOL     OW22120   3.235   2.578   1.528
 7074SOL    HW122121   3.259   2.537   1.616
 7074SOL    HW222122   3.139   2.602   1.528
 7075SOL     OW22123   1.695   5.861   4.017
 7075SOL    HW122124   1.620   5.806   4.053
 7075SOL    HW222125   1.782   5.829   4.056
 7076SOL     OW22126   3.503   1.922   6.736
 7076SOL    HW122127   3.451   1.842   6.707
 7076SOL    HW222128   3.563   1.897   6.812
 7077SOL     OW22129   1.915   6.099   5.188
 7077SOL    HW122130   1.878   6.059   5.104
 7077SOL    HW222131   1.920   6.028   5.259
 7078SOL     OW22132   6.308   6.809   3.267
 7078SOL    HW122133   6.392   6.822   3.213
 7078SOL    HW222134   6.257   6.732   3.230
 7079SOL     OW22135   6.495   5.964   6.020
 7079SOL    HW122136   6.591   5.943   6.005
 7079SOL    HW222137   6.485   6.061   6.039
 7080SOL     OW22138   4.180   1.990   3.743
 7080SOL    HW122139   4.089   1.948   3.741
 7080SOL    HW222140   4.201   2.021   3.835
 7081SOL     OW22141   2.934   1.349   5.134
 7081SOL    HW122142   2.890   1.439   5.128
 7081SOL    HW222143   2.929   1.303   5.046
 7082SOL     OW22144   5.742   1.461   6.838
 7082SOL    HW122145   5.770   1.553   6.863
 7082SOL    HW222146   5.780   1.437   6.749
 7083SOL     OW22147   2.930   1.215   6.121
 7083SOL    HW122148   2.893   1.185   6.033
 7083SOL    HW222149   2.856   1.243   6.181
 7084SOL     OW22150   6.643   6.428   5.603
 7084SOL    HW122151   6.609   6.345   5.646
 7084SOL    HW222152   6.574   6.500   5.610
 7085SOL     OW22153   2.261   2.064   3.553
 7085SOL    HW122154   2.262   2.061   3.653
 7085SOL    HW222155   2.168   2.046   3.521
 7086SOL     OW22156   4.969   1.079   6.630
 7086SOL    HW122157   5.002   1.150   6.567
 7086SOL    HW222158   4.910   1.016   6.580
 7087SOL     OW22159   0.909   3.622   4.608
 7087SOL    HW122160   0.984   3.580   4.557
 7087SOL    HW222161   0.850   3.673   4.546
 7088SOL     OW22162   5.240   3.233   4.334
 7088SOL    HW122163   5.315   3.169   4.348
 7088SOL    HW222164   5.188   3.207   4.252
 7089SOL     OW22165   3.356   2.444   5.825
 7089SOL    HW122166   3.430   2.388   5.788
 7089SOL    HW222167   3.301   2.480   5.749
 7090SOL     OW22168   1.638   1.598   5.708
 7090SOL    HW122169   1.696   1.631   5.782
 7090SOL    HW222170   1.654   1.501   5.693
 7091SOL     OW22171   0.744   0.811   0.435
 7091SOL    HW122172   0.812   0.877   0.402
 7091SOL    HW222173   0.671   0.861   0.482
 7092SOL     OW22174   3.589   3.955   0.196
 7092SOL    HW122175   3.646   3.880   0.230
 7092SOL    HW222176   3.646   4.034   0.176
 7093SOL     OW22177   3.295   4.131   4.361
 7093SOL    HW122178   3.360   4.177   4.423
 7093SOL    HW222179   3.211   4.111   4.411
 7094SOL     OW22180   0.707   6.487   5.918
 7094SOL    HW122181   0.763   6.405   5.920
 7094SOL    HW222182   0.626   6.471   5.861
 7095SOL     OW22183   1.944   2.992   6.681
 7095SOL    HW122184   1.886   2.979   6.761
 7095SOL    HW222185   1.939   3.087   6.651
 7096SOL     OW22186   5.194   2.088   3.954
 7096SOL    HW122187   5.099   2.116   3.959
 7096SOL    HW222188   5.204   1.996   3.991
 7097SOL     OW22189   0.164   0.804   1.883
 7097SOL    HW122190   0.220   0.750   1.946
 7097SOL    HW222191   0.113   0.743   1.823
 7098SOL     OW22192   1.479   5.794   5.738
 7098SOL    HW122193   1.471   5.827   5.644
 7098SOL    HW222194   1.568   5.821   5.775
 7099SOL     OW22195   1.262   1.248   5.184
 7099SOL    HW122196   1.167   1.260   5.155
 7099SOL    HW222197   1.310   1.335   5.176
 7100SOL     OW22198   4.832   3.870   0.884
 7100SOL    HW122199   4.785   3.934   0.824
 7100SOL    HW222200   4.783   3.863   0.971
 7101SOL     OW22201   2.947   0.161   4.466
 7101SOL    HW122202   2.885   0.238   4.482
 7101SOL    HW222203   2.935   0.092   4.537
 7102SOL     OW22204   4.134   1.268   1.132
 7102SOL    HW122205   4.118   1.358   1.174
 7102SOL    HW222206   4.103   1.197   1.194
 7103SOL     OW22207   3.616   6.143   6.695
 7103SOL    HW122208   3.704   6.137   6.647
 7103SOL    HW222209   3.624   6.206   6.772
 7104SOL     OW22210   1.699   3.081   3.117
 7104SOL    HW122211   1.777   3.019   3.124
 7104SOL    HW222212   1.705   3.151   3.188
 7105SOL     OW22213   3.308   3.403   4.715
 7105SOL    HW122214   3.354   3.319   4.744
 7105SOL    HW222215   3.336   3.426   4.622
 7106SOL     OW22216   3.675   2.879   5.019
 7106SOL    HW122217   3.585   2.890   5.061
 7106SOL    HW222218   3.674   2.801   4.957
 7107SOL     OW22219   2.640   1.248   0.442
 7107SOL    HW122220   2.630   1.221   0.347
 7107SOL    HW222221   2.655   1.167   0.499
 7108SOL     OW22222   4.899   6.250   1.402
 7108SOL    HW122223   4.971   6.309   1.364
 7108SOL    HW222224   4.938   6.161   1.427
 7109SOL     OW22225   3.665   0.128   6.261
 7109SOL    HW122226   3.660   0.227   6.267
 7109SOL    HW222227   3.589   0.088   6.314
 7110SOL     OW22228   5.274   5.180   3.980
 7110SOL    HW122229   5.306   5.208   4.070
 7110SOL    HW222230   5.247   5.260   3.927
 7111SOL     OW22231   1.535   3.740   4.120
 7111SOL    HW122232   1.468   3.679   4.162
 7111SOL    HW222233   1.622   3.691   4.109
 7112SOL     OW22234   1.472   6.028   3.841
 7112SOL    HW122235   1.535   5.980   3.780
 7112SOL    HW222236   1.500   6.013   3.936
 7113SOL     OW22237   3.915   3.913   4.449
 7113SOL    HW122238   3.894   3.929   4.545
 7113SOL    HW222239   3.994   3.852   4.442
 7114SOL     OW22240   3.925   0.655   1.747
 7114SOL    HW122241   3.890   0.587   1.811
 7114SOL    HW222242   3.849   0.689   1.690
 7115SOL     OW22243   5.199   2.124   1.334
 7115SOL    HW122244   5.111   2.172   1.329
 7115SOL    HW222245   5.236   2.133   1.426
 7116SOL     OW22246   5.732   4.195   3.653
 7116SOL    HW122247   5.673   4.114   3.651
 7116SOL    HW222248   5.788   4.194   3.736
 7117SOL     OW22249   6.839   5.981   3.552
 7117SOL    HW122250   6.751   5.961   3.595
 7117SOL    HW222251   6.831   5.967   3.453
 7118SOL     OW22252   5.385   3.904   1.560
 7118SOL    HW122253   5.308   3.871   1.506
 7118SOL    HW222254   5.351   3.960   1.636
 7119SOL     OW22255   5.916   1.073   2.892
 7119SOL    HW122256   5.908   1.170   2.870
 7119SOL    HW222257   5.987   1.031   2.835
 7120SOL     OW22258   4.727   1.226   3.336
 7120SOL    HW122259   4.690   1.306   3.289
 7120SOL    HW222260   4.657   1.155   3.341
 7121SOL     OW22261   2.374   6.798   3.718
 7121SOL    HW122262   2.451   6.799   3.654
 7121SOL    HW222263   2.380   6.717   3.777
 7122SOL     OW22264   6.631   1.205   0.356
 7122SOL    HW122265   6.585   1.235   0.439
 7122SOL    HW222266   6.610   1.108   0.339
 7123SOL     OW22267   2.978   5.903   1.881
 7123SOL    HW122268   2.952   5.856   1.966
 7123SOL    HW222269   3.077   5.915   1.879
 7124SOL     OW22270   0.581   5.123   0.660
 7124SOL    HW122271   0.606   5.184   0.585
 7124SOL    HW222272   0.664   5.100   0.713
 7125SOL     OW22273   6.335   6.637   1.641
 7125SOL    HW122274   6.289   6.549   1.645
 7125SOL    HW222275   6.426   6.630   1.683
 7126SOL     OW22276   2.487   3.797   0.418
 7126SOL    HW122277   2.454   3.891   0.413
 7126SOL    HW222278   2.570   3.788   0.363
 7127SOL     OW22279   3.503   5.184   4.083
 7127SOL    HW122280   3.483   5.262   4.024
 7127SOL    HW222281   3.589   5.200   4.131
 7128SOL     OW22282   3.477   4.826   0.889
 7128SOL    HW122283   3.423   4.749   0.923
 7128SOL    HW222284   3.525   4.799   0.806
 7129SOL     OW22285   3.009   0.484   1.069
 7129SOL    HW122286   2.986   0.439   1.156
 7129SOL    HW222287   3.062   0.567   1.087
 7130SOL     OW22288   3.042   5.068   4.050
 7130SOL    HW122289   3.070   4.993   3.990
 7130SOL    HW222290   3.092   5.151   4.026
 7131SOL     OW22291   3.029   1.396   2.155
 7131SOL    HW122292   3.038   1.298   2.134
 7131SOL    HW222293   2.950   1.433   2.105
 7132SOL     OW22294   3.865   3.488   2.903
 7132SOL    HW122295   3.826   3.470   2.993
 7132SOL    HW222296   3.886   3.401   2.858
 7133SOL     OW22297   4.653   5.448   3.190
 7133SOL    HW122298   4.688   5.537   3.218
 7133SOL    HW222299   4.635   5.392   3.270
 7134SOL     OW22300   6.145   6.207   3.855
 7134SOL    HW122301   6.078   6.152   3.904
 7134SOL    HW222302   6.231   6.210   3.906
 7135SOL     OW22303   1.472   0.685   4.318
 7135SOL    HW122304   1.532   0.671   4.396
 7135SOL    HW222305   1.379   0.701   4.349
 7136SOL     OW22306   1.931   1.759   0.828
 7136SOL    HW122307   1.936   1.665   0.861
 7136SOL    HW222308   1.999   1.774   0.756
 7137SOL     OW22309   4.378   0.994   4.778
 7137SOL    HW122310   4.323   0.935   4.720
 7137SOL    HW222311   4.375   1.088   4.743
 7138SOL     OW22312   3.278   2.671   1.271
 7138SOL    HW122313   3.277   2.634   1.364
 7138SOL    HW222314   3.294   2.769   1.274
 7139SOL     OW22315   4.846   3.226   1.780
 7139SOL    HW122316   4.924   3.229   1.842
 7139SOL    HW222317   4.781   3.156   1.811
 7140SOL     OW22318   6.080   3.800   4.913
 7140SOL    HW122319   6.120   3.729   4.856
 7140SOL    HW222320   5.983   3.780   4.928
 7141SOL     OW22321   3.081   0.249   0.890
 7141SOL    HW122322   3.175   0.281   0.900
 7141SOL    HW222323   3.019   0.313   0.935
 7142SOL     OW22324   4.501   6.589   3.780
 7142SOL    HW122325   4.542   6.499   3.768
 7142SOL    HW222326   4.403   6.579   3.799
 7143SOL     OW22327   2.035   4.256   6.221
 7143SOL    HW122328   1.944   4.251   6.180
 7143SOL    HW222329   2.064   4.352   6.227
 7144SOL     OW22330   0.417   1.240   2.742
 7144SOL    HW122331   0.402   1.143   2.719
 7144SOL    HW222332   0.347   1.270   2.807
 7145SOL     OW22333   4.254   6.604   6.824
 7145SOL    HW122334   4.268   6.598   6.725
 7145SOL    HW222335   4.181   6.670   6.844
 7146SOL     OW22336   3.107   6.518   0.945
 7146SOL    HW122337   3.016   6.526   0.985
 7146SOL    HW222338   3.172   6.490   1.015
 7147SOL     OW22339   6.872   0.025   3.402
 7147SOL    HW122340   6.932   6.976   3.372
 7147SOL    HW222341   6.884   0.041   3.499
 7148SOL     OW22342   1.015   6.125   1.733
 7148SOL    HW122343   0.955   6.131   1.813
 7148SOL    HW222344   1.017   6.031   1.700
 7149SOL     OW22345   6.580   1.166   3.717
 7149SOL    HW122346   6.525   1.082   3.709
 7149SOL    HW222347   6.572   1.219   3.633
 7150SOL     OW22348   5.017   3.048   1.053
 7150SOL    HW122349   5.005   2.982   1.128
 7150SOL    HW222350   5.052   3.134   1.091
 7151SOL     OW22351   1.682   5.920   0.878
 7151SOL    HW122352   1.610   5.960   0.935
 7151SOL    HW222353   1.756   5.886   0.936
 7152SOL     OW22354   0.627   3.431   4.595
 7152SOL    HW122355   0.695   3.425   4.668
 7152SOL    HW222356   0.637   3.518   4.547
 7153SOL     OW22357   3.992   6.904   5.226
 7153SOL    HW122358   4.028   6.873   5.138
 7153SOL    HW222359   4.054   6.878   5.299
 7154SOL     OW22360   3.876   5.707   4.414
 7154SOL    HW122361   3.926   5.741   4.335
 7154SOL    HW222362   3.904   5.613   4.434
 7155SOL     OW22363   1.108   6.147   2.079
 7155SOL    HW122364   1.063   6.058   2.072
 7155SOL    HW222365   1.158   6.166   1.994
 7156SOL     OW22366   6.816   4.960   5.378
 7156SOL    HW122367   6.831   4.872   5.331
 7156SOL    HW222368   6.844   5.035   5.317
 7157SOL     OW22369   6.167   5.511   0.075
 7157SOL    HW122370   6.209   5.497   7.011
 7157SOL    HW222371   6.085   5.568   0.064
 7158SOL     OW22372   6.853   6.768   3.115
 7158SOL    HW122373   6.924   6.699   3.098
 7158SOL    HW222374   6.878   6.853   3.070
 7159SOL     OW22375   0.206   4.945   1.353
 7159SOL    HW122376   0.257   4.953   1.438
 7159SOL    HW222377   0.139   4.871   1.361
 7160SOL     OW22378   6.631   6.873   1.702
 7160SOL    HW122379   6.542   6.916   1.719
 7160SOL    HW222380   6.701   6.918   1.756
 7161SOL     OW22381   3.201   3.378   3.597
 7161SOL    HW122382   3.224   3.391   3.500
 7161SOL    HW222383   3.212   3.464   3.645
 7162SOL     OW22384   3.806   4.907   4.501
 7162SOL    HW122385   3.734   4.909   4.432
 7162SOL    HW222386   3.886   4.859   4.465
 7163SOL     OW22387   3.791   6.984   3.488
 7163SOL    HW122388   3.850   0.025   3.533
 7163SOL    HW222389   3.788   7.002   3.390
 7164SOL     OW22390   2.039   1.431   3.253
 7164SOL    HW122391   2.003   1.371   3.182
 7164SOL    HW222392   2.101   1.379   3.312
 7165SOL     OW22393   6.265   1.291   0.220
 7165SOL    HW122394   6.292   1.387   0.213
 7165SOL    HW222395   6.322   1.236   0.160
 7166SOL     OW22396   4.754   4.449   1.354
 7166SOL    HW122397   4.793   4.475   1.442
 7166SOL    HW222398   4.699   4.525   1.318
 7167SOL     OW22399   4.834   3.753   5.317
 7167SOL    HW122400   4.812   3.696   5.238
 7167SOL    HW222401   4.767   3.827   5.324
 7168SOL     OW22402   1.322   1.417   4.028
 7168SOL    HW122403   1.250   1.480   4.000
 7168SOL    HW222404   1.296   1.323   4.005
 7169SOL     OW22405   1.655   3.199   5.951
 7169SOL    HW122406   1.600   3.162   5.876
 7169SOL    HW222407   1.618   3.167   6.038
 7170SOL     OW22408   4.854   5.090   2.832
 7170SOL    HW122409   4.927   5.107   2.765
 7170SOL    HW222410   4.866   5.152   2.909
 7171SOL     OW22411   4.364   3.130   5.613
 7171SOL    HW122412   4.324   3.053   5.564
 7171SOL    HW222413   4.367   3.110   5.711
 7172SOL     OW22414   1.407   6.733   0.536
 7172SOL    HW122415   1.311   6.759   0.522
 7172SOL    HW222416   1.440   6.771   0.622
 7173SOL     OW22417   6.710   4.841   4.218
 7173SOL    HW122418   6.668   4.920   4.262
 7173SOL    HW222419   6.638   4.777   4.189
 7174SOL     OW22420   1.964   5.126   0.009
 7174SOL    HW122421   1.942   5.109   6.938
 7174SOL    HW222422   2.052   5.173   0.015
 7175SOL     OW22423   5.530   3.567   0.815
 7175SOL    HW122424   5.544   3.500   0.888
 7175SOL    HW222425   5.448   3.543   0.763
 7176SOL     OW22426   6.874   4.629   2.374
 7176SOL    HW122427   6.916   4.637   2.284
 7176SOL    HW222428   6.922   4.688   2.439
 7177SOL     OW22429   1.379   6.216   3.651
 7177SOL    HW122430   1.333   6.134   3.617
 7177SOL    HW222431   1.432   6.194   3.733
 7178SOL     OW22432   1.577   2.980   5.325
 7178SOL    HW122433   1.514   3.022   5.390
 7178SOL    HW222434   1.671   2.997   5.354
 7179SOL     OW22435   2.849   3.637   5.625
 7179SOL    HW122436   2.927   3.637   5.688
 7179SOL    HW222437   2.869   3.695   5.547
 7180SOL     OW22438   0.832   5.410   6.850
 7180SOL    HW122439   0.805   5.319   6.818
 7180SOL    HW222440   0.899   5.402   6.923
 7181SOL     OW22441   3.929   0.756   1.009
 7181SOL    HW122442   3.833   0.731   0.996
 7181SOL    HW222443   3.956   0.737   1.104
 7182SOL     OW22444   2.147   4.400   5.402
 7182SOL    HW122445   2.152   4.306   5.368
 7182SOL    HW222446   2.052   4.432   5.396
 7183SOL     OW22447   2.178   5.385   2.578
 7183SOL    HW122448   2.093   5.406   2.625
 7183SOL    HW222449   2.228   5.469   2.558
 7184SOL     OW22450   1.623   6.626   4.194
 7184SOL    HW122451   1.652   6.532   4.209
 7184SOL    HW222452   1.523   6.631   4.197
 7185SOL     OW22453   5.218   3.036   6.548
 7185SOL    HW122454   5.296   3.007   6.603
 7185SOL    HW222455   5.163   2.957   6.523
 7186SOL     OW22456   0.057   6.462   5.387
 7186SOL    HW122457   0.047   6.547   5.437
 7186SOL    HW222458   7.017   6.459   5.312
 7187SOL     OW22459   1.546   4.673   1.652
 7187SOL    HW122460   1.580   4.703   1.563
 7187SOL    HW222461   1.519   4.753   1.706
 7188SOL     OW22462   5.773   0.145   2.125
 7188SOL    HW122463   5.726   0.195   2.197
 7188SOL    HW222464   5.792   0.206   2.048
 7189SOL     OW22465   6.277   0.862   6.070
 7189SOL    HW122466   6.180   0.838   6.072
 7189SOL    HW222467   6.310   0.875   6.164
 7190SOL     OW22468   5.339   4.321   3.446
 7190SOL    HW122469   5.420   4.300   3.391
 7190SOL    HW222470   5.270   4.250   3.433
 7191SOL     OW22471   1.023   3.621   2.922
 7191SOL    HW122472   1.090   3.547   2.918
 7191SOL    HW222473   0.933   3.584   2.943
 7192SOL     OW22474   2.465   5.426   5.748
 7192SOL    HW122475   2.528   5.350   5.735
 7192SOL    HW222476   2.423   5.451   5.660
 7193SOL     OW22477   3.242   1.920   4.710
 7193SOL    HW122478   3.323   1.964   4.673
 7193SOL    HW222479   3.224   1.953   4.802
 7194SOL     OW22480   2.172   1.398   1.309
 7194SOL    HW122481   2.238   1.471   1.321
 7194SOL    HW222482   2.157   1.382   1.211
 7195SOL     OW22483   0.003   5.254   0.603
 7195SOL    HW122484   7.018   5.157   0.624
 7195SOL    HW222485   0.090   5.268   0.555
 7196SOL     OW22486   2.877   3.478   3.119
 7196SOL    HW122487   2.835   3.446   3.204
 7196SOL    HW222488   2.932   3.559   3.137
 7197SOL     OW22489   6.790   1.684   4.847
 7197SOL    HW122490   6.873   1.685   4.903
 7197SOL    HW222491   6.709   1.677   4.906
 7198SOL     OW22492   1.426   6.697   5.780
 7198SOL    HW122493   1.476   6.638   5.716
 7198SOL    HW222494   1.415   6.650   5.867
 7199SOL     OW22495   6.994   0.768   2.753
 7199SOL    HW122496   0.011   0.780   2.843
 7199SOL    HW222497   6.909   0.716   2.763
 7200SOL     OW22498   2.251   0.964   0.474
 7200SOL    HW122499   2.192   0.894   0.432
 7200SOL    HW222500   2.336   0.972   0.421
 7201SOL     OW22501   1.887   4.776   2.855
 7201SOL    HW122502   1.941   4.741   2.779
 7201SOL    HW222503   1.797   4.804   2.821
 7202SOL     OW22504   3.917   0.184   6.311
 7202SOL    HW122505   3.823   0.161   6.286
 7202SOL    HW222506   3.936   0.278   6.286
 7203SOL     OW22507   6.225   0.414   0.598
 7203SOL    HW122508   6.240   0.425   0.696
 7203SOL    HW222509   6.254   0.496   0.549
 7204SOL     OW22510   6.514   0.731   3.778
 7204SOL    HW122511   6.510   0.710   3.680
 7204SOL    HW222512   6.500   0.647   3.830
 7205SOL     OW22513   1.590   5.433   2.965
 7205SOL    HW122514   1.683   5.418   2.929
 7205SOL    HW222515   1.575   5.531   2.977
 7206SOL     OW22516   0.303   1.431   1.253
 7206SOL    HW122517   0.327   1.371   1.177
 7206SOL    HW222518   0.244   1.381   1.317
 7207SOL     OW22519   3.580   6.601   1.085
 7207SOL    HW122520   3.550   6.670   1.020
 7207SOL    HW222521   3.552   6.510   1.053
 7208SOL     OW22522   3.801   6.657   4.660
 7208SOL    HW122523   3.856   6.709   4.725
 7208SOL    HW222524   3.796   6.562   4.688
 7209SOL     OW22525   3.904   3.456   4.095
 7209SOL    HW122526   3.874   3.548   4.070
 7209SOL    HW222527   3.904   3.448   4.195
 7210SOL     OW22528   4.640   1.210   3.613
 7210SOL    HW122529   4.646   1.110   3.608
 7210SOL    HW222530   4.715   1.250   3.561
 7211SOL     OW22531   1.303   6.440   4.459
 7211SOL    HW122532   1.239   6.498   4.410
 7211SOL    HW222533   1.385   6.493   4.483
 7212SOL     OW22534   6.799   6.081   4.824
 7212SOL    HW122535   6.812   5.985   4.847
 7212SOL    HW222536   6.863   6.106   4.750
 7213SOL     OW22537   5.578   0.216   5.486
 7213SOL    HW122538   5.508   0.152   5.455
 7213SOL    HW222539   5.660   0.167   5.515
 7214SOL     OW22540   2.203   5.319   4.609
 7214SOL    HW122541   2.236   5.339   4.701
 7214SOL    HW222542   2.194   5.220   4.597
 7215SOL     OW22543   1.092   3.378   4.363
 7215SOL    HW122544   1.172   3.327   4.332
 7215SOL    HW222545   1.043   3.324   4.431
 7216SOL     OW22546   2.585   6.214   0.002
 7216SOL    HW122547   2.676   6.200   0.042
 7216SOL    HW222548   2.595   6.252   6.936
 7217SOL     OW22549   1.788   4.600   2.385
 7217SOL    HW122550   1.777   4.585   2.287
 7217SOL    HW222551   1.816   4.694   2.402
 7218SOL     OW22552   4.926   2.253   5.603
 7218SOL    HW122553   4.969   2.163   5.605
 7218SOL    HW222554   4.862   2.262   5.679
 7219SOL     OW22555   4.439   6.924   3.413
 7219SOL    HW122556   4.389   7.005   3.442
 7219SOL    HW222557   4.483   6.942   3.324
 7220SOL     OW22558   6.492   0.901   2.800
 7220SOL    HW122559   6.425   0.902   2.725
 7220SOL    HW222560   6.582   0.927   2.765
 7221SOL     OW22561   5.772   4.521   5.277
 7221SOL    HW122562   5.697   4.481   5.329
 7221SOL    HW222563   5.821   4.449   5.227
 7222SOL     OW22564   6.440   6.745   0.866
 7222SOL    HW122565   6.507   6.807   0.827
 7222SOL    HW222566   6.453   6.653   0.829
 7223SOL     OW22567   3.084   1.462   6.944
 7223SOL    HW122568   3.043   1.396   7.006
 7223SOL    HW222569   3.048   1.554   6.963
 7224SOL     OW22570   5.783   0.921   4.747
 7224SOL    HW122571   5.778   1.000   4.809
 7224SOL    HW222572   5.851   0.857   4.780
 7225SOL     OW22573   1.690   5.668   0.478
 7225SOL    HW122574   1.695   5.763   0.507
 7225SOL    HW222575   1.741   5.656   0.393
 7226SOL     OW22576   0.400   6.827   0.165
 7226SOL    HW122577   0.486   6.878   0.167
 7226SOL    HW222578   0.324   6.890   0.179
 7227SOL     OW22579   0.786   1.700   7.017
 7227SOL    HW122580   0.844   1.756   0.051
 7227SOL    HW222581   0.733   1.636   0.047
 7228SOL     OW22582   6.912   6.588   1.922
 7228SOL    HW122583   6.965   6.658   1.872
 7228SOL    HW222584   6.871   6.630   2.003
 7229SOL     OW22585   1.247   0.401   4.156
 7229SOL    HW122586   1.150   0.377   4.150
 7229SOL    HW222587   1.273   0.407   4.253
 7230SOL     OW22588   4.474   5.564   4.031
 7230SOL    HW122589   4.495   5.617   4.114
 7230SOL    HW222590   4.483   5.624   3.951
 7231SOL     OW22591   5.995   1.829   6.264
 7231SOL    HW122592   5.936   1.882   6.325
 7231SOL    HW222593   6.076   1.798   6.314
 7232SOL     OW22594   4.349   4.580   2.737
 7232SOL    HW122595   4.364   4.677   2.717
 7232SOL    HW222596   4.252   4.565   2.756
 7233SOL     OW22597   0.082   2.777   5.292
 7233SOL    HW122598   0.049   2.691   5.330
 7233SOL    HW222599   0.063   2.780   5.194
 7234SOL     OW22600   6.359   1.749   1.659
 7234SOL    HW122601   6.456   1.766   1.637
 7234SOL    HW222602   6.302   1.779   1.582
 7235SOL     OW22603   5.094   3.773   4.633
 7235SOL    HW122604   5.043   3.745   4.714
 7235SOL    HW222605   5.190   3.786   4.656
 7236SOL     OW22606   3.973   1.626   2.756
 7236SOL    HW122607   3.906   1.553   2.770
 7236SOL    HW222608   4.065   1.588   2.758
 7237SOL     OW22609   6.162   6.123   5.614
 7237SOL    HW122610   6.242   6.177   5.587
 7237SOL    HW222611   6.155   6.042   5.556
 7238SOL     OW22612   2.478   1.732   2.163
 7238SOL    HW122613   2.547   1.659   2.159
 7238SOL    HW222614   2.425   1.722   2.248
 7239SOL     OW22615   1.765   1.408   2.895
 7239SOL    HW122616   1.723   1.318   2.881
 7239SOL    HW222617   1.850   1.413   2.842
 7240SOL     OW22618   3.005   4.004   0.876
 7240SOL    HW122619   2.977   4.100   0.877
 7240SOL    HW222620   3.105   3.999   0.873
 7241SOL     OW22621   3.674   0.127   5.514
 7241SOL    HW122622   3.637   0.081   5.433
 7241SOL    HW222623   3.606   0.189   5.552
 7242SOL     OW22624   5.755   4.626   6.923
 7242SOL    HW122625   5.686   4.579   6.977
 7242SOL    HW222626   5.742   4.605   6.826
 7243SOL     OW22627   0.959   5.187   0.122
 7243SOL    HW122628   0.997   5.127   0.193
 7243SOL    HW222629   0.871   5.224   0.153
 7244SOL     OW22630   5.798   1.735   1.190
 7244SOL    HW122631   5.893   1.735   1.161
 7244SOL    HW222632   5.764   1.641   1.193
 7245SOL     OW22633   0.176   2.360   4.909
 7245SOL    HW122634   0.109   2.350   4.837
 7245SOL    HW222635   0.268   2.356   4.870
 7246SOL     OW22636   6.057   6.972   4.756
 7246SOL    HW122637   6.083   0.033   4.799
 7246SOL    HW222638   6.138   6.914   4.747
 7247SOL     OW22639   2.640   6.170   1.986
 7247SOL    HW122640   2.696   6.248   1.959
 7247SOL    HW222641   2.620   6.176   2.084
 7248SOL     OW22642   4.024   1.128   3.869
 7248SOL    HW122643   3.958   1.065   3.910
 7248SOL    HW222644   4.056   1.091   3.782
 7249SOL     OW22645   5.452   4.599   0.485
 7249SOL    HW122646   5.475   4.505   0.507
 7249SOL    HW222647   5.374   4.628   0.540
 7250SOL     OW22648   2.715   5.112   5.963
 7250SOL    HW122649   2.726   5.207   5.992
 7250SOL    HW222650   2.803   5.078   5.929
 7251SOL     OW22651   7.009   6.800   4.812
 7251SOL    HW122652   6.938   6.759   4.755
 7251SOL    HW222653   0.064   6.741   4.813
 7252SOL     OW22654   3.114   3.249   4.923
 7252SOL    HW122655   3.050   3.224   4.995
 7252SOL    HW222656   3.206   3.258   4.962
 7253SOL     OW22657   2.970   6.414   0.704
 7253SOL    HW122658   3.025   6.408   0.787
 7253SOL    HW222659   3.029   6.398   0.625
 7254SOL     OW22660   3.757   5.450   3.985
 7254SOL    HW122661   3.664   5.463   4.019
 7254SOL    HW222662   3.804   5.538   3.981
 7255SOL     OW22663   2.965   3.625   2.167
 7255SOL    HW122664   2.917   3.583   2.090
 7255SOL    HW222665   3.057   3.653   2.139
 7256SOL     OW22666   4.193   4.837   4.034
 7256SOL    HW122667   4.129   4.895   3.984
 7256SOL    HW222668   4.255   4.894   4.088
 7257SOL     OW22669   5.525   2.300   3.245
 7257SOL    HW122670   5.610   2.282   3.294
 7257SOL    HW222671   5.532   2.264   3.152
 7258SOL     OW22672   3.531   0.442   5.235
 7258SOL    HW122673   3.444   0.413   5.196
 7258SOL    HW222674   3.596   0.366   5.232
 7259SOL     OW22675   2.435   4.051   0.050
 7259SOL    HW122676   2.534   4.066   0.046
 7259SOL    HW222677   2.389   4.136   0.077
 7260SOL     OW22678   3.298   2.116   2.511
 7260SOL    HW122679   3.320   2.071   2.425
 7260SOL    HW222680   3.376   2.108   2.574
 7261SOL     OW22681   2.135   3.231   2.099
 7261SOL    HW122682   2.044   3.253   2.064
 7261SOL    HW222683   2.198   3.306   2.077
 7262SOL     OW22684   5.621   2.133   5.001
 7262SOL    HW122685   5.585   2.163   5.089
 7262SOL    HW222686   5.552   2.078   4.953
 7263SOL     OW22687   1.509   6.151   1.207
 7263SOL    HW122688   1.452   6.206   1.145
 7263SOL    HW222689   1.604   6.152   1.175
 7264SOL     OW22690   6.490   0.827   6.661
 7264SOL    HW122691   6.390   0.824   6.665
 7264SOL    HW222692   6.523   0.760   6.594
 7265SOL     OW22693   5.083   5.137   5.477
 7265SOL    HW122694   5.113   5.053   5.522
 7265SOL    HW222695   5.005   5.175   5.526
 7266SOL     OW22696   4.830   0.511   1.914
 7266SOL    HW122697   4.829   0.534   2.011
 7266SOL    HW222698   4.761   0.565   1.866
 7267SOL     OW22699   0.349   3.644   4.461
 7267SOL    HW122700   0.296   3.618   4.542
 7267SOL    HW222701   0.290   3.694   4.398
 7268SOL     OW22702   3.882   6.296   1.330
 7268SOL    HW122703   3.880   6.358   1.252
 7268SOL    HW222704   3.910   6.346   1.412
 7269SOL     OW22705   0.962   5.930   2.045
 7269SOL    HW122706   1.028   5.869   2.001
 7269SOL    HW222707   0.877   5.931   1.992
 7270SOL     OW22708   2.248   1.443   2.663
 7270SOL    HW122709   2.224   1.387   2.584
 7270SOL    HW222710   2.299   1.524   2.633
 7271SOL     OW22711   6.997   3.895   3.087
 7271SOL    HW122712   6.908   3.854   3.068
 7271SOL    HW222713   0.013   3.847   3.165
 7272SOL     OW22714   4.571   2.485   2.644
 7272SOL    HW122715   4.642   2.417   2.660
 7272SOL    HW222716   4.566   2.506   2.546
 7273SOL     OW22717   5.329   4.356   1.145
 7273SOL    HW122718   5.258   4.347   1.075
 7273SOL    HW222719   5.368   4.448   1.141
 7274SOL     OW22720   6.800   5.058   5.652
 7274SOL    HW122721   6.820   5.155   5.668
 7274SOL    HW222722   6.792   5.042   5.554
 7275SOL     OW22723   6.879   0.392   0.543
 7275SOL    HW122724   6.910   0.453   0.470
 7275SOL    HW222725   6.947   0.389   0.616
 7276SOL     OW22726   2.217   2.431   4.062
 7276SOL    HW122727   2.200   2.499   3.991
 7276SOL    HW222728   2.140   2.431   4.127
 7277SOL     OW22729   4.530   1.891   4.592
 7277SOL    HW122730   4.569   1.860   4.679
 7277SOL    HW222731   4.473   1.972   4.608
 7278SOL     OW22732   3.368   1.281   3.416
 7278SOL    HW122733   3.303   1.323   3.353
 7278SOL    HW222734   3.373   1.335   3.500
 7279SOL     OW22735   4.926   4.840   0.301
 7279SOL    HW122736   4.998   4.787   0.346
 7279SOL    HW222737   4.927   4.934   0.335
 7280SOL     OW22738   5.450   2.141   5.224
 7280SOL    HW122739   5.361   2.130   5.178
 7280SOL    HW222740   5.440   2.199   5.304
 7281SOL     OW22741   3.634   6.697   1.975
 7281SOL    HW122742   3.580   6.762   1.923
 7281SOL    HW222743   3.575   6.647   2.039
 7282SOL     OW22744   6.866   5.492   2.067
 7282SOL    HW122745   6.801   5.551   2.114
 7282SOL    HW222746   6.954   5.540   2.058
 7283SOL     OW22747   3.985   5.286   2.663
 7283SOL    HW122748   3.977   5.254   2.569
 7283SOL    HW222749   3.894   5.304   2.700
 7284SOL     OW22750   6.652   1.478   3.673
 7284SOL    HW122751   6.667   1.493   3.575
 7284SOL    HW222752   6.560   1.441   3.686
 7285SOL     OW22753   4.813   2.995   2.318
 7285SOL    HW122754   4.854   3.072   2.367
 7285SOL    HW222755   4.801   3.020   2.222
 7286SOL     OW22756   0.795   0.913   0.891
 7286SOL    HW122757   0.817   1.008   0.916
 7286SOL    HW222758   0.832   0.851   0.960
 7287SOL     OW22759   1.426   2.600   4.007
 7287SOL    HW122760   1.506   2.605   3.947
 7287SOL    HW222761   1.431   2.673   4.075
 7288SOL     OW22762   3.298   2.147   3.204
 7288SOL    HW122763   3.297   2.169   3.106
 7288SOL    HW222764   3.278   2.050   3.217
 7289SOL     OW22765   5.984   2.208   1.185
 7289SOL    HW122766   5.942   2.296   1.163
 7289SOL    HW222767   6.068   2.197   1.131
 7290SOL     OW22768   3.541   1.239   5.023
 7290SOL    HW122769   3.593   1.259   4.940
 7290SOL    HW222770   3.456   1.193   4.999
 7291SOL     OW22771   4.222   1.019   0.230
 7291SOL    HW122772   4.137   0.975   0.203
 7291SOL    HW222773   4.281   0.953   0.276
 7292SOL     OW22774   2.072   6.928   3.253
 7292SOL    HW122775   1.984   6.881   3.240
 7292SOL    HW222776   2.076   7.007   3.192
 7293SOL     OW22777   1.620   0.559   5.107
 7293SOL    HW122778   1.676   0.640   5.123
 7293SOL    HW222779   1.610   0.507   5.192
 7294SOL     OW22780   2.462   5.602   1.313
 7294SOL    HW122781   2.548   5.631   1.355
 7294SOL    HW222782   2.479   5.571   1.219
 7295SOL     OW22783   6.546   5.046   2.336
 7295SOL    HW122784   6.548   4.948   2.314
 7295SOL    HW222785   6.498   5.095   2.264
 7296SOL     OW22786   4.581   5.021   2.168
 7296SOL    HW122787   4.498   5.050   2.215
 7296SOL    HW222788   4.590   4.921   2.173
 7297SOL     OW22789   3.602   6.238   1.306
 7297SOL    HW122790   3.631   6.297   1.382
 7297SOL    HW222791   3.680   6.218   1.248
 7298SOL     OW22792   4.842   5.896   6.448
 7298SOL    HW122793   4.848   5.822   6.382
 7298SOL    HW222794   4.826   5.982   6.400
 7299SOL     OW22795   1.363   3.046   0.110
 7299SOL    HW122796   1.321   3.027   0.021
 7299SOL    HW222797   1.303   3.012   0.183
 7300SOL     OW22798   0.782   5.141   1.701
 7300SOL    HW122799   0.832   5.105   1.622
 7300SOL    HW222800   0.776   5.240   1.695
 7301SOL     OW22801   5.203   6.674   5.712
 7301SOL    HW122802   5.153   6.744   5.662
 7301SOL    HW222803   5.271   6.718   5.772
 7302SOL     OW22804   4.926   2.243   5.991
 7302SOL    HW122805   5.011   2.272   5.946
 7302SOL    HW222806   4.913   2.145   5.976
 7303SOL     OW22807   2.452   1.248   1.220
 7303SOL    HW122808   2.495   1.320   1.274
 7303SOL    HW222809   2.433   1.282   1.128
 7304SOL     OW22810   2.748   5.619   1.811
 7304SOL    HW122811   2.783   5.667   1.891
 7304SOL    HW222812   2.818   5.617   1.739
 7305SOL     OW22813   6.133   2.211   0.614
 7305SOL    HW122814   6.118   2.133   0.553
 7305SOL    HW222815   6.074   2.202   0.694
 7306SOL     OW22816   2.069   1.793   1.288
 7306SOL    HW122817   1.995   1.726   1.283
 7306SOL    HW222818   2.080   1.823   1.383
 7307SOL     OW22819   1.522   6.553   1.641
 7307SOL    HW122820   1.462   6.496   1.697
 7307SOL    HW222821   1.490   6.648   1.644
 7308SOL     OW22822   5.068   1.235   2.479
 7308SOL    HW122823   5.011   1.293   2.536
 7308SOL    HW222824   5.164   1.257   2.493
 7309SOL     OW22825   1.863   5.420   3.172
 7309SOL    HW122826   1.902   5.328   3.167
 7309SOL    HW222827   1.855   5.459   3.081
 7310SOL     OW22828   1.843   3.118   0.324
 7310SOL    HW122829   1.930   3.081   0.356
 7310SOL    HW222830   1.785   3.140   0.403
 7311SOL     OW22831   6.791   6.635   6.326
 7311SOL    HW122832   6.843   6.554   6.299
 7311SOL    HW222833   6.704   6.636   6.278
 7312SOL     OW22834   0.174   2.388   5.223
 7312SOL    HW122835   0.262   2.435   5.224
 7312SOL    HW222836   0.113   2.433   5.158
 7313SOL     OW22837   2.851   0.835   2.136
 7313SOL    HW122838   2.894   0.891   2.207
 7313SOL    HW222839   2.921   0.803   2.072
 7314SOL     OW22840   0.081   4.441   0.195
 7314SOL    HW122841   0.095   4.347   0.227
 7314SOL    HW222842   0.130   4.504   0.256
 7315SOL     OW22843   1.121   5.029   2.449
 7315SOL    HW122844   1.085   4.958   2.389
 7315SOL    HW222845   1.189   4.988   2.511
 7316SOL     OW22846   3.632   2.048   0.704
 7316SOL    HW122847   3.664   2.141   0.724
 7316SOL    HW222848   3.711   1.987   0.695
 7317SOL     OW22849   3.569   1.814   1.682
 7317SOL    HW122850   3.596   1.885   1.747
 7317SOL    HW222851   3.639   1.805   1.612
 7318SOL     OW22852   3.741   6.796   0.446
 7318SOL    HW122853   3.677   6.840   0.383
 7318SOL    HW222854   3.738   6.843   0.535
 7319SOL     OW22855   6.437   4.822   0.207
 7319SOL    HW122856   6.442   4.731   0.167
 7319SOL    HW222857   6.402   4.816   0.301
 7320SOL     OW22858   6.903   2.790   0.862
 7320SOL    HW122859   6.965   2.773   0.938
 7320SOL    HW222860   6.822   2.838   0.895
 7321SOL     OW22861   1.508   7.022   6.729
 7321SOL    HW122862   1.498   0.085   6.774
 7321SOL    HW222863   1.443   6.957   6.768
 7322SOL     OW22864   0.393   2.870   2.402
 7322SOL    HW122865   0.445   2.950   2.434
 7322SOL    HW222866   0.397   2.865   2.303
 7323SOL     OW22867   1.206   1.774   1.828
 7323SOL    HW122868   1.113   1.782   1.793
 7323SOL    HW222869   1.269   1.820   1.767
 7324SOL     OW22870   5.584   4.651   3.181
 7324SOL    HW122871   5.640   4.706   3.243
 7324SOL    HW222872   5.605   4.554   3.196
 7325SOL     OW22873   4.304   1.033   6.387
 7325SOL    HW122874   4.326   1.044   6.290
 7325SOL    HW222875   4.236   1.101   6.414
 7326SOL     OW22876   2.457   0.683   0.148
 7326SOL    HW122877   2.386   0.744   0.112
 7326SOL    HW222878   2.519   0.657   0.074
 7327SOL     OW22879   6.591   3.759   2.857
 7327SOL    HW122880   6.512   3.727   2.909
 7327SOL    HW222881   6.576   3.742   2.760
 7328SOL     OW22882   4.301   4.784   5.062
 7328SOL    HW122883   4.304   4.686   5.084
 7328SOL    HW222884   4.214   4.822   5.092
 7329SOL     OW22885   3.009   3.047   0.893
 7329SOL    HW122886   2.947   2.974   0.864
 7329SOL    HW222887   3.062   3.079   0.814
 7330SOL     OW22888   3.335   2.921   1.223
 7330SOL    HW122889   3.243   2.953   1.204
 7330SOL    HW222890   3.383   2.905   1.137
 7331SOL     OW22891   4.787   0.533   2.760
 7331SOL    HW122892   4.793   0.444   2.805
 7331SOL    HW222893   4.731   0.595   2.815
 7332SOL     OW22894   2.860   4.049   6.722
 7332SOL    HW122895   2.831   3.987   6.649
 7332SOL    HW222896   2.956   4.034   6.743
 7333SOL     OW22897   6.798   2.236   1.590
 7333SOL    HW122898   6.864   2.164   1.610
 7333SOL    HW222899   6.707   2.195   1.578
 7334SOL     OW22900   3.001   0.338   5.479
 7334SOL    HW122901   2.947   0.284   5.414
 7334SOL    HW222902   3.087   0.366   5.436
 7335SOL     OW22903   0.011   2.601   2.426
 7335SOL    HW122904   6.950   2.640   2.394
 7335SOL    HW222905   0.063   2.671   2.475
 7336SOL     OW22906   1.332   6.288   0.978
 7336SOL    HW122907   1.404   6.233   0.934
 7336SOL    HW222908   1.243   6.258   0.945
 7337SOL     OW22909   2.502   2.301   2.593
 7337SOL    HW122910   2.460   2.226   2.542
 7337SOL    HW222911   2.492   2.286   2.691
 7338SOL     OW22912   6.062   3.088   1.986
 7338SOL    HW122913   6.118   3.120   2.062
 7338SOL    HW222914   6.118   3.030   1.927
 7339SOL     OW22915   6.291   5.133   4.863
 7339SOL    HW122916   6.282   5.202   4.791
 7339SOL    HW222917   6.217   5.066   4.854
 7340SOL     OW22918   2.722   0.379   0.427
 7340SOL    HW122919   2.758   0.288   0.447
 7340SOL    HW222920   2.797   0.441   0.404
 7341SOL     OW22921   6.512   5.186   4.096
 7341SOL    HW122922   6.461   5.225   4.172
 7341SOL    HW222923   6.476   5.095   4.075
 7342SOL     OW22924   6.839   0.118   0.541
 7342SOL    HW122925   6.817   0.093   0.636
 7342SOL    HW222926   6.849   0.217   0.534
 7343SOL     OW22927   6.555   4.516   2.193
 7343SOL    HW122928   6.604   4.576   2.129
 7343SOL    HW222929   6.598   4.426   2.194
 7344SOL     OW22930   1.689   6.330   0.023
 7344SOL    HW122931   1.746   6.369   0.095
 7344SOL    HW222932   1.745   6.278   6.985
 7345SOL     OW22933   4.284   5.140   6.151
 7345SOL    HW122934   4.303   5.056   6.201
 7345SOL    HW222935   4.304   5.126   6.054
 7346SOL     OW22936   3.923   4.819   1.711
 7346SOL    HW122937   3.987   4.889   1.742
 7346SOL    HW222938   3.949   4.788   1.619
 7347SOL     OW22939   6.132   1.463   2.093
 7347SOL    HW122940   6.062   1.533   2.087
 7347SOL    HW222941   6.220   1.506   2.113
 7348SOL     OW22942   1.481   1.823   3.813
 7348SOL    HW122943   1.469   1.724   3.822
 7348SOL    HW222944   1.427   1.870   3.883
 7349SOL     OW22945   3.636   1.552   0.645
 7349SOL    HW122946   3.691   1.490   0.589
 7349SOL    HW222947   3.656   1.536   0.742
 7350SOL     OW22948   1.375   2.358   3.143
 7350SOL    HW122949   1.439   2.311   3.083
 7350SOL    HW222950   1.287   2.368   3.096
 7351SOL     OW22951   4.311   4.889   6.930
 7351SOL    HW122952   4.399   4.863   6.889
 7351SOL    HW222953   4.259   4.945   6.865
 7352SOL     OW22954   0.567   2.024   2.535
 7352SOL    HW122955   0.489   2.066   2.489
 7352SOL    HW222956   0.567   2.050   2.631
 7353SOL     OW22957   5.548   1.744   4.467
 7353SOL    HW122958   5.628   1.687   4.449
 7353SOL    HW222959   5.535   1.754   4.565
 7354SOL     OW22960   6.224   5.872   5.802
 7354SOL    HW122961   6.223   5.870   5.902
 7354SOL    HW222962   6.261   5.959   5.770
 7355SOL     OW22963   1.420   5.635   1.980
 7355SOL    HW122964   1.360   5.570   2.026
 7355SOL    HW222965   1.515   5.611   1.998
 7356SOL     OW22966   6.514   1.635   6.364
 7356SOL    HW122967   6.569   1.604   6.441
 7356SOL    HW222968   6.573   1.674   6.294
 7357SOL     OW22969   5.791   2.220   6.644
 7357SOL    HW122970   5.709   2.165   6.636
 7357SOL    HW222971   5.801   2.253   6.738
 7358SOL     OW22972   3.262   1.474   4.242
 7358SOL    HW122973   3.187   1.455   4.178
 7358SOL    HW222974   3.264   1.403   4.312
 7359SOL     OW22975   3.726   2.917   3.254
 7359SOL    HW122976   3.784   2.837   3.273
 7359SOL    HW222977   3.678   2.943   3.338
 7360SOL     OW22978   1.175   2.497   5.289
 7360SOL    HW122979   1.267   2.515   5.253
 7360SOL    HW222980   1.178   2.417   5.349
 7361SOL     OW22981   5.105   5.875   2.156
 7361SOL    HW122982   5.139   5.916   2.240
 7361SOL    HW222983   5.009   5.901   2.143
 7362SOL     OW22984   2.135   5.690   5.568
 7362SOL    HW122985   2.108   5.635   5.647
 7362SOL    HW222986   2.110   5.642   5.484
 7363SOL     OW22987   5.087   3.214   6.988
 7363SOL    HW122988   5.140   3.143   6.942
 7363SOL    HW222989   5.136   3.244   0.045
 7364SOL     OW22990   4.187   6.109   1.417
 7364SOL    HW122991   4.287   6.113   1.412
 7364SOL    HW222992   4.147   6.166   1.346
 7365SOL     OW22993   2.595   0.196   2.204
 7365SOL    HW122994   2.597   0.181   2.105
 7365SOL    HW222995   2.503   0.220   2.233
 7366SOL     OW22996   0.056   5.125   6.850
 7366SOL    HW122997   6.991   5.103   6.813
 7366SOL    HW222998   0.049   5.206   6.908
 7367SOL     OW22999   4.829   3.768   1.840
 7367SOL    HW123000   4.916   3.811   1.863
 7367SOL    HW223001   4.812   3.691   1.901
 7368SOL     OW23002   2.899   3.478   4.855
 7368SOL    HW123003   2.902   3.455   4.757
 7368SOL    HW223004   2.863   3.571   4.866
 7369SOL     OW23005   5.101   3.828   0.885
 7369SOL    HW123006   5.142   3.737   0.891
 7369SOL    HW223007   5.003   3.822   0.908
 7370SOL     OW23008   2.652   6.932   1.055
 7370SOL    HW123009   2.620   0.000   1.041
 7370SOL    HW223010   2.752   6.930   1.054
 7371SOL     OW23011   2.793   4.986   4.163
 7371SOL    HW123012   2.875   5.011   4.112
 7371SOL    HW223013   2.766   4.893   4.140
 7372SOL     OW23014   3.097   0.290   5.718
 7372SOL    HW123015   3.029   0.324   5.654
 7372SOL    HW223016   3.065   0.204   5.758
 7373SOL     OW23017   3.637   0.552   2.352
 7373SOL    HW123018   3.615   0.561   2.254
 7373SOL    HW223019   3.614   0.637   2.399
 7374SOL     OW23020   1.144   3.189   6.477
 7374SOL    HW123021   1.099   3.100   6.469
 7374SOL    HW223022   1.222   3.180   6.540
 7375SOL     OW23023   1.215   0.660   4.413
 7375SOL    HW123024   1.184   0.566   4.429
 7375SOL    HW223025   1.156   0.723   4.463
 7376SOL     OW23026   2.842   2.872   0.059
 7376SOL    HW123027   2.774   2.820   0.008
 7376SOL    HW223028   2.813   2.967   0.066
 7377SOL     OW23029   4.845   4.528   2.234
 7377SOL    HW123030   4.788   4.445   2.232
 7377SOL    HW223031   4.922   4.517   2.171
 7378SOL     OW23032   0.234   1.229   4.599
 7378SOL    HW123033   0.217   1.174   4.517
 7378SOL    HW223034   0.151   1.279   4.623
 7379SOL     OW23035   4.040   1.469   2.087
 7379SOL    HW123036   3.967   1.490   2.021
 7379SOL    HW223037   4.011   1.497   2.178
 7380SOL     OW23038   0.265   3.099   6.082
 7380SOL    HW123039   0.326   3.166   6.124
 7380SOL    HW223040   0.236   3.132   5.992
 7381SOL     OW23041   4.785   2.096   2.160
 7381SOL    HW123042   4.777   2.018   2.097
 7381SOL    HW223043   4.824   2.064   2.246
 7382SOL     OW23044   0.287   4.930   4.354
 7382SOL    HW123045   0.204   4.926   4.299
 7382SOL    HW223046   0.338   4.844   4.345
 7383SOL     OW23047   0.085   6.395   3.291
 7383SOL    HW123048   0.052   6.405   3.385
 7383SOL    HW223049   0.174   6.349   3.292
 7384SOL     OW23050   5.283   6.822   2.447
 7384SOL    HW123051   5.288   6.819   2.347
 7384SOL    HW223052   5.239   6.908   2.475
 7385SOL     OW23053   4.757   5.933   1.575
 7385SOL    HW123054   4.848   5.939   1.535
 7385SOL    HW223055   4.709   6.020   1.563
 7386SOL     OW23056   0.887   2.368   5.556
 7386SOL    HW123057   0.852   2.432   5.625
 7386SOL    HW223058   0.985   2.356   5.568
 7387SOL     OW23059   4.611   5.057   3.989
 7387SOL    HW123060   4.555   5.015   4.060
 7387SOL    HW223061   4.601   5.157   3.992
 7388SOL     OW23062   6.916   4.358   4.072
 7388SOL    HW123063   6.976   4.329   4.147
 7388SOL    HW223064   6.836   4.297   4.069
 7389SOL     OW23065   1.964   4.628   6.960
 7389SOL    HW123066   1.868   4.638   6.983
 7389SOL    HW223067   2.019   4.635   0.018
 7390SOL     OW23068   0.554   1.277   5.882
 7390SOL    HW123069   0.514   1.190   5.912
 7390SOL    HW223070   0.549   1.343   5.957
 7391SOL     OW23071   6.270   3.384   6.161
 7391SOL    HW123072   6.207   3.305   6.164
 7391SOL    HW223073   6.358   3.357   6.200
 7392SOL     OW23074   1.506   4.953   4.296
 7392SOL    HW123075   1.567   5.029   4.274
 7392SOL    HW223076   1.462   4.970   4.384
 7393SOL     OW23077   6.959   5.238   2.167
 7393SOL    HW123078   0.028   5.260   2.193
 7393SOL    HW223079   6.912   5.321   2.137
 7394SOL     OW23080   3.792   3.206   6.358
 7394SOL    HW123081   3.797   3.214   6.457
 7394SOL    HW223082   3.813   3.294   6.315
 7395SOL     OW23083   0.558   0.113   6.919
 7395SOL    HW123084   0.623   0.037   6.933
 7395SOL    HW223085   0.517   0.137   7.007
 7396SOL     OW23086   0.943   0.497   6.497
 7396SOL    HW123087   1.036   0.521   6.524
 7396SOL    HW223088   0.944   0.410   6.447
 7397SOL     OW23089   6.785   4.585   5.002
 7397SOL    HW123090   6.782   4.685   5.002
 7397SOL    HW223091   6.792   4.552   5.096
 7398SOL     OW23092   4.636   4.703   4.210
 7398SOL    HW123093   4.709   4.748   4.262
 7398SOL    HW223094   4.641   4.604   4.224
 7399SOL     OW23095   5.636   3.896   6.185
 7399SOL    HW123096   5.720   3.845   6.199
 7399SOL    HW223097   5.622   3.911   6.087
 7400SOL     OW23098   2.899   4.986   6.454
 7400SOL    HW123099   2.829   4.927   6.413
 7400SOL    HW223100   2.985   4.973   6.406
 7401SOL     OW23101   0.232   1.836   3.797
 7401SOL    HW123102   0.263   1.746   3.767
 7401SOL    HW223103   0.270   1.906   3.738
 7402SOL     OW23104   2.448   0.145   3.442
 7402SOL    HW123105   2.455   0.080   3.366
 7402SOL    HW223106   2.423   0.096   3.525
 7403SOL     OW23107   2.211   3.160   2.922
 7403SOL    HW123108   2.124   3.120   2.950
 7403SOL    HW223109   2.286   3.104   2.956
 7404SOL     OW23110   1.000   0.473   1.075
 7404SOL    HW123111   0.931   0.446   1.008
 7404SOL    HW223112   1.072   0.525   1.029
 7405SOL     OW23113   2.976   5.436   5.427
 7405SOL    HW123114   2.941   5.506   5.489
 7405SOL    HW223115   2.945   5.346   5.457
 7406SOL     OW23116   1.422   3.972   1.948
 7406SOL    HW123117   1.507   4.003   1.990
 7406SOL    HW223118   1.435   3.879   1.911
 7407SOL     OW23119   1.316   6.168   5.264
 7407SOL    HW123120   1.286   6.075   5.282
 7407SOL    HW223121   1.250   6.214   5.203
 7408SOL     OW23122   1.492   4.457   5.485
 7408SOL    HW123123   1.571   4.456   5.424
 7408SOL    HW223124   1.510   4.398   5.564
 7409SOL     OW23125   1.484   0.629   4.890
 7409SOL    HW123126   1.407   0.566   4.895
 7409SOL    HW223127   1.537   0.623   4.975
 7410SOL     OW23128   6.845   5.421   1.057
 7410SOL    HW123129   6.876   5.511   1.027
 7410SOL    HW223130   6.884   5.351   0.997
 7411SOL     OW23131   2.654   6.467   4.977
 7411SOL    HW123132   2.732   6.405   4.989
 7411SOL    HW223133   2.569   6.416   4.990
 7412SOL     OW23134   1.997   1.121   1.379
 7412SOL    HW123135   1.954   1.031   1.385
 7412SOL    HW223136   2.084   1.120   1.428
 7413SOL     OW23137   6.006   3.834   4.393
 7413SOL    HW123138   6.075   3.816   4.464
 7413SOL    HW223139   6.018   3.927   4.359
 7414SOL     OW23140   6.569   6.545   2.109
 7414SOL    HW123141   6.574   6.445   2.099
 7414SOL    HW223142   6.546   6.586   2.021
 7415SOL     OW23143   2.182   2.935   3.130
 7415SOL    HW123144   2.235   2.914   3.048
 7415SOL    HW223145   2.194   2.862   3.197
 7416SOL     OW23146   3.716   1.302   4.368
 7416SOL    HW123147   3.727   1.203   4.377
 7416SOL    HW223148   3.779   1.336   4.299
 7417SOL     OW23149   1.335   0.163   0.125
 7417SOL    HW123150   1.268   0.094   0.152
 7417SOL    HW223151   1.340   0.234   0.195
 7418SOL     OW23152   2.829   3.967   1.261
 7418SOL    HW123153   2.886   4.004   1.335
 7418SOL    HW223154   2.846   3.869   1.252
 7419SOL     OW23155   5.343   1.548   5.053
 7419SOL    HW123156   5.382   1.592   4.972
 7419SOL    HW223157   5.362   1.450   5.050
 7420SOL     OW23158   6.419   6.105   1.851
 7420SOL    HW123159   6.392   6.183   1.907
 7420SOL    HW223160   6.357   6.028   1.868
 7421SOL     OW23161   3.904   3.945   1.797
 7421SOL    HW123162   3.984   3.935   1.857
 7421SOL    HW223163   3.841   4.011   1.837
 7422SOL     OW23164   0.299   3.459   0.559
 7422SOL    HW123165   0.244   3.488   0.637
 7422SOL    HW223166   0.392   3.439   0.589
 7423SOL     OW23167   2.125   4.776   5.988
 7423SOL    HW123168   2.162   4.863   5.957
 7423SOL    HW223169   2.113   4.777   6.087
 7424SOL     OW23170   5.479   0.948   4.419
 7424SOL    HW123171   5.577   0.934   4.417
 7424SOL    HW223172   5.459   1.046   4.411
 7425SOL     OW23173   3.815   4.422   6.168
 7425SOL    HW123174   3.810   4.517   6.138
 7425SOL    HW223175   3.834   4.364   6.089
 7426SOL     OW23176   0.796   1.460   5.777
 7426SOL    HW123177   0.724   1.394   5.799
 7426SOL    HW223178   0.844   1.430   5.694
 7427SOL     OW23179   2.977   5.924   5.092
 7427SOL    HW123180   3.011   5.904   5.000
 7427SOL    HW223181   2.895   5.980   5.086
 7428SOL     OW23182   3.699   2.462   5.911
 7428SOL    HW123183   3.632   2.500   5.848
 7428SOL    HW223184   3.748   2.388   5.867
 7429SOL     OW23185   0.254   0.499   2.276
 7429SOL    HW123186   0.275   0.416   2.329
 7429SOL    HW223187   0.157   0.521   2.286
 7430SOL     OW23188   6.487   3.731   5.135
 7430SOL    HW123189   6.411   3.751   5.073
 7430SOL    HW223190   6.526   3.816   5.169
 7431SOL     OW23191   0.555   3.550   2.186
 7431SOL    HW123192   0.650   3.581   2.191
 7431SOL    HW223193   0.523   3.526   2.278
 7432SOL     OW23194   0.182   6.325   3.972
 7432SOL    HW123195   0.250   6.377   3.921
 7432SOL    HW223196   0.092   6.366   3.958
 7433SOL     OW23197   5.944   5.051   0.813
 7433SOL    HW123198   5.915   5.143   0.839
 7433SOL    HW223199   5.924   5.036   0.716
 7434SOL     OW23200   2.764   2.121   6.714
 7434SOL    HW123201   2.856   2.089   6.695
 7434SOL    HW223202   2.740   2.103   6.810
 7435SOL     OW23203   2.998   6.269   6.288
 7435SOL    HW123204   3.023   6.202   6.218
 7435SOL    HW223205   2.961   6.221   6.367
 7436SOL     OW23206   5.414   3.252   6.764
 7436SOL    HW123207   5.382   3.158   6.773
 7436SOL    HW223208   5.467   3.278   6.845
 7437SOL     OW23209   0.537   5.626   6.064
 7437SOL    HW123210   0.485   5.691   6.119
 7437SOL    HW223211   0.635   5.642   6.078
 7438SOL     OW23212   0.528   4.318   2.093
 7438SOL    HW123213   0.451   4.257   2.073
 7438SOL    HW223214   0.604   4.296   2.031
 7439SOL     OW23215   2.089   6.804   3.739
 7439SOL    HW123216   2.177   6.844   3.714
 7439SOL    HW223217   2.104   6.710   3.770
 7440SOL     OW23218   1.028   2.959   4.626
 7440SOL    HW123219   0.994   2.874   4.587
 7440SOL    HW223220   1.104   2.939   4.689
 7441SOL     OW23221   5.572   0.854   3.820
 7441SOL    HW123222   5.489   0.805   3.794
 7441SOL    HW223223   5.563   0.889   3.913
 7442SOL     OW23224   1.289   1.552   6.344
 7442SOL    HW123225   1.313   1.500   6.426
 7442SOL    HW223226   1.368   1.559   6.284
 7443SOL     OW23227   1.123   1.340   6.213
 7443SOL    HW123228   1.032   1.317   6.249
 7443SOL    HW223229   1.175   1.390   6.282
 7444SOL     OW23230   0.257   3.233   5.854
 7444SOL    HW123231   0.302   3.219   5.766
 7444SOL    HW223232   0.228   3.328   5.862
 7445SOL     OW23233   5.190   1.454   1.303
 7445SOL    HW123234   5.285   1.439   1.277
 7445SOL    HW223235   5.144   1.509   1.233
 7446SOL     OW23236   6.626   3.526   1.324
 7446SOL    HW123237   6.695   3.587   1.284
 7446SOL    HW223238   6.576   3.574   1.396
 7447SOL     OW23239   1.431   4.313   0.319
 7447SOL    HW123240   1.499   4.385   0.300
 7447SOL    HW223241   1.342   4.342   0.283
 7448SOL     OW23242   5.508   0.411   5.295
 7448SOL    HW123243   5.559   0.493   5.324
 7448SOL    HW223244   5.538   0.332   5.348
 7449SOL     OW23245   5.098   2.033   2.028
 7449SOL    HW123246   5.099   2.060   2.124
 7449SOL    HW223247   5.018   1.976   2.011
 7450SOL     OW23248   4.093   2.277   2.953
 7450SOL    HW123249   4.015   2.243   2.900
 7450SOL    HW223250   4.174   2.282   2.894
 7451SOL     OW23251   1.731   1.083   4.881
 7451SOL    HW123252   1.762   1.094   4.787
 7451SOL    HW223253   1.648   1.027   4.883
 7452SOL     OW23254   2.276   0.076   4.918
 7452SOL    HW123255   2.268   7.002   4.908
 7452SOL    HW223256   2.358   0.107   4.870
 7453SOL     OW23257   5.779   6.686   5.048
 7453SOL    HW123258   5.823   6.758   4.993
 7453SOL    HW223259   5.682   6.706   5.058
 7454SOL     OW23260   0.984   3.781   1.741
 7454SOL    HW123261   0.972   3.727   1.658
 7454SOL    HW223262   1.054   3.851   1.725
 7455SOL     OW23263   5.033   2.704   0.661
 7455SOL    HW123264   5.074   2.658   0.582
 7455SOL    HW223265   4.976   2.780   0.630
 7456SOL     OW23266   1.327   3.554   5.107
 7456SOL    HW123267   1.338   3.455   5.117
 7456SOL    HW223268   1.271   3.574   5.027
 7457SOL     OW23269   5.657   1.187   5.134
 7457SOL    HW123270   5.696   1.202   5.225
 7457SOL    HW223271   5.591   1.258   5.114
 7458SOL     OW23272   3.028   0.597   0.041
 7458SOL    HW123273   3.064   0.585   0.133
 7458SOL    HW223274   2.956   0.530   0.023
 7459SOL     OW23275   4.935   0.319   5.724
 7459SOL    HW123276   4.971   0.360   5.640
 7459SOL    HW223277   4.932   0.388   5.796
 7460SOL     OW23278   1.120   4.589   0.842
 7460SOL    HW123279   1.164   4.676   0.822
 7460SOL    HW223280   1.081   4.551   0.758
 7461SOL     OW23281   5.374   0.900   5.441
 7461SOL    HW123282   5.401   0.993   5.466
 7461SOL    HW223283   5.373   0.892   5.341
 7462SOL     OW23284   2.341   2.011   2.372
 7462SOL    HW123285   2.433   1.971   2.376
 7462SOL    HW223286   2.314   2.044   2.462
 7463SOL     OW23287   4.299   3.285   1.555
 7463SOL    HW123288   4.237   3.209   1.571
 7463SOL    HW223289   4.280   3.359   1.619
 7464SOL     OW23290   4.315   6.188   1.000
 7464SOL    HW123291   4.220   6.159   1.009
 7464SOL    HW223292   4.365   6.121   0.947
 7465SOL     OW23293   2.269   0.152   1.741
 7465SOL    HW123294   2.333   0.167   1.665
 7465SOL    HW223295   2.194   0.217   1.735
 7466SOL     OW23296   0.089   0.269   6.661
 7466SOL    HW123297   0.039   0.272   6.574
 7466SOL    HW223298   0.052   0.197   6.719
 7467SOL     OW23299   0.554   2.050   0.947
 7467SOL    HW123300   0.469   2.027   0.995
 7467SOL    HW223301   0.578   2.145   0.965
 7468SOL     OW23302   5.593   1.793   3.141
 7468SOL    HW123303   5.650   1.789   3.223
 7468SOL    HW223304   5.500   1.822   3.166
 7469SOL     OW23305   1.284   0.529   0.072
 7469SOL    HW123306   1.192   0.511   0.109
 7469SOL    HW223307   1.308   0.457   0.007
 7470SOL     OW23308   0.239   2.034   2.127
 7470SOL    HW123309   0.251   2.020   2.029
 7470SOL    HW223310   0.269   1.952   2.176
 7471SOL     OW23311   6.269   6.360   5.297
 7471SOL    HW123312   6.290   6.338   5.202
 7471SOL    HW223313   6.274   6.459   5.310
 7472SOL     OW23314   4.048   6.990   4.456
 7472SOL    HW123315   4.060   6.898   4.418
 7472SOL    HW223316   4.026   0.028   4.382
 7473SOL     OW23317   6.605   3.497   4.160
 7473SOL    HW123318   6.695   3.524   4.196
 7473SOL    HW223319   6.585   3.549   4.077
 7474SOL     OW23320   3.672   1.186   4.004
 7474SOL    HW123321   3.745   1.212   4.067
 7474SOL    HW223322   3.703   1.108   3.949
 7475SOL     OW23323   3.818   0.442   1.562
 7475SOL    HW123324   3.877   0.360   1.563
 7475SOL    HW223325   3.873   0.522   1.584
 7476SOL     OW23326   4.275   5.790   4.394
 7476SOL    HW123327   4.233   5.736   4.322
 7476SOL    HW223328   4.225   5.876   4.404
 7477SOL     OW23329   4.234   1.034   3.640
 7477SOL    HW123330   4.284   0.949   3.618
 7477SOL    HW223331   4.240   1.097   3.563
 7478SOL     OW23332   2.663   3.715   6.765
 7478SOL    HW123333   2.721   3.773   6.823
 7478SOL    HW223334   2.712   3.631   6.742
 7479SOL     OW23335   4.410   0.422   0.734
 7479SOL    HW123336   4.407   0.336   0.683
 7479SOL    HW223337   4.469   0.411   0.814
 7480SOL     OW23338   5.860   5.703   1.300
 7480SOL    HW123339   5.887   5.620   1.350
 7480SOL    HW223340   5.762   5.700   1.281
 7481SOL     OW23341   5.752   4.551   0.801
 7481SOL    HW123342   5.808   4.629   0.829
 7481SOL    HW223343   5.656   4.572   0.818
 7482SOL     OW23344   4.806   1.062   2.728
 7482SOL    HW123345   4.869   1.004   2.677
 7482SOL    HW223346   4.723   1.079   2.674
 7483SOL     OW23347   3.901   1.928   4.661
 7483SOL    HW123348   3.955   2.002   4.620
 7483SOL    HW223349   3.814   1.920   4.612
 7484SOL     OW23350   1.794   6.488   1.625
 7484SOL    HW123351   1.817   6.444   1.538
 7484SOL    HW223352   1.695   6.491   1.635
 7485SOL     OW23353   3.221   5.649   5.438
 7485SOL    HW123354   3.245   5.742   5.410
 7485SOL    HW223355   3.131   5.626   5.403
 7486SOL     OW23356   3.205   6.044   5.206
 7486SOL    HW123357   3.122   5.994   5.181
 7486SOL    HW223358   3.189   6.096   5.289
 7487SOL     OW23359   3.026   6.383   3.506
 7487SOL    HW123360   3.117   6.393   3.466
 7487SOL    HW223361   2.973   6.319   3.452
 7488SOL     OW23362   3.067   7.019   5.796
 7488SOL    HW123363   3.060   0.063   5.868
 7488SOL    HW223364   3.143   0.016   5.735
 7489SOL     OW23365   4.567   2.088   3.911
 7489SOL    HW123366   4.574   1.994   3.877
 7489SOL    HW223367   4.656   2.117   3.948
 7490SOL     OW23368   7.001   0.745   0.912
 7490SOL    HW123369   0.069   0.711   0.922
 7490SOL    HW223370   6.981   0.758   0.815
 7491SOL     OW23371   0.010   5.728   6.445
 7491SOL    HW123372   7.025   5.683   6.533
 7491SOL    HW223373   7.012   5.665   6.371
 7492SOL     OW23374   2.167   2.729   5.311
 7492SOL    HW123375   2.188   2.671   5.233
 7492SOL    HW223376   2.070   2.720   5.333
 7493SOL     OW23377   6.095   4.110   6.383
 7493SOL    HW123378   6.050   4.130   6.297
 7493SOL    HW223379   6.049   4.034   6.429
 7494SOL     OW23380   5.881   0.802   1.879
 7494SOL    HW123381   5.836   0.727   1.831
 7494SOL    HW223382   5.818   0.840   1.948
 7495SOL     OW23383   2.582   1.719   0.442
 7495SOL    HW123384   2.629   1.706   0.530
 7495SOL    HW223385   2.522   1.799   0.448
 7496SOL     OW23386   0.889   5.207   6.151
 7496SOL    HW123387   0.961   5.267   6.115
 7496SOL    HW223388   0.930   5.120   6.179
 7497SOL     OW23389   2.523   4.768   2.352
 7497SOL    HW123390   2.543   4.690   2.411
 7497SOL    HW223391   2.582   4.764   2.271
 7498SOL     OW23392   2.631   1.214   4.622
 7498SOL    HW123393   2.533   1.225   4.642
 7498SOL    HW223394   2.649   1.117   4.603
 7499SOL     OW23395   5.023   6.688   4.727
 7499SOL    HW123396   5.011   6.710   4.824
 7499SOL    HW223397   5.077   6.605   4.718
 7500SOL     OW23398   4.713   5.823   2.032
 7500SOL    HW123399   4.758   5.746   1.987
 7500SOL    HW223400   4.709   5.901   1.969
 7501SOL     OW23401   1.261   3.343   3.655
 7501SOL    HW123402   1.276   3.248   3.627
 7501SOL    HW223403   1.220   3.345   3.746
 7502SOL     OW23404   2.169   1.020   5.035
 7502SOL    HW123405   2.145   0.926   5.009
 7502SOL    HW223406   2.088   1.067   5.069
 7503SOL     OW23407   2.766   0.696   6.699
 7503SOL    HW123408   2.824   0.750   6.760
 7503SOL    HW223409   2.775   0.731   6.606
 7504SOL     OW23410   4.252   6.435   3.344
 7504SOL    HW123411   4.296   6.404   3.260
 7504SOL    HW223412   4.305   6.509   3.385
 7505SOL     OW23413   1.915   0.962   5.354
 7505SOL    HW123414   1.816   0.972   5.340
 7505SOL    HW223415   1.961   0.964   5.265
 7506SOL     OW23416   3.408   0.845   2.354
 7506SOL    HW123417   3.393   0.840   2.453
 7506SOL    HW223418   3.506   0.837   2.335
 7507SOL     OW23419   0.214   6.369   6.088
 7507SOL    HW123420   0.312   6.370   6.107
 7507SOL    HW223421   0.182   6.463   6.075
 7508SOL     OW23422   5.571   6.373   3.581
 7508SOL    HW123423   5.521   6.416   3.506
 7508SOL    HW223424   5.644   6.315   3.544
 7509SOL     OW23425   5.473   4.277   6.764
 7509SOL    HW123426   5.472   4.201   6.828
 7509SOL    HW223427   5.567   4.308   6.750
 7510SOL     OW23428   3.491   4.074   4.872
 7510SOL    HW123429   3.557   4.139   4.833
 7510SOL    HW223430   3.531   3.983   4.873
 7511SOL     OW23431   1.500   0.307   2.428
 7511SOL    HW123432   1.594   0.274   2.421
 7511SOL    HW223433   1.495   0.381   2.495
 7512SOL     OW23434   2.386   3.030   1.361
 7512SOL    HW123435   2.451   3.086   1.413
 7512SOL    HW223436   2.380   2.939   1.401
 7513SOL     OW23437   1.361   2.557   5.784
 7513SOL    HW123438   1.428   2.585   5.852
 7513SOL    HW223439   1.360   2.623   5.708
 7514SOL     OW23440   2.928   6.120   1.737
 7514SOL    HW123441   2.926   6.031   1.782
 7514SOL    HW223442   2.959   6.189   1.803
 7515SOL     OW23443   0.439   6.985   2.899
 7515SOL    HW123444   0.391   0.029   2.953
 7515SOL    HW223445   0.401   6.982   2.807
 7516SOL     OW23446   0.241   0.100   4.211
 7516SOL    HW123447   0.172   0.077   4.280
 7516SOL    HW223448   0.203   0.083   4.120
 7517SOL     OW23449   0.260   3.662   1.334
 7517SOL    HW123450   0.216   3.739   1.288
 7517SOL    HW223451   0.190   3.599   1.368
 7518SOL     OW23452   4.210   5.848   3.173
 7518SOL    HW123453   4.232   5.758   3.134
 7518SOL    HW223454   4.287   5.881   3.227
 7519SOL     OW23455   1.113   6.743   4.907
 7519SOL    HW123456   1.145   6.734   4.813
 7519SOL    HW223457   1.095   6.839   4.927
 7520SOL     OW23458   1.908   6.700   3.240
 7520SOL    HW123459   1.809   6.692   3.247
 7520SOL    HW223460   1.947   6.716   3.330
 7521SOL     OW23461   4.488   4.527   5.310
 7521SOL    HW123462   4.502   4.452   5.374
 7521SOL    HW223463   4.404   4.510   5.257
 7522SOL     OW23464   2.147   1.391   0.049
 7522SOL    HW123465   2.203   1.387   6.992
 7522SOL    HW223466   2.202   1.368   0.128
 7523SOL     OW23467   5.586   0.474   5.666
 7523SOL    HW123468   5.531   0.427   5.597
 7523SOL    HW223469   5.628   0.556   5.626
 7524SOL     OW23470   0.312   1.863   5.508
 7524SOL    HW123471   0.392   1.908   5.548
 7524SOL    HW223472   0.264   1.810   5.579
 7525SOL     OW23473   1.821   0.601   0.397
 7525SOL    HW123474   1.762   0.540   0.345
 7525SOL    HW223475   1.844   0.560   0.485
 7526SOL     OW23476   3.617   3.174   4.770
 7526SOL    HW123477   3.552   3.146   4.699
 7526SOL    HW223478   3.606   3.115   4.850
 7527SOL     OW23479   5.368   4.265   2.643
 7527SOL    HW123480   5.421   4.202   2.699
 7527SOL    HW223481   5.425   4.343   2.617
 7528SOL     OW23482   4.433   2.793   0.252
 7528SOL    HW123483   4.394   2.840   0.331
 7528SOL    HW223484   4.362   2.780   0.183
 7529SOL     OW23485   4.407   1.301   3.761
 7529SOL    HW123486   4.498   1.258   3.762
 7529SOL    HW223487   4.388   1.342   3.850
 7530SOL     OW23488   6.904   4.003   2.261
 7530SOL    HW123489   7.001   4.027   2.257
 7530SOL    HW223490   6.881   3.947   2.181
 7531SOL     OW23491   4.360   1.791   3.678
 7531SOL    HW123492   4.292   1.862   3.661
 7531SOL    HW223493   4.326   1.727   3.747
 7532SOL     OW23494   5.709   5.806   1.955
 7532SOL    HW123495   5.651   5.783   1.876
 7532SOL    HW223496   5.769   5.882   1.930
 7533SOL     OW23497   3.336   1.289   3.883
 7533SOL    HW123498   3.365   1.377   3.919
 7533SOL    HW223499   3.371   1.215   3.941
 7534SOL     OW23500   4.098   6.215   5.694
 7534SOL    HW123501   3.998   6.212   5.682
 7534SOL    HW223502   4.124   6.304   5.733
 7535SOL     OW23503   2.501   2.397   5.475
 7535SOL    HW123504   2.461   2.469   5.419
 7535SOL    HW223505   2.567   2.345   5.419
 7536SOL     OW23506   4.364   5.221   4.610
 7536SOL    HW123507   4.357   5.205   4.511
 7536SOL    HW223508   4.291   5.170   4.656
 7537SOL     OW23509   1.789   4.395   4.723
 7537SOL    HW123510   1.788   4.443   4.635
 7537SOL    HW223511   1.823   4.302   4.710
 7538SOL     OW23512   3.296   3.144   2.809
 7538SOL    HW123513   3.233   3.220   2.792
 7538SOL    HW223514   3.263   3.062   2.763
 7539SOL     OW23515   1.914   3.075   5.310
 7539SOL    HW123516   1.900   3.097   5.407
 7539SOL    HW223517   2.012   3.082   5.289
 7540SOL     OW23518   2.677   1.148   6.918
 7540SOL    HW123519   2.642   1.237   6.889
 7540SOL    HW223520   2.720   1.102   6.841
 7541SOL     OW23521   6.138   2.351   5.545
 7541SOL    HW123522   6.141   2.420   5.617
 7541SOL    HW223523   6.213   2.286   5.560
 7542SOL     OW23524   1.193   0.080   5.856
 7542SOL    HW123525   1.248   0.139   5.915
 7542SOL    HW223526   1.108   0.056   5.902
 7543SOL     OW23527   4.297   2.917   0.456
 7543SOL    HW123528   4.262   2.989   0.395
 7543SOL    HW223529   4.221   2.856   0.481
 7544SOL     OW23530   1.417   2.367   2.689
 7544SOL    HW123531   1.450   2.278   2.656
 7544SOL    HW223532   1.335   2.355   2.743
 7545SOL     OW23533   4.683   0.120   2.451
 7545SOL    HW123534   4.611   0.158   2.508
 7545SOL    HW223535   4.674   0.155   2.358
 7546SOL     OW23536   5.292   0.964   0.216
 7546SOL    HW123537   5.258   0.989   0.126
 7546SOL    HW223538   5.242   1.015   0.286
 7547SOL     OW23539   3.739   0.398   0.408
 7547SOL    HW123540   3.690   0.438   0.485
 7547SOL    HW223541   3.834   0.380   0.433
 7548SOL     OW23542   2.328   1.615   1.412
 7548SOL    HW123543   2.305   1.623   1.509
 7548SOL    HW223544   2.321   1.705   1.368
 7549SOL     OW23545   5.409   1.428   2.468
 7549SOL    HW123546   5.344   1.439   2.394
 7549SOL    HW223547   5.372   1.366   2.537
 7550SOL     OW23548   1.933   5.930   2.307
 7550SOL    HW123549   1.984   5.861   2.359
 7550SOL    HW223550   1.842   5.894   2.286
 7551SOL     OW23551   4.707   3.569   6.867
 7551SOL    HW123552   4.711   3.627   6.948
 7551SOL    HW223553   4.798   3.538   6.843
 7552SOL     OW23554   2.304   5.689   4.249
 7552SOL    HW123555   2.253   5.634   4.316
 7552SOL    HW223556   2.400   5.660   4.249
 7553SOL     OW23557   4.185   4.547   5.859
 7553SOL    HW123558   4.176   4.622   5.925
 7553SOL    HW223559   4.265   4.492   5.882
 7554SOL     OW23560   4.768   1.565   0.807
 7554SOL    HW123561   4.707   1.489   0.830
 7554SOL    HW223562   4.859   1.530   0.787
 7555SOL     OW23563   0.504   5.495   5.514
 7555SOL    HW123564   0.408   5.514   5.533
 7555SOL    HW223565   0.511   5.434   5.435
 7556SOL     OW23566   0.832   3.463   4.842
 7556SOL    HW123567   0.834   3.486   4.939
 7556SOL    HW223568   0.861   3.542   4.788
 7557SOL     OW23569   5.157   4.183   6.219
 7557SOL    HW123570   5.078   4.230   6.180
 7557SOL    HW223571   5.235   4.246   6.223
 7558SOL     OW23572   1.883   2.912   4.172
 7558SOL    HW123573   1.960   2.900   4.109
 7558SOL    HW223574   1.864   3.009   4.182
 7559SOL     OW23575   6.246   4.971   0.915
 7559SOL    HW123576   6.258   4.880   0.875
 7559SOL    HW223577   6.161   5.012   0.881
 7560SOL     OW23578   4.927   6.799   0.846
 7560SOL    HW123579   4.911   6.836   0.937
 7560SOL    HW223580   4.911   6.870   0.778
 7561SOL     OW23581   0.429   3.219   0.912
 7561SOL    HW123582   0.492   3.249   0.983
 7561SOL    HW223583   0.336   3.248   0.935
 7562SOL     OW23584   5.590   6.505   5.298
 7562SOL    HW123585   5.592   6.517   5.397
 7562SOL    HW223586   5.632   6.418   5.274
 7563SOL     OW23587   2.705   0.260   1.712
 7563SOL    HW123588   2.757   0.332   1.759
 7563SOL    HW223589   2.648   0.301   1.641
 7564SOL     OW23590   5.231   6.847   2.959
 7564SOL    HW123591   5.310   6.794   2.928
 7564SOL    HW223592   5.259   6.905   3.036
 7565SOL     OW23593   4.835   5.170   6.547
 7565SOL    HW123594   4.884   5.084   6.562
 7565SOL    HW223595   4.866   5.239   6.612
 7566SOL     OW23596   6.932   5.510   4.102
 7566SOL    HW123597   6.934   5.410   4.101
 7566SOL    HW223598   6.906   5.543   4.011
 7567SOL     OW23599   2.343   4.363   5.590
 7567SOL    HW123600   2.404   4.442   5.593
 7567SOL    HW223601   2.284   4.368   5.510
 7568SOL     OW23602   5.652   5.898   3.535
 7568SOL    HW123603   5.661   5.843   3.618
 7568SOL    HW223604   5.557   5.895   3.503
 7569SOL     OW23605   4.344   5.951   6.553
 7569SOL    HW123606   4.368   5.920   6.645
 7569SOL    HW223607   4.428   5.977   6.504
 7570SOL     OW23608   6.041   4.572   4.563
 7570SOL    HW123609   6.031   4.494   4.500
 7570SOL    HW223610   6.132   4.613   4.551
 7571SOL     OW23611   5.824   3.855   1.948
 7571SOL    HW123612   5.774   3.874   1.864
 7571SOL    HW223613   5.831   3.756   1.961
 7572SOL     OW23614   4.631   0.937   3.963
 7572SOL    HW123615   4.542   0.975   3.940
 7572SOL    HW223616   4.627   0.893   4.053
 7573SOL     OW23617   6.960   5.525   4.715
 7573SOL    HW123618   0.008   5.576   4.761
 7573SOL    HW223619   6.988   5.505   4.621
 7574SOL     OW23620   6.105   1.306   3.540
 7574SOL    HW123621   6.193   1.258   3.544
 7574SOL    HW223622   6.062   1.290   3.452
 7575SOL     OW23623   4.118   1.258   5.850
 7575SOL    HW123624   4.135   1.353   5.877
 7575SOL    HW223625   4.025   1.249   5.816
 7576SOL     OW23626   6.028   4.574   0.244
 7576SOL    HW123627   6.033   4.666   0.206
 7576SOL    HW223628   5.956   4.571   0.313
 7577SOL     OW23629   6.346   1.039   4.739
 7577SOL    HW123630   6.345   1.027   4.838
 7577SOL    HW223631   6.415   1.107   4.714
 7578SOL     OW23632   2.142   6.430   4.305
 7578SOL    HW123633   2.224   6.476   4.337
 7578SOL    HW223634   2.069   6.439   4.373
 7579SOL     OW23635   3.946   2.148   2.390
 7579SOL    HW123636   3.921   2.174   2.483
 7579SOL    HW223637   3.865   2.115   2.342
 7580SOL     OW23638   1.912   3.872   2.969
 7580SOL    HW123639   1.957   3.903   3.053
 7580SOL    HW223640   1.833   3.816   2.992
 7581SOL     OW23641   5.306   1.491   0.490
 7581SOL    HW123642   5.255   1.472   0.406
 7581SOL    HW223643   5.295   1.588   0.515
 7582SOL     OW23644   3.786   1.531   0.874
 7582SOL    HW123645   3.819   1.466   0.942
 7582SOL    HW223646   3.832   1.619   0.886
 7583SOL     OW23647   6.079   3.957   1.967
 7583SOL    HW123648   5.984   3.928   1.980
 7583SOL    HW223649   6.085   4.057   1.968
 7584SOL     OW23650   2.701   6.484   1.336
 7584SOL    HW123651   2.617   6.431   1.335
 7584SOL    HW223652   2.705   6.536   1.422
 7585SOL     OW23653   2.199   4.385   6.623
 7585SOL    HW123654   2.116   4.430   6.655
 7585SOL    HW223655   2.272   4.453   6.613
 7586SOL     OW23656   2.596   0.118   2.786
 7586SOL    HW123657   2.564   0.054   2.716
 7586SOL    HW223658   2.519   0.175   2.815
 7587SOL     OW23659   1.781   1.966   0.182
 7587SOL    HW123660   1.864   1.969   0.238
 7587SOL    HW223661   1.807   1.953   0.086
 7588SOL     OW23662   0.525   5.094   1.965
 7588SOL    HW123663   0.575   5.020   2.011
 7588SOL    HW223664   0.513   5.072   1.868
 7589SOL     OW23665   6.032   6.010   0.422
 7589SOL    HW123666   6.014   5.985   0.327
 7589SOL    HW223667   6.049   6.109   0.427
 7590SOL     OW23668   2.619   1.858   5.276
 7590SOL    HW123669   2.588   1.800   5.351
 7590SOL    HW223670   2.587   1.820   5.189
 7591SOL     OW23671   0.256   5.015   0.366
 7591SOL    HW123672   0.210   4.996   0.279
 7591SOL    HW223673   0.216   5.097   0.407
 7592SOL     OW23674   6.446   5.059   6.866
 7592SOL    HW123675   6.400   4.992   6.807
 7592SOL    HW223676   6.380   5.096   6.930
 7593SOL     OW23677   5.444   2.586   6.912
 7593SOL    HW123678   5.396   2.606   6.998
 7593SOL    HW223679   5.453   2.486   6.902
 7594SOL     OW23680   0.907   5.572   3.380
 7594SOL    HW123681   0.991   5.623   3.400
 7594SOL    HW223682   0.887   5.511   3.456
 7595SOL     OW23683   0.157   3.488   6.246
 7595SOL    HW123684   0.175   3.573   6.197
 7595SOL    HW223685   0.244   3.443   6.267
 7596SOL     OW23686   5.134   4.702   2.666
 7596SOL    HW123687   5.060   4.756   2.707
 7596SOL    HW223688   5.144   4.616   2.715
 7597SOL     OW23689   3.233   5.552   2.152
 7597SOL    HW123690   3.276   5.566   2.063
 7597SOL    HW223691   3.223   5.454   2.169
 7598SOL     OW23692   6.941   0.317   2.801
 7598SOL    HW123693   6.890   0.240   2.763
 7598SOL    HW223694   6.924   0.398   2.746
 7599SOL     OW23695   5.881   1.328   2.901
 7599SOL    HW123696   5.831   1.390   2.961
 7599SOL    HW223697   5.908   1.376   2.818
 7600SOL     OW23698   1.524   0.007   2.576
 7600SOL    HW123699   1.514   0.089   2.520
 7600SOL    HW223700   1.608   0.013   2.629
 7601SOL     OW23701   2.227   6.060   3.621
 7601SOL    HW123702   2.303   6.070   3.686
 7601SOL    HW223703   2.211   6.148   3.576
 7602SOL     OW23704   2.260   4.383   4.685
 7602SOL    HW123705   2.273   4.423   4.776
 7602SOL    HW223706   2.239   4.286   4.694
 7603SOL     OW23707   1.111   6.119   0.030
 7603SOL    HW123708   1.201   6.125   7.011
 7603SOL    HW223709   1.041   6.099   6.986
 7604SOL     OW23710   3.404   5.731   4.233
 7604SOL    HW123711   3.401   5.816   4.181
 7604SOL    HW223712   3.312   5.706   4.263
 7605SOL     OW23713   1.300   5.167   6.941
 7605SOL    HW123714   1.303   5.227   7.021
 7605SOL    HW223715   1.204   5.146   6.920
 7606SOL     OW23716   0.209   3.033   1.948
 7606SOL    HW123717   0.205   2.945   1.902
 7606SOL    HW223718   0.156   3.101   1.896
 7607SOL     OW23719   4.799   6.934   0.383
 7607SOL    HW123720   4.787   6.846   0.429
 7607SOL    HW223721   4.801   6.920   0.284
 7608SOL     OW23722   2.986   3.702   3.193
 7608SOL    HW123723   2.996   3.750   3.105
 7608SOL    HW223724   2.919   3.750   3.250
 7609SOL     OW23725   0.210   3.597   3.666
 7609SOL    HW123726   0.211   3.598   3.566
 7609SOL    HW223727   0.293   3.552   3.700
 7610SOL     OW23728   5.575   0.944   1.248
 7610SOL    HW123729   5.549   0.895   1.165
 7610SOL    HW223730   5.665   0.912   1.278
 7611SOL     OW23731   1.451   1.854   6.947
 7611SOL    HW123732   1.402   1.941   6.957
 7611SOL    HW223733   1.509   1.839   0.001
 7612SOL     OW23734   3.887   1.382   4.156
 7612SOL    HW123735   3.931   1.400   4.068
 7612SOL    HW223736   3.951   1.402   4.230
 7613SOL     OW23737   4.740   1.264   1.378
 7613SOL    HW123738   4.823   1.211   1.360
 7613SOL    HW223739   4.662   1.201   1.383
 7614SOL     OW23740   3.978   2.191   1.918
 7614SOL    HW123741   3.994   2.265   1.853
 7614SOL    HW223742   3.886   2.198   1.955
 7615SOL     OW23743   4.514   4.885   6.550
 7615SOL    HW123744   4.467   4.871   6.638
 7615SOL    HW223745   4.533   4.983   6.538
 7616SOL     OW23746   0.747   3.806   4.202
 7616SOL    HW123747   0.784   3.806   4.108
 7616SOL    HW223748   0.704   3.718   4.221
 7617SOL     OW23749   3.001   5.983   3.601
 7617SOL    HW123750   2.959   5.902   3.560
 7617SOL    HW223751   3.034   5.960   3.692
 7618SOL     OW23752   1.425   2.360   6.544
 7618SOL    HW123753   1.484   2.340   6.466
 7618SOL    HW223754   1.454   2.446   6.586
 7619SOL     OW23755   5.631   3.067   5.279
 7619SOL    HW123756   5.547   3.043   5.327
 7619SOL    HW223757   5.636   3.016   5.193
 7620SOL     OW23758   3.746   6.876   0.708
 7620SOL    HW123759   3.681   6.951   0.718
 7620SOL    HW223760   3.835   6.902   0.746
 7621SOL     OW23761   1.203   0.680   0.472
 7621SOL    HW123762   1.110   0.644   0.464
 7621SOL    HW223763   1.203   0.778   0.450
 7622SOL     OW23764   4.814   2.916   1.718
 7622SOL    HW123765   4.750   2.948   1.788
 7622SOL    HW223766   4.797   2.820   1.698
 7623SOL     OW23767   4.257   5.867   6.289
 7623SOL    HW123768   4.214   5.777   6.290
 7623SOL    HW223769   4.244   5.911   6.378
 7624SOL     OW23770   0.368   2.246   3.409
 7624SOL    HW123771   0.296   2.316   3.408
 7624SOL    HW223772   0.359   2.190   3.327
 7625SOL     OW23773   5.791   1.127   0.905
 7625SOL    HW123774   5.825   1.059   0.840
 7625SOL    HW223775   5.850   1.128   0.986
 7626SOL     OW23776   0.355   6.790   5.104
 7626SOL    HW123777   0.421   6.864   5.115
 7626SOL    HW223778   0.341   6.771   5.007
 7627SOL     OW23779   6.463   3.047   0.882
 7627SOL    HW123780   6.409   3.119   0.837
 7627SOL    HW223781   6.410   3.008   0.957
 7628SOL     OW23782   2.546   0.404   1.573
 7628SOL    HW123783   2.549   0.410   1.473
 7628SOL    HW223784   2.483   0.473   1.608
 7629SOL     OW23785   6.344   6.230   2.380
 7629SOL    HW123786   6.362   6.132   2.388
 7629SOL    HW223787   6.260   6.245   2.329
 7630SOL     OW23788   6.446   6.594   2.368
 7630SOL    HW123789   6.470   6.516   2.425
 7630SOL    HW223790   6.497   6.589   2.282
 7631SOL     OW23791   1.008   1.778   5.507
 7631SOL    HW123792   0.979   1.770   5.602
 7631SOL    HW223793   1.100   1.740   5.496
 7632SOL     OW23794   4.442   2.207   0.981
 7632SOL    HW123795   4.422   2.303   0.995
 7632SOL    HW223796   4.389   2.152   1.046
 7633SOL     OW23797   5.312   3.740   6.955
 7633SOL    HW123798   5.374   3.662   6.963
 7633SOL    HW223799   5.354   3.809   6.895
 7634SOL     OW23800   1.457   1.056   2.595
 7634SOL    HW123801   1.440   1.008   2.509
 7634SOL    HW223802   1.452   0.991   2.671
 7635SOL     OW23803   2.687   5.940   5.524
 7635SOL    HW123804   2.742   5.967   5.445
 7635SOL    HW223805   2.730   5.973   5.608
 7636SOL     OW23806   1.215   1.181   3.889
 7636SOL    HW123807   1.148   1.241   3.846
 7636SOL    HW223808   1.301   1.185   3.839
 7637SOL     OW23809   1.529   6.940   3.879
 7637SOL    HW123810   1.561   6.899   3.964
 7637SOL    HW223811   1.607   6.949   3.816
 7638SOL     OW23812   5.796   5.739   1.659
 7638SOL    HW123813   5.702   5.704   1.650
 7638SOL    HW223814   5.859   5.674   1.617
 7639SOL     OW23815   1.046   1.578   6.525
 7639SOL    HW123816   1.113   1.558   6.453
 7639SOL    HW223817   0.968   1.626   6.484
 7640SOL     OW23818   2.735   2.576   0.807
 7640SOL    HW123819   2.819   2.551   0.855
 7640SOL    HW223820   2.665   2.602   0.873
 7641SOL     OW23821   0.557   4.592   2.022
 7641SOL    HW123822   0.541   4.494   2.032
 7641SOL    HW223823   0.480   4.634   1.973
 7642SOL     OW23824   2.744   1.704   2.755
 7642SOL    HW123825   2.695   1.686   2.669
 7642SOL    HW223826   2.739   1.802   2.776
 7643SOL     OW23827   4.531   2.462   3.470
 7643SOL    HW123828   4.528   2.382   3.409
 7643SOL    HW223829   4.473   2.444   3.549
 7644SOL     OW23830   6.786   2.717   2.338
 7644SOL    HW123831   6.794   2.814   2.359
 7644SOL    HW223832   6.691   2.696   2.315
 7645SOL     OW23833   4.811   5.223   6.893
 7645SOL    HW123834   4.906   5.245   6.871
 7645SOL    HW223835   4.772   5.295   6.949
 7646SOL     OW23836   1.749   2.179   2.531
 7646SOL    HW123837   1.792   2.180   2.621
 7646SOL    HW223838   1.711   2.269   2.511
 7647SOL     OW23839   1.864   3.371   2.072
 7647SOL    HW123840   1.848   3.386   1.974
 7647SOL    HW223841   1.940   3.429   2.102
 7648SOL     OW23842   4.416   1.515   3.311
 7648SOL    HW123843   4.359   1.442   3.274
 7648SOL    HW223844   4.410   1.516   3.410
 7649SOL     OW23845   0.920   0.541   2.296
 7649SOL    HW123846   0.998   0.576   2.349
 7649SOL    HW223847   0.841   0.599   2.311
 7650SOL     OW23848   6.338   3.146   2.115
 7650SOL    HW123849   6.361   3.149   2.017
 7650SOL    HW223850   6.417   3.176   2.168
 7651SOL     OW23851   2.310   0.420   0.324
 7651SOL    HW123852   2.379   0.357   0.289
 7651SOL    HW223853   2.348   0.512   0.331
 7652SOL     OW23854   5.943   3.546   3.677
 7652SOL    HW123855   6.040   3.571   3.674
 7652SOL    HW223856   5.927   3.484   3.755
 7653SOL     OW23857   2.414   1.761   1.000
 7653SOL    HW123858   2.316   1.781   1.001
 7653SOL    HW223859   2.430   1.674   0.954
 7654SOL     OW23860   4.758   2.413   3.295
 7654SOL    HW123861   4.789   2.502   3.328
 7654SOL    HW223862   4.692   2.425   3.221
 7655SOL     OW23863   4.028   0.127   4.198
 7655SOL    HW123864   3.954   0.181   4.238
 7655SOL    HW223865   4.007   0.108   4.102
 7656SOL     OW23866   0.325   5.658   5.826
 7656SOL    HW123867   0.394   5.659   5.900
 7656SOL    HW223868   0.372   5.664   5.738
 7657SOL     OW23869   3.209   2.134   2.940
 7657SOL    HW123870   3.140   2.066   2.966
 7657SOL    HW223871   3.184   2.176   2.853
 7658SOL     OW23872   4.460   0.524   6.442
 7658SOL    HW123873   4.551   0.499   6.475
 7658SOL    HW223874   4.417   0.445   6.399
 7659SOL     OW23875   5.824   0.074   1.011
 7659SOL    HW123876   5.850   0.032   1.099
 7659SOL    HW223877   5.902   0.071   0.949
 7660SOL     OW23878   5.158   5.661   3.614
 7660SOL    HW123879   5.131   5.631   3.522
 7660SOL    HW223880   5.077   5.668   3.672
 7661SOL     OW23881   5.960   2.115   4.499
 7661SOL    HW123882   6.020   2.119   4.579
 7661SOL    HW223883   5.991   2.043   4.437
 7662SOL     OW23884   1.469   2.625   2.387
 7662SOL    HW123885   1.381   2.594   2.354
 7662SOL    HW223886   1.531   2.639   2.310
 7663SOL     OW23887   7.024   5.555   6.671
 7663SOL    HW123888   0.066   5.493   6.633
 7663SOL    HW223889   6.963   5.505   6.732
 7664SOL     OW23890   3.129   6.333   2.446
 7664SOL    HW123891   3.155   6.345   2.542
 7664SOL    HW223892   3.030   6.337   2.437
 7665SOL     OW23893   2.836   0.300   3.826
 7665SOL    HW123894   2.931   0.311   3.857
 7665SOL    HW223895   2.835   0.264   3.733
 7666SOL     OW23896   0.183   6.792   1.128
 7666SOL    HW123897   0.197   6.695   1.146
 7666SOL    HW223898   0.263   6.830   1.081
 7667SOL     OW23899   4.719   6.300   7.004
 7667SOL    HW123900   4.795   6.336   6.950
 7667SOL    HW223901   4.744   6.301   0.076
 7668SOL     OW23902   3.378   4.157   1.864
 7668SOL    HW123903   3.280   4.169   1.848
 7668SOL    HW223904   3.418   4.104   1.790
 7669SOL     OW23905   5.341   0.835   4.202
 7669SOL    HW123906   5.243   0.823   4.193
 7669SOL    HW223907   5.363   0.865   4.296
 7670SOL     OW23908   1.221   5.445   6.606
 7670SOL    HW123909   1.136   5.463   6.557
 7670SOL    HW223910   1.218   5.490   6.696
 7671SOL     OW23911   4.613   1.440   4.525
 7671SOL    HW123912   4.565   1.462   4.441
 7671SOL    HW223913   4.686   1.374   4.506
 7672SOL     OW23914   5.832   0.172   3.764
 7672SOL    HW123915   5.857   0.219   3.848
 7672SOL    HW223916   5.893   0.200   3.690
 7673SOL     OW23917   1.312   4.808   0.742
 7673SOL    HW123918   1.392   4.812   0.802
 7673SOL    HW223919   1.341   4.776   0.651
 7674SOL     OW23920   6.630   2.052   4.798
 7674SOL    HW123921   6.632   2.127   4.864
 7674SOL    HW223922   6.702   1.986   4.819
 7675SOL     OW23923   5.034   0.350   1.859
 7675SOL    HW123924   5.067   0.302   1.940
 7675SOL    HW223925   4.975   0.426   1.886
 7676SOL     OW23926   0.973   1.346   6.900
 7676SOL    HW123927   1.034   1.403   6.845
 7676SOL    HW223928   0.977   1.251   6.867
 7677SOL     OW23929   1.640   3.195   2.118
 7677SOL    HW123930   1.718   3.253   2.142
 7677SOL    HW223931   1.594   3.165   2.202
 7678SOL     OW23932   1.264   0.707   6.336
 7678SOL    HW123933   1.331   0.668   6.272
 7678SOL    HW223934   1.176   0.717   6.290
 7679SOL     OW23935   1.135   5.149   4.824
 7679SOL    HW123936   1.192   5.130   4.904
 7679SOL    HW223937   1.039   5.147   4.850
 7680SOL     OW23938   3.051   3.268   6.657
 7680SOL    HW123939   3.095   3.355   6.681
 7680SOL    HW223940   3.040   3.262   6.558
 7681SOL     OW23941   2.826   0.889   0.498
 7681SOL    HW123942   2.772   0.941   0.564
 7681SOL    HW223943   2.770   0.819   0.455
 7682SOL     OW23944   2.622   6.554   2.029
 7682SOL    HW123945   2.599   6.492   2.104
 7682SOL    HW223946   2.539   6.595   1.992
 7683SOL     OW23947   6.675   2.866   2.912
 7683SOL    HW123948   6.654   2.820   2.998
 7683SOL    HW223949   6.597   2.859   2.850
 7684SOL     OW23950   5.510   2.633   6.572
 7684SOL    HW123951   5.524   2.576   6.653
 7684SOL    HW223952   5.551   2.589   6.492
 7685SOL     OW23953   3.739   2.582   0.418
 7685SOL    HW123954   3.781   2.655   0.363
 7685SOL    HW223955   3.789   2.497   0.405
 7686SOL     OW23956   4.412   0.197   2.917
 7686SOL    HW123957   4.417   0.236   3.009
 7686SOL    HW223958   4.325   0.148   2.906
 7687SOL     OW23959   5.298   5.782   5.875
 7687SOL    HW123960   5.209   5.823   5.857
 7687SOL    HW223961   5.322   5.720   5.800
 7688SOL     OW23962   6.834   6.616   5.656
 7688SOL    HW123963   6.900   6.580   5.721
 7688SOL    HW223964   6.769   6.545   5.630
 7689SOL     OW23965   4.870   5.979   4.465
 7689SOL    HW123966   4.777   5.977   4.503
 7689SOL    HW223967   4.895   5.887   4.434
 7690SOL     OW23968   5.300   5.156   3.183
 7690SOL    HW123969   5.310   5.072   3.236
 7690SOL    HW223970   5.216   5.203   3.211
 7691SOL     OW23971   4.751   2.807   3.839
 7691SOL    HW123972   4.792   2.895   3.814
 7691SOL    HW223973   4.716   2.762   3.757
 7692SOL     OW23974   1.206   6.421   1.208
 7692SOL    HW123975   1.265   6.398   1.131
 7692SOL    HW223976   1.262   6.440   1.288
 7693SOL     OW23977   4.210   1.046   6.691
 7693SOL    HW123978   4.282   0.977   6.684
 7693SOL    HW223979   4.206   1.099   6.607
 7694SOL     OW23980   0.614   4.555   3.931
 7694SOL    HW123981   0.550   4.482   3.955
 7694SOL    HW223982   0.703   4.516   3.912
 7695SOL     OW23983   3.945   0.366   0.790
 7695SOL    HW123984   3.943   0.279   0.740
 7695SOL    HW223985   3.863   0.418   0.770
 7696SOL     OW23986   6.897   2.280   4.491
 7696SOL    HW123987   6.992   2.249   4.498
 7696SOL    HW223988   6.878   2.312   4.398
 7697SOL     OW23989   2.092   1.707   3.291
 7697SOL    HW123990   2.139   1.727   3.377
 7697SOL    HW223991   2.067   1.610   3.288
 7698SOL     OW23992   6.725   3.135   4.601
 7698SOL    HW123993   6.653   3.091   4.548
 7698SOL    HW223994   6.706   3.126   4.699
 7699SOL     OW23995   2.225   5.628   6.923
 7699SOL    HW123996   2.318   5.664   6.918
 7699SOL    HW223997   2.214   5.556   6.854
 7700SOL     OW23998   4.849   7.025   5.394
 7700SOL    HW123999   4.798   0.031   5.314
 7700SOL    HW224000   4.919   6.960   5.366
 7701SOL     OW24001   6.312   1.050   5.869
 7701SOL    HW124002   6.373   1.127   5.890
 7701SOL    HW224003   6.288   1.002   5.953
 7702SOL     OW24004   3.499   6.357   6.045
 7702SOL    HW124005   3.505   6.259   6.064
 7702SOL    HW224006   3.429   6.399   6.103
 7703SOL     OW24007   6.739   1.384   5.307
 7703SOL    HW124008   6.668   1.418   5.245
 7703SOL    HW224009   6.709   1.297   5.347
 7704SOL     OW24010   4.304   4.588   6.714
 7704SOL    HW124011   4.229   4.606   6.778
 7704SOL    HW224012   4.389   4.575   6.766
 7705SOL     OW24013   3.388   4.913   5.191
 7705SOL    HW124014   3.319   4.966   5.141
 7705SOL    HW224015   3.465   4.893   5.130
 7706SOL     OW24016   5.769   7.020   5.293
 7706SOL    HW124017   5.790   0.077   5.345
 7706SOL    HW224018   5.824   6.944   5.327
 7707SOL     OW24019   0.027   5.273   6.243
 7707SOL    HW124020   0.080   5.291   6.326
 7707SOL    HW224021   0.051   5.183   6.207
 7708SOL     OW24022   5.285   5.667   4.978
 7708SOL    HW124023   5.205   5.653   4.919
 7708SOL    HW224024   5.295   5.590   5.040
 7709SOL     OW24025   4.503   2.216   2.189
 7709SOL    HW124026   4.492   2.282   2.114
 7709SOL    HW224027   4.591   2.170   2.179
 7710SOL     OW24028   2.421   6.803   0.752
 7710SOL    HW124029   2.501   6.753   0.783
 7710SOL    HW224030   2.339   6.764   0.793
 7711SOL     OW24031   5.930   6.427   5.939
 7711SOL    HW124032   5.966   6.429   5.846
 7711SOL    HW224033   5.904   6.333   5.963
 7712SOL     OW24034   6.259   5.118   1.411
 7712SOL    HW124035   6.190   5.133   1.483
 7712SOL    HW224036   6.223   5.153   1.324
 7713SOL     OW24037   2.127   4.024   0.275
 7713SOL    HW124038   2.036   3.988   0.292
 7713SOL    HW224039   2.124   4.091   0.201
 7714SOL     OW24040   6.460   4.205   4.326
 7714SOL    HW124041   6.402   4.124   4.330
 7714SOL    HW224042   6.416   4.281   4.375
 7715SOL     OW24043   5.024   1.014   0.950
 7715SOL    HW124044   5.084   1.027   1.029
 7715SOL    HW224045   5.041   1.086   0.883
 7716SOL     OW24046   4.591   2.513   2.387
 7716SOL    HW124047   4.512   2.538   2.332
 7716SOL    HW224048   4.656   2.463   2.331
 7717SOL     OW24049   2.802   1.326   4.865
 7717SOL    HW124050   2.763   1.252   4.810
 7717SOL    HW224051   2.745   1.340   4.946
 7718SOL     OW24052   1.898   1.803   2.990
 7718SOL    HW124053   1.936   1.861   3.062
 7718SOL    HW224054   1.836   1.735   3.031
 7719SOL     OW24055   0.084   3.194   4.576
 7719SOL    HW124056   0.009   3.153   4.525
 7719SOL    HW224057   0.085   3.292   4.561
 7720SOL     OW24058   6.485   6.487   0.778
 7720SOL    HW124059   6.549   6.427   0.730
 7720SOL    HW224060   6.400   6.496   0.725
 7721SOL     OW24061   2.138   4.200   3.005
 7721SOL    HW124062   2.112   4.148   2.924
 7721SOL    HW224063   2.119   4.146   3.087
 7722SOL     OW24064   6.531   5.304   2.904
 7722SOL    HW124065   6.629   5.322   2.917
 7722SOL    HW224066   6.478   5.362   2.965
 7723SOL     OW24067   0.076   3.205   0.644
 7723SOL    HW124068   0.044   3.260   0.567
 7723SOL    HW224069   0.049   3.110   0.632
 7724SOL     OW24070   1.747   4.494   1.761
 7724SOL    HW124071   1.839   4.498   1.723
 7724SOL    HW224072   1.685   4.547   1.703
 7725SOL     OW24073   5.282   2.198   3.097
 7725SOL    HW124074   5.364   2.240   3.057
 7725SOL    HW224075   5.259   2.245   3.182
 7726SOL     OW24076   0.282   4.540   3.346
 7726SOL    HW124077   0.379   4.532   3.370
 7726SOL    HW224078   0.273   4.585   3.257
 7727SOL     OW24079   6.062   2.032   3.877
 7727SOL    HW124080   5.985   2.091   3.852
 7727SOL    HW224081   6.026   1.950   3.923
 7728SOL     OW24082   1.960   3.085   2.977
 7728SOL    HW124083   1.939   3.005   3.034
 7728SOL    HW224084   1.875   3.122   2.940
 7729SOL     OW24085   5.336   2.231   1.076
 7729SOL    HW124086   5.421   2.279   1.095
 7729SOL    HW224087   5.302   2.190   1.161
 7730SOL     OW24088   5.031   6.458   3.044
 7730SOL    HW124089   5.017   6.404   3.127
 7730SOL    HW224090   5.101   6.415   2.987
 7731SOL     OW24091   6.450   0.970   0.502
 7731SOL    HW124092   6.468   0.916   0.584
 7731SOL    HW224093   6.353   0.964   0.478
 7732SOL     OW24094   5.295   5.858   0.345
 7732SOL    HW124095   5.373   5.865   0.407
 7732SOL    HW224096   5.321   5.893   0.255
 7733SOL     OW24097   3.947   0.182   1.543
 7733SOL    HW124098   4.004   0.100   1.556
 7733SOL    HW224099   3.988   0.239   1.471
 7734SOL     OW24100   1.538   3.446   3.303
 7734SOL    HW124101   1.607   3.512   3.272
 7734SOL    HW224102   1.581   3.357   3.314
 7735SOL     OW24103   4.859   4.460   6.774
 7735SOL    HW124104   4.832   4.472   6.869
 7735SOL    HW224105   4.867   4.550   6.730
 7736SOL     OW24106   5.094   4.478   0.245
 7736SOL    HW124107   5.187   4.442   0.231
 7736SOL    HW224108   5.098   4.576   0.263
 7737SOL     OW24109   4.771   2.034   1.073
 7737SOL    HW124110   4.772   1.934   1.070
 7737SOL    HW224111   4.748   2.069   0.982
 7738SOL     OW24112   2.506   5.997   0.904
 7738SOL    HW124113   2.448   5.915   0.903
 7738SOL    HW224114   2.569   5.992   0.981
 7739SOL     OW24115   1.194   2.535   0.689
 7739SOL    HW124116   1.170   2.549   0.785
 7739SOL    HW224117   1.148   2.453   0.655
 7740SOL     OW24118   0.053   6.833   2.487
 7740SOL    HW124119   0.132   6.796   2.436
 7740SOL    HW224120   0.086   6.891   2.561
 7741SOL     OW24121   1.969   5.504   3.992
 7741SOL    HW124122   2.034   5.541   3.926
 7741SOL    HW224123   2.014   5.433   4.046
 7742SOL     OW24124   6.255   2.123   3.010
 7742SOL    HW124125   6.267   2.097   2.914
 7742SOL    HW224126   6.315   2.200   3.031
 7743SOL     OW24127   4.346   3.413   5.752
 7743SOL    HW124128   4.344   3.332   5.694
 7743SOL    HW224129   4.280   3.480   5.716
 7744SOL     OW24130   6.516   6.525   3.923
 7744SOL    HW124131   6.476   6.611   3.955
 7744SOL    HW224132   6.577   6.544   3.846
 7745SOL     OW24133   3.855   2.665   5.977
 7745SOL    HW124134   3.811   2.682   6.065
 7745SOL    HW224135   3.823   2.578   5.940
 7746SOL     OW24136   1.868   0.101   0.602
 7746SOL    HW124137   1.784   0.052   0.578
 7746SOL    HW224138   1.947   0.050   0.570
 7747SOL     OW24139   4.971   6.481   0.964
 7747SOL    HW124140   4.876   6.486   0.997
 7747SOL    HW224141   5.005   6.573   0.945
 7748SOL     OW24142   2.587   3.627   6.345
 7748SOL    HW124143   2.576   3.679   6.260
 7748SOL    HW224144   2.537   3.672   6.419
 7749SOL     OW24145   4.734   3.487   5.959
 7749SOL    HW124146   4.765   3.564   6.014
 7749SOL    HW224147   4.656   3.516   5.903
 7750SOL     OW24148   0.651   6.291   1.531
 7750SOL    HW124149   0.645   6.191   1.530
 7750SOL    HW224150   0.559   6.329   1.516
 7751SOL     OW24151   0.930   1.803   1.795
 7751SOL    HW124152   0.906   1.812   1.698
 7751SOL    HW224153   0.924   1.892   1.839
 7752SOL     OW24154   5.053   0.814   4.138
 7752SOL    HW124155   4.986   0.816   4.063
 7752SOL    HW224156   5.005   0.825   4.225
 7753SOL     OW24157   2.285   1.380   4.954
 7753SOL    HW124158   2.260   1.377   5.051
 7753SOL    HW224159   2.217   1.329   4.901
 7754SOL     OW24160   4.063   6.195   1.668
 7754SOL    HW124161   4.099   6.145   1.588
 7754SOL    HW224162   3.972   6.159   1.691
 7755SOL     OW24163   2.228   4.450   6.339
 7755SOL    HW124164   2.160   4.482   6.405
 7755SOL    HW224165   2.253   4.356   6.361
 7756SOL     OW24166   2.403   6.001   1.568
 7756SOL    HW124167   2.325   5.958   1.612
 7756SOL    HW224168   2.482   5.998   1.629
 7757SOL     OW24169   0.577   4.282   3.160
 7757SOL    HW124170   0.481   4.301   3.140
 7757SOL    HW224171   0.587   4.266   3.259
 7758SOL     OW24172   1.315   0.857   5.673
 7758SOL    HW124173   1.262   0.791   5.725
 7758SOL    HW224174   1.255   0.904   5.608
 7759SOL     OW24175   3.018   2.247   6.436
 7759SOL    HW124176   2.932   2.260   6.486
 7759SOL    HW224177   3.025   2.317   6.365
 7760SOL     OW24178   4.244   2.330   1.573
 7760SOL    HW124179   4.267   2.233   1.562
 7760SOL    HW224180   4.328   2.384   1.576
 7761SOL     OW24181   4.770   5.489   4.608
 7761SOL    HW124182   4.682   5.509   4.564
 7761SOL    HW224183   4.761   5.406   4.664
 7762SOL     OW24184   7.024   0.927   3.523
 7762SOL    HW124185   6.974   0.999   3.573
 7762SOL    HW224186   0.047   0.968   3.446
 7763SOL     OW24187   2.774   0.229   4.685
 7763SOL    HW124188   2.763   0.328   4.684
 7763SOL    HW224189   2.868   0.206   4.711
 7764SOL     OW24190   3.283   3.824   5.553
 7764SOL    HW124191   3.313   3.910   5.594
 7764SOL    HW224192   3.281   3.753   5.624
 7765SOL     OW24193   6.523   3.380   4.605
 7765SOL    HW124194   6.618   3.395   4.577
 7765SOL    HW224195   6.512   3.287   4.640
 7766SOL     OW24196   0.614   4.688   0.262
 7766SOL    HW124197   0.630   4.640   0.348
 7766SOL    HW224198   0.516   4.685   0.240
 7767SOL     OW24199   2.859   0.741   2.782
 7767SOL    HW124200   2.935   0.805   2.789
 7767SOL    HW224201   2.831   0.733   2.686
 7768SOL     OW24202   4.233   4.710   3.096
 7768SOL    HW124203   4.312   4.747   3.046
 7768SOL    HW224204   4.215   4.617   3.064
 7769SOL     OW24205   3.466   2.337   5.330
 7769SOL    HW124206   3.395   2.376   5.273
 7769SOL    HW224207   3.549   2.392   5.323
 7770SOL     OW24208   1.191   3.589   4.856
 7770SOL    HW124209   1.113   3.649   4.875
 7770SOL    HW224210   1.167   3.524   4.784
 7771SOL     OW24211   3.187   2.735   6.206
 7771SOL    HW124212   3.230   2.647   6.190
 7771SOL    HW224213   3.132   2.731   6.289
 7772SOL     OW24214   4.835   0.880   1.569
 7772SOL    HW124215   4.878   0.933   1.496
 7772SOL    HW224216   4.866   0.785   1.564
 7773SOL     OW24217   2.559   5.976   0.276
 7773SOL    HW124218   2.614   5.905   0.320
 7773SOL    HW224219   2.501   5.936   0.205
 7774SOL     OW24220   4.719   1.642   2.884
 7774SOL    HW124221   4.754   1.549   2.901
 7774SOL    HW224222   4.727   1.696   2.968
 7775SOL     OW24223   3.287   0.703   0.314
 7775SOL    HW124224   3.261   0.799   0.324
 7775SOL    HW224225   3.339   0.691   0.230
 7776SOL     OW24226   0.966   7.022   5.599
 7776SOL    HW124227   1.006   6.986   5.514
 7776SOL    HW224228   0.966   6.950   5.669
 7777SOL     OW24229   4.953   5.463   3.383
 7777SOL    HW124230   5.022   5.521   3.340
 7777SOL    HW224231   4.978   5.367   3.372
 7778SOL     OW24232   6.230   4.282   3.014
 7778SOL    HW124233   6.316   4.239   2.986
 7778SOL    HW224234   6.248   4.375   3.046
 7779SOL     OW24235   3.235   5.979   1.976
 7779SOL    HW124236   3.216   6.077   1.983
 7779SOL    HW224237   3.273   5.946   2.062
 7780SOL     OW24238   6.589   6.051   5.362
 7780SOL    HW124239   6.591   6.029   5.264
 7780SOL    HW224240   6.553   5.973   5.413
 7781SOL     OW24241   1.592   3.143   0.550
 7781SOL    HW124242   1.597   3.056   0.501
 7781SOL    HW224243   1.537   3.132   0.633
 7782SOL     OW24244   6.269   4.793   3.532
 7782SOL    HW124245   6.223   4.825   3.615
 7782SOL    HW224246   6.265   4.693   3.528
 7783SOL     OW24247   1.274   0.801   5.338
 7783SOL    HW124248   1.306   0.887   5.297
 7783SOL    HW224249   1.174   0.800   5.337
 7784SOL     OW24250   2.458   2.491   2.350
 7784SOL    HW124251   2.450   2.423   2.423
 7784SOL    HW224252   2.553   2.517   2.338
 7785SOL     OW24253   0.990   6.356   2.219
 7785SOL    HW124254   1.044   6.294   2.163
 7785SOL    HW224255   1.052   6.416   2.271
 7786SOL     OW24256   4.336   0.257   6.060
 7786SOL    HW124257   4.272   0.213   6.124
 7786SOL    HW224258   4.424   0.270   6.106
 7787SOL     OW24259   2.832   2.847   1.311
 7787SOL    HW124260   2.866   2.920   1.370
 7787SOL    HW224261   2.763   2.884   1.249
 7788SOL     OW24262   0.608   4.699   1.380
 7788SOL    HW124263   0.655   4.650   1.307
 7788SOL    HW224264   0.512   4.671   1.383
 7789SOL     OW24265   3.335   1.079   6.372
 7789SOL    HW124266   3.329   1.152   6.304
 7789SOL    HW224267   3.278   1.102   6.451
 7790SOL     OW24268   5.626   4.806   2.090
 7790SOL    HW124269   5.724   4.791   2.107
 7790SOL    HW224270   5.572   4.754   2.156
 7791SOL     OW24271   2.358   5.404   2.251
 7791SOL    HW124272   2.297   5.327   2.270
 7791SOL    HW224273   2.450   5.370   2.233
 7792SOL     OW24274   1.179   1.689   2.275
 7792SOL    HW124275   1.195   1.649   2.184
 7792SOL    HW224276   1.118   1.768   2.267
 7793SOL     OW24277   4.357   1.315   7.004
 7793SOL    HW124278   4.415   1.251   0.029
 7793SOL    HW224279   4.389   1.408   7.020
 7794SOL     OW24280   0.782   5.657   2.674
 7794SOL    HW124281   0.869   5.688   2.712
 7794SOL    HW224282   0.707   5.710   2.715
 7795SOL     OW24283   3.295   5.282   6.259
 7795SOL    HW124284   3.306   5.194   6.212
 7795SOL    HW224285   3.279   5.354   6.192
 7796SOL     OW24286   3.163   3.036   6.250
 7796SOL    HW124287   3.139   3.071   6.160
 7796SOL    HW224288   3.126   2.944   6.262
 7797SOL     OW24289   1.304   6.287   3.075
 7797SOL    HW124290   1.344   6.378   3.086
 7797SOL    HW224291   1.206   6.291   3.096
 7798SOL     OW24292   0.916   2.170   0.879
 7798SOL    HW124293   0.988   2.191   0.814
 7798SOL    HW224294   0.855   2.100   0.842
 7799SOL     OW24295   2.472   6.319   3.416
 7799SOL    HW124296   2.511   6.285   3.331
 7799SOL    HW224297   2.383   6.277   3.431
 7800SOL     OW24298   0.170   6.460   1.171
 7800SOL    HW124299   0.234   6.383   1.179
 7800SOL    HW224300   0.095   6.435   1.109
 7801SOL     OW24301   1.890   2.589   2.532
 7801SOL    HW124302   1.955   2.639   2.475
 7801SOL    HW224303   1.849   2.652   2.599
 7802SOL     OW24304   6.870   3.881   5.296
 7802SOL    HW124305   6.874   3.941   5.216
 7802SOL    HW224306   6.810   3.920   5.365
 7803SOL     OW24307   4.783   2.119   5.278
 7803SOL    HW124308   4.880   2.142   5.289
 7803SOL    HW224309   4.771   2.058   5.199
 7804SOL     OW24310   2.593   2.061   5.028
 7804SOL    HW124311   2.665   2.033   4.964
 7804SOL    HW224312   2.521   2.109   4.978
 7805SOL     OW24313   5.523   3.020   1.237
 7805SOL    HW124314   5.468   3.033   1.154
 7805SOL    HW224315   5.468   2.973   1.306
 7806SOL     OW24316   6.768   2.006   5.633
 7806SOL    HW124317   6.751   1.988   5.730
 7806SOL    HW224318   6.832   1.939   5.597
 7807SOL     OW24319   2.226   5.314   5.891
 7807SOL    HW124320   2.163   5.286   5.819
 7807SOL    HW224321   2.301   5.367   5.850
 7808SOL     OW24322   5.559   4.115   2.834
 7808SOL    HW124323   5.561   4.187   2.903
 7808SOL    HW224324   5.646   4.114   2.785
 7809SOL     OW24325   4.693   5.407   3.718
 7809SOL    HW124326   4.642   5.363   3.644
 7809SOL    HW224327   4.631   5.460   3.775
 7810SOL     OW24328   4.053   6.450   5.414
 7810SOL    HW124329   4.142   6.419   5.446
 7810SOL    HW224330   4.063   6.494   5.325
 7811SOL     OW24331   1.373   5.785   2.502
 7811SOL    HW124332   1.388   5.854   2.573
 7811SOL    HW224333   1.400   5.823   2.413
 7812SOL     OW24334   2.524   2.930   5.598
 7812SOL    HW124335   2.522   2.836   5.633
 7812SOL    HW224336   2.463   2.938   5.519
 7813SOL     OW24337   5.721   1.581   0.853
 7813SOL    HW124338   5.736   1.547   0.946
 7813SOL    HW224339   5.789   1.652   0.832
 7814SOL     OW24340   0.096   3.263   2.322
 7814SOL    HW124341   0.169   3.248   2.388
 7814SOL    HW224342   0.134   3.269   2.230
 7815SOL     OW24343   6.136   2.842   5.528
 7815SOL    HW124344   6.222   2.800   5.557
 7815SOL    HW224345   6.105   2.800   5.442
 7816SOL     OW24346   0.334   1.508   4.987
 7816SOL    HW124347   0.295   1.503   5.079
 7816SOL    HW224348   0.369   1.600   4.971
 7817SOL     OW24349   2.828   2.938   6.383
 7817SOL    HW124350   2.778   2.890   6.311
 7817SOL    HW224351   2.765   2.960   6.458
 7818SOL     OW24352   5.487   1.198   2.268
 7818SOL    HW124353   5.564   1.259   2.250
 7818SOL    HW224354   5.521   1.111   2.303
 7819SOL     OW24355   1.115   3.732   3.942
 7819SOL    HW124356   1.201   3.783   3.939
 7819SOL    HW224357   1.128   3.647   3.993
 7820SOL     OW24358   1.551   0.421   5.699
 7820SOL    HW124359   1.643   0.410   5.661
 7820SOL    HW224360   1.490   0.352   5.660
 7821SOL     OW24361   6.078   5.435   6.747
 7821SOL    HW124362   6.048   5.348   6.785
 7821SOL    HW224363   6.169   5.457   6.781
 7822SOL     OW24364   1.118   0.977   4.748
 7822SOL    HW124365   1.072   1.057   4.709
 7822SOL    HW224366   1.095   0.970   4.845
 7823SOL     OW24367   1.628   4.321   0.004
 7823SOL    HW124368   1.649   4.396   0.067
 7823SOL    HW224369   1.708   4.261   7.020
 7824SOL     OW24370   5.133   2.594   2.283
 7824SOL    HW124371   5.106   2.566   2.191
 7824SOL    HW224372   5.156   2.691   2.283
 7825SOL     OW24373   3.320   3.221   1.686
 7825SOL    HW124374   3.401   3.280   1.688
 7825SOL    HW224375   3.346   3.130   1.654
 7826SOL     OW24376   6.485   0.841   0.274
 7826SOL    HW124377   6.473   0.911   0.344
 7826SOL    HW224378   6.573   0.795   0.288
 7827SOL     OW24379   5.429   5.229   1.270
 7827SOL    HW124380   5.466   5.161   1.207
 7827SOL    HW224381   5.337   5.201   1.299
 7828SOL     OW24382   0.598   6.217   1.035
 7828SOL    HW124383   0.679   6.240   0.981
 7828SOL    HW224384   0.612   6.128   1.078
 7829SOL     OW24385   3.428   2.995   1.562
 7829SOL    HW124386   3.424   2.911   1.615
 7829SOL    HW224387   3.425   2.973   1.465
 7830SOL     OW24388   6.190   3.174   0.020
 7830SOL    HW124389   6.194   3.220   0.109
 7830SOL    HW224390   6.105   3.198   6.999
 7831SOL     OW24391   1.359   3.311   0.468
 7831SOL    HW124392   1.370   3.343   0.373
 7831SOL    HW224393   1.445   3.271   0.499
 7832SOL     OW24394   2.289   2.269   5.222
 7832SOL    HW124395   2.240   2.316   5.296
 7832SOL    HW224396   2.371   2.226   5.258
 7833SOL     OW24397   0.809   6.866   0.469
 7833SOL    HW124398   0.877   6.794   0.484
 7833SOL    HW224399   0.811   6.893   0.373
 7834SOL     OW24400   1.164   0.771   1.423
 7834SOL    HW124401   1.074   0.814   1.430
 7834SOL    HW224402   1.234   0.832   1.460
 7835SOL     OW24403   2.195   3.025   4.839
 7835SOL    HW124404   2.161   3.116   4.865
 7835SOL    HW224405   2.265   2.996   4.904
 7836SOL     OW24406   2.667   6.646   6.880
 7836SOL    HW124407   2.717   6.658   6.794
 7836SOL    HW224408   2.712   6.577   6.936
 7837SOL     OW24409   6.177   6.558   3.195
 7837SOL    HW124410   6.180   6.566   3.095
 7837SOL    HW224411   6.185   6.462   3.221
 7838SOL     OW24412   4.227   6.535   4.914
 7838SOL    HW124413   4.286   6.605   4.873
 7838SOL    HW224414   4.250   6.445   4.876
 7839SOL     OW24415   6.049   4.942   4.538
 7839SOL    HW124416   6.044   5.034   4.578
 7839SOL    HW224417   6.004   4.877   4.598
 7840SOL     OW24418   5.273   2.906   4.056
 7840SOL    HW124419   5.241   2.850   4.133
 7840SOL    HW224420   5.227   2.995   4.058
 7841SOL     OW24421   0.287   1.400   6.323
 7841SOL    HW124422   0.194   1.430   6.343
 7841SOL    HW224423   0.286   1.335   6.247
 7842SOL     OW24424   2.012   1.479   2.772
 7842SOL    HW124425   2.108   1.487   2.748
 7842SOL    HW224426   1.963   1.561   2.744
 7843SOL     OW24427   5.616   3.802   0.928
 7843SOL    HW124428   5.699   3.779   0.978
 7843SOL    HW224429   5.577   3.718   0.888
 7844SOL     OW24430   3.956   0.679   3.168
 7844SOL    HW124431   4.042   0.683   3.118
 7844SOL    HW224432   3.884   0.725   3.116
 7845SOL     OW24433   6.499   1.386   4.405
 7845SOL    HW124434   6.530   1.301   4.448
 7845SOL    HW224435   6.522   1.384   4.307
 7846SOL     OW24436   2.881   0.025   1.896
 7846SOL    HW124437   2.815   0.088   1.936
 7846SOL    HW224438   2.889   0.043   1.798
 7847SOL     OW24439   6.634   0.492   0.448
 7847SOL    HW124440   6.663   0.578   0.405
 7847SOL    HW224441   6.715   0.438   0.470
 7848SOL     OW24442   4.423   3.754   1.705
 7848SOL    HW124443   4.339   3.809   1.707
 7848SOL    HW224444   4.503   3.814   1.703
 7849SOL     OW24445   5.975   3.103   4.676
 7849SOL    HW124446   5.930   3.158   4.605
 7849SOL    HW224447   6.024   3.027   4.633
 7850SOL     OW24448   0.386   0.995   5.545
 7850SOL    HW124449   0.428   1.080   5.510
 7850SOL    HW224450   0.291   0.991   5.515
 7851SOL     OW24451   5.948   0.072   0.334
 7851SOL    HW124452   5.983   0.104   0.422
 7851SOL    HW224453   5.885   0.140   0.296
 7852SOL     OW24454   2.805   6.444   6.991
 7852SOL    HW124455   2.896   6.405   6.978
 7852SOL    HW224456   2.784   6.448   0.063
 7853SOL     OW24457   2.863   2.700   0.299
 7853SOL    HW124458   2.867   2.753   0.215
 7853SOL    HW224459   2.768   2.692   0.330
 7854SOL     OW24460   3.471   3.735   1.945
 7854SOL    HW124461   3.522   3.654   1.975
 7854SOL    HW224462   3.487   3.810   2.010
 7855SOL     OW24463   4.609   5.632   6.799
 7855SOL    HW124464   4.542   5.598   6.865
 7855SOL    HW224465   4.564   5.696   6.737
 7856SOL     OW24466   5.656   3.708   5.295
 7856SOL    HW124467   5.585   3.639   5.301
 7856SOL    HW224468   5.718   3.686   5.220
 7857SOL     OW24469   6.189   1.490   5.881
 7857SOL    HW124470   6.108   1.511   5.826
 7857SOL    HW224471   6.222   1.573   5.925
 7858SOL     OW24472   6.076   4.247   3.294
 7858SOL    HW124473   6.057   4.154   3.325
 7858SOL    HW224474   6.067   4.251   3.194
 7859SOL     OW24475   0.802   4.999   5.859
 7859SOL    HW124476   0.782   4.922   5.798
 7859SOL    HW224477   0.744   4.992   5.940
 7860SOL     OW24478   4.105   6.831   1.424
 7860SOL    HW124479   4.038   6.852   1.495
 7860SOL    HW224480   4.062   6.840   1.334
 7861SOL     OW24481   4.213   5.140   0.844
 7861SOL    HW124482   4.247   5.181   0.928
 7861SOL    HW224483   4.167   5.054   0.865
 7862SOL     OW24484   2.841   4.122   1.498
 7862SOL    HW124485   2.889   4.178   1.566
 7862SOL    HW224486   2.752   4.163   1.478
 7863SOL     OW24487   6.434   5.996   2.163
 7863SOL    HW124488   6.432   5.970   2.259
 7863SOL    HW224489   6.496   5.935   2.113
 7864SOL     OW24490   0.747   5.491   4.368
 7864SOL    HW124491   0.781   5.576   4.408
 7864SOL    HW224492   0.754   5.495   4.269
 7865SOL     OW24493   3.667   6.554   3.372
 7865SOL    HW124494   3.583   6.547   3.425
 7865SOL    HW224495   3.744   6.567   3.435
 7866SOL     OW24496   2.765   2.072   3.622
 7866SOL    HW124497   2.717   2.159   3.630
 7866SOL    HW224498   2.820   2.071   3.538
 7867SOL     OW24499   6.296   4.923   1.687
 7867SOL    HW124500   6.312   4.991   1.615
 7867SOL    HW224501   6.242   4.964   1.760
 7868SOL     OW24502   5.331   6.473   0.675
 7868SOL    HW124503   5.265   6.547   0.690
 7868SOL    HW224504   5.307   6.396   0.734
 7869SOL     OW24505   0.577   2.999   1.690
 7869SOL    HW124506   0.527   2.924   1.734
 7869SOL    HW224507   0.675   2.979   1.691
 7870SOL     OW24508   6.696   4.840   3.904
 7870SOL    HW124509   6.608   4.793   3.910
 7870SOL    HW224510   6.764   4.792   3.960
 7871SOL     OW24511   5.389   3.220   3.202
 7871SOL    HW124512   5.452   3.144   3.185
 7871SOL    HW224513   5.295   3.186   3.201
 7872SOL     OW24514   6.907   3.641   2.766
 7872SOL    HW124515   6.854   3.704   2.708
 7872SOL    HW224516   6.881   3.547   2.744
 7873SOL     OW24517   0.407   5.815   5.584
 7873SOL    HW124518   0.356   5.787   5.503
 7873SOL    HW224519   0.498   5.775   5.582
 7874SOL     OW24520   6.074   1.705   0.047
 7874SOL    HW124521   6.059   1.680   0.143
 7874SOL    HW224522   6.005   1.771   0.019
 7875SOL     OW24523   4.461   3.418   6.363
 7875SOL    HW124524   4.393   3.427   6.290
 7875SOL    HW224525   4.421   3.446   6.450
 7876SOL     OW24526   6.857   0.391   3.524
 7876SOL    HW124527   6.781   0.344   3.568
 7876SOL    HW224528   6.855   0.488   3.547
 7877SOL     OW24529   6.820   2.412   2.904
 7877SOL    HW124530   6.815   2.417   2.804
 7877SOL    HW224531   6.898   2.466   2.936
 7878SOL     OW24532   4.573   4.424   2.682
 7878SOL    HW124533   4.660   4.459   2.648
 7878SOL    HW224534   4.503   4.495   2.673
 7879SOL     OW24535   4.754   6.902   3.821
 7879SOL    HW124536   4.766   6.868   3.728
 7879SOL    HW224537   4.698   6.838   3.873
 7880SOL     OW24538   0.126   6.721   6.345
 7880SOL    HW124539   0.104   6.624   6.345
 7880SOL    HW224540   0.186   6.742   6.422
 7881SOL     OW24541   0.105   3.912   5.103
 7881SOL    HW124542   0.050   3.829   5.096
 7881SOL    HW224543   0.079   3.963   5.185
 7882SOL     OW24544   0.298   3.337   2.840
 7882SOL    HW124545   0.255   3.427   2.831
 7882SOL    HW224546   0.389   3.347   2.881
 7883SOL     OW24547   2.684   1.205   2.947
 7883SOL    HW124548   2.650   1.180   3.038
 7883SOL    HW224549   2.657   1.299   2.927
 7884SOL     OW24550   1.740   4.260   3.652
 7884SOL    HW124551   1.671   4.332   3.650
 7884SOL    HW224552   1.723   4.199   3.729
 7885SOL     OW24553   6.259   5.702   2.812
 7885SOL    HW124554   6.315   5.620   2.812
 7885SOL    HW224555   6.246   5.734   2.906
 7886SOL     OW24556   4.655   2.757   1.965
 7886SOL    HW124557   4.677   2.758   2.062
 7886SOL    HW224558   4.650   2.851   1.931
 7887SOL     OW24559   3.919   3.238   0.519
 7887SOL    HW124560   4.014   3.232   0.547
 7887SOL    HW224561   3.896   3.333   0.500
 7888SOL     OW24562   5.762   1.387   4.009
 7888SOL    HW124563   5.786   1.462   3.948
 7888SOL    HW224564   5.830   1.314   4.001
 7889SOL     OW24565   5.903   4.813   0.890
 7889SOL    HW124566   5.919   4.908   0.863
 7889SOL    HW224567   5.947   4.795   0.978
 7890SOL     OW24568   1.076   3.076   4.219
 7890SOL    HW124569   1.167   3.061   4.259
 7890SOL    HW224570   1.014   3.006   4.254
 7891SOL     OW24571   0.108   2.126   4.105
 7891SOL    HW124572   0.154   2.039   4.125
 7891SOL    HW224573   0.043   2.113   4.030
 7892SOL     OW24574   1.407   3.457   6.107
 7892SOL    HW124575   1.464   3.401   6.167
 7892SOL    HW224576   1.322   3.409   6.089
 7893SOL     OW24577   6.130   0.783   1.968
 7893SOL    HW124578   6.127   0.860   2.032
 7893SOL    HW224579   6.037   0.762   1.938
 7894SOL     OW24580   2.531   1.099   5.727
 7894SOL    HW124581   2.540   1.035   5.803
 7894SOL    HW224582   2.574   1.186   5.751
 7895SOL     OW24583   3.551   5.989   3.327
 7895SOL    HW124584   3.573   6.060   3.260
 7895SOL    HW224585   3.553   5.900   3.282
 7896SOL     OW24586   4.368   2.578   1.294
 7896SOL    HW124587   4.394   2.507   1.360
 7896SOL    HW224588   4.357   2.665   1.342
 7897SOL     OW24589   4.091   4.243   6.918
 7897SOL    HW124590   4.062   4.168   6.977
 7897SOL    HW224591   4.187   4.229   6.892
 7898SOL     OW24592   5.051   0.604   4.345
 7898SOL    HW124593   5.112   0.616   4.267
 7898SOL    HW224594   5.084   0.660   4.421
 7899SOL     OW24595   5.246   4.862   1.388
 7899SOL    HW124596   5.305   4.849   1.468
 7899SOL    HW224597   5.154   4.888   1.418
 7900SOL     OW24598   0.717   3.680   0.323
 7900SOL    HW124599   0.741   3.612   0.392
 7900SOL    HW224600   0.619   3.699   0.328
 7901SOL     OW24601   5.402   1.129   6.029
 7901SOL    HW124602   5.373   1.224   6.016
 7901SOL    HW224603   5.402   1.081   5.941
 7902SOL     OW24604   0.399   6.160   2.627
 7902SOL    HW124605   0.320   6.198   2.675
 7902SOL    HW224606   0.479   6.164   2.687
 7903SOL     OW24607   2.062   1.692   4.794
 7903SOL    HW124608   2.113   1.778   4.790
 7903SOL    HW224609   2.114   1.620   4.749
 7904SOL     OW24610   5.865   0.634   2.458
 7904SOL    HW124611   5.904   0.686   2.534
 7904SOL    HW224612   5.924   0.643   2.377
 7905SOL     OW24613   5.729   0.643   0.064
 7905SOL    HW124614   5.632   0.665   0.064
 7905SOL    HW224615   5.749   0.580   7.014
 7906SOL     OW24616   1.303   5.189   0.878
 7906SOL    HW124617   1.392   5.163   0.841
 7906SOL    HW224618   1.234   5.186   0.805
 7907SOL     OW24619   6.282   0.190   3.235
 7907SOL    HW124620   6.273   0.091   3.243
 7907SOL    HW224621   6.360   0.211   3.176
 7908SOL     OW24622   0.574   0.254   6.649
 7908SOL    HW124623   0.492   0.266   6.705
 7908SOL    HW224624   0.554   0.279   6.555
 7909SOL     OW24625   5.713   3.641   2.433
 7909SOL    HW124626   5.719   3.732   2.472
 7909SOL    HW224627   5.782   3.630   2.362
 7910SOL     OW24628   1.908   3.657   0.873
 7910SOL    HW124629   1.972   3.701   0.936
 7910SOL    HW224630   1.903   3.710   0.788
 7911SOL     OW24631   1.325   4.281   0.603
 7911SOL    HW124632   1.405   4.341   0.610
 7911SOL    HW224633   1.310   4.257   0.508
 7912SOL     OW24634   5.676   5.475   0.219
 7912SOL    HW124635   5.605   5.407   0.235
 7912SOL    HW224636   5.757   5.431   0.179
 7913SOL     OW24637   0.527   3.589   0.726
 7913SOL    HW124638   0.517   3.680   0.686
 7913SOL    HW224639   0.472   3.583   0.809
 7914SOL     OW24640   6.277   5.475   4.913
 7914SOL    HW124641   6.342   5.548   4.893
 7914SOL    HW224642   6.267   5.417   4.831
 7915SOL     OW24643   3.387   6.882   2.750
 7915SOL    HW124644   3.458   6.901   2.682
 7915SOL    HW224645   3.339   6.798   2.726
 7916SOL     OW24646   1.184   0.462   4.729
 7916SOL    HW124647   1.144   0.541   4.681
 7916SOL    HW224648   1.172   0.474   4.828
 7917SOL     OW24649   3.888   3.062   0.347
 7917SOL    HW124650   3.881   3.125   0.424
 7917SOL    HW224651   3.876   3.113   0.261
 7918SOL     OW24652   2.275   0.869   4.703
 7918SOL    HW124653   2.285   0.792   4.766
 7918SOL    HW224654   2.289   0.954   4.752
 7919SOL     OW24655   0.870   5.117   2.947
 7919SOL    HW124656   0.893   5.019   2.941
 7919SOL    HW224657   0.897   5.152   3.037
 7920SOL     OW24658   4.197   0.622   1.052
 7920SOL    HW124659   4.220   0.685   1.126
 7920SOL    HW224660   4.134   0.666   0.988
 7921SOL     OW24661   5.082   1.371   1.543
 7921SOL    HW124662   4.988   1.394   1.568
 7921SOL    HW224663   5.093   1.380   1.444
 7922SOL     OW24664   0.618   5.786   0.331
 7922SOL    HW124665   0.657   5.697   0.353
 7922SOL    HW224666   0.565   5.780   0.246
 7923SOL     OW24667   3.487   1.282   6.855
 7923SOL    HW124668   3.550   1.301   6.930
 7923SOL    HW224669   3.455   1.188   6.861
 7924SOL     OW24670   6.042   6.803   1.404
 7924SOL    HW124671   6.131   6.804   1.358
 7924SOL    HW224672   6.055   6.813   1.503
 7925SOL     OW24673   2.667   6.379   0.962
 7925SOL    HW124674   2.647   6.476   0.973
 7925SOL    HW224675   2.693   6.360   0.868
 7926SOL     OW24676   5.132   6.803   6.397
 7926SOL    HW124677   5.048   6.856   6.397
 7926SOL    HW224678   5.159   6.781   6.303
 7927SOL     OW24679   5.184   0.035   2.495
 7927SOL    HW124680   5.098   0.002   2.533
 7927SOL    HW224681   5.200   0.129   2.526
 7928SOL     OW24682   6.293   1.091   3.413
 7928SOL    HW124683   6.358   1.043   3.472
 7928SOL    HW224684   6.231   1.024   3.371
 7929SOL     OW24685   4.376   3.691   6.014
 7929SOL    HW124686   4.416   3.662   5.927
 7929SOL    HW224687   4.355   3.610   6.069
 7930SOL     OW24688   4.051   5.939   5.651
 7930SOL    HW124689   3.988   5.934   5.574
 7930SOL    HW224690   4.056   6.033   5.684
 7931SOL     OW24691   2.943   2.208   0.740
 7931SOL    HW124692   2.969   2.112   0.739
 7931SOL    HW224693   3.017   2.263   0.701
 7932SOL     OW24694   6.850   5.359   1.402
 7932SOL    HW124695   6.899   5.414   1.335
 7932SOL    HW224696   6.751   5.370   1.389
 7933SOL     OW24697   6.840   1.255   6.100
 7933SOL    HW124698   6.774   1.306   6.156
 7933SOL    HW224699   6.825   1.278   6.003
 7934SOL     OW24700   1.322   4.406   0.963
 7934SOL    HW124701   1.349   4.323   0.913
 7934SOL    HW224702   1.245   4.449   0.917
 7935SOL     OW24703   5.757   3.901   2.498
 7935SOL    HW124704   5.789   3.935   2.410
 7935SOL    HW224705   5.763   3.974   2.566
 7936SOL     OW24706   3.409   6.406   4.334
 7936SOL    HW124707   3.463   6.364   4.261
 7936SOL    HW224708   3.313   6.382   4.322
 7937SOL     OW24709   2.659   5.839   5.848
 7937SOL    HW124710   2.737   5.888   5.886
 7937SOL    HW224711   2.583   5.902   5.834
 7938SOL     OW24712   4.400   6.717   4.833
 7938SOL    HW124713   4.467   6.648   4.804
 7938SOL    HW224714   4.397   6.790   4.765
 7939SOL     OW24715   0.439   1.738   4.852
 7939SOL    HW124716   0.521   1.734   4.796
 7939SOL    HW224717   0.401   1.830   4.851
 7940SOL     OW24718   5.016   1.485   2.909
 7940SOL    HW124719   4.970   1.534   2.983
 7940SOL    HW224720   5.097   1.439   2.945
 7941SOL     OW24721   3.969   6.880   1.645
 7941SOL    HW124722   3.929   6.795   1.681
 7941SOL    HW224723   4.025   6.923   1.716
 7942SOL     OW24724   0.661   3.435   1.513
 7942SOL    HW124725   0.616   3.402   1.596
 7942SOL    HW224726   0.745   3.483   1.537
 7943SOL     OW24727   2.515   5.433   6.107
 7943SOL    HW124728   2.586   5.383   6.158
 7943SOL    HW224729   2.558   5.487   6.034
 7944SOL     OW24730   0.760   2.607   1.539
 7944SOL    HW124731   0.781   2.695   1.581
 7944SOL    HW224732   0.704   2.552   1.601
 7945SOL     OW24733   5.687   5.385   2.348
 7945SOL    HW124734   5.633   5.307   2.379
 7945SOL    HW224735   5.647   5.470   2.382
 7946SOL     OW24736   3.772   1.168   5.832
 7946SOL    HW124737   3.790   1.209   5.743
 7946SOL    HW224738   3.728   1.235   5.891
 7947SOL     OW24739   1.273   3.034   5.093
 7947SOL    HW124740   1.212   2.974   5.144
 7947SOL    HW224741   1.360   2.987   5.075
 7948SOL     OW24742   1.629   4.981   2.412
 7948SOL    HW124743   1.718   4.987   2.366
 7948SOL    HW224744   1.638   5.014   2.506
 7949SOL     OW24745   4.351   4.905   6.321
 7949SOL    HW124746   4.438   4.911   6.368
 7949SOL    HW224747   4.294   4.834   6.364
 7950SOL     OW24748   6.020   5.222   5.644
 7950SOL    HW124749   5.967   5.293   5.598
 7950SOL    HW224750   6.117   5.245   5.640
 7951SOL     OW24751   3.035   5.529   2.552
 7951SOL    HW124752   2.939   5.506   2.568
 7951SOL    HW224753   3.071   5.474   2.477
 7952SOL     OW24754   5.377   3.291   0.202
 7952SOL    HW124755   5.407   3.333   0.288
 7952SOL    HW224756   5.308   3.350   0.159
 7953SOL     OW24757   3.835   1.878   0.669
 7953SOL    HW124758   3.866   1.827   0.750
 7953SOL    HW224759   3.914   1.921   0.625
 7954SOL     OW24760   3.665   2.873   0.144
 7954SOL    HW124761   3.678   2.876   0.243
 7954SOL    HW224762   3.595   2.805   0.122
 7955SOL     OW24763   1.656   1.630   6.549
 7955SOL    HW124764   1.692   1.552   6.599
 7955SOL    HW224765   1.566   1.655   6.586
 7956SOL     OW24766   6.616   0.598   1.604
 7956SOL    HW124767   6.673   0.629   1.680
 7956SOL    HW224768   6.603   0.672   1.539
 7957SOL     OW24769   4.862   0.454   5.276
 7957SOL    HW124770   4.911   0.514   5.212
 7957SOL    HW224771   4.783   0.504   5.314
 7958SOL     OW24772   5.704   3.524   6.782
 7958SOL    HW124773   5.708   3.510   6.683
 7958SOL    HW224774   5.700   3.622   6.801
 7959SOL     OW24775   4.852   1.037   6.044
 7959SOL    HW124776   4.808   0.948   6.032
 7959SOL    HW224777   4.937   1.040   5.991
 7960SOL     OW24778   6.908   0.928   6.838
 7960SOL    HW124779   6.920   0.976   6.925
 7960SOL    HW224780   6.921   0.992   6.762
 7961SOL     OW24781   6.620   0.089   6.898
 7961SOL    HW124782   6.523   0.070   6.912
 7961SOL    HW224783   6.645   0.171   6.949
 7962SOL     OW24784   6.633   6.887   5.742
 7962SOL    HW124785   6.638   6.849   5.650
 7962SOL    HW224786   6.539   6.878   5.776
 7963SOL     OW24787   6.466   4.771   4.394
 7963SOL    HW124788   6.398   4.785   4.322
 7963SOL    HW224789   6.543   4.718   4.358
 7964SOL     OW24790   6.390   3.467   1.947
 7964SOL    HW124791   6.419   3.554   1.907
 7964SOL    HW224792   6.340   3.485   2.032
 7965SOL     OW24793   4.089   1.828   7.004
 7965SOL    HW124794   4.061   1.911   0.026
 7965SOL    HW224795   4.020   1.804   6.935
 7966SOL     OW24796   3.933   4.366   5.250
 7966SOL    HW124797   3.876   4.306   5.194
 7966SOL    HW224798   4.028   4.360   5.221
 7967SOL     OW24799   1.550   5.111   2.018
 7967SOL    HW124800   1.612   5.033   2.022
 7967SOL    HW224801   1.545   5.154   2.108
 7968SOL     OW24802   6.592   1.950   4.392
 7968SOL    HW124803   6.632   1.944   4.300
 7968SOL    HW224804   6.611   2.040   4.431
 7969SOL     OW24805   4.516   5.944   7.005
 7969SOL    HW124806   4.602   5.898   6.980
 7969SOL    HW224807   4.475   5.898   0.058
 7970SOL     OW24808   6.459   2.940   2.776
 7970SOL    HW124809   6.384   2.899   2.725
 7970SOL    HW224810   6.429   3.027   2.815
 7971SOL     OW24811   3.215   1.169   1.204
 7971SOL    HW124812   3.283   1.241   1.192
 7971SOL    HW224813   3.242   1.088   1.151
 7972SOL     OW24814   3.715   3.033   2.788
 7972SOL    HW124815   3.750   3.052   2.880
 7972SOL    HW224816   3.647   2.960   2.792
 7973SOL     OW24817   6.308   3.849   3.041
 7973SOL    HW124818   6.272   3.891   3.125
 7973SOL    HW224819   6.233   3.841   2.974
 7974SOL     OW24820   6.247   1.227   5.452
 7974SOL    HW124821   6.184   1.233   5.530
 7974SOL    HW224822   6.302   1.311   5.448
 7975SOL     OW24823   5.099   1.804   0.490
 7975SOL    HW124824   5.199   1.803   0.492
 7975SOL    HW224825   5.065   1.877   0.549
 7976SOL     OW24826   1.137   6.990   0.397
 7976SOL    HW124827   1.059   6.946   0.351
 7976SOL    HW224828   1.106   0.049   0.440
 7977SOL     OW24829   5.674   6.229   3.245
 7977SOL    HW124830   5.705   6.225   3.340
 7977SOL    HW224831   5.754   6.237   3.185
 7978SOL     OW24832   0.159   4.409   1.089
 7978SOL    HW124833   0.087   4.392   1.156
 7978SOL    HW224834   0.243   4.436   1.137
 7979SOL     OW24835   1.676   3.587   4.611
 7979SOL    HW124836   1.594   3.615   4.661
 7979SOL    HW224837   1.696   3.653   4.539
 7980SOL     OW24838   3.593   4.729   5.838
 7980SOL    HW124839   3.640   4.677   5.767
 7980SOL    HW224840   3.516   4.778   5.798
 7981SOL     OW24841   1.904   5.149   3.169
 7981SOL    HW124842   1.809   5.118   3.162
 7981SOL    HW224843   1.957   5.080   3.219
 7982SOL     OW24844   1.255   1.994   6.327
 7982SOL    HW124845   1.189   1.998   6.252
 7982SOL    HW224846   1.346   1.974   6.290
 7983SOL     OW24847   4.996   1.220   0.767
 7983SOL    HW124848   4.993   1.158   0.688
 7983SOL    HW224849   4.979   1.314   0.736
 7984SOL     OW24850   0.967   1.547   1.929
 7984SOL    HW124851   0.993   1.483   1.857
 7984SOL    HW224852   0.946   1.636   1.889
 7985SOL     OW24853   2.111   2.369   5.394
 7985SOL    HW124854   2.103   2.442   5.327
 7985SOL    HW224855   2.091   2.405   5.485
 7986SOL     OW24856   3.434   1.148   4.125
 7986SOL    HW124857   3.439   1.217   4.197
 7986SOL    HW224858   3.521   1.147   4.074
 7987SOL     OW24859   1.267   3.567   0.810
 7987SOL    HW124860   1.171   3.542   0.819
 7987SOL    HW224861   1.323   3.506   0.865
 7988SOL     OW24862   0.351   1.353   1.733
 7988SOL    HW124863   0.414   1.308   1.669
 7988SOL    HW224864   0.355   1.307   1.822
 7989SOL     OW24865   1.096   4.049   0.380
 7989SOL    HW124866   1.017   4.003   0.421
 7989SOL    HW224867   1.178   3.993   0.393
 7990SOL     OW24868   2.672   6.043   5.161
 7990SOL    HW124869   2.598   5.986   5.196
 7990SOL    HW224870   2.661   6.137   5.192
 7991SOL     OW24871   5.101   1.476   5.191
 7991SOL    HW124872   5.186   1.518   5.161
 7991SOL    HW224873   5.049   1.444   5.111
 7992SOL     OW24874   2.375   0.658   0.450
 7992SOL    HW124875   2.405   0.735   0.394
 7992SOL    HW224876   2.276   0.650   0.445
 7993SOL     OW24877   6.846   6.799   1.461
 7993SOL    HW124878   6.772   6.782   1.526
 7993SOL    HW224879   6.908   6.720   1.460
 7994SOL     OW24880   5.239   0.759   2.869
 7994SOL    HW124881   5.174   0.692   2.832
 7994SOL    HW224882   5.270   0.819   2.795
 7995SOL     OW24883   0.418   4.426   1.728
 7995SOL    HW124884   0.349   4.481   1.774
 7995SOL    HW224885   0.387   4.331   1.722
 7996SOL     OW24886   3.696   6.770   3.210
 7996SOL    HW124887   3.670   6.703   3.279
 7996SOL    HW224888   3.796   6.771   3.200
 7997SOL     OW24889   0.912   2.056   6.775
 7997SOL    HW124890   0.919   1.964   6.738
 7997SOL    HW224891   0.951   2.122   6.710
 7998SOL     OW24892   2.674   0.681   0.361
 7998SOL    HW124893   2.659   0.637   0.449
 7998SOL    HW224894   2.613   0.640   0.293
 7999SOL     OW24895   1.291   1.693   5.506
 7999SOL    HW124896   1.288   1.593   5.513
 7999SOL    HW224897   1.354   1.729   5.576
 8000SOL     OW24898   5.593   6.177   6.392
 8000SOL    HW124899   5.566   6.140   6.303
 8000SOL    HW224900   5.560   6.117   6.465
 8001SOL     OW24901   5.002   0.456   1.343
 8001SOL    HW124902   4.943   0.381   1.374
 8001SOL    HW224903   4.980   0.480   1.249
 8002SOL     OW24904   0.544   0.655   5.905
 8002SOL    HW124905   0.504   0.660   5.997
 8002SOL    HW224906   0.497   0.718   5.844
 8003SOL     OW24907   2.240   6.692   2.673
 8003SOL    HW124908   2.273   6.688   2.578
 8003SOL    HW224909   2.156   6.745   2.676
 8004SOL     OW24910   0.902   2.779   4.019
 8004SOL    HW124911   0.896   2.799   4.117
 8004SOL    HW224912   0.909   2.680   4.005
 8005SOL     OW24913   2.344   0.196   3.137
 8005SOL    HW124914   2.248   0.181   3.111
 8005SOL    HW224915   2.386   0.107   3.156
 8006SOL     OW24916   3.714   5.057   4.722
 8006SOL    HW124917   3.734   4.989   4.652
 8006SOL    HW224918   3.625   5.037   4.763
 8007SOL     OW24919   6.260   1.245   6.290
 8007SOL    HW124920   6.233   1.175   6.355
 8007SOL    HW224921   6.213   1.230   6.203
 8008SOL     OW24922   4.215   6.429   0.277
 8008SOL    HW124923   4.178   6.493   0.209
 8008SOL    HW224924   4.181   6.337   0.259
 8009SOL     OW24925   4.667   1.302   0.689
 8009SOL    HW124926   4.569   1.293   0.672
 8009SOL    HW224927   4.691   1.256   0.774
 8010SOL     OW24928   2.541   2.473   5.045
 8010SOL    HW124929   2.517   2.570   5.052
 8010SOL    HW224930   2.612   2.452   5.112
 8011SOL     OW24931   3.438   1.794   1.985
 8011SOL    HW124932   3.425   1.756   2.076
 8011SOL    HW224933   3.535   1.790   1.961
 8012SOL     OW24934   1.025   3.194   5.445
 8012SOL    HW124935   1.017   3.289   5.474
 8012SOL    HW224936   1.093   3.147   5.502
 8013SOL     OW24937   1.489   2.180   3.781
 8013SOL    HW124938   1.545   2.111   3.734
 8013SOL    HW224939   1.549   2.249   3.821
 8014SOL     OW24940   2.152   0.747   3.161
 8014SOL    HW124941   2.133   0.777   3.254
 8014SOL    HW224942   2.173   0.826   3.104
 8015SOL     OW24943   2.197   0.101   5.677
 8015SOL    HW124944   2.120   0.163   5.693
 8015SOL    HW224945   2.252   0.136   5.601
 8016SOL     OW24946   4.441   1.732   5.619
 8016SOL    HW124947   4.474   1.814   5.666
 8016SOL    HW224948   4.351   1.749   5.580
 8017SOL     OW24949   6.919   7.021   0.306
 8017SOL    HW124950   6.900   0.054   0.385
 8017SOL    HW224951   6.856   6.944   0.305
 8018SOL     OW24952   4.097   1.469   0.375
 8018SOL    HW124953   4.161   1.412   0.322
 8018SOL    HW224954   4.112   1.453   0.473
 8019SOL     OW24955   3.455   3.609   1.125
 8019SOL    HW124956   3.389   3.650   1.189
 8019SOL    HW224957   3.411   3.598   1.036
 8020SOL     OW24958   6.556   0.259   5.033
 8020SOL    HW124959   6.566   0.344   5.084
 8020SOL    HW224960   6.465   0.220   5.051
 8021SOL     OW24961   1.668   2.439   2.489
 8021SOL    HW124962   1.743   2.506   2.490
 8021SOL    HW224963   1.581   2.487   2.498
 8022SOL     OW24964   5.479   1.175   1.978
 8022SOL    HW124965   5.477   1.266   1.937
 8022SOL    HW224966   5.476   1.183   2.078
 8023SOL     OW24967   5.327   6.297   3.432
 8023SOL    HW124968   5.305   6.224   3.497
 8023SOL    HW224969   5.263   6.373   3.444
 8024SOL     OW24970   1.805   6.377   6.248
 8024SOL    HW124971   1.732   6.435   6.211
 8024SOL    HW224972   1.852   6.426   6.322
 8025SOL     OW24973   2.090   5.045   1.618
 8025SOL    HW124974   2.081   5.062   1.520
 8025SOL    HW224975   2.027   5.104   1.668
 8026SOL     OW24976   0.585   5.040   6.859
 8026SOL    HW124977   0.511   5.035   6.925
 8026SOL    HW224978   0.571   4.971   6.787
 8027SOL     OW24979   3.918   5.723   6.036
 8027SOL    HW124980   3.966   5.669   6.106
 8027SOL    HW224981   3.893   5.663   5.960
 8028SOL     OW24982   3.223   5.464   4.206
 8028SOL    HW124983   3.191   5.425   4.293
 8028SOL    HW224984   3.193   5.559   4.200
 8029SOL     OW24985   6.286   1.239   1.225
 8029SOL    HW124986   6.234   1.153   1.228
 8029SOL    HW224987   6.287   1.274   1.131
 8030SOL     OW24988   6.372   4.601   1.112
 8030SOL    HW124989   6.433   4.523   1.124
 8030SOL    HW224990   6.356   4.616   1.014
 8031SOL     OW24991   5.942   0.722   3.151
 8031SOL    HW124992   6.017   0.686   3.095
 8031SOL    HW224993   5.897   0.646   3.198
 8032SOL     OW24994   5.727   3.180   1.148
 8032SOL    HW124995   5.730   3.270   1.191
 8032SOL    HW224996   5.656   3.125   1.191
 8033SOL     OW24997   3.555   4.351   0.356
 8033SOL    HW124998   3.619   4.279   0.381
 8033SOL    HW224999   3.471   4.311   0.320
 8034SOL     OW25000   6.069   0.068   5.191
 8034SOL    HW125001   6.091   0.136   5.121
 8034SOL    HW225002   5.970   0.060   5.200
 8035SOL     OW25003   4.723   1.372   2.982
 8035SOL    HW125004   4.809   1.326   3.006
 8035SOL    HW225005   4.695   1.430   3.059
 8036SOL     OW25006   6.392   2.804   3.906
 8036SOL    HW125007   6.405   2.746   3.986
 8036SOL    HW225008   6.302   2.785   3.866
 8037SOL     OW25009   1.425   3.051   6.568
 8037SOL    HW125010   1.504   3.009   6.612
 8037SOL    HW225011   1.402   3.001   6.485
 8038SOL     OW25012   5.905   5.916   2.369
 8038SOL    HW125013   5.930   5.848   2.300
 8038SOL    HW225014   5.841   5.981   2.330
 8039SOL     OW25015   1.064   2.125   5.744
 8039SOL    HW125016   0.975   2.106   5.786
 8039SOL    HW225017   1.094   2.216   5.770
 8040SOL     OW25018   1.474   5.532   5.971
 8040SOL    HW125019   1.508   5.451   5.924
 8040SOL    HW225020   1.551   5.579   6.016
 8041SOL     OW25021   3.261   1.876   3.264
 8041SOL    HW125022   3.198   1.813   3.219
 8041SOL    HW225023   3.244   1.875   3.363
 8042SOL     OW25024   4.550   4.506   6.206
 8042SOL    HW125025   4.555   4.407   6.217
 8042SOL    HW225026   4.534   4.549   6.295
 8043SOL     OW25027   5.109   4.639   1.028
 8043SOL    HW125028   5.106   4.575   0.952
 8043SOL    HW225029   5.076   4.594   1.111
 8044SOL     OW25030   3.659   3.497   1.230
 8044SOL    HW125031   3.647   3.402   1.261
 8044SOL    HW225032   3.579   3.525   1.177
 8045SOL     OW25033   0.692   0.939   2.723
 8045SOL    HW125034   0.726   1.031   2.743
 8045SOL    HW225035   0.681   0.929   2.624
 8046SOL     OW25036   0.210   5.263   2.215
 8046SOL    HW125037   0.250   5.312   2.293
 8046SOL    HW225038   0.255   5.174   2.205
 8047SOL     OW25039   3.885   0.195   5.974
 8047SOL    HW125040   3.915   0.128   6.042
 8047SOL    HW225041   3.965   0.233   5.927
 8048SOL     OW25042   3.556   3.521   0.222
 8048SOL    HW125043   3.623   3.462   0.175
 8048SOL    HW225044   3.574   3.616   0.199
 8049SOL     OW25045   1.939   0.140   0.850
 8049SOL    HW125046   1.913   0.146   0.754
 8049SOL    HW225047   1.941   0.045   0.878
 8050SOL     OW25048   1.681   4.244   4.255
 8050SOL    HW125049   1.618   4.316   4.229
 8050SOL    HW225050   1.631   4.157   4.264
 8051SOL     OW25051   3.929   6.054   4.095
 8051SOL    HW125052   3.942   6.130   4.158
 8051SOL    HW225053   3.935   5.967   4.145
 8052SOL     OW25054   1.916   1.864   2.352
 8052SOL    HW125055   1.864   1.804   2.291
 8052SOL    HW225056   1.953   1.810   2.428
 8053SOL     OW25057   2.909   3.241   6.399
 8053SOL    HW125058   2.994   3.254   6.349
 8053SOL    HW225059   2.863   3.158   6.366
 8054SOL     OW25060   5.236   4.223   5.026
 8054SOL    HW125061   5.266   4.319   5.027
 8054SOL    HW225062   5.291   4.170   5.091
 8055SOL     OW25063   0.391   0.570   5.319
 8055SOL    HW125064   0.458   0.546   5.389
 8055SOL    HW225065   0.303   0.528   5.342
 8056SOL     OW25066   2.357   0.411   3.559
 8056SOL    HW125067   2.265   0.438   3.587
 8056SOL    HW225068   2.414   0.400   3.640
 8057SOL     OW25069   2.229   2.308   1.718
 8057SOL    HW125070   2.158   2.378   1.717
 8057SOL    HW225071   2.210   2.242   1.791
 8058SOL     OW25072   2.989   6.880   3.486
 8058SOL    HW125073   3.086   6.904   3.487
 8058SOL    HW225074   2.961   6.859   3.393
 8059SOL     OW25075   2.806   2.307   6.212
 8059SOL    HW125076   2.808   2.355   6.124
 8059SOL    HW225077   2.780   2.371   6.284
 8060SOL     OW25078   6.705   0.715   6.244
 8060SOL    HW125079   6.644   0.790   6.219
 8060SOL    HW225080   6.781   0.749   6.298
 8061SOL     OW25081   0.474   1.018   2.071
 8061SOL    HW125082   0.521   0.981   1.990
 8061SOL    HW225083   0.409   1.088   2.042
 8062SOL     OW25084   4.102   5.500   5.011
 8062SOL    HW125085   4.177   5.443   4.976
 8062SOL    HW225086   4.039   5.521   4.936
 8063SOL     OW25087   3.552   0.586   2.957
 8063SOL    HW125088   3.572   0.505   2.901
 8063SOL    HW225089   3.459   0.617   2.938
 8064SOL     OW25090   6.215   3.503   0.173
 8064SOL    HW125091   6.225   3.535   0.267
 8064SOL    HW225092   6.304   3.477   0.136
 8065SOL     OW25093   3.586   0.046   4.489
 8065SOL    HW125094   3.509   0.019   4.545
 8065SOL    HW225095   3.632   6.990   4.452
 8066SOL     OW25096   6.973   1.094   4.846
 8066SOL    HW125097   6.912   1.020   4.875
 8066SOL    HW225098   6.923   1.180   4.845
 8067SOL     OW25099   5.221   3.005   3.728
 8067SOL    HW125100   5.169   3.047   3.802
 8067SOL    HW225101   5.306   3.055   3.714
 8068SOL     OW25102   0.099   4.350   1.630
 8068SOL    HW125103   0.021   4.340   1.568
 8068SOL    HW225104   0.182   4.318   1.585
 8069SOL     OW25105   2.998   5.217   2.398
 8069SOL    HW125106   2.953   5.190   2.483
 8069SOL    HW225107   3.042   5.137   2.356
 8070SOL     OW25108   4.655   4.679   0.751
 8070SOL    HW125109   4.742   4.630   0.742
 8070SOL    HW225110   4.633   4.725   0.665
 8071SOL     OW25111   4.066   6.708   5.685
 8071SOL    HW125112   4.133   6.681   5.754
 8071SOL    HW225113   4.113   6.734   5.601
 8072SOL     OW25114   2.185   3.129   0.066
 8072SOL    HW125115   2.257   3.170   0.010
 8072SOL    HW225116   2.096   3.168   0.038
 8073SOL     OW25117   2.816   0.334   6.753
 8073SOL    HW125118   2.813   0.238   6.723
 8073SOL    HW225119   2.878   0.385   6.693
 8074SOL     OW25120   1.733   2.154   0.595
 8074SOL    HW125121   1.697   2.189   0.508
 8074SOL    HW225122   1.778   2.066   0.579
 8075SOL     OW25123   6.936   6.263   6.885
 8075SOL    HW125124   6.938   6.282   6.786
 8075SOL    HW225125   6.895   6.173   6.900
 8076SOL     OW25126   6.957   0.080   6.764
 8076SOL    HW125127   6.971   7.007   6.770
 8076SOL    HW225128   6.865   0.103   6.796
 8077SOL     OW25129   4.069   5.809   1.948
 8077SOL    HW125130   3.980   5.840   1.981
 8077SOL    HW225131   4.115   5.885   1.901
 8078SOL     OW25132   1.246   1.456   1.127
 8078SOL    HW125133   1.165   1.403   1.101
 8078SOL    HW225134   1.248   1.541   1.075
 8079SOL     OW25135   0.999   1.419   4.454
 8079SOL    HW125136   1.075   1.449   4.395
 8079SOL    HW225137   0.990   1.481   4.531
 8080SOL     OW25138   1.008   3.261   2.442
 8080SOL    HW125139   1.063   3.291   2.520
 8080SOL    HW225140   0.918   3.231   2.475
 8081SOL     OW25141   5.768   4.596   4.934
 8081SOL    HW125142   5.843   4.596   5.000
 8081SOL    HW225143   5.725   4.687   4.934
 8082SOL     OW25144   2.495   1.275   2.506
 8082SOL    HW125145   2.587   1.296   2.541
 8082SOL    HW225146   2.497   1.273   2.406
 8083SOL     OW25147   5.221   2.359   4.537
 8083SOL    HW125148   5.320   2.365   4.546
 8083SOL    HW225149   5.196   2.352   4.440
 8084SOL     OW25150   1.996   0.268   6.021
 8084SOL    HW125151   2.070   0.300   5.963
 8084SOL    HW225152   2.017   0.175   6.054
 8085SOL     OW25153   0.589   5.643   3.520
 8085SOL    HW125154   0.523   5.601   3.458
 8085SOL    HW225155   0.675   5.593   3.515
 8086SOL     OW25156   0.588   1.095   1.778
 8086SOL    HW125157   0.587   0.998   1.801
 8086SOL    HW225158   0.495   1.125   1.756
 8087SOL     OW25159   0.901   0.543   6.944
 8087SOL    HW125160   0.942   0.538   0.010
 8087SOL    HW225161   0.887   0.451   6.908
 8088SOL     OW25162   5.429   6.675   6.346
 8088SOL    HW125163   5.418   6.768   6.310
 8088SOL    HW225164   5.389   6.610   6.282
 8089SOL     OW25165   5.931   2.990   6.363
 8089SOL    HW125166   5.974   2.944   6.285
 8089SOL    HW225167   5.844   2.946   6.384
 8090SOL     OW25168   3.876   1.747   6.782
 8090SOL    HW125169   3.904   1.653   6.804
 8090SOL    HW225170   3.790   1.768   6.829
 8091SOL     OW25171   1.742   4.556   4.496
 8091SOL    HW125172   1.643   4.550   4.488
 8091SOL    HW225173   1.768   4.647   4.528
 8092SOL     OW25174   4.593   1.857   5.313
 8092SOL    HW125175   4.681   1.902   5.301
 8092SOL    HW225176   4.607   1.759   5.325
 8093SOL     OW25177   3.005   5.980   3.117
 8093SOL    HW125178   3.098   6.010   3.095
 8093SOL    HW225179   2.948   5.985   3.034
 8094SOL     OW25180   1.474   3.593   4.786
 8094SOL    HW125181   1.523   3.601   4.873
 8094SOL    HW225182   1.381   3.628   4.797
 8095SOL     OW25183   1.348   4.235   5.426
 8095SOL    HW125184   1.341   4.187   5.338
 8095SOL    HW225185   1.393   4.323   5.413
 8096SOL     OW25186   1.426   0.106   2.029
 8096SOL    HW125187   1.401   0.172   2.101
 8096SOL    HW225188   1.524   0.114   2.010
 8097SOL     OW25189   3.532   0.064   5.271
 8097SOL    HW125190   3.533   0.006   5.190
 8097SOL    HW225191   3.438   0.094   5.289
 8098SOL     OW25192   0.598   6.174   3.870
 8098SOL    HW125193   0.501   6.178   3.846
 8098SOL    HW225194   0.613   6.099   3.935
 8099SOL     OW25195   3.952   5.569   3.743
 8099SOL    HW125196   3.888   5.492   3.745
 8099SOL    HW225197   3.921   5.640   3.806
 8100SOL     OW25198   5.839   1.311   6.187
 8100SOL    HW125199   5.906   1.278   6.254
 8100SOL    HW225200   5.779   1.236   6.160
 8101SOL     OW25201   2.562   5.720   0.803
 8101SOL    HW125202   2.661   5.737   0.811
 8101SOL    HW225203   2.531   5.751   0.713
 8102SOL     OW25204   1.062   3.333   4.713
 8102SOL    HW125205   0.971   3.353   4.747
 8102SOL    HW225206   1.058   3.258   4.647
 8103SOL     OW25207   3.716   0.946   2.317
 8103SOL    HW125208   3.806   0.980   2.289
 8103SOL    HW225209   3.726   0.856   2.360
 8104SOL     OW25210   1.752   6.607   5.606
 8104SOL    HW125211   1.756   6.610   5.706
 8104SOL    HW225212   1.831   6.557   5.571
 8105SOL     OW25213   6.979   2.095   3.058
 8105SOL    HW125214   6.915   2.091   2.981
 8105SOL    HW225215   0.037   2.045   3.034
 8106SOL     OW25216   2.817   6.508   4.238
 8106SOL    HW125217   2.867   6.523   4.153
 8106SOL    HW225218   2.879   6.522   4.315
 8107SOL     OW25219   1.646   5.643   4.332
 8107SOL    HW125220   1.627   5.669   4.427
 8107SOL    HW225221   1.745   5.641   4.317
 8108SOL     OW25222   6.915   1.333   6.705
 8108SOL    HW125223   6.849   1.408   6.707
 8108SOL    HW225224   6.928   1.297   6.797
 8109SOL     OW25225   6.793   3.559   6.547
 8109SOL    HW125226   6.882   3.589   6.514
 8109SOL    HW225227   6.805   3.499   6.626
 8110SOL     OW25228   4.295   4.642   1.236
 8110SOL    HW125229   4.283   4.741   1.241
 8110SOL    HW225230   4.260   4.608   1.149
 8111SOL     OW25231   5.520   0.977   3.532
 8111SOL    HW125232   5.520   0.943   3.626
 8111SOL    HW225233   5.431   0.960   3.490
 8112SOL     OW25234   0.480   3.126   4.891
 8112SOL    HW125235   0.556   3.065   4.914
 8112SOL    HW225236   0.400   3.103   4.947
 8113SOL     OW25237   6.728   2.908   1.243
 8113SOL    HW125238   6.738   2.809   1.233
 8113SOL    HW225239   6.740   2.933   1.339
 8114SOL     OW25240   1.242   4.463   2.305
 8114SOL    HW125241   1.235   4.384   2.245
 8114SOL    HW225242   1.198   4.442   2.393
 8115SOL     OW25243   2.883   6.828   6.548
 8115SOL    HW125244   2.966   6.859   6.503
 8115SOL    HW225245   2.905   6.753   6.611
 8116SOL     OW25246   3.766   5.480   0.690
 8116SOL    HW125247   3.813   5.443   0.609
 8116SOL    HW225248   3.832   5.489   0.765
 8117SOL     OW25249   2.354   6.568   2.912
 8117SOL    HW125250   2.287   6.542   2.981
 8117SOL    HW225251   2.319   6.643   2.857
 8118SOL     OW25252   6.378   4.380   6.671
 8118SOL    HW125253   6.360   4.355   6.576
 8118SOL    HW225254   6.428   4.305   6.716
 8119SOL     OW25255   5.096   6.015   6.178
 8119SOL    HW125256   5.132   5.944   6.238
 8119SOL    HW225257   5.042   5.974   6.105
 8120SOL     OW25258   2.254   5.451   0.559
 8120SOL    HW125259   2.312   5.373   0.535
 8120SOL    HW225260   2.169   5.448   0.506
 8121SOL     OW25261   1.096   4.070   2.905
 8121SOL    HW125262   1.129   3.977   2.886
 8121SOL    HW225263   1.165   4.119   2.957
 8122SOL     OW25264   1.098   4.595   2.779
 8122SOL    HW125265   1.075   4.531   2.852
 8122SOL    HW225266   1.197   4.607   2.775
 8123SOL     OW25267   0.999   1.807   0.132
 8123SOL    HW125268   1.078   1.854   0.172
 8123SOL    HW225269   1.028   1.756   0.051
 8124SOL     OW25270   5.491   6.084   4.050
 8124SOL    HW125271   5.480   6.184   4.054
 8124SOL    HW225272   5.481   6.053   3.956
 8125SOL     OW25273   0.850   0.734   2.817
 8125SOL    HW125274   0.811   0.676   2.888
 8125SOL    HW225275   0.784   0.805   2.793
 8126SOL     OW25276   4.436   5.089   3.780
 8126SOL    HW125277   4.444   5.034   3.697
 8126SOL    HW225278   4.499   5.054   3.849
 8127SOL     OW25279   2.684   2.504   0.002
 8127SOL    HW125280   2.626   2.427   0.027
 8127SOL    HW225281   2.774   2.470   6.999
 8128SOL     OW25282   3.361   2.309   1.428
 8128SOL    HW125283   3.391   2.251   1.504
 8128SOL    HW225284   3.316   2.391   1.464
 8129SOL     OW25285   1.540   2.037   0.321
 8129SOL    HW125286   1.504   1.962   0.376
 8129SOL    HW225287   1.625   2.008   0.277
 8130SOL     OW25288   1.631   5.821   0.098
 8130SOL    HW125289   1.531   5.819   0.093
 8130SOL    HW225290   1.669   5.743   0.049
 8131SOL     OW25291   2.837   2.590   1.177
 8131SOL    HW125292   2.912   2.583   1.111
 8131SOL    HW225293   2.837   2.681   1.218
 8132SOL     OW25294   6.468   0.046   4.172
 8132SOL    HW125295   6.401   0.113   4.140
 8132SOL    HW225296   6.426   7.011   4.239
 8133SOL     OW25297   4.127   5.466   2.315
 8133SOL    HW125298   4.127   5.424   2.406
 8133SOL    HW225299   4.039   5.509   2.298
 8134SOL     OW25300   6.013   1.006   5.903
 8134SOL    HW125301   6.058   1.089   5.934
 8134SOL    HW225302   6.023   0.934   5.971
 8135SOL     OW25303   2.084   0.410   2.186
 8135SOL    HW125304   2.060   0.342   2.117
 8135SOL    HW225305   2.049   0.500   2.158
 8136SOL     OW25306   5.441   5.401   2.845
 8136SOL    HW125307   5.518   5.444   2.798
 8136SOL    HW225308   5.467   5.380   2.939
 8137SOL     OW25309   3.023   1.262   5.365
 8137SOL    HW125310   3.083   1.191   5.331
 8137SOL    HW225311   2.971   1.302   5.289
 8138SOL     OW25312   5.359   1.205   1.015
 8138SOL    HW125313   5.453   1.213   1.046
 8138SOL    HW225314   5.354   1.226   0.918
 8139SOL     OW25315   0.136   1.553   2.542
 8139SOL    HW125316   0.080   1.557   2.624
 8139SOL    HW225317   0.083   1.514   2.467
 8140SOL     OW25318   4.367   1.306   4.615
 8140SOL    HW125319   4.458   1.303   4.573
 8140SOL    HW225320   4.305   1.358   4.557
 8141SOL     OW25321   3.934   5.269   5.374
 8141SOL    HW125322   3.964   5.358   5.409
 8141SOL    HW225323   3.835   5.264   5.373
 8142SOL     OW25324   6.085   4.502   0.602
 8142SOL    HW125325   6.042   4.588   0.629
 8142SOL    HW225326   6.162   4.520   0.541
 8143SOL     OW25327   6.143   4.369   6.112
 8143SOL    HW125328   6.185   4.434   6.048
 8143SOL    HW225329   6.110   4.419   6.193
 8144SOL     OW25330   5.292   6.918   7.003
 8144SOL    HW125331   5.321   7.013   6.993
 8144SOL    HW225332   5.362   6.868   0.030
 8145SOL     OW25333   6.229   5.872   2.610
 8145SOL    HW125334   6.242   5.815   2.690
 8145SOL    HW225335   6.134   5.902   2.605
 8146SOL     OW25336   3.441   1.008   5.659
 8146SOL    HW125337   3.452   1.106   5.642
 8146SOL    HW225338   3.389   0.967   5.584
 8147SOL     OW25339   4.974   1.609   3.598
 8147SOL    HW125340   5.062   1.639   3.561
 8147SOL    HW225341   4.901   1.633   3.535
 8148SOL     OW25342   5.631   3.102   2.731
 8148SOL    HW125343   5.549   3.159   2.733
 8148SOL    HW225344   5.608   3.010   2.765
 8149SOL     OW25345   3.309   5.518   2.711
 8149SOL    HW125346   3.316   5.419   2.712
 8149SOL    HW225347   3.267   5.548   2.625
 8150SOL     OW25348   0.190   5.032   0.800
 8150SOL    HW125349   0.198   5.130   0.779
 8150SOL    HW225350   0.130   4.989   0.732
 8151SOL     OW25351   1.064   2.402   3.551
 8151SOL    HW125352   1.152   2.411   3.505
 8151SOL    HW225353   1.070   2.441   3.643
 8152SOL     OW25354   2.057   1.286   3.014
 8152SOL    HW125355   2.114   1.235   2.950
 8152SOL    HW225356   2.042   1.378   2.978
 8153SOL     OW25357   3.008   0.260   2.199
 8153SOL    HW125358   2.945   0.205   2.253
 8153SOL    HW225359   3.054   0.201   2.132
 8154SOL     OW25360   2.534   6.563   4.119
 8154SOL    HW125361   2.632   6.543   4.124
 8154SOL    HW225362   2.493   6.550   4.210
 8155SOL     OW25363   3.011   3.107   1.978
 8155SOL    HW125364   3.010   3.087   2.075
 8155SOL    HW225365   3.060   3.035   1.929
 8156SOL     OW25366   5.390   0.564   4.906
 8156SOL    HW125367   5.428   0.561   4.813
 8156SOL    HW225368   5.454   0.521   4.969
 8157SOL     OW25369   5.935   4.416   6.517
 8157SOL    HW125370   5.964   4.347   6.582
 8157SOL    HW225371   5.859   4.469   6.556
 8158SOL     OW25372   1.308   5.723   1.406
 8158SOL    HW125373   1.333   5.790   1.476
 8158SOL    HW225374   1.237   5.662   1.442
 8159SOL     OW25375   1.984   5.281   2.386
 8159SOL    HW125376   2.060   5.235   2.339
 8159SOL    HW225377   2.017   5.320   2.472
 8160SOL     OW25378   4.900   2.324   0.987
 8160SOL    HW125379   4.802   2.329   0.970
 8160SOL    HW225380   4.932   2.409   1.028
 8161SOL     OW25381   4.550   0.828   0.653
 8161SOL    HW125382   4.471   0.888   0.670
 8161SOL    HW225383   4.617   0.876   0.597
 8162SOL     OW25384   6.040   0.358   1.036
 8162SOL    HW125385   6.002   0.290   0.974
 8162SOL    HW225386   5.966   0.414   1.073
 8163SOL     OW25387   2.589   4.233   5.361
 8163SOL    HW125388   2.492   4.208   5.369
 8163SOL    HW225389   2.639   4.157   5.320
 8164SOL     OW25390   5.343   2.864   1.411
 8164SOL    HW125391   5.376   2.807   1.487
 8164SOL    HW225392   5.318   2.805   1.334
 8165SOL     OW25393   1.858   4.493   1.167
 8165SOL    HW125394   1.844   4.580   1.118
 8165SOL    HW225395   1.770   4.455   1.193
 8166SOL     OW25396   2.362   0.364   2.212
 8166SOL    HW125397   2.265   0.384   2.198
 8166SOL    HW225398   2.403   0.435   2.269
 8167SOL     OW25399   5.886   2.521   3.437
 8167SOL    HW125400   5.985   2.525   3.446
 8167SOL    HW225401   5.861   2.524   3.340
 8168SOL     OW25402   3.661   1.277   3.115
 8168SOL    HW125403   3.569   1.240   3.101
 8168SOL    HW225404   3.670   1.308   3.209
 8169SOL     OW25405   4.318   4.030   0.424
 8169SOL    HW125406   4.353   3.937   0.430
 8169SOL    HW225407   4.362   4.087   0.493
 8170SOL     OW25408   1.006   6.217   3.992
 8170SOL    HW125409   1.090   6.172   3.965
 8170SOL    HW225410   0.929   6.154   3.981
 8171SOL     OW25411   0.512   1.511   6.430
 8171SOL    HW125412   0.580   1.508   6.357
 8171SOL    HW225413   0.425   1.475   6.396
 8172SOL     OW25414   0.075   0.061   0.540
 8172SOL    HW125415   0.138   0.018   0.604
 8172SOL    HW225416   7.007   0.054   0.574
 8173SOL     OW25417   3.845   2.385   6.983
 8173SOL    HW125418   3.944   2.374   6.971
 8173SOL    HW225419   3.798   2.364   6.898
 8174SOL     OW25420   5.531   1.746   0.712
 8174SOL    HW125421   5.585   1.670   0.747
 8174SOL    HW225422   5.537   1.823   0.775
 8175SOL     OW25423   7.025   2.255   6.377
 8175SOL    HW125424   0.077   2.297   6.331
 8175SOL    HW225425   6.941   2.273   6.325
 8176SOL     OW25426   2.810   5.774   2.069
 8176SOL    HW125427   2.716   5.742   2.083
 8176SOL    HW225428   2.871   5.722   2.129
 8177SOL     OW25429   1.322   6.679   4.248
 8177SOL    HW125430   1.322   6.774   4.278
 8177SOL    HW225431   1.276   6.672   4.159
 8178SOL     OW25432   2.031   6.807   6.223
 8178SOL    HW125433   1.937   6.814   6.255
 8178SOL    HW225434   2.056   6.891   6.174
 8179SOL     OW25435   3.222   2.898   0.446
 8179SOL    HW125436   3.261   2.811   0.414
 8179SOL    HW225437   3.228   2.966   0.373
 8180SOL     OW25438   0.610   6.949   4.382
 8180SOL    HW125439   0.634   7.024   4.321
 8180SOL    HW225440   0.693   6.911   4.423
 8181SOL     OW25441   2.754   1.961   2.797
 8181SOL    HW125442   2.675   2.021   2.805
 8181SOL    HW225443   2.791   1.968   2.704
 8182SOL     OW25444   3.224   2.143   5.739
 8182SOL    HW125445   3.245   2.219   5.679
 8182SOL    HW225446   3.294   2.136   5.810
 8183SOL     OW25447   0.881   3.455   5.122
 8183SOL    HW125448   0.811   3.385   5.135
 8183SOL    HW225449   0.970   3.419   5.148
 8184SOL     OW25450   0.057   0.724   5.314
 8184SOL    HW125451   0.081   0.781   5.235
 8184SOL    HW225452   0.053   0.781   5.396
 8185SOL     OW25453   3.162   1.083   2.019
 8185SOL    HW125454   3.132   1.053   2.110
 8185SOL    HW225455   3.232   1.019   1.985
 8186SOL     OW25456   3.033   6.007   5.787
 8186SOL    HW125457   2.966   6.079   5.769
 8186SOL    HW225458   3.109   6.015   5.723
 8187SOL     OW25459   1.488   2.074   5.365
 8187SOL    HW125460   1.400   2.037   5.335
 8187SOL    HW225461   1.479   2.113   5.456
 8188SOL     OW25462   5.801   2.000   2.620
 8188SOL    HW125463   5.746   1.943   2.681
 8188SOL    HW225464   5.748   2.024   2.539
 8189SOL     OW25465   5.882   4.502   2.389
 8189SOL    HW125466   5.823   4.426   2.361
 8189SOL    HW225467   5.958   4.511   2.324
 8190SOL     OW25468   5.105   3.538   3.298
 8190SOL    HW125469   5.106   3.629   3.258
 8190SOL    HW225470   5.033   3.533   3.368
 8191SOL     OW25471   0.819   5.499   3.631
 8191SOL    HW125472   0.898   5.441   3.650
 8191SOL    HW225473   0.833   5.589   3.672
 8192SOL     OW25474   2.555   5.547   2.119
 8192SOL    HW125475   2.582   5.458   2.155
 8192SOL    HW225476   2.484   5.535   2.049
 8193SOL     OW25477   4.709   6.666   5.187
 8193SOL    HW125478   4.650   6.722   5.245
 8193SOL    HW225479   4.724   6.577   5.230
 8194SOL     OW25480   6.605   0.965   6.948
 8194SOL    HW125481   6.600   0.886   6.887
 8194SOL    HW225482   6.700   0.990   6.963
 8195SOL     OW25483   6.822   6.917   7.009
 8195SOL    HW125484   6.743   6.976   0.001
 8195SOL    HW225485   6.906   6.966   0.007
 8196SOL     OW25486   3.583   6.420   6.376
 8196SOL    HW125487   3.555   6.435   6.471
 8196SOL    HW225488   3.576   6.506   6.325
 8197SOL     OW25489   6.870   0.876   6.405
 8197SOL    HW125490   6.858   0.945   6.476
 8197SOL    HW225491   6.964   0.880   6.369
 8198SOL     OW25492   2.605   6.603   2.963
 8198SOL    HW125493   2.508   6.597   2.939
 8198SOL    HW225494   2.639   6.695   2.940
 8199SOL     OW25495   0.285   3.510   0.126
 8199SOL    HW125496   0.191   3.500   0.158
 8199SOL    HW225497   0.287   3.512   0.026
 8200SOL     OW25498   4.920   4.230   1.661
 8200SOL    HW125499   4.822   4.238   1.679
 8200SOL    HW225500   4.934   4.206   1.565
 8201SOL     OW25501   5.661   7.006   3.701
 8201SOL    HW125502   5.706   0.068   3.716
 8201SOL    HW225503   5.690   6.941   3.771
 8202SOL     OW25504   1.379   4.779   3.264
 8202SOL    HW125505   1.467   4.754   3.223
 8202SOL    HW225506   1.361   4.876   3.247
 8203SOL     OW25507   5.260   4.129   1.986
 8203SOL    HW125508   5.307   4.110   2.073
 8203SOL    HW225509   5.285   4.059   1.919
 8204SOL     OW25510   3.341   6.603   2.678
 8204SOL    HW125511   3.435   6.593   2.647
 8204SOL    HW225512   3.322   6.536   2.751
 8205SOL     OW25513   5.801   5.368   1.786
 8205SOL    HW125514   5.855   5.450   1.803
 8205SOL    HW225515   5.827   5.296   1.851
 8206SOL     OW25516   4.325   2.249   5.407
 8206SOL    HW125517   4.326   2.149   5.409
 8206SOL    HW225518   4.284   2.283   5.492
 8207SOL     OW25519   3.359   5.043   6.145
 8207SOL    HW125520   3.451   5.082   6.141
 8207SOL    HW225521   3.362   4.947   6.119
 8208SOL     OW25522   1.891   4.862   1.472
 8208SOL    HW125523   1.911   4.940   1.412
 8208SOL    HW225524   1.913   4.777   1.424
 8209SOL     OW25525   1.257   0.465   5.300
 8209SOL    HW125526   1.346   0.420   5.296
 8209SOL    HW225527   1.269   0.563   5.317
 8210SOL     OW25528   2.105   1.691   0.263
 8210SOL    HW125529   2.168   1.617   0.287
 8210SOL    HW225530   2.099   1.699   0.164
 8211SOL     OW25531   3.054   3.085   4.535
 8211SOL    HW125532   2.980   3.045   4.589
 8211SOL    HW225533   3.133   3.101   4.594
 8212SOL     OW25534   2.345   7.002   1.372
 8212SOL    HW125535   2.321   0.043   1.302
 8212SOL    HW225536   2.262   6.971   1.418
 8213SOL     OW25537   4.318   4.531   1.823
 8213SOL    HW125538   4.220   4.549   1.830
 8213SOL    HW225539   4.335   4.433   1.836
 8214SOL     OW25540   3.146   5.691   4.318
 8214SOL    HW125541   3.135   5.787   4.292
 8214SOL    HW225542   3.124   5.680   4.414
 8215SOL     OW25543   4.044   6.436   7.008
 8215SOL    HW125544   4.116   6.405   6.946
 8215SOL    HW225545   4.078   6.513   0.037
 8216SOL     OW25546   4.727   6.036   1.852
 8216SOL    HW125547   4.812   6.088   1.863
 8216SOL    HW225548   4.731   5.982   1.768
 8217SOL     OW25549   2.848   5.375   3.457
 8217SOL    HW125550   2.887   5.347   3.544
 8217SOL    HW225551   2.752   5.348   3.453
 8218SOL     OW25552   1.642   0.338   4.901
 8218SOL    HW125553   1.631   0.407   4.973
 8218SOL    HW225554   1.731   0.349   4.858
 8219SOL     OW25555   4.005   3.841   0.538
 8219SOL    HW125556   3.987   3.761   0.595
 8219SOL    HW225557   3.980   3.820   0.443
 8220SOL     OW25558   3.642   3.915   4.390
 8220SOL    HW125559   3.739   3.911   4.413
 8220SOL    HW225560   3.589   3.928   4.474
 8221SOL     OW25561   6.381   3.239   3.274
 8221SOL    HW125562   6.335   3.212   3.359
 8221SOL    HW225563   6.371   3.165   3.207
 8222SOL     OW25564   6.419   2.659   1.204
 8222SOL    HW125565   6.490   2.591   1.222
 8222SOL    HW225566   6.359   2.667   1.283
 8223SOL     OW25567   0.386   5.905   5.128
 8223SOL    HW125568   0.332   5.883   5.046
 8223SOL    HW225569   0.444   5.984   5.109
 8224SOL     OW25570   5.579   2.309   0.115
 8224SOL    HW125571   5.577   2.288   0.212
 8224SOL    HW225572   5.497   2.362   0.090
 8225SOL     OW25573   5.047   2.075   0.315
 8225SOL    HW125574   5.129   2.125   0.287
 8225SOL    HW225575   5.073   1.984   0.347
 8226SOL     OW25576   3.630   0.111   0.657
 8226SOL    HW125577   3.587   0.166   0.729
 8226SOL    HW225578   3.609   0.152   0.568
 8227SOL     OW25579   5.162   2.322   2.608
 8227SOL    HW125580   5.080   2.349   2.558
 8227SOL    HW225581   5.137   2.280   2.695
 8228SOL     OW25582   1.646   1.025   5.371
 8228SOL    HW125583   1.620   0.995   5.463
 8228SOL    HW225584   1.567   1.019   5.310
 8229SOL     OW25585   4.140   4.557   1.033
 8229SOL    HW125586   4.060   4.563   0.973
 8229SOL    HW225587   4.213   4.507   0.985
 8230SOL     OW25588   4.361   1.141   5.880
 8230SOL    HW125589   4.284   1.197   5.849
 8230SOL    HW225590   4.403   1.097   5.801
 8231SOL     OW25591   2.644   1.438   2.827
 8231SOL    HW125592   2.663   1.532   2.799
 8231SOL    HW225593   2.687   1.375   2.762
 8232SOL     OW25594   4.400   6.486   2.434
 8232SOL    HW125595   4.394   6.571   2.485
 8232SOL    HW225596   4.315   6.471   2.383
 8233SOL     OW25597   0.519   0.815   5.380
 8233SOL    HW125598   0.476   0.738   5.333
 8233SOL    HW225599   0.450   0.887   5.395
 8234SOL     OW25600   2.118   2.630   0.072
 8234SOL    HW125601   2.028   2.671   0.080
 8234SOL    HW225602   2.108   2.530   0.063
 8235SOL     OW25603   6.763   5.847   0.627
 8235SOL    HW125604   6.731   5.846   0.722
 8235SOL    HW225605   6.709   5.783   0.573
 8236SOL     OW25606   1.020   6.400   6.859
 8236SOL    HW125607   1.052   6.389   6.953
 8236SOL    HW225608   0.956   6.327   6.836
 8237SOL     OW25609   4.564   5.138   6.492
 8237SOL    HW125610   4.548   5.166   6.398
 8237SOL    HW225611   4.662   5.148   6.513
 8238SOL     OW25612   1.684   4.762   0.842
 8238SOL    HW125613   1.615   4.691   0.854
 8238SOL    HW225614   1.775   4.719   0.837
 8239SOL     OW25615   0.559   1.639   5.252
 8239SOL    HW125616   0.604   1.710   5.306
 8239SOL    HW225617   0.460   1.657   5.249
 8240SOL     OW25618   3.501   3.919   4.602
 8240SOL    HW125619   3.545   3.884   4.685
 8240SOL    HW225620   3.457   3.844   4.553
 8241SOL     OW25621   2.021   4.137   6.519
 8241SOL    HW125622   2.002   4.143   6.421
 8241SOL    HW225623   2.083   4.211   6.545
 8242SOL     OW25624   0.491   3.227   4.108
 8242SOL    HW125625   0.404   3.178   4.106
 8242SOL    HW225626   0.498   3.278   4.194
 8243SOL     OW25627   0.892   4.762   4.670
 8243SOL    HW125628   0.989   4.781   4.679
 8243SOL    HW225629   0.851   4.751   4.761
 8244SOL     OW25630   1.438   0.387   3.876
 8244SOL    HW125631   1.453   0.321   3.950
 8244SOL    HW225632   1.507   0.374   3.805
 8245SOL     OW25633   5.505   1.384   3.871
 8245SOL    HW125634   5.564   1.316   3.828
 8245SOL    HW225635   5.496   1.364   3.968
 8246SOL     OW25636   1.484   4.561   6.469
 8246SOL    HW125637   1.389   4.560   6.440
 8246SOL    HW225638   1.495   4.623   6.547
 8247SOL     OW25639   3.391   5.535   3.209
 8247SOL    HW125640   3.395   5.438   3.186
 8247SOL    HW225641   3.399   5.589   3.126
 8248SOL     OW25642   0.884   5.569   3.117
 8248SOL    HW125643   0.867   5.595   3.212
 8248SOL    HW225644   0.927   5.646   3.069
 8249SOL     OW25645   2.561   1.782   6.206
 8249SOL    HW125646   2.655   1.807   6.230
 8249SOL    HW225647   2.539   1.818   6.116
 8250SOL     OW25648   1.913   1.423   6.253
 8250SOL    HW125649   1.999   1.431   6.201
 8250SOL    HW225650   1.876   1.515   6.269
 8251SOL     OW25651   6.984   2.320   4.732
 8251SOL    HW125652   6.922   2.325   4.811
 8251SOL    HW225653   6.930   2.315   4.648
 8252SOL     OW25654   1.693   2.212   6.725
 8252SOL    HW125655   1.649   2.211   6.635
 8252SOL    HW225656   1.623   2.207   6.796
 8253SOL     OW25657   4.176   5.955   0.728
 8253SOL    HW125658   4.132   6.044   0.726
 8253SOL    HW225659   4.174   5.918   0.821
 8254SOL     OW25660   5.366   5.314   7.011
 8254SOL    HW125661   5.374   5.413   7.003
 8254SOL    HW225662   5.457   5.273   7.014
 8255SOL     OW25663   0.736   6.334   6.467
 8255SOL    HW125664   0.767   6.239   6.465
 8255SOL    HW225665   0.751   6.375   6.377
 8256SOL     OW25666   1.823   5.866   3.179
 8256SOL    HW125667   1.771   5.781   3.173
 8256SOL    HW225668   1.794   5.928   3.107
 8257SOL     OW25669   4.856   3.797   3.541
 8257SOL    HW125670   4.907   3.819   3.458
 8257SOL    HW225671   4.903   3.723   3.590
 8258SOL     OW25672   6.537   3.263   2.233
 8258SOL    HW125673   6.541   3.299   2.326
 8258SOL    HW225674   6.573   3.331   2.169
 8259SOL     OW25675   4.280   1.616   3.860
 8259SOL    HW125676   4.187   1.589   3.886
 8259SOL    HW225677   4.343   1.591   3.934
 8260SOL     OW25678   3.801   0.908   1.333
 8260SOL    HW125679   3.865   0.834   1.312
 8260SOL    HW225680   3.845   0.996   1.312
 8261SOL     OW25681   5.316   7.008   3.180
 8261SOL    HW125682   5.342   0.060   3.123
 8261SOL    HW225683   5.235   0.007   3.234
 8262SOL     OW25684   6.647   4.108   2.016
 8262SOL    HW125685   6.723   4.043   2.024
 8262SOL    HW225686   6.591   4.104   2.099
 8263SOL     OW25687   0.415   2.256   6.116
 8263SOL    HW125688   0.378   2.347   6.095
 8263SOL    HW225689   0.493   2.265   6.177
 8264SOL     OW25690   2.452   6.423   2.691
 8264SOL    HW125691   2.430   6.490   2.620
 8264SOL    HW225692   2.437   6.464   2.781
 8265SOL     OW25693   5.580   1.018   0.360
 8265SOL    HW125694   5.493   0.993   0.317
 8265SOL    HW225695   5.571   1.011   0.459
 8266SOL     OW25696   2.464   0.481   3.219
 8266SOL    HW125697   2.454   0.534   3.135
 8266SOL    HW225698   2.557   0.493   3.254
 8267SOL     OW25699   1.540   4.053   3.179
 8267SOL    HW125700   1.639   4.059   3.167
 8267SOL    HW225701   1.498   4.139   3.149
 8268SOL     OW25702   3.155   4.938   6.341
 8268SOL    HW125703   3.245   4.966   6.307
 8268SOL    HW225704   3.165   4.862   6.405
 8269SOL     OW25705   4.948   2.240   3.222
 8269SOL    HW125706   4.870   2.303   3.225
 8269SOL    HW225707   4.971   2.211   3.315
 8270SOL     OW25708   3.484   0.456   5.959
 8270SOL    HW125709   3.548   0.528   5.929
 8270SOL    HW225710   3.397   0.467   5.910
 8271SOL     OW25711   3.826   6.580   5.684
 8271SOL    HW125712   3.909   6.634   5.672
 8271SOL    HW225713   3.783   6.604   5.771
 8272SOL     OW25714   0.909   0.140   1.472
 8272SOL    HW125715   1.003   0.129   1.505
 8272SOL    HW225716   0.874   0.229   1.500
 8273SOL     OW25717   2.790   0.176   0.091
 8273SOL    HW125718   2.742   0.089   0.085
 8273SOL    HW225719   2.885   0.160   0.119
 8274SOL     OW25720   5.191   6.276   6.328
 8274SOL    HW125721   5.128   6.266   6.405
 8274SOL    HW225722   5.235   6.188   6.309
 8275SOL     OW25723   5.967   0.879   4.258
 8275SOL    HW125724   5.914   0.888   4.343
 8275SOL    HW225725   5.910   0.908   4.181
 8276SOL     OW25726   6.802   2.344   6.237
 8276SOL    HW125727   6.711   2.304   6.225
 8276SOL    HW225728   6.793   2.437   6.274
 8277SOL     OW25729   1.133   5.618   6.248
 8277SOL    HW125730   1.056   5.604   6.311
 8277SOL    HW225731   1.219   5.612   6.299
 8278SOL     OW25732   3.823   1.058   0.766
 8278SOL    HW125733   3.852   1.007   0.685
 8278SOL    HW225734   3.835   1.156   0.750
 8279SOL     OW25735   5.028   5.433   5.802
 8279SOL    HW125736   5.033   5.392   5.893
 8279SOL    HW225737   4.936   5.420   5.764
 8280SOL     OW25738   5.401   3.027   6.958
 8280SOL    HW125739   5.322   2.985   7.002
 8280SOL    HW225740   5.484   3.001   7.006
 8281SOL     OW25741   2.279   4.991   6.858
 8281SOL    HW125742   2.378   4.975   6.848
 8281SOL    HW225743   2.250   4.964   6.950
 8282SOL     OW25744   3.173   2.407   0.906
 8282SOL    HW125745   3.198   2.405   0.809
 8282SOL    HW225746   3.117   2.326   0.927
 8283SOL     OW25747   0.562   5.172   3.077
 8283SOL    HW125748   0.569   5.090   3.020
 8283SOL    HW225749   0.629   5.239   3.046
 8284SOL     OW25750   2.549   1.873   2.514
 8284SOL    HW125751   2.509   1.926   2.589
 8284SOL    HW225752   2.637   1.912   2.488
 8285SOL     OW25753   3.674   4.308   6.373
 8285SOL    HW125754   3.723   4.367   6.308
 8285SOL    HW225755   3.694   4.339   6.466
 8286SOL     OW25756   5.061   1.262   5.633
 8286SOL    HW125757   5.018   1.171   5.638
 8286SOL    HW225758   5.126   1.264   5.557
 8287SOL     OW25759   1.866   0.383   3.201
 8287SOL    HW125760   1.850   0.455   3.268
 8287SOL    HW225761   1.935   0.412   3.136
 8288SOL     OW25762   1.319   1.354   2.834
 8288SOL    HW125763   1.378   1.426   2.797
 8288SOL    HW225764   1.267   1.390   2.911
 8289SOL     OW25765   6.401   0.994   5.475
 8289SOL    HW125766   6.358   1.081   5.499
 8289SOL    HW225767   6.385   0.928   5.549
 8290SOL     OW25768   3.990   2.394   1.709
 8290SOL    HW125769   4.070   2.351   1.668
 8290SOL    HW225770   3.909   2.338   1.691
 8291SOL     OW25771   5.526   5.568   6.242
 8291SOL    HW125772   5.615   5.613   6.253
 8291SOL    HW225773   5.523   5.523   6.153
 8292SOL     OW25774   1.036   3.840   4.223
 8292SOL    HW125775   1.089   3.761   4.193
 8292SOL    HW225776   0.939   3.814   4.230
 8293SOL     OW25777   3.114   5.335   3.571
 8293SOL    HW125778   3.093   5.428   3.541
 8293SOL    HW225779   3.070   5.318   3.659
 8294SOL     OW25780   5.831   3.679   5.895
 8294SOL    HW125781   5.738   3.696   5.862
 8294SOL    HW225782   5.861   3.589   5.864
 8295SOL     OW25783   4.802   4.406   1.911
 8295SOL    HW125784   4.725   4.346   1.928
 8295SOL    HW225785   4.888   4.356   1.925
 8296SOL     OW25786   3.886   6.851   1.230
 8296SOL    HW125787   3.837   6.938   1.231
 8296SOL    HW225788   3.827   6.779   1.266
 8297SOL     OW25789   5.997   4.272   2.863
 8297SOL    HW125790   6.083   4.278   2.913
 8297SOL    HW225791   5.998   4.338   2.787
 8298SOL     OW25792   6.029   0.543   6.009
 8298SOL    HW125793   5.933   0.525   6.030
 8298SOL    HW225794   6.086   0.506   6.083
 8299SOL     OW25795   1.173   3.463   1.192
 8299SOL    HW125796   1.137   3.376   1.227
 8299SOL    HW225797   1.098   3.517   1.155
 8300SOL     OW25798   5.763   5.169   3.166
 8300SOL    HW125799   5.768   5.072   3.192
 8300SOL    HW225800   5.801   5.225   3.239
 8301SOL     OW25801   4.200   6.406   0.560
 8301SOL    HW125802   4.175   6.437   0.468
 8301SOL    HW225803   4.187   6.481   0.625
 8302SOL     OW25804   3.769   6.624   5.395
 8302SOL    HW125805   3.793   6.632   5.298
 8302SOL    HW225806   3.784   6.711   5.441
 8303SOL     OW25807   6.976   6.078   3.103
 8303SOL    HW125808   0.045   6.052   3.079
 8303SOL    HW225809   6.977   6.151   3.171
 8304SOL     OW25810   5.523   3.708   3.339
 8304SOL    HW125811   5.471   3.622   3.339
 8304SOL    HW225812   5.592   3.704   3.267
 8305SOL     OW25813   5.124   5.532   4.483
 8305SOL    HW125814   5.065   5.451   4.482
 8305SOL    HW225815   5.196   5.521   4.414
 8306SOL     OW25816   6.851   0.728   2.140
 8306SOL    HW125817   6.754   0.752   2.147
 8306SOL    HW225818   6.903   0.807   2.109
 8307SOL     OW25819   2.273   4.647   2.992
 8307SOL    HW125820   2.313   4.727   2.947
 8307SOL    HW225821   2.196   4.614   2.937
 8308SOL     OW25822   1.158   5.020   0.243
 8308SOL    HW125823   1.149   4.986   0.149
 8308SOL    HW225824   1.199   4.949   0.300
 8309SOL     OW25825   6.212   4.488   4.251
 8309SOL    HW125826   6.124   4.457   4.287
 8309SOL    HW225827   6.272   4.409   4.236
 8310SOL     OW25828   1.036   6.764   0.132
 8310SOL    HW125829   1.115   6.707   0.111
 8310SOL    HW225830   0.974   6.765   0.054
 8311SOL     OW25831   5.345   0.278   3.351
 8311SOL    HW125832   5.385   0.241   3.435
 8311SOL    HW225833   5.416   0.325   3.298
 8312SOL     OW25834   5.242   1.621   6.560
 8312SOL    HW125835   5.179   1.679   6.509
 8312SOL    HW225836   5.291   1.675   6.627
 8313SOL     OW25837   4.707   1.836   4.777
 8313SOL    HW125838   4.797   1.837   4.733
 8313SOL    HW225839   4.675   1.741   4.786
 8314SOL     OW25840   4.745   5.951   5.473
 8314SOL    HW125841   4.666   5.935   5.413
 8314SOL    HW225842   4.829   5.934   5.422
 8315SOL     OW25843   3.833   3.907   4.993
 8315SOL    HW125844   3.743   3.905   5.037
 8315SOL    HW225845   3.894   3.842   5.037
 8316SOL     OW25846   1.769   2.688   6.596
 8316SOL    HW125847   1.798   2.645   6.510
 8316SOL    HW225848   1.850   2.712   6.649
 8317SOL     OW25849   2.107   1.230   3.425
 8317SOL    HW125850   2.010   1.235   3.446
 8317SOL    HW225851   2.143   1.140   3.450
 8318SOL     OW25852   3.958   6.973   6.479
 8318SOL    HW125853   3.941   0.031   6.425
 8318SOL    HW225854   4.020   6.913   6.429
 8319SOL     OW25855   1.319   0.135   6.468
 8319SOL    HW125856   1.374   0.095   6.541
 8319SOL    HW225857   1.223   0.112   6.483
 8320SOL     OW25858   2.931   3.733   4.631
 8320SOL    HW125859   2.927   3.815   4.573
 8320SOL    HW225860   2.930   3.761   4.727
 8321SOL     OW25861   6.678   6.537   0.410
 8321SOL    HW125862   6.686   6.475   0.489
 8321SOL    HW225863   6.582   6.549   0.387
 8322SOL     OW25864   0.678   0.734   6.984
 8322SOL    HW125865   0.742   0.657   6.985
 8322SOL    HW225866   0.720   0.810   6.934
 8323SOL     OW25867   4.659   4.783   1.166
 8323SOL    HW125868   4.683   4.694   1.127
 8323SOL    HW225869   4.590   4.828   1.109
 8324SOL     OW25870   5.123   6.644   6.616
 8324SOL    HW125871   5.145   6.707   6.541
 8324SOL    HW225872   5.155   6.682   6.702
 8325SOL     OW25873   1.217   5.991   5.676
 8325SOL    HW125874   1.222   5.966   5.580
 8325SOL    HW225875   1.285   5.939   5.728
 8326SOL     OW25876   1.548   4.138   1.732
 8326SOL    HW125877   1.630   4.088   1.760
 8326SOL    HW225878   1.492   4.158   1.812
 8327SOL     OW25879   1.392   6.966   4.269
 8327SOL    HW125880   1.407   0.009   4.341
 8327SOL    HW225881   1.476   6.955   4.216
 8328SOL     OW25882   1.851   0.388   6.827
 8328SOL    HW125883   1.944   0.352   6.834
 8328SOL    HW225884   1.801   0.365   6.910
 8329SOL     OW25885   1.507   2.886   5.082
 8329SOL    HW125886   1.538   2.931   5.166
 8329SOL    HW225887   1.474   2.794   5.104
 8330SOL     OW25888   3.133   1.445   6.363
 8330SOL    HW125889   3.192   1.429   6.284
 8330SOL    HW225890   3.140   1.367   6.426
 8331SOL     OW25891   1.779   2.499   6.947
 8331SOL    HW125892   1.712   2.425   6.956
 8331SOL    HW225893   1.795   2.541   0.010
 8332SOL     OW25894   6.197   5.674   1.788
 8332SOL    HW125895   6.270   5.617   1.826
 8332SOL    HW225896   6.109   5.642   1.823
 8333SOL     OW25897   2.541   5.187   1.289
 8333SOL    HW125898   2.502   5.150   1.205
 8333SOL    HW225899   2.533   5.120   1.363
 8334SOL     OW25900   3.966   1.891   6.114
 8334SOL    HW125901   3.925   1.843   6.192
 8334SOL    HW225902   4.059   1.920   6.138
 8335SOL     OW25903   4.977   3.895   6.097
 8335SOL    HW125904   4.990   3.803   6.061
 8335SOL    HW225905   4.957   3.891   6.195
 8336SOL     OW25906   1.105   3.510   3.224
 8336SOL    HW125907   1.188   3.516   3.278
 8336SOL    HW225908   1.037   3.574   3.260
 8337SOL     OW25909   0.734   1.379   4.390
 8337SOL    HW125910   0.741   1.283   4.361
 8337SOL    HW225911   0.823   1.411   4.422
 8338SOL     OW25912   4.719   5.433   2.661
 8338SOL    HW125913   4.792   5.498   2.686
 8338SOL    HW225914   4.667   5.409   2.743
 8339SOL     OW25915   6.097   0.043   0.880
 8339SOL    HW125916   6.146   0.011   0.799
 8339SOL    HW225917   6.095   6.995   0.949
 8340SOL     OW25918   6.062   2.717   0.309
 8340SOL    HW125919   6.001   2.643   0.338
 8340SOL    HW225920   6.122   2.684   0.236
 8341SOL     OW25921   3.282   1.451   0.915
 8341SOL    HW125922   3.332   1.537   0.903
 8341SOL    HW225923   3.337   1.375   0.880
 8342SOL     OW25924   4.670   0.147   0.369
 8342SOL    HW125925   4.641   0.163   0.275
 8342SOL    HW225926   4.732   0.068   0.372
 8343SOL     OW25927   5.983   3.876   3.674
 8343SOL    HW125928   6.072   3.847   3.709
 8343SOL    HW225929   5.918   3.884   3.750
 8344SOL     OW25930   1.185   4.781   5.226
 8344SOL    HW125931   1.164   4.693   5.269
 8344SOL    HW225932   1.229   4.841   5.292
 8345SOL     OW25933   4.143   0.673   2.980
 8345SOL    HW125934   4.238   0.657   3.008
 8345SOL    HW225935   4.142   0.734   2.900
 8346SOL     OW25936   5.127   3.042   5.368
 8346SOL    HW125937   5.162   3.003   5.453
 8346SOL    HW225938   5.088   3.132   5.386
 8347SOL     OW25939   2.515   0.160   6.420
 8347SOL    HW125940   2.609   0.127   6.409
 8347SOL    HW225941   2.513   0.228   6.494
 8348SOL     OW25942   3.527   6.874   1.822
 8348SOL    HW125943   3.444   6.918   1.857
 8348SOL    HW225944   3.607   6.916   1.865
 8349SOL     OW25945   0.704   6.377   1.800
 8349SOL    HW125946   0.701   6.368   1.700
 8349SOL    HW225947   0.740   6.294   1.841
 8350SOL     OW25948   2.517   7.005   0.330
 8350SOL    HW125949   2.494   7.003   0.427
 8350SOL    HW225950   2.539   0.073   0.302
 8351SOL     OW25951   6.654   3.900   3.276
 8351SOL    HW125952   6.704   3.843   3.210
 8351SOL    HW225953   6.675   3.996   3.260
 8352SOL     OW25954   2.504   5.677   1.647
 8352SOL    HW125955   2.551   5.679   1.735
 8352SOL    HW225956   2.570   5.657   1.574
 8353SOL     OW25957   1.682   4.022   2.126
 8353SOL    HW125958   1.694   4.001   2.223
 8353SOL    HW225959   1.634   4.109   2.116
 8354SOL     OW25960   3.603   0.470   3.820
 8354SOL    HW125961   3.584   0.567   3.805
 8354SOL    HW225962   3.601   0.422   3.732
 8355SOL     OW25963   2.234   5.907   6.009
 8355SOL    HW125964   2.210   5.810   6.014
 8355SOL    HW225965   2.299   5.921   5.935
 8356SOL     OW25966   2.023   5.624   1.404
 8356SOL    HW125967   2.041   5.526   1.394
 8356SOL    HW225968   1.924   5.640   1.399
 8357SOL     OW25969   4.362   6.003   5.886
 8357SOL    HW125970   4.266   5.985   5.907
 8357SOL    HW225971   4.373   6.014   5.787
 8358SOL     OW25972   1.007   2.210   5.098
 8358SOL    HW125973   0.998   2.196   5.000
 8358SOL    HW225974   1.104   2.218   5.121
 8359SOL     OW25975   2.813   2.027   5.214
 8359SOL    HW125976   2.748   1.951   5.220
 8359SOL    HW225977   2.804   2.072   5.125
 8360SOL     OW25978   5.004   0.604   1.084
 8360SOL    HW125979   5.092   0.652   1.083
 8360SOL    HW225980   4.937   0.660   1.132
 8361SOL     OW25981   3.301   0.363   0.226
 8361SOL    HW125982   3.326   0.308   0.306
 8361SOL    HW225983   3.284   0.457   0.255
 8362SOL     OW25984   6.820   4.036   1.705
 8362SOL    HW125985   6.878   4.106   1.746
 8362SOL    HW225986   6.846   4.021   1.610
 8363SOL     OW25987   2.424   2.908   6.817
 8363SOL    HW125988   2.327   2.897   6.838
 8363SOL    HW225989   2.468   2.818   6.812
 8364SOL     OW25990   6.921   2.859   4.317
 8364SOL    HW125991   6.990   2.831   4.384
 8364SOL    HW225992   6.957   2.844   4.224
 8365SOL     OW25993   2.059   2.680   2.800
 8365SOL    HW125994   1.987   2.738   2.761
 8365SOL    HW225995   2.067   2.698   2.898
 8366SOL     OW25996   5.369   5.882   2.068
 8366SOL    HW125997   5.406   5.837   1.987
 8366SOL    HW225998   5.271   5.864   2.074
 8367SOL     OW25999   4.218   4.758   4.557
 8367SOL    HW126000   4.317   4.762   4.540
 8367SOL    HW226001   4.171   4.729   4.474
 8368SOL     OW26002   6.930   6.495   0.502
 8368SOL    HW126003   6.841   6.489   0.457
 8368SOL    HW226004   6.926   6.565   0.574
 8369SOL     OW26005   2.078   0.962   0.220
 8369SOL    HW126006   2.111   0.908   0.142
 8369SOL    HW226007   2.035   1.046   0.186
 8370SOL     OW26008   2.921   2.850   0.525
 8370SOL    HW126009   2.901   2.803   0.438
 8370SOL    HW226010   3.011   2.894   0.518
 8371SOL     OW26011   2.223   4.506   6.020
 8371SOL    HW126012   2.236   4.603   6.000
 8371SOL    HW226013   2.243   4.489   6.117
 8372SOL     OW26014   2.223   5.685   2.657
 8372SOL    HW126015   2.263   5.769   2.620
 8372SOL    HW226016   2.250   5.675   2.753
 8373SOL     OW26017   0.043   0.974   4.212
 8373SOL    HW126018   0.138   0.997   4.191
 8373SOL    HW226019   0.025   0.991   4.309
 8374SOL     OW26020   1.676   0.468   4.505
 8374SOL    HW126021   1.604   0.512   4.558
 8374SOL    HW226022   1.708   0.387   4.554
 8375SOL     OW26023   4.052   1.139   4.477
 8375SOL    HW126024   4.108   1.056   4.482
 8375SOL    HW226025   3.956   1.114   4.464
 8376SOL     OW26026   1.852   0.707   3.179
 8376SOL    HW126027   1.890   0.665   3.262
 8376SOL    HW226028   1.909   0.785   3.152
 8377SOL     OW26029   4.765   5.850   6.972
 8377SOL    HW126030   4.853   5.846   7.020
 8377SOL    HW226031   4.723   5.760   6.971
 8378SOL     OW26032   6.335   5.787   3.864
 8378SOL    HW126033   6.347   5.754   3.770
 8378SOL    HW226034   6.350   5.711   3.928
 8379SOL     OW26035   5.899   1.312   1.698
 8379SOL    HW126036   5.805   1.327   1.730
 8379SOL    HW226037   5.956   1.282   1.774
 8380SOL     OW26038   6.768   5.466   0.218
 8380SOL    HW126039   6.692   5.463   0.153
 8380SOL    HW226040   6.855   5.466   0.169
 8381SOL     OW26041   6.836   1.413   2.433
 8381SOL    HW126042   6.828   1.314   2.442
 8381SOL    HW226043   6.870   1.436   2.342
 8382SOL     OW26044   2.277   0.417   0.716
 8382SOL    HW126045   2.242   0.500   0.673
 8382SOL    HW226046   2.377   0.415   0.709
 8383SOL     OW26047   2.449   6.022   5.875
 8383SOL    HW126048   2.429   6.057   5.783
 8383SOL    HW226049   2.440   6.097   5.941
 8384SOL     OW26050   0.799   2.743   0.539
 8384SOL    HW126051   0.836   2.668   0.594
 8384SOL    HW226052   0.709   2.717   0.504
 8385SOL     OW26053   4.172   3.941   0.867
 8385SOL    HW126054   4.111   3.926   0.944
 8385SOL    HW226055   4.123   3.988   0.794
 8386SOL     OW26056   1.686   5.678   1.721
 8386SOL    HW126057   1.619   5.655   1.651
 8386SOL    HW226058   1.646   5.665   1.812
 8387SOL     OW26059   1.423   1.292   2.335
 8387SOL    HW126060   1.364   1.263   2.411
 8387SOL    HW226061   1.504   1.338   2.371
 8388SOL     OW26062   3.477   7.004   1.020
 8388SOL    HW126063   3.393   7.024   1.071
 8388SOL    HW226064   3.470   6.913   0.979
 8389SOL     OW26065   0.873   2.474   4.076
 8389SOL    HW126066   0.825   2.531   4.142
 8389SOL    HW226067   0.818   2.393   4.056
 8390SOL     OW26068   2.257   0.863   5.662
 8390SOL    HW126069   2.194   0.937   5.636
 8390SOL    HW226070   2.214   0.806   5.732
 8391SOL     OW26071   4.928   5.524   1.606
 8391SOL    HW126072   5.019   5.555   1.579
 8391SOL    HW226073   4.925   5.424   1.606
 8392SOL     OW26074   5.656   6.540   5.570
 8392SOL    HW126075   5.627   6.635   5.583
 8392SOL    HW226076   5.633   6.486   5.651
 8393SOL     OW26077   0.425   6.306   3.163
 8393SOL    HW126078   0.517   6.290   3.197
 8393SOL    HW226079   0.359   6.260   3.224
 8394SOL     OW26080   0.851   1.867   3.032
 8394SOL    HW126081   0.820   1.912   3.116
 8394SOL    HW226082   0.951   1.873   3.027
 8395SOL     OW26083   6.932   6.093   5.262
 8395SOL    HW126084   6.910   6.151   5.340
 8395SOL    HW226085   0.005   6.094   5.246
 8396SOL     OW26086   4.852   4.109   2.786
 8396SOL    HW126087   4.948   4.138   2.785
 8396SOL    HW226088   4.823   4.087   2.693
 8397SOL     OW26089   2.297   5.992   3.296
 8397SOL    HW126090   2.317   5.935   3.375
 8397SOL    HW226091   2.209   5.965   3.257
 8398SOL     OW26092   4.219   1.279   0.226
 8398SOL    HW126093   4.205   1.180   0.221
 8398SOL    HW226094   4.248   1.314   0.137
 8399SOL     OW26095   5.611   6.144   0.291
 8399SOL    HW126096   5.627   6.145   0.390
 8399SOL    HW226097   5.540   6.211   0.268
 8400SOL     OW26098   0.191   7.002   2.686
 8400SOL    HW126099   0.170   0.072   2.708
 8400SOL    HW226100   0.172   6.944   2.765
 8401SOL     OW26101   3.643   3.931   6.182
 8401SOL    HW126102   3.723   3.931   6.120
 8401SOL    HW226103   3.626   3.838   6.214
 8402SOL     OW26104   4.302   1.920   6.452
 8402SOL    HW126105   4.260   1.833   6.477
 8402SOL    HW226106   4.286   1.987   6.526
 8403SOL     OW26107   1.432   1.367   4.490
 8403SOL    HW126108   1.415   1.359   4.588
 8403SOL    HW226109   1.504   1.435   4.474
 8404SOL     OW26110   4.903   5.765   5.776
 8404SOL    HW126111   4.830   5.703   5.749
 8404SOL    HW226112   4.943   5.808   5.695
 8405SOL     OW26113   0.142   2.220   6.116
 8405SOL    HW126114   0.111   2.315   6.109
 8405SOL    HW226115   0.240   2.215   6.099
 8406SOL     OW26116   5.179   2.492   1.361
 8406SOL    HW126117   5.170   2.500   1.461
 8406SOL    HW226118   5.111   2.427   1.327
 8407SOL     OW26119   5.182   4.067   3.616
 8407SOL    HW126120   5.153   4.110   3.530
 8407SOL    HW226121   5.219   4.136   3.677
 8408SOL     OW26122   4.778   1.999   3.737
 8408SOL    HW126123   4.800   2.021   3.832
 8408SOL    HW226124   4.718   2.069   3.699
 8409SOL     OW26125   1.663   1.503   4.528
 8409SOL    HW126126   1.744   1.456   4.564
 8409SOL    HW226127   1.688   1.553   4.445
 8410SOL     OW26128   4.184   6.580   1.284
 8410SOL    HW126129   4.187   6.676   1.310
 8410SOL    HW226130   4.098   6.560   1.237
 8411SOL     OW26131   1.960   4.523   4.280
 8411SOL    HW126132   1.914   4.539   4.368
 8411SOL    HW226133   1.896   4.543   4.205
 8412SOL     OW26134   4.788   2.390   2.210
 8412SOL    HW126135   4.778   2.450   2.130
 8412SOL    HW226136   4.784   2.295   2.180
 8413SOL     OW26137   3.629   4.750   0.666
 8413SOL    HW126138   3.574   4.705   0.596
 8413SOL    HW226139   3.698   4.808   0.622
 8414SOL     OW26140   4.316   6.387   3.095
 8414SOL    HW126141   4.342   6.391   2.998
 8414SOL    HW226142   4.216   6.383   3.102
 8415SOL     OW26143   6.452   4.330   3.219
 8415SOL    HW126144   6.423   4.244   3.176
 8415SOL    HW226145   6.546   4.350   3.192
 8416SOL     OW26146   5.207   3.866   2.338
 8416SOL    HW126147   5.213   3.784   2.281
 8416SOL    HW226148   5.115   3.874   2.377
 8417SOL     OW26149   2.145   6.182   6.358
 8417SOL    HW126150   2.092   6.191   6.443
 8417SOL    HW226151   2.085   6.150   6.285
 8418SOL     OW26152   6.545   5.778   2.739
 8418SOL    HW126153   6.506   5.816   2.823
 8418SOL    HW226154   6.472   5.757   2.675
 8419SOL     OW26155   4.522   0.610   2.440
 8419SOL    HW126156   4.614   0.629   2.474
 8419SOL    HW226157   4.526   0.541   2.367
 8420SOL     OW26158   3.766   0.678   6.121
 8420SOL    HW126159   3.849   0.646   6.074
 8420SOL    HW226160   3.691   0.684   6.055
 8421SOL     OW26161   1.894   6.465   2.307
 8421SOL    HW126162   1.981   6.512   2.317
 8421SOL    HW226163   1.873   6.415   2.391
 8422SOL     OW26164   4.531   6.869   0.219
 8422SOL    HW126165   4.503   6.774   0.205
 8422SOL    HW226166   4.627   6.879   0.192
 8423SOL     OW26167   3.413   4.607   0.295
 8423SOL    HW126168   3.457   4.690   0.330
 8423SOL    HW226169   3.471   4.528   0.315
 8424SOL     OW26170   3.528   1.718   3.082
 8424SOL    HW126171   3.508   1.814   3.059
 8424SOL    HW226172   3.448   1.662   3.063
 8425SOL     OW26173   5.849   5.272   1.473
 8425SOL    HW126174   5.772   5.237   1.527
 8425SOL    HW226175   5.845   5.235   1.381
 8426SOL     OW26176   3.664   3.155   3.549
 8426SOL    HW126177   3.601   3.134   3.624
 8426SOL    HW226178   3.630   3.234   3.497
 8427SOL     OW26179   2.492   4.188   6.539
 8427SOL    HW126180   2.443   4.178   6.453
 8427SOL    HW226181   2.567   4.123   6.543
 8428SOL     OW26182   0.612   4.068   1.937
 8428SOL    HW126183   0.655   4.048   2.025
 8428SOL    HW226184   0.679   4.057   1.863
 8429SOL     OW26185   2.116   5.839   3.756
 8429SOL    HW126186   2.136   5.926   3.712
 8429SOL    HW226187   2.148   5.841   3.851
 8430SOL     OW26188   4.476   4.540   2.973
 8430SOL    HW126189   4.441   4.521   2.882
 8430SOL    HW226190   4.566   4.583   2.966
 8431SOL     OW26191   3.446   4.698   1.305
 8431SOL    HW126192   3.461   4.600   1.294
 8431SOL    HW226193   3.357   4.713   1.349
 8432SOL     OW26194   3.771   5.699   6.611
 8432SOL    HW126195   3.787   5.610   6.568
 8432SOL    HW226196   3.789   5.772   6.545
 8433SOL     OW26197   1.306   2.898   5.977
 8433SOL    HW126198   1.264   2.966   6.037
 8433SOL    HW226199   1.318   2.812   6.027
 8434SOL     OW26200   4.672   6.154   5.701
 8434SOL    HW126201   4.586   6.198   5.729
 8434SOL    HW226202   4.658   6.103   5.616
 8435SOL     OW26203   4.858   2.045   1.380
 8435SOL    HW126204   4.838   2.039   1.282
 8435SOL    HW226205   4.826   1.962   1.426
 8436SOL     OW26206   4.341   4.697   2.041
 8436SOL    HW126207   4.247   4.701   2.072
 8436SOL    HW226208   4.351   4.625   1.973
 8437SOL     OW26209   0.623   1.535   0.689
 8437SOL    HW126210   0.534   1.538   0.735
 8437SOL    HW226211   0.634   1.447   0.643
 8438SOL     OW26212   2.452   4.480   2.396
 8438SOL    HW126213   2.501   4.552   2.346
 8438SOL    HW226214   2.385   4.437   2.336
 8439SOL     OW26215   6.972   5.648   2.410
 8439SOL    HW126216   0.018   5.707   2.370
 8439SOL    HW226217   7.014   5.567   2.450
 8440SOL     OW26218   0.405   0.772   1.657
 8440SOL    HW126219   0.483   0.759   1.596
 8440SOL    HW226220   0.339   0.832   1.613
 8441SOL     OW26221   4.957   5.689   6.273
 8441SOL    HW126222   5.036   5.679   6.213
 8441SOL    HW226223   4.878   5.644   6.233
 8442SOL     OW26224   2.359   4.291   0.154
 8442SOL    HW126225   2.274   4.314   0.201
 8442SOL    HW226226   2.367   4.349   0.072
 8443SOL     OW26227   1.077   0.509   2.896
 8443SOL    HW126228   0.986   0.500   2.856
 8443SOL    HW226229   1.070   0.545   2.988
 8444SOL     OW26230   4.019   6.428   3.728
 8444SOL    HW126231   3.932   6.471   3.704
 8444SOL    HW226232   4.053   6.377   3.649
 8445SOL     OW26233   3.688   5.154   2.752
 8445SOL    HW126234   3.759   5.085   2.737
 8445SOL    HW226235   3.690   5.183   2.848
 8446SOL     OW26236   5.395   4.920   2.795
 8446SOL    HW126237   5.316   4.907   2.855
 8446SOL    HW226238   5.448   4.999   2.827
 8447SOL     OW26239   5.167   2.228   1.843
 8447SOL    HW126240   5.135   2.157   1.906
 8447SOL    HW226241   5.140   2.318   1.879
 8448SOL     OW26242   0.530   3.555   6.470
 8448SOL    HW126243   0.498   3.562   6.375
 8448SOL    HW226244   0.490   3.475   6.513
 8449SOL     OW26245   0.470   3.400   5.005
 8449SOL    HW126246   0.464   3.461   4.926
 8449SOL    HW226247   0.492   3.307   4.974
 8450SOL     OW26248   1.906   6.344   2.951
 8450SOL    HW126249   1.814   6.327   2.915
 8450SOL    HW226250   1.901   6.351   3.051
 8451SOL     OW26251   4.146   3.006   1.340
 8451SOL    HW126252   4.211   3.063   1.291
 8451SOL    HW226253   4.054   3.021   1.304
 8452SOL     OW26254   6.589   0.461   1.174
 8452SOL    HW126255   6.585   0.422   1.266
 8452SOL    HW226256   6.678   0.503   1.159
 8453SOL     OW26257   6.471   4.379   6.173
 8453SOL    HW126258   6.476   4.346   6.079
 8453SOL    HW226259   6.377   4.374   6.206
 8454SOL     OW26260   1.441   6.948   3.485
 8454SOL    HW126261   1.357   6.908   3.523
 8454SOL    HW226262   1.418   0.008   3.438
 8455SOL     OW26263   4.754   1.791   0.958
 8455SOL    HW126264   4.660   1.826   0.951
 8455SOL    HW226265   4.769   1.723   0.887
 8456SOL     OW26266   5.415   5.481   3.484
 8456SOL    HW126267   5.343   5.544   3.512
 8456SOL    HW226268   5.439   5.498   3.388
 8457SOL     OW26269   0.027   6.770   5.773
 8457SOL    HW126270   6.973   6.816   5.812
 8457SOL    HW226271   0.109   6.795   5.824
 8458SOL     OW26272   1.709   2.302   0.347
 8458SOL    HW126273   1.670   2.219   0.308
 8458SOL    HW226274   1.805   2.309   0.320
 8459SOL     OW26275   3.535   5.375   2.211
 8459SOL    HW126276   3.578   5.387   2.300
 8459SOL    HW226277   3.446   5.331   2.223
 8460SOL     OW26278   4.583   1.969   0.098
 8460SOL    HW126279   4.516   1.896   0.084
 8460SOL    HW226280   4.595   1.984   0.197
 8461SOL     OW26281   0.449   3.920   1.480
 8461SOL    HW126282   0.486   3.829   1.467
 8461SOL    HW226283   0.389   3.921   1.560
 8462SOL     OW26284   3.397   4.158   6.568
 8462SOL    HW126285   3.424   4.099   6.492
 8462SOL    HW226286   3.418   4.253   6.545
 8463SOL     OW26287   0.281   1.974   0.044
 8463SOL    HW126288   0.366   2.014   0.010
 8463SOL    HW226289   0.203   2.027   0.013
 8464SOL     OW26290   0.194   2.956   6.946
 8464SOL    HW126291   0.281   2.992   6.981
 8464SOL    HW226292   0.213   2.889   6.874
 8465SOL     OW26293   3.837   2.429   1.146
 8465SOL    HW126294   3.864   2.406   1.240
 8465SOL    HW226295   3.757   2.488   1.149
 8466SOL     OW26296   5.420   0.847   5.170
 8466SOL    HW126297   5.383   0.911   5.102
 8466SOL    HW226298   5.513   0.821   5.143
 8467SOL     OW26299   3.068   0.931   0.846
 8467SOL    HW126300   2.986   0.970   0.888
 8467SOL    HW226301   3.108   0.997   0.783
 8468SOL     OW26302   6.281   3.778   6.730
 8468SOL    HW126303   6.228   3.734   6.657
 8468SOL    HW226304   6.318   3.709   6.792
 8469SOL     OW26305   4.203   2.690   5.628
 8469SOL    HW126306   4.235   2.782   5.610
 8469SOL    HW226307   4.266   2.644   5.691
 8470SOL     OW26308   0.717   4.823   0.892
 8470SOL    HW126309   0.625   4.788   0.906
 8470SOL    HW226310   0.734   4.900   0.954
 8471SOL     OW26311   3.007   0.853   5.278
 8471SOL    HW126312   2.907   0.853   5.275
 8471SOL    HW226313   3.042   0.797   5.203
 8472SOL     OW26314   5.399   1.552   6.332
 8472SOL    HW126315   5.322   1.534   6.392
 8472SOL    HW226316   5.373   1.621   6.263
 8473SOL     OW26317   4.776   4.954   6.851
 8473SOL    HW126318   4.835   5.035   6.857
 8473SOL    HW226319   4.791   4.897   6.931
 8474SOL     OW26320   2.896   3.329   2.281
 8474SOL    HW126321   2.820   3.394   2.279
 8474SOL    HW226322   2.983   3.379   2.281
 8475SOL     OW26323   6.954   3.064   1.600
 8475SOL    HW126324   7.004   3.106   1.525
 8475SOL    HW226325   6.871   3.118   1.619
 8476SOL     OW26326   6.156   0.047   1.665
 8476SOL    HW126327   6.106   0.102   1.598
 8476SOL    HW226328   6.193   0.106   1.737
 8477SOL     OW26329   4.941   6.743   1.190
 8477SOL    HW126330   4.874   6.696   1.133
 8477SOL    HW226331   4.952   6.694   1.276
 8478SOL     OW26332   0.482   0.196   5.471
 8478SOL    HW126333   0.419   0.245   5.530
 8478SOL    HW226334   0.524   0.120   5.521
 8479SOL     OW26335   1.675   1.949   1.495
 8479SOL    HW126336   1.665   1.972   1.398
 8479SOL    HW226337   1.605   1.996   1.549
 8480SOL     OW26338   4.637   3.482   0.376
 8480SOL    HW126339   4.716   3.540   0.395
 8480SOL    HW226340   4.587   3.465   0.461
 8481SOL     OW26341   3.800   2.056   4.190
 8481SOL    HW126342   3.827   2.118   4.116
 8481SOL    HW226343   3.705   2.028   4.178
 8482SOL     OW26344   4.553   1.156   0.203
 8482SOL    HW126345   4.533   1.074   0.257
 8482SOL    HW226346   4.652   1.170   0.197
 8483SOL     OW26347   3.469   5.971   3.991
 8483SOL    HW126348   3.394   6.029   3.960
 8483SOL    HW226349   3.555   6.021   3.982
 8484SOL     OW26350   6.454   6.120   4.404
 8484SOL    HW126351   6.394   6.119   4.484
 8484SOL    HW226352   6.465   6.213   4.371
 8485SOL     OW26353   3.443   2.386   0.338
 8485SOL    HW126354   3.382   2.319   0.296
 8485SOL    HW226355   3.523   2.400   0.279
 8486SOL     OW26356   1.267   1.350   2.561
 8486SOL    HW126357   1.317   1.284   2.616
 8486SOL    HW226358   1.223   1.417   2.621
 8487SOL     OW26359   5.612   2.158   5.687
 8487SOL    HW126360   5.608   2.058   5.691
 8487SOL    HW226361   5.707   2.188   5.695
 8488SOL     OW26362   5.627   5.992   2.452
 8488SOL    HW126363   5.631   5.941   2.366
 8488SOL    HW226364   5.665   6.084   2.438
 8489SOL     OW26365   5.624   1.184   1.122
 8489SOL    HW126366   5.625   1.107   1.186
 8489SOL    HW226367   5.663   1.155   1.035
 8490SOL     OW26368   2.241   6.920   6.635
 8490SOL    HW126369   2.299   6.970   6.570
 8490SOL    HW226370   2.152   6.965   6.643
 8491SOL     OW26371   2.294   5.839   2.450
 8491SOL    HW126372   2.242   5.912   2.407
 8491SOL    HW226373   2.390   5.846   2.424
 8492SOL     OW26374   6.330   4.227   4.810
 8492SOL    HW126375   6.355   4.308   4.862
 8492SOL    HW226376   6.314   4.252   4.715
 8493SOL     OW26377   3.303   0.947   0.570
 8493SOL    HW126378   3.251   1.030   0.592
 8493SOL    HW226379   3.239   0.874   0.545
 8494SOL     OW26380   5.947   4.998   2.119
 8494SOL    HW126381   6.047   4.998   2.121
 8494SOL    HW226382   5.913   5.092   2.126
 8495SOL     OW26383   6.152   5.410   0.533
 8495SOL    HW126384   6.215   5.431   0.608
 8495SOL    HW226385   6.142   5.311   0.525
 8496SOL     OW26386   5.507   1.401   1.826
 8496SOL    HW126387   5.586   1.441   1.779
 8496SOL    HW226388   5.427   1.406   1.765
 8497SOL     OW26389   0.119   0.711   3.689
 8497SOL    HW126390   0.060   0.762   3.627
 8497SOL    HW226391   0.213   0.711   3.654
 8498SOL     OW26392   4.982   0.052   4.414
 8498SOL    HW126393   4.979   0.138   4.465
 8498SOL    HW226394   5.000   7.001   4.476
 8499SOL     OW26395   6.966   5.797   0.030
 8499SOL    HW126396   7.015   5.712   0.012
 8499SOL    HW226397   6.969   5.855   6.973
 8500SOL     OW26398   1.570   1.024   5.648
 8500SOL    HW126399   1.659   0.983   5.670
 8500SOL    HW226400   1.497   0.959   5.668
 8501SOL     OW26401   0.611   1.530   0.111
 8501SOL    HW126402   0.528   1.516   0.057
 8501SOL    HW226403   0.601   1.485   0.200
 8502SOL     OW26404   0.518   3.010   6.358
 8502SOL    HW126405   0.516   3.101   6.316
 8502SOL    HW226406   0.424   2.978   6.372
 8503SOL     OW26407   6.449   6.613   4.482
 8503SOL    HW126408   6.363   6.575   4.515
 8503SOL    HW226409   6.503   6.646   4.560
 8504SOL     OW26410   2.401   5.559   2.464
 8504SOL    HW126411   2.356   5.648   2.459
 8504SOL    HW226412   2.384   5.508   2.379
 8505SOL     OW26413   5.207   3.876   2.706
 8505SOL    HW126414   5.274   3.803   2.720
 8505SOL    HW226415   5.121   3.837   2.673
 8506SOL     OW26416   2.053   0.755   0.416
 8506SOL    HW126417   2.038   0.800   0.329
 8506SOL    HW226418   1.970   0.709   0.446
 8507SOL     OW26419   4.753   0.147   5.592
 8507SOL    HW126420   4.791   0.074   5.535
 8507SOL    HW226421   4.826   0.211   5.618
 8508SOL     OW26422   4.404   2.079   6.732
 8508SOL    HW126423   4.483   2.020   6.742
 8508SOL    HW226424   4.340   2.062   6.806
 8509SOL     OW26425   5.854   0.420   3.534
 8509SOL    HW126426   5.875   0.419   3.437
 8509SOL    HW226427   5.939   0.418   3.587
 8510SOL     OW26428   5.362   2.675   4.302
 8510SOL    HW126429   5.346   2.577   4.294
 8510SOL    HW226430   5.426   2.705   4.232
 8511SOL     OW26431   5.791   2.940   2.034
 8511SOL    HW126432   5.881   2.963   1.996
 8511SOL    HW226433   5.778   2.987   2.121
 8512SOL     OW26434   2.009   6.939   3.963
 8512SOL    HW126435   1.909   6.948   3.957
 8512SOL    HW226436   2.043   6.891   3.882
 8513SOL     OW26437   6.126   6.241   0.131
 8513SOL    HW126438   6.122   6.333   0.171
 8513SOL    HW226439   6.035   6.214   0.102
 8514SOL     OW26440   2.886   6.312   3.765
 8514SOL    HW126441   2.968   6.331   3.711
 8514SOL    HW226442   2.876   6.381   3.837
 8515SOL     OW26443   5.781   2.009   0.921
 8515SOL    HW126444   5.735   1.999   1.008
 8515SOL    HW226445   5.835   2.094   0.921
 8516SOL     OW26446   6.389   2.347   2.154
 8516SOL    HW126447   6.361   2.418   2.219
 8516SOL    HW226448   6.325   2.270   2.159
 8517SOL     OW26449   1.414   2.914   6.327
 8517SOL    HW126450   1.317   2.894   6.315
 8517SOL    HW226451   1.466   2.828   6.329
 8518SOL     OW26452   3.127   5.448   0.017
 8518SOL    HW126453   3.168   5.487   0.099
 8518SOL    HW226454   3.188   5.378   7.004
 8519SOL     OW26455   1.401   5.328   2.203
 8519SOL    HW126456   1.314   5.373   2.220
 8519SOL    HW226457   1.397   5.233   2.233
 8520SOL     OW26458   4.033   0.715   0.302
 8520SOL    HW126459   3.991   0.627   0.323
 8520SOL    HW226460   4.121   0.722   0.348
 8521SOL     OW26461   1.318   6.315   5.836
 8521SOL    HW126462   1.276   6.347   5.752
 8521SOL    HW226463   1.260   6.246   5.879
 8522SOL     OW26464   1.446   6.071   4.533
 8522SOL    HW126465   1.508   6.063   4.455
 8522SOL    HW226466   1.381   6.145   4.516
 8523SOL     OW26467   1.696   6.809   6.633
 8523SOL    HW126468   1.626   6.845   6.695
 8523SOL    HW226469   1.719   6.715   6.660
 8524SOL     OW26470   1.455   3.707   6.156
 8524SOL    HW126471   1.423   3.616   6.130
 8524SOL    HW226472   1.534   3.698   6.217
 8525SOL     OW26473   5.970   3.404   2.583
 8525SOL    HW126474   5.896   3.356   2.536
 8525SOL    HW226475   5.932   3.469   2.649
 8526SOL     OW26476   2.422   2.659   1.985
 8526SOL    HW126477   2.423   2.560   1.972
 8526SOL    HW226478   2.456   2.681   2.076
 8527SOL     OW26479   4.593   0.840   4.218
 8527SOL    HW126480   4.637   0.880   4.298
 8527SOL    HW226481   4.495   0.834   4.233
 8528SOL     OW26482   4.493   3.205   6.099
 8528SOL    HW126483   4.488   3.132   6.167
 8528SOL    HW226484   4.563   3.182   6.031
 8529SOL     OW26485   1.554   4.832   6.651
 8529SOL    HW126486   1.473   4.840   6.594
 8529SOL    HW226487   1.613   4.912   6.637
 8530SOL     OW26488   1.387   4.031   5.011
 8530SOL    HW126489   1.476   3.986   5.002
 8530SOL    HW226490   1.388   4.091   5.091
 8531SOL     OW26491   5.369   4.996   2.532
 8531SOL    HW126492   5.378   4.969   2.628
 8531SOL    HW226493   5.318   4.925   2.482
 8532SOL     OW26494   3.258   4.322   5.660
 8532SOL    HW126495   3.195   4.382   5.709
 8532SOL    HW226496   3.346   4.369   5.648
 8533SOL     OW26497   3.284   0.976   4.699
 8533SOL    HW126498   3.329   0.949   4.784
 8533SOL    HW226499   3.352   1.003   4.632
 8534SOL     OW26500   1.408   3.252   2.536
 8534SOL    HW126501   1.383   3.273   2.441
 8534SOL    HW226502   1.346   3.301   2.598
 8535SOL     OW26503   0.356   2.006   4.468
 8535SOL    HW126504   0.381   2.031   4.374
 8535SOL    HW226505   0.325   1.911   4.470
 8536SOL     OW26506   6.942   1.374   5.579
 8536SOL    HW126507   7.014   1.434   5.612
 8536SOL    HW226508   6.903   1.411   5.495
 8537SOL     OW26509   5.285   0.490   1.392
 8537SOL    HW126510   5.186   0.495   1.384
 8537SOL    HW226511   5.323   0.583   1.393
 8538SOL     OW26512   6.781   0.442   4.768
 8538SOL    HW126513   6.802   0.479   4.678
 8538SOL    HW226514   6.802   0.344   4.769
 8539SOL     OW26515   0.216   2.822   1.746
 8539SOL    HW126516   0.311   2.792   1.734
 8539SOL    HW226517   0.191   2.884   1.672
 8540SOL     OW26518   3.444   0.504   0.604
 8540SOL    HW126519   3.424   0.410   0.578
 8540SOL    HW226520   3.363   0.546   0.645
 8541SOL     OW26521   2.948   1.253   4.435
 8541SOL    HW126522   2.926   1.343   4.398
 8541SOL    HW226523   2.965   1.260   4.533
 8542SOL     OW26524   2.197   4.909   6.488
 8542SOL    HW126525   2.135   4.952   6.553
 8542SOL    HW226526   2.256   4.843   6.536
 8543SOL     OW26527   1.633   2.425   5.578
 8543SOL    HW126528   1.721   2.379   5.590
 8543SOL    HW226529   1.649   2.521   5.556
 8544SOL     OW26530   5.116   3.917   5.551
 8544SOL    HW126531   5.165   3.886   5.633
 8544SOL    HW226532   5.040   3.976   5.578
 8545SOL     OW26533   3.341   0.057   6.014
 8545SOL    HW126534   3.433   0.071   5.978
 8545SOL    HW226535   3.316   0.134   6.073
 8546SOL     OW26536   5.516   0.452   1.572
 8546SOL    HW126537   5.433   0.453   1.517
 8546SOL    HW226538   5.543   0.546   1.595
 8547SOL     OW26539   6.039   6.393   5.706
 8547SOL    HW126540   6.079   6.306   5.679
 8547SOL    HW226541   6.096   6.468   5.674
 8548SOL     OW26542   0.503   3.171   5.603
 8548SOL    HW126543   0.516   3.083   5.649
 8548SOL    HW226544   0.593   3.211   5.583
 8549SOL     OW26545   1.971   0.956   3.365
 8549SOL    HW126546   1.888   0.955   3.420
 8549SOL    HW226547   2.051   0.967   3.425
 8550SOL     OW26548   0.975   4.433   6.716
 8550SOL    HW126549   0.991   4.371   6.640
 8550SOL    HW226550   1.031   4.405   6.794
 8551SOL     OW26551   2.079   2.114   5.980
 8551SOL    HW126552   1.990   2.151   6.003
 8551SOL    HW226553   2.085   2.098   5.882
 8552SOL     OW26554   2.386   1.372   2.899
 8552SOL    HW126555   2.322   1.402   2.829
 8552SOL    HW226556   2.480   1.391   2.870
 8553SOL     OW26557   5.174   3.123   0.818
 8553SOL    HW126558   5.125   3.066   0.885
 8553SOL    HW226559   5.116   3.200   0.791
 8554SOL     OW26560   0.946   6.652   0.359
 8554SOL    HW126561   0.989   6.695   0.280
 8554SOL    HW226562   1.000   6.572   0.388
 8555SOL     OW26563   4.979   0.978   3.653
 8555SOL    HW126564   5.027   0.902   3.609
 8555SOL    HW226565   4.969   1.053   3.588
 8556SOL     OW26566   1.817   6.247   0.353
 8556SOL    HW126567   1.817   6.173   0.286
 8556SOL    HW226568   1.847   6.332   0.308
 8557SOL     OW26569   0.343   0.864   0.152
 8557SOL    HW126570   0.386   0.781   0.119
 8557SOL    HW226571   0.392   0.944   0.118
 8558SOL     OW26572   3.063   4.951   3.337
 8558SOL    HW126573   3.104   4.906   3.258
 8558SOL    HW226574   3.122   5.025   3.368
 8559SOL     OW26575   0.901   5.191   2.450
 8559SOL    HW126576   0.983   5.134   2.450
 8559SOL    HW226577   0.918   5.274   2.397
 8560SOL     OW26578   2.622   4.112   1.717
 8560SOL    HW126579   2.722   4.105   1.717
 8560SOL    HW226580   2.583   4.030   1.758
 8561SOL     OW26581   4.699   6.942   2.200
 8561SOL    HW126582   4.716   6.867   2.265
 8561SOL    HW226583   4.708   6.908   2.107
 8562SOL     OW26584   4.062   0.943   0.003
 8562SOL    HW126585   4.103   0.875   6.967
 8562SOL    HW226586   4.091   1.034   7.002
 8563SOL     OW26587   1.793   5.645   2.726
 8563SOL    HW126588   1.795   5.744   2.715
 8563SOL    HW226589   1.698   5.613   2.726
 8564SOL     OW26590   4.376   0.678   6.968
 8564SOL    HW126591   4.423   0.757   7.008
 8564SOL    HW226592   4.444   0.617   6.926
 8565SOL     OW26593   2.833   5.403   1.401
 8565SOL    HW126594   2.793   5.417   1.311
 8565SOL    HW226595   2.780   5.334   1.451
 8566SOL     OW26596   3.356   1.200   3.128
 8566SOL    HW126597   3.399   1.135   3.065
 8566SOL    HW226598   3.259   1.178   3.137
 8567SOL     OW26599   1.697   2.014   1.791
 8567SOL    HW126600   1.793   2.023   1.767
 8567SOL    HW226601   1.689   2.000   1.890
 8568SOL     OW26602   0.130   1.550   6.661
 8568SOL    HW126603   0.195   1.625   6.651
 8568SOL    HW226604   0.057   1.577   6.724
 8569SOL     OW26605   4.921   2.533   6.119
 8569SOL    HW126606   4.929   2.443   6.077
 8569SOL    HW226607   4.870   2.526   6.205
 8570SOL     OW26608   1.524   3.345   4.031
 8570SOL    HW126609   1.558   3.251   4.034
 8570SOL    HW226610   1.533   3.381   3.938
 8571SOL     OW26611   1.774   0.514   3.636
 8571SOL    HW126612   1.775   0.422   3.675
 8571SOL    HW226613   1.681   0.550   3.639
 8572SOL     OW26614   2.876   3.966   5.748
 8572SOL    HW126615   2.925   4.016   5.677
 8572SOL    HW226616   2.824   3.892   5.707
 8573SOL     OW26617   3.501   6.196   0.743
 8573SOL    HW126618   3.442   6.160   0.814
 8573SOL    HW226619   3.486   6.146   0.658
 8574SOL     OW26620   6.398   6.218   5.506
 8574SOL    HW126621   6.475   6.166   5.470
 8574SOL    HW226622   6.345   6.256   5.430
 8575SOL     OW26623   3.232   6.295   2.760
 8575SOL    HW126624   3.326   6.283   2.728
 8575SOL    HW226625   3.195   6.208   2.790
 8576SOL     OW26626   1.100   3.981   3.263
 8576SOL    HW126627   1.051   3.896   3.286
 8576SOL    HW226628   1.038   4.042   3.214
 8577SOL     OW26629   2.195   1.651   6.722
 8577SOL    HW126630   2.249   1.573   6.753
 8577SOL    HW226631   2.170   1.639   6.626
 8578SOL     OW26632   6.560   6.992   5.238
 8578SOL    HW126633   6.561   6.893   5.252
 8578SOL    HW226634   6.488   7.015   5.173
 8579SOL     OW26635   3.197   5.935   2.408
 8579SOL    HW126636   3.236   6.012   2.357
 8579SOL    HW226637   3.195   5.958   2.506
 8580SOL     OW26638   1.343   0.096   1.415
 8580SOL    HW126639   1.265   0.141   1.373
 8580SOL    HW226640   1.423   0.105   1.356
 8581SOL     OW26641   3.632   4.812   1.147
 8581SOL    HW126642   3.557   4.766   1.193
 8581SOL    HW226643   3.618   4.811   1.048
 8582SOL     OW26644   3.956   4.336   5.581
 8582SOL    HW126645   3.904   4.256   5.554
 8582SOL    HW226646   3.975   4.392   5.500
 8583SOL     OW26647   4.201   0.814   2.756
 8583SOL    HW126648   4.276   0.773   2.704
 8583SOL    HW226649   4.191   0.910   2.729
 8584SOL     OW26650   6.712   1.019   4.555
 8584SOL    HW126651   6.730   0.922   4.568
 8584SOL    HW226652   6.674   1.034   4.463
 8585SOL     OW26653   5.537   2.169   1.708
 8585SOL    HW126654   5.553   2.107   1.784
 8585SOL    HW226655   5.446   2.152   1.669
 8586SOL     OW26656   5.819   6.293   0.944
 8586SOL    HW126657   5.761   6.221   0.983
 8586SOL    HW226658   5.915   6.272   0.964
 8587SOL     OW26659   1.518   1.280   5.860
 8587SOL    HW126660   1.586   1.321   5.921
 8587SOL    HW226661   1.453   1.350   5.832
 8588SOL     OW26662   2.969   1.730   6.894
 8588SOL    HW126663   2.968   1.750   6.796
 8588SOL    HW226664   3.035   1.790   6.939
 8589SOL     OW26665   0.544   2.924   5.715
 8589SOL    HW126666   0.489   2.884   5.787
 8589SOL    HW226667   0.640   2.898   5.727
 8590SOL     OW26668   1.223   1.844   2.713
 8590SOL    HW126669   1.169   1.910   2.662
 8590SOL    HW226670   1.272   1.890   2.787
 8591SOL     OW26671   6.521   5.077   0.139
 8591SOL    HW126672   6.547   5.095   0.044
 8591SOL    HW226673   6.495   4.981   0.150
 8592SOL     OW26674   1.496   2.478   6.094
 8592SOL    HW126675   1.552   2.466   6.012
 8592SOL    HW226676   1.475   2.388   6.134
 8593SOL     OW26677   3.160   0.712   6.656
 8593SOL    HW126678   3.177   0.756   6.744
 8593SOL    HW226679   3.068   0.672   6.655
 8594SOL     OW26680   6.344   2.599   5.978
 8594SOL    HW126681   6.354   2.693   5.947
 8594SOL    HW226682   6.257   2.588   6.025
 8595SOL     OW26683   5.214   6.552   2.503
 8595SOL    HW126684   5.125   6.510   2.518
 8595SOL    HW226685   5.203   6.644   2.466
 8596SOL     OW26686   0.706   2.654   3.451
 8596SOL    HW126687   0.635   2.643   3.381
 8596SOL    HW226688   0.687   2.736   3.505
 8597SOL     OW26689   5.735   3.464   1.224
 8597SOL    HW126690   5.721   3.563   1.227
 8597SOL    HW226691   5.802   3.438   1.294
 8598SOL     OW26692   5.277   0.426   4.493
 8598SOL    HW126693   5.286   0.328   4.481
 8598SOL    HW226694   5.356   0.472   4.452
 8599SOL     OW26695   1.701   2.962   3.770
 8599SOL    HW126696   1.661   2.872   3.789
 8599SOL    HW226697   1.709   3.013   3.856
 8600SOL     OW26698   4.298   2.786   1.436
 8600SOL    HW126699   4.259   2.871   1.400
 8600SOL    HW226700   4.336   2.804   1.527
 8601SOL     OW26701   0.721   0.607   3.461
 8601SOL    HW126702   0.629   0.586   3.494
 8601SOL    HW226703   0.719   0.695   3.412
 8602SOL     OW26704   2.772   6.872   4.512
 8602SOL    HW126705   2.800   6.920   4.429
 8602SOL    HW226706   2.850   6.823   4.551
 8603SOL     OW26707   6.979   1.157   0.520
 8603SOL    HW126708   6.988   1.200   0.430
 8603SOL    HW226709   6.882   1.142   0.540
 8604SOL     OW26710   1.288   3.924   6.147
 8604SOL    HW126711   1.238   3.897   6.064
 8604SOL    HW226712   1.361   3.858   6.165
 8605SOL     OW26713   6.891   4.906   4.412
 8605SOL    HW126714   6.829   4.881   4.338
 8605SOL    HW226715   6.954   4.977   4.380
 8606SOL     OW26716   1.980   2.218   6.575
 8606SOL    HW126717   2.043   2.275   6.627
 8606SOL    HW226718   1.886   2.235   6.606
 8607SOL     OW26719   2.302   4.911   1.274
 8607SOL    HW126720   2.335   4.840   1.336
 8607SOL    HW226721   2.342   4.897   1.183
 8608SOL     OW26722   2.631   5.019   3.414
 8608SOL    HW126723   2.566   4.943   3.417
 8608SOL    HW226724   2.681   5.016   3.328
 8609SOL     OW26725   4.794   1.268   3.891
 8609SOL    HW126726   4.861   1.329   3.849
 8609SOL    HW226727   4.736   1.227   3.821
 8610SOL     OW26728   0.455   6.602   3.166
 8610SOL    HW126729   0.436   6.504   3.168
 8610SOL    HW226730   0.467   6.632   3.072
 8611SOL     OW26731   3.086   1.789   4.043
 8611SOL    HW126732   3.047   1.791   4.135
 8611SOL    HW226733   3.147   1.867   4.031
 8612SOL     OW26734   3.938   3.135   3.512
 8612SOL    HW126735   3.949   3.140   3.413
 8612SOL    HW226736   3.841   3.147   3.536
 8613SOL     OW26737   3.348   2.607   1.009
 8613SOL    HW126738   3.307   2.635   1.096
 8613SOL    HW226739   3.307   2.521   0.979
 8614SOL     OW26740   1.455   2.383   1.770
 8614SOL    HW126741   1.472   2.482   1.770
 8614SOL    HW226742   1.358   2.366   1.757
 8615SOL     OW26743   4.014   1.229   3.453
 8615SOL    HW126744   4.060   1.310   3.416
 8615SOL    HW226745   4.005   1.160   3.381
 8616SOL     OW26746   4.164   4.941   2.800
 8616SOL    HW126747   4.145   5.000   2.879
 8616SOL    HW226748   4.260   4.913   2.802
 8617SOL     OW26749   4.530   0.479   4.328
 8617SOL    HW126750   4.624   0.504   4.352
 8617SOL    HW226751   4.527   0.448   4.232
 8618SOL     OW26752   5.514   3.872   1.310
 8618SOL    HW126753   5.504   3.903   1.404
 8618SOL    HW226754   5.512   3.951   1.249
 8619SOL     OW26755   5.824   4.598   1.724
 8619SOL    HW126756   5.745   4.642   1.768
 8619SOL    HW226757   5.889   4.668   1.694
 8620SOL     OW26758   2.035   1.100   4.586
 8620SOL    HW126759   1.943   1.122   4.552
 8620SOL    HW226760   2.039   1.002   4.609
 8621SOL     OW26761   5.085   2.496   1.982
 8621SOL    HW126762   4.987   2.512   1.973
 8621SOL    HW226763   5.135   2.564   1.929
 8622SOL     OW26764   6.831   5.109   2.719
 8622SOL    HW126765   6.882   5.194   2.731
 8622SOL    HW226766   6.785   5.085   2.805
 8623SOL     OW26767   6.425   3.274   5.343
 8623SOL    HW126768   6.479   3.344   5.296
 8623SOL    HW226769   6.451   3.184   5.309
 8624SOL     OW26770   3.036   3.627   6.057
 8624SOL    HW126771   3.039   3.529   6.036
 8624SOL    HW226772   3.010   3.639   6.153
 8625SOL     OW26773   3.731   1.583   5.618
 8625SOL    HW126774   3.800   1.638   5.664
 8625SOL    HW226775   3.775   1.507   5.570
 8626SOL     OW26776   4.791   4.026   0.644
 8626SOL    HW126777   4.749   3.942   0.610
 8626SOL    HW226778   4.881   4.038   0.602
 8627SOL     OW26779   1.579   1.183   2.857
 8627SOL    HW126780   1.508   1.254   2.855
 8627SOL    HW226781   1.571   1.127   2.775
 8628SOL     OW26782   0.442   6.437   0.320
 8628SOL    HW126783   0.527   6.487   0.304
 8628SOL    HW226784   0.405   6.462   0.409
 8629SOL     OW26785   0.390   0.152   4.435
 8629SOL    HW126786   0.337   0.116   4.512
 8629SOL    HW226787   0.341   0.135   4.350
 8630SOL     OW26788   4.905   3.180   2.763
 8630SOL    HW126789   4.907   3.226   2.852
 8630SOL    HW226790   4.886   3.082   2.777
 8631SOL     OW26791   3.102   6.115   6.784
 8631SOL    HW126792   3.191   6.160   6.793
 8631SOL    HW226793   3.113   6.030   6.733
 8632SOL     OW26794   4.560   4.768   5.119
 8632SOL    HW126795   4.592   4.767   5.214
 8632SOL    HW226796   4.464   4.797   5.118
 8633SOL     OW26797   5.924   3.842   5.643
 8633SOL    HW126798   5.866   3.923   5.640
 8633SOL    HW226799   5.880   3.768   5.591
 8634SOL     OW26800   5.446   5.034   1.078
 8634SOL    HW126801   5.498   4.971   1.020
 8634SOL    HW226802   5.358   4.991   1.103
 8635SOL     OW26803   6.162   2.610   6.816
 8635SOL    HW126804   6.165   2.515   6.846
 8635SOL    HW226805   6.073   2.629   6.775
 8636SOL     OW26806   4.749   6.282   1.166
 8636SOL    HW126807   4.783   6.233   1.247
 8636SOL    HW226808   4.650   6.294   1.174
 8637SOL     OW26809   2.241   1.897   6.284
 8637SOL    HW126810   2.290   1.977   6.250
 8637SOL    HW226811   2.305   1.836   6.331
 8638SOL     OW26812   4.287   2.925   5.484
 8638SOL    HW126813   4.356   2.866   5.443
 8638SOL    HW226814   4.238   2.974   5.412
 8639SOL     OW26815   4.212   3.056   6.619
 8639SOL    HW126816   4.222   3.081   6.522
 8639SOL    HW226817   4.243   3.132   6.676
 8640SOL     OW26818   2.520   3.361   1.297
 8640SOL    HW126819   2.553   3.309   1.376
 8640SOL    HW226820   2.531   3.306   1.215
 8641SOL     OW26821   4.488   5.715   2.511
 8641SOL    HW126822   4.564   5.715   2.447
 8641SOL    HW226823   4.401   5.718   2.460
 8642SOL     OW26824   1.498   6.579   4.538
 8642SOL    HW126825   1.527   6.661   4.490
 8642SOL    HW226826   1.562   6.559   4.612
 8643SOL     OW26827   2.854   0.139   0.529
 8643SOL    HW126828   2.950   0.163   0.545
 8643SOL    HW226829   2.850   0.049   0.485
 8644SOL     OW26830   6.232   1.651   6.876
 8644SOL    HW126831   6.205   1.556   6.858
 8644SOL    HW226832   6.190   1.682   6.961
 8645SOL     OW26833   6.120   4.223   1.992
 8645SOL    HW126834   6.075   4.205   2.079
 8645SOL    HW226835   6.194   4.289   2.005
 8646SOL     OW26836   0.132   2.129   5.440
 8646SOL    HW126837   0.159   2.035   5.461
 8646SOL    HW226838   0.038   2.130   5.406
 8647SOL     OW26839   2.358   4.713   1.479
 8647SOL    HW126840   2.422   4.772   1.528
 8647SOL    HW226841   2.266   4.727   1.516
 8648SOL     OW26842   5.948   5.465   1.136
 8648SOL    HW126843   5.966   5.487   1.041
 8648SOL    HW226844   5.915   5.546   1.184
 8649SOL     OW26845   4.178   6.713   0.592
 8649SOL    HW126846   4.120   6.720   0.673
 8649SOL    HW226847   4.223   6.801   0.576
 8650SOL     OW26848   2.065   6.928   4.304
 8650SOL    HW126849   2.014   6.856   4.256
 8650SOL    HW226850   2.111   6.986   4.237
 8651SOL     OW26851   2.831   1.433   1.026
 8651SOL    HW126852   2.784   1.464   0.944
 8651SOL    HW226853   2.772   1.445   1.106
 8652SOL     OW26854   1.512   4.086   4.056
 8652SOL    HW126855   1.467   4.174   4.071
 8652SOL    HW226856   1.472   4.017   4.116
 8653SOL     OW26857   0.007   1.522   6.084
 8653SOL    HW126858   6.949   1.466   6.090
 8653SOL    HW226859   7.010   1.617   6.102
 8654SOL     OW26860   1.085   5.196   1.625
 8654SOL    HW126861   1.059   5.163   1.534
 8654SOL    HW226862   1.179   5.166   1.645
 8655SOL     OW26863   0.119   1.168   5.322
 8655SOL    HW126864   0.191   1.180   5.391
 8655SOL    HW226865   0.151   1.205   5.235
 8656SOL     OW26866   4.783   0.171   1.197
 8656SOL    HW126867   4.836   0.247   1.235
 8656SOL    HW226868   4.689   0.177   1.230
 8657SOL     OW26869   5.424   0.755   2.377
 8657SOL    HW126870   5.375   0.802   2.304
 8657SOL    HW226871   5.492   0.693   2.337
 8658SOL     OW26872   6.592   5.050   0.840
 8658SOL    HW126873   6.601   5.101   0.925
 8658SOL    HW226874   6.603   4.952   0.858
 8659SOL     OW26875   5.170   1.712   1.958
 8659SOL    HW126876   5.119   1.652   1.896
 8659SOL    HW226877   5.120   1.718   2.045
 8660SOL     OW26878   0.838   3.026   1.255
 8660SOL    HW126879   0.762   2.961   1.258
 8660SOL    HW226880   0.813   3.109   1.304
 8661SOL     OW26881   6.169   3.415   3.011
 8661SOL    HW126882   6.146   3.382   2.920
 8661SOL    HW226883   6.125   3.358   3.080
 8662SOL     OW26884   3.083   5.580   3.015
 8662SOL    HW126885   3.059   5.529   2.932
 8662SOL    HW226886   3.174   5.620   3.005
 8663SOL     OW26887   3.703   5.738   3.232
 8663SOL    HW126888   3.668   5.647   3.254
 8663SOL    HW226889   3.788   5.755   3.282
 8664SOL     OW26890   2.617   5.507   3.241
 8664SOL    HW126891   2.717   5.513   3.236
 8664SOL    HW226892   2.577   5.588   3.198
 8665SOL     OW26893   6.135   3.856   6.098
 8665SOL    HW126894   6.151   3.949   6.131
 8665SOL    HW226895   6.173   3.790   6.163
 8666SOL     OW26896   5.140   0.081   3.360
 8666SOL    HW126897   5.225   0.133   3.361
 8666SOL    HW226898   5.108   0.068   3.454
 8667SOL     OW26899   4.809   1.783   4.230
 8667SOL    HW126900   4.886   1.838   4.197
 8667SOL    HW226901   4.751   1.838   4.290
 8668SOL     OW26902   5.008   2.996   4.995
 8668SOL    HW126903   5.049   2.905   5.005
 8668SOL    HW226904   4.933   2.991   4.929
 8669SOL     OW26905   5.957   6.465   6.342
 8669SOL    HW126906   6.001   6.548   6.307
 8669SOL    HW226907   5.858   6.479   6.346
 8670SOL     OW26908   6.309   4.548   5.942
 8670SOL    HW126909   6.357   4.482   5.884
 8670SOL    HW226910   6.312   4.639   5.899
 8671SOL     OW26911   0.382   2.195   2.411
 8671SOL    HW126912   0.291   2.215   2.373
 8671SOL    HW226913   0.424   2.280   2.443
 8672SOL     OW26914   6.838   0.730   3.466
 8672SOL    HW126915   6.830   0.734   3.367
 8672SOL    HW226916   6.916   0.785   3.496
 8673SOL     OW26917   1.133   2.046   0.618
 8673SOL    HW126918   1.158   2.138   0.587
 8673SOL    HW226919   1.210   1.984   0.605
 8674SOL     OW26920   0.331   4.652   3.107
 8674SOL    HW126921   0.427   4.658   3.136
 8674SOL    HW226922   0.325   4.597   3.024
 8675SOL     OW26923   3.744   1.888   5.779
 8675SOL    HW126924   3.697   1.888   5.690
 8675SOL    HW226925   3.704   1.818   5.838
 8676SOL     OW26926   5.707   0.770   0.830
 8676SOL    HW126927   5.718   0.672   0.815
 8676SOL    HW226928   5.725   0.820   0.745
 8677SOL     OW26929   1.207   6.706   5.437
 8677SOL    HW126930   1.252   6.674   5.521
 8677SOL    HW226931   1.190   6.629   5.376
 8678SOL     OW26932   1.620   0.894   1.071
 8678SOL    HW126933   1.560   0.823   1.108
 8678SOL    HW226934   1.597   0.911   0.975
 8679SOL     OW26935   2.149   1.227   4.078
 8679SOL    HW126936   2.217   1.163   4.043
 8679SOL    HW226937   2.098   1.185   4.152
 8680SOL     OW26938   6.527   2.328   6.320
 8680SOL    HW126939   6.576   2.413   6.340
 8680SOL    HW226940   6.431   2.349   6.304
 8681SOL     OW26941   5.779   5.944   0.828
 8681SOL    HW126942   5.830   5.947   0.742
 8681SOL    HW226943   5.840   5.966   0.904
 8682SOL     OW26944   0.343   0.359   0.903
 8682SOL    HW126945   0.342   0.456   0.879
 8682SOL    HW226946   0.425   0.316   0.866
 8683SOL     OW26947   1.894   4.155   4.703
 8683SOL    HW126948   1.993   4.154   4.719
 8683SOL    HW226949   1.876   4.138   4.606
 8684SOL     OW26950   0.730   3.928   4.494
 8684SOL    HW126951   0.781   3.995   4.440
 8684SOL    HW226952   0.633   3.952   4.496
 8685SOL     OW26953   4.904   2.464   5.440
 8685SOL    HW126954   4.863   2.542   5.488
 8685SOL    HW226955   4.883   2.380   5.488
 8686SOL     OW26956   6.595   6.051   2.787
 8686SOL    HW126957   6.579   5.975   2.724
 8686SOL    HW226958   6.676   6.102   2.757
 8687SOL     OW26959   6.001   3.232   3.217
 8687SOL    HW126960   5.977   3.249   3.313
 8687SOL    HW226961   5.979   3.137   3.193
 8688SOL     OW26962   1.135   4.138   6.207
 8688SOL    HW126963   1.186   4.052   6.212
 8688SOL    HW226964   1.162   4.198   6.283
 8689SOL     OW26965   4.491   3.440   0.622
 8689SOL    HW126966   4.391   3.440   0.614
 8689SOL    HW226967   4.522   3.352   0.657
 8690SOL     OW26968   1.948   2.244   3.404
 8690SOL    HW126969   1.977   2.149   3.412
 8690SOL    HW226970   1.854   2.247   3.370
 8691SOL     OW26971   2.795   2.323   4.699
 8691SOL    HW126972   2.724   2.383   4.735
 8691SOL    HW226973   2.764   2.281   4.614
 8692SOL     OW26974   4.548   2.050   5.819
 8692SOL    HW126975   4.538   2.088   5.911
 8692SOL    HW226976   4.575   2.122   5.756
 8693SOL     OW26977   5.993   0.805   6.089
 8693SOL    HW126978   5.922   0.835   6.153
 8693SOL    HW226979   5.986   0.707   6.075
 8694SOL     OW26980   5.891   3.002   4.040
 8694SOL    HW126981   5.818   3.038   3.982
 8694SOL    HW226982   5.851   2.936   4.105
 8695SOL     OW26983   4.267   3.820   6.343
 8695SOL    HW126984   4.251   3.831   6.245
 8695SOL    HW226985   4.357   3.857   6.367
 8696SOL     OW26986   2.973   5.737   5.821
 8696SOL    HW126987   2.953   5.717   5.917
 8696SOL    HW226988   3.002   5.833   5.813
 8697SOL     OW26989   1.801   4.379   5.858
 8697SOL    HW126990   1.758   4.325   5.786
 8697SOL    HW226991   1.859   4.449   5.815
 8698SOL     OW26992   5.260   5.826   5.310
 8698SOL    HW126993   5.340   5.774   5.339
 8698SOL    HW226994   5.278   5.867   5.221
 8699SOL     OW26995   1.905   3.199   0.071
 8699SOL    HW126996   1.880   3.177   0.166
 8699SOL    HW226997   1.867   3.131   0.009
 8700SOL     OW26998   0.753   0.156   5.067
 8700SOL    HW126999   0.761   0.123   5.161
 8700SOL    HW227000   0.687   0.230   5.063
 8701SOL     OW27001   1.235   1.928   6.594
 8701SOL    HW127002   1.162   1.866   6.622
 8701SOL    HW227003   1.224   1.951   6.497
 8702SOL     OW27004   5.641   4.066   1.756
 8702SOL    HW127005   5.700   4.143   1.779
 8702SOL    HW227006   5.613   4.071   1.661
 8703SOL     OW27007   2.665   4.707   1.214
 8703SOL    HW127008   2.723   4.780   1.249
 8703SOL    HW227009   2.639   4.645   1.288
 8704SOL     OW27010   0.860   1.915   3.731
 8704SOL    HW127011   0.768   1.939   3.701
 8704SOL    HW227012   0.897   1.989   3.788
 8705SOL     OW27013   4.129   2.624   0.208
 8705SOL    HW127014   4.190   2.687   0.159
 8705SOL    HW227015   4.046   2.672   0.235
 8706SOL     OW27016   4.654   3.188   6.401
 8706SOL    HW127017   4.594   3.267   6.393
 8706SOL    HW227018   4.607   3.106   6.368
 8707SOL     OW27019   1.574   2.146   4.139
 8707SOL    HW127020   1.647   2.187   4.085
 8707SOL    HW227021   1.598   2.148   4.236
 8708SOL     OW27022   5.994   2.182   2.269
 8708SOL    HW127023   6.032   2.274   2.262
 8708SOL    HW227024   5.909   2.185   2.322
 8709SOL     OW27025   6.654   0.098   5.600
 8709SOL    HW127026   6.683   0.068   5.691
 8709SOL    HW227027   6.665   0.022   5.535
 8710SOL     OW27028   2.211   1.268   3.685
 8710SOL    HW127029   2.219   1.175   3.721
 8710SOL    HW227030   2.204   1.265   3.586
 8711SOL     OW27031   1.326   0.453   1.609
 8711SOL    HW127032   1.397   0.391   1.643
 8711SOL    HW227033   1.239   0.433   1.653
 8712SOL     OW27034   1.572   2.692   5.525
 8712SOL    HW127035   1.607   2.739   5.445
 8712SOL    HW227036   1.472   2.692   5.524
 8713SOL     OW27037   0.893   4.934   1.834
 8713SOL    HW127038   0.856   5.010   1.781
 8713SOL    HW227039   0.827   4.860   1.837
 8714SOL     OW27040   6.370   6.332   6.785
 8714SOL    HW127041   6.416   6.354   6.871
 8714SOL    HW227042   6.306   6.405   6.761
 8715SOL     OW27043   2.765   2.267   0.561
 8715SOL    HW127044   2.836   2.235   0.624
 8715SOL    HW227045   2.703   2.328   0.610
 8716SOL     OW27046   6.476   0.021   1.444
 8716SOL    HW127047   6.527   6.994   1.376
 8716SOL    HW227048   6.492   7.009   1.535
 8717SOL     OW27049   2.475   4.603   0.234
 8717SOL    HW127050   2.378   4.611   0.214
 8717SOL    HW227051   2.490   4.540   0.310
 8718SOL     OW27052   2.411   4.640   6.282
 8718SOL    HW127053   2.357   4.723   6.268
 8718SOL    HW227054   2.350   4.561   6.286
 8719SOL     OW27055   3.660   0.918   5.811
 8719SOL    HW127056   3.711   1.004   5.818
 8719SOL    HW227057   3.582   0.930   5.750
 8720SOL     OW27058   0.012   4.058   4.866
 8720SOL    HW127059   0.097   4.051   4.917
 8720SOL    HW227060   0.022   4.124   4.792
 8721SOL     OW27061   6.891   6.856   6.427
 8721SOL    HW127062   6.880   6.768   6.381
 8721SOL    HW227063   6.989   6.880   6.431
 8722SOL     OW27064   3.970   1.162   1.401
 8722SOL    HW127065   3.913   1.150   1.482
 8722SOL    HW227066   3.981   1.259   1.382
 8723SOL     OW27067   5.179   7.014   2.227
 8723SOL    HW127068   5.100   0.014   2.171
 8723SOL    HW227069   5.154   7.020   2.324
 8724SOL     OW27070   4.062   0.331   4.574
 8724SOL    HW127071   4.093   0.408   4.630
 8724SOL    HW227072   4.132   0.261   4.572
 8725SOL     OW27073   0.645   6.447   4.395
 8725SOL    HW127074   0.653   6.480   4.489
 8725SOL    HW227075   0.623   6.350   4.395
 8726SOL     OW27076   0.824   1.110   0.588
 8726SOL    HW127077   0.846   1.058   0.670
 8726SOL    HW227078   0.845   1.055   0.507
 8727SOL     OW27079   5.209   5.627   6.112
 8727SOL    HW127080   5.226   5.669   6.023
 8727SOL    HW227081   5.257   5.678   6.183
 8728SOL     OW27082   6.150   0.434   3.247
 8728SOL    HW127083   6.154   0.480   3.158
 8728SOL    HW227084   6.166   0.336   3.234
 8729SOL     OW27085   3.733   5.395   6.235
 8729SOL    HW127086   3.810   5.400   6.171
 8729SOL    HW227087   3.699   5.487   6.252
 8730SOL     OW27088   4.985   4.756   2.253
 8730SOL    HW127089   4.921   4.684   2.279
 8730SOL    HW227090   4.948   4.808   2.176
 8731SOL     OW27091   0.306   2.046   3.217
 8731SOL    HW127092   0.240   2.029   3.290
 8731SOL    HW227093   0.352   1.961   3.193
 8732SOL     OW27094   5.203   5.429   1.126
 8732SOL    HW127095   5.206   5.523   1.093
 8732SOL    HW227096   5.297   5.395   1.139
 8733SOL     OW27097   0.225   4.703   2.341
 8733SOL    HW127098   0.142   4.687   2.287
 8733SOL    HW227099   0.295   4.637   2.314
 8734SOL     OW27100   6.879   3.532   2.223
 8734SOL    HW127101   6.919   3.551   2.313
 8734SOL    HW227102   6.950   3.498   2.162
 8735SOL     OW27103   1.995   4.090   5.823
 8735SOL    HW127104   2.056   4.169   5.820
 8735SOL    HW227105   1.910   4.112   5.775
 8736SOL     OW27106   0.854   5.550   2.443
 8736SOL    HW127107   0.947   5.516   2.458
 8736SOL    HW227108   0.830   5.615   2.515
 8737SOL     OW27109   1.518   5.258   6.686
 8737SOL    HW127110   1.489   5.218   6.773
 8737SOL    HW227111   1.438   5.296   6.639
 8738SOL     OW27112   1.240   3.752   3.487
 8738SOL    HW127113   1.297   3.676   3.456
 8738SOL    HW227114   1.194   3.793   3.408
 8739SOL     OW27115   5.228   4.175   5.338
 8739SOL    HW127116   5.297   4.146   5.272
 8739SOL    HW227117   5.151   4.111   5.336
 8740SOL     OW27118   3.440   1.524   4.038
 8740SOL    HW127119   3.537   1.536   4.059
 8740SOL    HW227120   3.385   1.536   4.121
 8741SOL     OW27121   1.071   0.167   2.267
 8741SOL    HW127122   1.050   0.071   2.287
 8741SOL    HW227123   1.156   0.172   2.215
 8742SOL     OW27124   3.223   1.370   2.775
 8742SOL    HW127125   3.139   1.345   2.823
 8742SOL    HW227126   3.200   1.426   2.696
 8743SOL     OW27127   1.600   0.679   1.793
 8743SOL    HW127128   1.573   0.599   1.847
 8743SOL    HW227129   1.548   0.681   1.708
 8744SOL     OW27130   3.709   4.003   6.703
 8744SOL    HW127131   3.651   3.948   6.643
 8744SOL    HW227132   3.805   3.994   6.674
 8745SOL     OW27133   6.631   1.418   6.160
 8745SOL    HW127134   6.595   1.507   6.132
 8745SOL    HW227135   6.589   1.391   6.247
 8746SOL     OW27136   5.137   5.016   4.555
 8746SOL    HW127137   5.179   4.978   4.473
 8746SOL    HW227138   5.066   4.955   4.588
 8747SOL     OW27139   6.714   0.697   1.851
 8747SOL    HW127140   6.784   0.658   1.910
 8747SOL    HW227141   6.629   0.707   1.902
 8748SOL     OW27142   0.933   2.130   3.426
 8748SOL    HW127143   1.005   2.110   3.493
 8748SOL    HW227144   0.919   2.228   3.420
 8749SOL     OW27145   2.578   1.543   5.517
 8749SOL    HW127146   2.583   1.630   5.566
 8749SOL    HW227147   2.557   1.561   5.421
 8750SOL     OW27148   4.524   2.667   6.190
 8750SOL    HW127149   4.494   2.675   6.095
 8750SOL    HW227150   4.458   2.713   6.250
 8751SOL     OW27151   0.413   6.242   2.164
 8751SOL    HW127152   0.388   6.247   2.261
 8751SOL    HW227153   0.354   6.304   2.111
 8752SOL     OW27154   4.822   3.175   6.874
 8752SOL    HW127155   4.904   3.214   6.915
 8752SOL    HW227156   4.757   3.150   6.947
 8753SOL     OW27157   1.624   3.072   0.117
 8753SOL    HW127158   1.634   3.152   0.177
 8753SOL    HW227159   1.530   3.039   0.120
 8754SOL     OW27160   2.854   5.369   6.726
 8754SOL    HW127161   2.831   5.448   6.782
 8754SOL    HW227162   2.938   5.326   6.760
 8755SOL     OW27163   0.080   1.787   2.393
 8755SOL    HW127164   0.116   1.720   2.459
 8755SOL    HW227165   0.030   1.739   2.321
 8756SOL     OW27166   2.219   2.609   3.856
 8756SOL    HW127167   2.172   2.655   3.780
 8756SOL    HW227168   2.281   2.673   3.901
 8757SOL     OW27169   4.652   6.515   5.506
 8757SOL    HW127170   4.704   6.484   5.585
 8757SOL    HW227171   4.558   6.534   5.533
 8758SOL     OW27172   3.992   6.844   4.126
 8758SOL    HW127173   3.929   6.908   4.169
 8758SOL    HW227174   4.031   6.887   4.044
 8759SOL     OW27175   6.073   0.854   0.284
 8759SOL    HW127176   6.014   0.933   0.301
 8759SOL    HW227177   6.123   0.831   0.367
 8760SOL     OW27178   2.099   2.178   4.593
 8760SOL    HW127179   2.050   2.252   4.547
 8760SOL    HW227180   2.190   2.210   4.621
 8761SOL     OW27181   4.646   0.849   2.097
 8761SOL    HW127182   4.624   0.926   2.158
 8761SOL    HW227183   4.672   0.884   2.008
 8762SOL     OW27184   1.363   5.074   3.358
 8762SOL    HW127185   1.341   5.066   3.455
 8762SOL    HW227186   1.287   5.117   3.310
 8763SOL     OW27187   0.230   1.219   5.759
 8763SOL    HW127188   0.137   1.196   5.733
 8763SOL    HW227189   0.265   1.290   5.697
 8764SOL     OW27190   3.946   4.863   5.768
 8764SOL    HW127191   3.927   4.904   5.679
 8764SOL    HW227192   3.932   4.764   5.764
 8765SOL     OW27193   5.179   6.822   4.977
 8765SOL    HW127194   5.181   6.888   4.902
 8765SOL    HW227195   5.222   6.861   5.058
 8766SOL     OW27196   5.017   4.764   5.775
 8766SOL    HW127197   5.002   4.766   5.874
 8766SOL    HW227198   5.038   4.670   5.747
 8767SOL     OW27199   3.095   0.797   3.796
 8767SOL    HW127200   3.164   0.861   3.762
 8767SOL    HW227201   3.075   0.729   3.726
 8768SOL     OW27202   6.778   2.847   0.485
 8768SOL    HW127203   6.864   2.874   0.441
 8768SOL    HW227204   6.785   2.752   0.515
 8769SOL     OW27205   6.808   1.217   0.850
 8769SOL    HW127206   6.907   1.225   0.846
 8769SOL    HW227207   6.783   1.123   0.873
 8770SOL     OW27208   5.132   3.408   2.385
 8770SOL    HW127209   5.146   3.440   2.479
 8770SOL    HW227210   5.086   3.319   2.387
 8771SOL     OW27211   0.451   3.257   6.271
 8771SOL    HW127212   0.488   3.337   6.224
 8771SOL    HW227213   0.439   3.278   6.368
 8772SOL     OW27214   5.726   0.152   4.381
 8772SOL    HW127215   5.735   0.161   4.282
 8772SOL    HW227216   5.766   0.065   4.411
 8773SOL     OW27217   6.902   1.917   4.161
 8773SOL    HW127218   6.970   1.956   4.223
 8773SOL    HW227219   6.938   1.916   4.068
 8774SOL     OW27220   1.693   0.268   0.448
 8774SOL    HW127221   1.764   0.214   0.492
 8774SOL    HW227222   1.644   0.321   0.516
 8775SOL     OW27223   5.143   2.014   4.443
 8775SOL    HW127224   5.210   2.027   4.516
 8775SOL    HW227225   5.051   2.033   4.479
 8776SOL     OW27226   4.841   2.889   0.049
 8776SOL    HW127227   4.772   2.955   0.078
 8776SOL    HW227228   4.803   2.831   7.002
 8777SOL     OW27229   1.271   2.096   3.281
 8777SOL    HW127230   1.248   2.185   3.241
 8777SOL    HW227231   1.217   2.083   3.365
 8778SOL     OW27232   4.428   4.430   5.941
 8778SOL    HW127233   4.396   4.337   5.963
 8778SOL    HW227234   4.498   4.457   6.007
 8779SOL     OW27235   3.410   4.883   3.289
 8779SOL    HW127236   3.383   4.866   3.384
 8779SOL    HW227237   3.332   4.866   3.229
 8780SOL     OW27238   6.804   5.330   2.978
 8780SOL    HW127239   6.794   5.426   3.002
 8780SOL    HW227240   6.848   5.281   3.054
 8781SOL     OW27241   3.812   6.304   2.300
 8781SOL    HW127242   3.820   6.306   2.200
 8781SOL    HW227243   3.854   6.220   2.335
 8782SOL     OW27244   5.132   0.580   1.769
 8782SOL    HW127245   5.072   0.646   1.815
 8782SOL    HW227246   5.095   0.488   1.780
 8783SOL     OW27247   4.984   3.414   4.960
 8783SOL    HW127248   4.921   3.483   4.995
 8783SOL    HW227249   4.977   3.410   4.860
 8784SOL     OW27250   5.597   6.562   0.686
 8784SOL    HW127251   5.501   6.533   0.695
 8784SOL    HW227252   5.610   6.648   0.736
 8785SOL     OW27253   0.803   5.667   6.124
 8785SOL    HW127254   0.804   5.586   6.183
 8785SOL    HW227255   0.790   5.749   6.181
 8786SOL     OW27256   4.067   1.963   2.043
 8786SOL    HW127257   4.003   1.900   1.998
 8786SOL    HW227258   4.070   2.049   1.992
 8787SOL     OW27259   3.579   0.343   1.668
 8787SOL    HW127260   3.508   0.381   1.608
 8787SOL    HW227261   3.668   0.354   1.625
 8788SOL     OW27262   0.589   0.113   4.666
 8788SOL    HW127263   0.524   0.174   4.713
 8788SOL    HW227264   0.562   0.105   4.570
 8789SOL     OW27265   0.477   3.590   4.804
 8789SOL    HW127266   0.498   3.686   4.785
 8789SOL    HW227267   0.498   3.534   4.724
 8790SOL     OW27268   5.518   3.029   6.473
 8790SOL    HW127269   5.577   3.096   6.518
 8790SOL    HW227270   5.476   2.969   6.542
 8791SOL     OW27271   4.392   5.525   5.471
 8791SOL    HW127272   4.380   5.619   5.504
 8791SOL    HW227273   4.467   5.481   5.520
 8792SOL     OW27274   4.877   5.223   1.659
 8792SOL    HW127275   4.931   5.229   1.743
 8792SOL    HW227276   4.780   5.229   1.680
 8793SOL     OW27277   0.425   4.681   4.384
 8793SOL    HW127278   0.401   4.649   4.475
 8793SOL    HW227279   0.518   4.716   4.383
 8794SOL     OW27280   0.076   0.265   1.685
 8794SOL    HW127281   0.004   0.256   1.754
 8794SOL    HW227282   0.158   0.217   1.716
 8795SOL     OW27283   1.740   5.449   5.665
 8795SOL    HW127284   1.764   5.440   5.761
 8795SOL    HW227285   1.753   5.360   5.619
 8796SOL     OW27286   6.967   3.528   3.432
 8796SOL    HW127287   6.930   3.520   3.524
 8796SOL    HW227288   0.009   3.456   3.416
 8797SOL     OW27289   5.992   6.981   4.003
 8797SOL    HW127290   6.054   6.974   3.924
 8797SOL    HW227291   5.900   6.956   3.976
 8798SOL     OW27292   4.451   6.346   5.775
 8798SOL    HW127293   4.471   6.444   5.763
 8798SOL    HW227294   4.396   6.333   5.857
 8799SOL     OW27295   2.197   5.180   2.264
 8799SOL    HW127296   2.181   5.190   2.166
 8799SOL    HW227297   2.241   5.092   2.281
 8800SOL     OW27298   7.016   5.656   5.376
 8800SOL    HW127299   6.947   5.726   5.358
 8800SOL    HW227300   0.039   5.677   5.461
 8801SOL     OW27301   6.178   2.336   5.196
 8801SOL    HW127302   6.246   2.409   5.200
 8801SOL    HW227303   6.097   2.363   5.249
 8802SOL     OW27304   1.435   6.353   5.452
 8802SOL    HW127305   1.393   6.284   5.393
 8802SOL    HW227306   1.367   6.386   5.518
 8803SOL     OW27307   6.209   0.388   6.169
 8803SOL    HW127308   6.240   0.429   6.254
 8803SOL    HW227309   6.126   0.335   6.186
 8804SOL     OW27310   1.796   5.663   2.018
 8804SOL    HW127311   1.789   5.600   2.095
 8804SOL    HW227312   1.880   5.717   2.026
 8805SOL     OW27313   4.657   5.287   2.441
 8805SOL    HW127314   4.677   5.352   2.514
 8805SOL    HW227315   4.727   5.296   2.369
 8806SOL     OW27316   2.207   6.782   0.227
 8806SOL    HW127317   2.262   6.728   0.290
 8806SOL    HW227318   2.110   6.774   0.251
 8807SOL     OW27319   4.952   2.564   1.100
 8807SOL    HW127320   4.936   2.589   1.196
 8807SOL    HW227321   5.012   2.631   1.057
 8808SOL     OW27322   2.268   2.215   0.825
 8808SOL    HW127323   2.329   2.158   0.879
 8808SOL    HW227324   2.234   2.163   0.746
 8809SOL     OW27325   1.637   3.710   3.491
 8809SOL    HW127326   1.594   3.715   3.401
 8809SOL    HW227327   1.569   3.731   3.562
 8810SOL     OW27328   0.065   1.571   5.682
 8810SOL    HW127329   0.138   1.563   5.749
 8810SOL    HW227330   7.008   1.608   5.727
 8811SOL     OW27331   4.193   5.942   2.360
 8811SOL    HW127332   4.251   5.927   2.279
 8811SOL    HW227333   4.194   5.859   2.417
 8812SOL     OW27334   3.500   1.357   6.546
 8812SOL    HW127335   3.453   1.328   6.630
 8812SOL    HW227336   3.435   1.401   6.485
 8813SOL     OW27337   2.665   4.634   3.165
 8813SOL    HW127338   2.595   4.580   3.211
 8813SOL    HW227339   2.739   4.654   3.229
 8814SOL     OW27340   5.629   6.809   6.939
 8814SOL    HW127341   5.593   6.736   6.881
 8814SOL    HW227342   5.569   6.823   7.017
 8815SOL     OW27343   5.138   1.372   0.316
 8815SOL    HW127344   5.146   1.282   0.357
 8815SOL    HW227345   5.100   1.364   0.224
 8816SOL     OW27346   0.815   6.270   5.609
 8816SOL    HW127347   0.904   6.255   5.566
 8816SOL    HW227348   0.811   6.221   5.695
 8817SOL     OW27349   1.504   3.383   4.458
 8817SOL    HW127350   1.567   3.319   4.415
 8817SOL    HW227351   1.553   3.439   4.524
 8818SOL     OW27352   2.198   0.073   4.072
 8818SOL    HW127353   2.283   0.069   4.020
 8818SOL    HW227354   2.126   0.026   4.022
 8819SOL     OW27355   5.417   4.256   6.214
 8819SOL    HW127356   5.516   4.254   6.199
 8819SOL    HW227357   5.398   4.252   6.312
 8820SOL     OW27358   3.513   0.756   4.414
 8820SOL    HW127359   3.474   0.720   4.329
 8820SOL    HW227360   3.487   0.696   4.490
 8821SOL     OW27361   0.961   4.467   0.609
 8821SOL    HW127362   0.991   4.502   0.521
 8821SOL    HW227363   0.866   4.437   0.603
 8822SOL     OW27364   6.783   6.909   3.686
 8822SOL    HW127365   6.731   6.900   3.771
 8822SOL    HW227366   6.833   6.995   3.686
 8823SOL     OW27367   3.515   1.040   2.946
 8823SOL    HW127368   3.546   0.981   3.020
 8823SOL    HW227369   3.575   1.029   2.867
 8824SOL     OW27370   2.189   1.177   1.802
 8824SOL    HW127371   2.235   1.093   1.773
 8824SOL    HW227372   2.169   1.233   1.721
 8825SOL     OW27373   0.159   0.059   7.001
 8825SOL    HW127374   0.151   6.985   7.008
 8825SOL    HW227375   0.074   0.101   0.008
 8826SOL     OW27376   1.105   3.194   0.912
 8826SOL    HW127377   1.023   3.164   0.959
 8826SOL    HW227378   1.131   3.127   0.842
 8827SOL     OW27379   4.216   0.325   2.367
 8827SOL    HW127380   4.185   0.406   2.416
 8827SOL    HW227381   4.228   0.250   2.432
 8828SOL     OW27382   4.218   3.130   6.365
 8828SOL    HW127383   4.187   3.085   6.281
 8828SOL    HW227384   4.209   3.229   6.355
 8829SOL     OW27385   0.047   1.956   1.884
 8829SOL    HW127386   6.976   1.949   1.911
 8829SOL    HW227387   0.085   1.865   1.868
 8830SOL     OW27388   3.002   1.946   2.970
 8830SOL    HW127389   3.011   1.862   3.024
 8830SOL    HW227390   2.925   1.937   2.907
 8831SOL     OW27391   0.351   2.032   1.719
 8831SOL    HW127392   0.371   1.935   1.709
 8831SOL    HW227393   0.280   2.045   1.788
 8832SOL     OW27394   6.747   0.225   4.258
 8832SOL    HW127395   6.761   0.304   4.197
 8832SOL    HW227396   6.680   0.163   4.218
 8833SOL     OW27397   3.465   2.445   0.795
 8833SOL    HW127398   3.408   2.507   0.849
 8833SOL    HW227399   3.456   2.352   0.831
 8834SOL     OW27400   5.598   3.958   5.359
 8834SOL    HW127401   5.625   3.872   5.316
 8834SOL    HW227402   5.598   3.947   5.459
 8835SOL     OW27403   6.148   0.741   5.599
 8835SOL    HW127404   6.187   0.710   5.512
 8835SOL    HW227405   6.222   0.777   5.657
 8836SOL     OW27406   4.901   2.009   6.728
 8836SOL    HW127407   4.959   2.022   6.647
 8836SOL    HW227408   4.918   2.084   6.793
 8837SOL     OW27409   5.862   0.129   1.809
 8837SOL    HW127410   5.956   0.098   1.797
 8837SOL    HW227411   5.816   0.132   1.720
 8838SOL     OW27412   6.961   4.173   3.089
 8838SOL    HW127413   7.024   4.101   3.060
 8838SOL    HW227414   6.995   4.215   3.173
 8839SOL     OW27415   5.428   6.217   3.180
 8839SOL    HW127416   5.526   6.201   3.189
 8839SOL    HW227417   5.390   6.240   3.270
 8840SOL     OW27418   0.222   0.832   1.234
 8840SOL    HW127419   0.132   0.852   1.195
 8840SOL    HW227420   0.289   0.895   1.196
 8841SOL     OW27421   3.814   1.513   1.923
 8841SOL    HW127422   3.740   1.453   1.954
 8841SOL    HW227423   3.827   1.500   1.824
 8842SOL     OW27424   3.758   3.003   4.038
 8842SOL    HW127425   3.780   2.929   4.102
 8842SOL    HW227426   3.817   3.082   4.056
 8843SOL     OW27427   2.068   4.046   5.436
 8843SOL    HW127428   1.993   4.009   5.490
 8843SOL    HW227429   2.134   3.973   5.415
 8844SOL     OW27430   4.948   1.489   4.937
 8844SOL    HW127431   4.912   1.415   4.881
 8844SOL    HW227432   4.887   1.568   4.930
 8845SOL     OW27433   1.003   5.439   1.623
 8845SOL    HW127434   1.053   5.487   1.695
 8845SOL    HW227435   1.026   5.341   1.627
 8846SOL     OW27436   5.338   4.827   3.259
 8846SOL    HW127437   5.407   4.776   3.208
 8846SOL    HW227438   5.304   4.770   3.334
 8847SOL     OW27439   2.391   1.995   2.699
 8847SOL    HW127440   2.291   1.998   2.699
 8847SOL    HW227441   2.426   2.054   2.771
 8848SOL     OW27442   3.486   1.478   1.149
 8848SOL    HW127443   3.464   1.507   1.242
 8848SOL    HW227444   3.476   1.556   1.087
 8849SOL     OW27445   3.339   5.824   4.606
 8849SOL    HW127446   3.307   5.732   4.584
 8849SOL    HW227447   3.428   5.840   4.564
 8850SOL     OW27448   2.912   1.959   0.591
 8850SOL    HW127449   2.994   1.912   0.625
 8850SOL    HW227450   2.906   1.948   0.492
 8851SOL     OW27451   0.722   4.874   3.618
 8851SOL    HW127452   0.738   4.781   3.584
 8851SOL    HW227453   0.623   4.890   3.626
 8852SOL     OW27454   5.714   2.659   5.802
 8852SOL    HW127455   5.662   2.574   5.789
 8852SOL    HW227456   5.657   2.737   5.776
 8853SOL     OW27457   4.157   1.265   5.213
 8853SOL    HW127458   4.138   1.182   5.266
 8853SOL    HW227459   4.226   1.319   5.262
 8854SOL     OW27460   1.568   2.111   5.875
 8854SOL    HW127461   1.652   2.056   5.878
 8854SOL    HW227462   1.489   2.051   5.863
 8855SOL     OW27463   6.345   5.972   6.546
 8855SOL    HW127464   6.328   6.059   6.593
 8855SOL    HW227465   6.324   5.983   6.449
 8856SOL     OW27466   5.814   1.019   4.997
 8856SOL    HW127467   5.744   1.072   5.045
 8856SOL    HW227468   5.779   0.927   4.978
 8857SOL     OW27469   6.216   1.891   3.693
 8857SOL    HW127470   6.186   1.832   3.618
 8857SOL    HW227471   6.142   1.954   3.718
 8858SOL     OW27472   1.118   3.876   5.943
 8858SOL    HW127473   1.043   3.942   5.940
 8858SOL    HW227474   1.157   3.867   5.851
 8859SOL     OW27475   1.150   5.940   5.406
 8859SOL    HW127476   1.182   5.852   5.369
 8859SOL    HW227477   1.050   5.943   5.403
 8860SOL     OW27478   1.042   2.016   2.608
 8860SOL    HW127479   1.084   2.071   2.536
 8860SOL    HW227480   1.025   2.074   2.688
 8861SOL     OW27481   3.984   3.446   0.201
 8861SOL    HW127482   4.020   3.473   0.112
 8861SOL    HW227483   3.965   3.348   0.200
 8862SOL     OW27484   5.801   1.354   4.772
 8862SOL    HW127485   5.864   1.356   4.849
 8862SOL    HW227486   5.839   1.299   4.699
 8863SOL     OW27487   1.946   5.674   4.798
 8863SOL    HW127488   2.016   5.737   4.832
 8863SOL    HW227489   1.965   5.581   4.831
 8864SOL     OW27490   1.973   3.260   6.336
 8864SOL    HW127491   1.969   3.281   6.434
 8864SOL    HW227492   2.069   3.252   6.308
 8865SOL     OW27493   2.428   1.882   5.511
 8865SOL    HW127494   2.406   1.967   5.558
 8865SOL    HW227495   2.387   1.882   5.420
 8866SOL     OW27496   3.456   6.559   3.564
 8866SOL    HW127497   3.488   6.502   3.639
 8866SOL    HW227498   3.415   6.643   3.601
 8867SOL     OW27499   5.838   2.185   3.225
 8867SOL    HW127500   5.853   2.117   3.154
 8867SOL    HW227501   5.863   2.275   3.191
 8868SOL     OW27502   4.827   4.289   0.756
 8868SOL    HW127503   4.798   4.193   0.746
 8868SOL    HW227504   4.833   4.311   0.853
 8869SOL     OW27505   4.871   3.562   3.113
 8869SOL    HW127506   4.860   3.640   3.052
 8869SOL    HW227507   4.870   3.478   3.059
 8870SOL     OW27508   4.118   1.556   0.900
 8870SOL    HW127509   4.067   1.640   0.916
 8870SOL    HW227510   4.189   1.546   0.970
 8871SOL     OW27511   2.006   1.954   3.419
 8871SOL    HW127512   2.024   1.879   3.355
 8871SOL    HW227513   1.944   1.923   3.490
 8872SOL     OW27514   1.816   3.784   4.443
 8872SOL    HW127515   1.908   3.754   4.415
 8872SOL    HW227516   1.767   3.818   4.363
 8873SOL     OW27517   0.500   5.417   4.440
 8873SOL    HW127518   0.595   5.444   4.430
 8873SOL    HW227519   0.479   5.344   4.376
 8874SOL     OW27520   2.763   0.567   0.960
 8874SOL    HW127521   2.790   0.546   0.866
 8874SOL    HW227522   2.844   0.568   1.019
 8875SOL     OW27523   1.369   2.939   4.260
 8875SOL    HW127524   1.455   2.960   4.215
 8875SOL    HW227525   1.372   2.972   4.354
 8876SOL     OW27526   0.722   1.089   4.583
 8876SOL    HW127527   0.699   1.120   4.675
 8876SOL    HW227528   0.812   1.123   4.558
 8877SOL     OW27529   3.117   0.839   4.353
 8877SOL    HW127530   3.164   0.897   4.285
 8877SOL    HW227531   3.105   0.747   4.316
 8878SOL     OW27532   0.041   4.146   0.105
 8878SOL    HW127533   6.967   4.131   0.110
 8878SOL    HW227534   0.064   4.193   0.020
 8879SOL     OW27535   5.817   6.399   0.297
 8879SOL    HW127536   5.763   6.330   0.249
 8879SOL    HW227537   5.756   6.464   0.341
 8880SOL     OW27538   6.686   4.572   4.422
 8880SOL    HW127539   6.675   4.477   4.451
 8880SOL    HW227540   6.777   4.584   4.381
 8881SOL     OW27541   0.100   1.161   2.000
 8881SOL    HW127542   0.041   1.207   2.067
 8881SOL    HW227543   0.193   1.196   2.008
 8882SOL     OW27544   5.356   2.358   6.332
 8882SOL    HW127545   5.342   2.389   6.238
 8882SOL    HW227546   5.451   2.374   6.360
 8883SOL     OW27547   5.806   0.649   5.673
 8883SOL    HW127548   5.864   0.731   5.670
 8883SOL    HW227549   5.860   0.572   5.707
 8884SOL     OW27550   5.565   0.003   5.918
 8884SOL    HW127551   5.619   6.965   5.864
 8884SOL    HW227552   5.626   0.057   5.977
 8885SOL     OW27553   5.749   3.681   1.684
 8885SOL    HW127554   5.812   3.748   1.643
 8885SOL    HW227555   5.788   3.648   1.770
 8886SOL     OW27556   2.683   6.646   6.027
 8886SOL    HW127557   2.646   6.650   6.120
 8886SOL    HW227558   2.751   6.718   6.016
 8887SOL     OW27559   2.840   0.820   1.499
 8887SOL    HW127560   2.832   0.900   1.439
 8887SOL    HW227561   2.788   0.836   1.583
 8888SOL     OW27562   2.175   1.345   1.568
 8888SOL    HW127563   2.101   1.408   1.594
 8888SOL    HW227564   2.180   1.338   1.468
 8889SOL     OW27565   4.550   0.159   4.674
 8889SOL    HW127566   4.538   0.103   4.593
 8889SOL    HW227567   4.638   0.136   4.718
 8890SOL     OW27568   0.160   5.576   4.853
 8890SOL    HW127569   0.138   5.504   4.918
 8890SOL    HW227570   0.229   5.544   4.788
 8891SOL     OW27571   5.434   3.136   6.231
 8891SOL    HW127572   5.463   3.116   6.325
 8891SOL    HW227573   5.468   3.064   6.170
 8892SOL     OW27574   1.951   0.576   3.415
 8892SOL    HW127575   2.044   0.552   3.443
 8892SOL    HW227576   1.887   0.551   3.488
 8893SOL     OW27577   0.130   1.527   0.882
 8893SOL    HW127578   0.091   1.567   0.965
 8893SOL    HW227579   0.096   1.433   0.871
 8894SOL     OW27580   4.248   2.422   6.211
 8894SOL    HW127581   4.211   2.414   6.304
 8894SOL    HW227582   4.347   2.435   6.216
 8895SOL     OW27583   0.770   6.676   1.596
 8895SOL    HW127584   0.781   6.596   1.536
 8895SOL    HW227585   0.851   6.686   1.653
 8896SOL     OW27586   1.834   4.038   4.948
 8896SOL    HW127587   1.886   4.087   5.018
 8896SOL    HW227588   1.837   4.089   4.863
 8897SOL     OW27589   1.417   1.433   1.589
 8897SOL    HW127590   1.447   1.528   1.596
 8897SOL    HW227591   1.446   1.382   1.670
 8898SOL     OW27592   5.929   3.409   4.292
 8898SOL    HW127593   5.958   3.504   4.281
 8898SOL    HW227594   5.907   3.370   4.203
 8899SOL     OW27595   1.935   4.557   0.371
 8899SOL    HW127596   1.951   4.564   0.469
 8899SOL    HW227597   1.910   4.646   0.334
 8900SOL     OW27598   4.632   2.315   3.032
 8900SOL    HW127599   4.592   2.228   3.063
 8900SOL    HW227600   4.559   2.376   3.001
 8901SOL     OW27601   1.268   0.454   2.635
 8901SOL    HW127602   1.224   0.379   2.586
 8901SOL    HW227603   1.215   0.474   2.718
 8902SOL     OW27604   1.696   5.644   6.088
 8902SOL    HW127605   1.748   5.569   6.049
 8902SOL    HW227606   1.751   5.688   6.160
 8903SOL     OW27607   1.944   1.813   3.999
 8903SOL    HW127608   1.847   1.791   4.008
 8903SOL    HW227609   1.980   1.843   4.088
 8904SOL     OW27610   0.141   5.777   4.030
 8904SOL    HW127611   0.225   5.832   4.033
 8904SOL    HW227612   0.086   5.805   3.952
 8905SOL     OW27613   2.480   3.319   5.584
 8905SOL    HW127614   2.534   3.357   5.659
 8905SOL    HW227615   2.387   3.302   5.616
 8906SOL     OW27616   6.830   6.180   6.074
 8906SOL    HW127617   6.844   6.136   5.985
 8906SOL    HW227618   6.889   6.136   6.142
 8907SOL     OW27619   3.206   2.650   5.332
 8907SOL    HW127620   3.192   2.560   5.292
 8907SOL    HW227621   3.120   2.701   5.330
 8908SOL     OW27622   1.374   2.007   1.531
 8908SOL    HW127623   1.401   2.098   1.501
 8908SOL    HW227624   1.356   2.008   1.629
 8909SOL     OW27625   2.538   0.902   5.946
 8909SOL    HW127626   2.465   0.834   5.953
 8909SOL    HW227627   2.626   0.858   5.958
 8910SOL     OW27628   2.810   2.768   6.674
 8910SOL    HW127629   2.856   2.856   6.682
 8910SOL    HW227630   2.872   2.695   6.703
 8911SOL     OW27631   3.496   2.039   4.676
 8911SOL    HW127632   3.553   1.967   4.636
 8911SOL    HW227633   3.471   2.014   4.769
 8912SOL     OW27634   4.284   1.658   6.175
 8912SOL    HW127635   4.278   1.758   6.183
 8912SOL    HW227636   4.251   1.615   6.259
 8913SOL     OW27637   4.834   4.477   1.601
 8913SOL    HW127638   4.743   4.479   1.642
 8913SOL    HW227639   4.896   4.424   1.659
 8914SOL     OW27640   3.747   1.450   5.135
 8914SOL    HW127641   3.711   1.361   5.105
 8914SOL    HW227642   3.833   1.468   5.089
 8915SOL     OW27643   2.082   3.284   3.221
 8915SOL    HW127644   2.039   3.252   3.137
 8915SOL    HW227645   2.036   3.242   3.300
 8916SOL     OW27646   0.055   4.605   2.869
 8916SOL    HW127647   0.011   4.515   2.872
 8916SOL    HW227648   0.039   4.653   2.955
 8917SOL     OW27649   6.002   6.531   6.713
 8917SOL    HW127650   6.045   6.527   6.803
 8917SOL    HW227651   5.970   6.440   6.687
 8918SOL     OW27652   5.303   5.998   6.538
 8918SOL    HW127653   5.216   5.986   6.586
 8918SOL    HW227654   5.360   6.064   6.588
 8919SOL     OW27655   3.328   4.582   0.960
 8919SOL    HW127656   3.363   4.498   1.001
 8919SOL    HW227657   3.289   4.561   0.870
 8920SOL     OW27658   6.184   5.118   5.911
 8920SOL    HW127659   6.167   5.147   6.005
 8920SOL    HW227660   6.196   5.199   5.853
 8921SOL     OW27661   1.248   0.694   3.734
 8921SOL    HW127662   1.189   0.768   3.701
 8921SOL    HW227663   1.191   0.625   3.780
 8922SOL     OW27664   1.624   4.933   1.035
 8922SOL    HW127665   1.526   4.919   1.051
 8922SOL    HW227666   1.655   4.873   0.962
 8923SOL     OW27667   1.970   4.006   6.743
 8923SOL    HW127668   2.025   4.072   6.795
 8923SOL    HW227669   1.973   4.028   6.646
 8924SOL     OW27670   3.247   5.056   5.007
 8924SOL    HW127671   3.177   5.048   4.936
 8924SOL    HW227672   3.265   5.153   5.025
 8925SOL     OW27673   6.769   6.976   2.086
 8925SOL    HW127674   6.825   6.932   2.156
 8925SOL    HW227675   6.713   0.022   2.128
 8926SOL     OW27676   5.422   2.390   1.966
 8926SOL    HW127677   5.521   2.402   1.976
 8926SOL    HW227678   5.404   2.337   1.883
 8927SOL     OW27679   2.464   2.712   5.109
 8927SOL    HW127680   2.488   2.719   5.206
 8927SOL    HW227681   2.441   2.803   5.075
 8928SOL     OW27682   0.713   0.661   5.689
 8928SOL    HW127683   0.661   0.607   5.622
 8928SOL    HW227684   0.667   0.658   5.777
 8929SOL     OW27685   6.998   3.591   4.001
 8929SOL    HW127686   6.945   3.621   4.080
 8929SOL    HW227687   6.991   3.492   3.992
 8930SOL     OW27688   1.366   5.231   4.672
 8930SOL    HW127689   1.273   5.239   4.709
 8930SOL    HW227690   1.377   5.294   4.596
 8931SOL     OW27691   4.877   1.491   1.235
 8931SOL    HW127692   4.931   1.462   1.156
 8931SOL    HW227693   4.824   1.414   1.269
 8932SOL     OW27694   5.722   0.601   6.506
 8932SOL    HW127695   5.803   0.640   6.549
 8932SOL    HW227696   5.744   0.511   6.469
 8933SOL     OW27697   1.851   0.751   4.625
 8933SOL    HW127698   1.766   0.777   4.579
 8933SOL    HW227699   1.895   0.677   4.573
 8934SOL     OW27700   3.461   5.913   2.960
 8934SOL    HW127701   3.554   5.933   2.930
 8934SOL    HW227702   3.451   5.814   2.973
 8935SOL     OW27703   4.221   2.217   2.638
 8935SOL    HW127704   4.252   2.228   2.544
 8935SOL    HW227705   4.129   2.177   2.638
 8936SOL     OW27706   0.587   5.097   1.332
 8936SOL    HW127707   0.515   5.162   1.355
 8936SOL    HW227708   0.663   5.107   1.395
 8937SOL     OW27709   6.998   6.490   3.959
 8937SOL    HW127710   7.011   6.576   4.008
 8937SOL    HW227711   6.950   6.507   3.873
 8938SOL     OW27712   6.469   0.767   0.690
 8938SOL    HW127713   6.539   0.738   0.756
 8938SOL    HW227714   6.379   0.764   0.732
 8939SOL     OW27715   0.046   2.541   4.168
 8939SOL    HW127716   7.007   2.604   4.123
 8939SOL    HW227717   0.127   2.592   4.197
 8940SOL     OW27718   6.962   3.057   1.037
 8940SOL    HW127719   6.871   3.038   0.999
 8940SOL    HW227720   7.014   2.971   1.043
 8941SOL     OW27721   5.271   2.269   2.192
 8941SOL    HW127722   5.313   2.303   2.108
 8941SOL    HW227723   5.296   2.328   2.268
 8942SOL     OW27724   6.600   4.449   3.433
 8942SOL    HW127725   6.518   4.412   3.390
 8942SOL    HW227726   6.586   4.545   3.456
 8943SOL     OW27727   4.585   3.847   0.119
 8943SOL    HW127728   4.674   3.829   0.078
 8943SOL    HW227729   4.549   3.764   0.161
 8944SOL     OW27730   4.867   5.076   4.266
 8944SOL    HW127731   4.895   5.053   4.359
 8944SOL    HW227732   4.767   5.078   4.260
 8945SOL     OW27733   6.387   4.300   5.145
 8945SOL    HW127734   6.372   4.380   5.086
 8945SOL    HW227735   6.310   4.290   5.208
 8946SOL     OW27736   5.346   1.386   4.114
 8946SOL    HW127737   5.298   1.464   4.156
 8946SOL    HW227738   5.279   1.325   4.072
 8947SOL     OW27739   1.321   5.135   5.987
 8947SOL    HW127740   1.292   5.091   6.072
 8947SOL    HW227741   1.306   5.073   5.911
 8948SOL     OW27742   6.880   0.355   3.255
 8948SOL    HW127743   6.831   0.279   3.213
 8948SOL    HW227744   6.863   0.357   3.353
 8949SOL     OW27745   3.064   6.373   7.024
 8949SOL    HW127746   3.042   6.280   6.994
 8949SOL    HW227747   3.162   6.380   0.015
 8950SOL     OW27748   5.020   4.564   1.280
 8950SOL    HW127749   5.080   4.585   1.357
 8950SOL    HW227750   4.954   4.494   1.308
 8951SOL     OW27751   2.090   1.446   4.455
 8951SOL    HW127752   2.175   1.405   4.421
 8951SOL    HW227753   2.048   1.500   4.382
 8952SOL     OW27754   1.783   4.784   3.563
 8952SOL    HW127755   1.822   4.876   3.553
 8952SOL    HW227756   1.685   4.791   3.581
 8953SOL     OW27757   2.353   4.973   2.335
 8953SOL    HW127758   2.377   5.028   2.415
 8953SOL    HW227759   2.412   4.892   2.331
 8954SOL     OW27760   1.280   5.097   5.060
 8954SOL    HW127761   1.331   5.021   5.018
 8954SOL    HW227762   1.215   5.060   5.127
 8955SOL     OW27763   4.881   2.618   3.416
 8955SOL    HW127764   4.946   2.693   3.428
 8955SOL    HW227765   4.917   2.536   3.462
 8956SOL     OW27766   1.161   6.107   5.925
 8956SOL    HW127767   1.172   6.075   5.830
 8956SOL    HW227768   1.136   6.030   5.983
 8957SOL     OW27769   0.968   5.506   2.039
 8957SOL    HW127770   0.897   5.566   2.001
 8957SOL    HW227771   1.010   5.453   1.965
 8958SOL     OW27772   1.718   3.932   5.243
 8958SOL    HW127773   1.779   3.858   5.213
 8958SOL    HW227774   1.699   3.993   5.166
 8959SOL     OW27775   0.494   3.094   2.533
 8959SOL    HW127776   0.415   3.137   2.575
 8959SOL    HW227777   0.508   3.131   2.441
 8960SOL     OW27778   5.767   4.154   4.344
 8960SOL    HW127779   5.725   4.229   4.293
 8960SOL    HW227780   5.700   4.081   4.356
 8961SOL     OW27781   3.403   0.243   4.864
 8961SOL    HW127782   3.344   0.162   4.854
 8961SOL    HW227783   3.455   0.255   4.779
 8962SOL     OW27784   0.875   5.806   1.321
 8962SOL    HW127785   0.804   5.742   1.291
 8962SOL    HW227786   0.875   5.886   1.261
 8963SOL     OW27787   3.463   6.085   4.362
 8963SOL    HW127788   3.493   6.125   4.276
 8963SOL    HW227789   3.383   6.026   4.346
 8964SOL     OW27790   0.011   3.222   4.173
 8964SOL    HW127791   0.091   3.267   4.211
 8964SOL    HW227792   6.980   3.185   4.247
 8965SOL     OW27793   4.438   5.246   0.319
 8965SOL    HW127794   4.433   5.200   0.230
 8965SOL    HW227795   4.352   5.293   0.337
 8966SOL     OW27796   5.083   5.373   6.076
 8966SOL    HW127797   5.138   5.445   6.119
 8966SOL    HW227798   5.018   5.336   6.143
 8967SOL     OW27799   3.589   7.025   3.160
 8967SOL    HW127800   3.581   6.930   3.191
 8967SOL    HW227801   3.679   0.035   3.183
 8968SOL     OW27802   3.486   4.958   2.079
 8968SOL    HW127803   3.387   4.942   2.084
 8968SOL    HW227804   3.527   4.890   2.018
 8969SOL     OW27805   7.000   1.082   2.931
 8969SOL    HW127806   0.013   0.998   2.970
 8969SOL    HW227807   6.913   1.103   2.977
 8970SOL     OW27808   1.732   1.193   6.202
 8970SOL    HW127809   1.795   1.267   6.228
 8970SOL    HW227810   1.784   1.109   6.185
 8971SOL     OW27811   4.220   5.635   0.478
 8971SOL    HW127812   4.320   5.630   0.487
 8971SOL    HW227813   4.182   5.681   0.559
 8972SOL     OW27814   5.896   4.314   0.710
 8972SOL    HW127815   5.840   4.387   0.750
 8972SOL    HW227816   5.968   4.355   0.653
 8973SOL     OW27817   0.386   2.519   2.199
 8973SOL    HW127818   0.310   2.459   2.175
 8973SOL    HW227819   0.397   2.588   2.127
 8974SOL     OW27820   2.167   4.140   4.456
 8974SOL    HW127821   2.068   4.142   4.439
 8974SOL    HW227822   2.184   4.112   4.551
 8975SOL     OW27823   0.086   0.019   6.450
 8975SOL    HW127824   0.131   0.093   6.501
 8975SOL    HW227825   0.084   0.043   6.353
 8976SOL     OW27826   6.549   6.626   1.795
 8976SOL    HW127827   6.625   6.564   1.778
 8976SOL    HW227828   6.578   6.721   1.779
 8977SOL     OW27829   0.539   4.829   6.143
 8977SOL    HW127830   0.526   4.874   6.231
 8977SOL    HW227831   0.551   4.897   6.072
 8978SOL     OW27832   5.695   5.374   5.513
 8978SOL    HW127833   5.770   5.436   5.490
 8978SOL    HW227834   5.611   5.427   5.526
 8979SOL     OW27835   1.065   5.276   5.818
 8979SOL    HW127836   0.972   5.238   5.820
 8979SOL    HW227837   1.088   5.313   5.908
 8980SOL     OW27838   3.628   0.681   5.323
 8980SOL    HW127839   3.560   0.718   5.386
 8980SOL    HW227840   3.595   0.594   5.285
 8981SOL     OW27841   4.294   3.086   0.091
 8981SOL    HW127842   4.260   3.160   0.033
 8981SOL    HW227843   4.264   3.100   0.185
 8982SOL     OW27844   0.479   1.218   1.541
 8982SOL    HW127845   0.472   1.149   1.469
 8982SOL    HW227846   0.551   1.283   1.518
 8983SOL     OW27847   1.129   6.620   2.857
 8983SOL    HW127848   1.225   6.634   2.879
 8983SOL    HW227849   1.072   6.678   2.916
 8984SOL     OW27850   5.907   0.202   4.136
 8984SOL    HW127851   5.927   0.261   4.058
 8984SOL    HW227852   5.960   0.117   4.127
 8985SOL     OW27853   4.517   2.588   0.860
 8985SOL    HW127854   4.467   2.605   0.775
 8985SOL    HW227855   4.602   2.641   0.860
 8986SOL     OW27856   6.818   4.749   0.707
 8986SOL    HW127857   6.882   4.699   0.765
 8986SOL    HW227858   6.729   4.754   0.751
 8987SOL     OW27859   2.103   6.953   1.485
 8987SOL    HW127860   2.131   6.871   1.536
 8987SOL    HW227861   2.022   6.993   1.529
 8988SOL     OW27862   0.926   5.308   1.080
 8988SOL    HW127863   0.891   5.396   1.049
 8988SOL    HW227864   1.015   5.321   1.125
 8989SOL     OW27865   5.618   1.835   1.724
 8989SOL    HW127866   5.586   1.892   1.799
 8989SOL    HW227867   5.715   1.852   1.708
 8990SOL     OW27868   3.347   6.899   2.239
 8990SOL    HW127869   3.426   6.906   2.301
 8990SOL    HW227870   3.315   6.991   2.215
 8991SOL     OW27871   2.445   2.708   0.703
 8991SOL    HW127872   2.484   2.698   0.794
 8991SOL    HW227873   2.397   2.624   0.678
 8992SOL     OW27874   0.383   3.115   0.010
 8992SOL    HW127875   0.351   3.199   0.053
 8992SOL    HW227876   0.483   3.112   0.012
 8993SOL     OW27877   5.499   2.296   3.605
 8993SOL    HW127878   5.432   2.367   3.586
 8993SOL    HW227879   5.591   2.333   3.595
 8994SOL     OW27880   0.975   4.989   3.476
 8994SOL    HW127881   1.066   4.996   3.517
 8994SOL    HW227882   0.908   4.969   3.548
 8995SOL     OW27883   1.907   3.777   5.145
 8995SOL    HW127884   1.982   3.802   5.084
 8995SOL    HW227885   1.880   3.682   5.127
 8996SOL     OW27886   0.306   3.939   2.762
 8996SOL    HW127887   0.259   3.972   2.845
 8996SOL    HW227888   0.239   3.915   2.693
 8997SOL     OW27889   4.408   1.552   5.153
 8997SOL    HW127890   4.490   1.570   5.208
 8997SOL    HW227891   4.427   1.480   5.087
 8998SOL     OW27892   1.302   2.004   5.816
 8998SOL    HW127893   1.225   2.053   5.775
 8998SOL    HW227894   1.325   1.925   5.759
 8999SOL     OW27895   6.134   1.192   4.821
 8999SOL    HW127896   6.183   1.131   4.759
 8999SOL    HW227897   6.047   1.150   4.847
 9000SOL     OW27898   2.898   4.245   0.525
 9000SOL    HW127899   2.928   4.316   0.589
 9000SOL    HW227900   2.869   4.164   0.575
 9001SOL     OW27901   1.854   5.057   3.567
 9001SOL    HW127902   1.823   5.107   3.648
 9001SOL    HW227903   1.918   5.113   3.515
 9002SOL     OW27904   5.987   4.643   6.283
 9002SOL    HW127905   5.918   4.715   6.285
 9002SOL    HW227906   6.042   4.647   6.367
 9003SOL     OW27907   5.919   2.755   0.028
 9003SOL    HW127908   5.936   2.836   6.997
 9003SOL    HW227909   5.982   2.755   0.106
 9004SOL     OW27910   4.486   6.606   1.006
 9004SOL    HW127911   4.448   6.514   0.999
 9004SOL    HW227912   4.414   6.671   1.030
 9005SOL     OW27913   4.834   2.063   3.065
 9005SOL    HW127914   4.755   2.112   3.027
 9005SOL    HW227915   4.899   2.129   3.102
 9006SOL     OW27916   1.180   5.338   1.202
 9006SOL    HW127917   1.266   5.350   1.153
 9006SOL    HW227918   1.167   5.414   1.265
 9007SOL     OW27919   3.174   6.403   3.944
 9007SOL    HW127920   3.177   6.305   3.963
 9007SOL    HW227921   3.250   6.429   3.885
 9008SOL     OW27922   0.555   4.529   2.339
 9008SOL    HW127923   0.563   4.559   2.244
 9008SOL    HW227924   0.628   4.569   2.393
 9009SOL     OW27925   2.727   6.517   0.223
 9009SOL    HW127926   2.650   6.483   0.277
 9009SOL    HW227927   2.709   6.611   0.196
 9010SOL     OW27928   1.114   6.259   5.120
 9010SOL    HW127929   1.055   6.320   5.068
 9010SOL    HW227930   1.111   6.168   5.079
 9011SOL     OW27931   4.506   1.819   0.835
 9011SOL    HW127932   4.475   1.731   0.800
 9011SOL    HW227933   4.542   1.874   0.760
 9012SOL     OW27934   0.298   4.978   1.602
 9012SOL    HW127935   0.379   5.028   1.633
 9012SOL    HW227936   0.216   5.031   1.624
 9013SOL     OW27937   6.525   6.163   3.326
 9013SOL    HW127938   6.573   6.136   3.243
 9013SOL    HW227939   6.440   6.110   3.334
 9014SOL     OW27940   1.754   0.577   1.171
 9014SOL    HW127941   1.778   0.637   1.095
 9014SOL    HW227942   1.797   0.487   1.157
 9015SOL     OW27943   0.267   1.240   6.107
 9015SOL    HW127944   0.172   1.225   6.133
 9015SOL    HW227945   0.284   1.197   6.018
 9016SOL     OW27946   6.245   6.389   6.317
 9016SOL    HW127947   6.295   6.413   6.234
 9016SOL    HW227948   6.151   6.422   6.310
 9017SOL     OW27949   6.270   2.180   3.889
 9017SOL    HW127950   6.185   2.128   3.892
 9017SOL    HW227951   6.343   2.127   3.932
 9018SOL     OW27952   3.835   2.285   5.564
 9018SOL    HW127953   3.754   2.228   5.547
 9018SOL    HW227954   3.842   2.304   5.662
 9019SOL     OW27955   2.440   0.032   0.601
 9019SOL    HW127956   2.450   6.981   0.665
 9019SOL    HW227957   2.404   0.111   0.650
 9020SOL     OW27958   1.327   4.278   2.774
 9020SOL    HW127959   1.398   4.343   2.749
 9020SOL    HW227960   1.356   4.186   2.747
 9021SOL     OW27961   6.709   5.631   4.786
 9021SOL    HW127962   6.678   5.568   4.857
 9021SOL    HW227963   6.801   5.607   4.757
 9022SOL     OW27964   2.523   0.902   0.355
 9022SOL    HW127965   2.563   0.983   0.311
 9022SOL    HW227966   2.587   0.826   0.350
 9023SOL     OW27967   3.347   2.944   3.798
 9023SOL    HW127968   3.287   2.897   3.734
 9023SOL    HW227969   3.357   3.040   3.771
 9024SOL     OW27970   1.822   6.861   6.395
 9024SOL    HW127971   1.789   6.849   6.489
 9024SOL    HW227972   1.832   6.958   6.375
 9025SOL     OW27973   6.047   5.168   1.621
 9025SOL    HW127974   6.037   5.206   1.713
 9025SOL    HW227975   5.975   5.204   1.563
 9026SOL     OW27976   3.406   2.921   5.132
 9026SOL    HW127977   3.424   2.834   5.177
 9026SOL    HW227978   3.327   2.965   5.174
 9027SOL     OW27979   2.895   2.179   3.118
 9027SOL    HW127980   2.845   2.242   3.059
 9027SOL    HW227981   2.971   2.139   3.067
 9028SOL     OW27982   2.874   4.770   5.340
 9028SOL    HW127983   2.952   4.782   5.401
 9028SOL    HW227984   2.881   4.680   5.295
 9029SOL     OW27985   4.726   6.252   3.229
 9029SOL    HW127986   4.809   6.258   3.174
 9029SOL    HW227987   4.664   6.326   3.204
 9030SOL     OW27988   1.943   0.751   2.380
 9030SOL    HW127989   1.922   0.849   2.380
 9030SOL    HW227990   1.863   0.699   2.411
 9031SOL     OW27991   2.406   6.249   6.008
 9031SOL    HW127992   2.455   6.308   5.944
 9031SOL    HW227993   2.376   6.304   6.087
 9032SOL     OW27994   2.277   1.683   1.690
 9032SOL    HW127995   2.372   1.708   1.708
 9032SOL    HW227996   2.228   1.673   1.777
 9033SOL     OW27997   2.160   3.534   3.353
 9033SOL    HW127998   2.137   3.518   3.449
 9033SOL    HW227999   2.155   3.448   3.302
 9034SOL     OW28000   3.201   6.527   5.890
 9034SOL    HW128001   3.228   6.469   5.967
 9034SOL    HW228002   3.203   6.623   5.919
 9035SOL     OW28003   0.227   1.305   4.130
 9035SOL    HW128004   0.188   1.238   4.067
 9035SOL    HW228005   0.325   1.288   4.140
 9036SOL     OW28006   0.804   2.849   5.755
 9036SOL    HW128007   0.843   2.765   5.793
 9036SOL    HW228008   0.869   2.925   5.768
 9037SOL     OW28009   2.812   4.589   6.414
 9037SOL    HW128010   2.739   4.535   6.456
 9037SOL    HW228011   2.884   4.605   6.481
 9038SOL     OW28012   4.312   6.416   5.489
 9038SOL    HW128013   4.374   6.450   5.560
 9038SOL    HW228014   4.366   6.377   5.414
 9039SOL     OW28015   1.898   5.256   4.832
 9039SOL    HW128016   1.808   5.228   4.799
 9039SOL    HW228017   1.936   5.184   4.889
 9040SOL     OW28018   1.670   1.830   2.697
 9040SOL    HW128019   1.640   1.900   2.633
 9040SOL    HW228020   1.609   1.751   2.691
 9041SOL     OW28021   1.353   3.277   0.975
 9041SOL    HW128022   1.253   3.270   0.967
 9041SOL    HW228023   1.378   3.293   1.070
 9042SOL     OW28024   2.820   4.951   3.205
 9042SOL    HW128025   2.861   4.959   3.114
 9042SOL    HW228026   2.892   4.945   3.274
 9043SOL     OW28027   0.635   2.507   6.012
 9043SOL    HW128028   0.568   2.544   6.078
 9043SOL    HW228029   0.586   2.471   5.933
 9044SOL     OW28030   6.209   0.633   0.787
 9044SOL    HW128031   6.115   0.600   0.783
 9044SOL    HW228032   6.269   0.560   0.822
 9045SOL     OW28033   2.861   0.073   3.196
 9045SOL    HW128034   2.866   0.092   3.098
 9045SOL    HW228035   2.831   7.003   3.209
 9046SOL     OW28036   3.448   4.139   5.405
 9046SOL    HW128037   3.390   4.205   5.358
 9046SOL    HW228038   3.411   4.121   5.496
 9047SOL     OW28039   1.270   4.245   4.225
 9047SOL    HW128040   1.210   4.301   4.283
 9047SOL    HW228041   1.359   4.289   4.218
 9048SOL     OW28042   1.039   3.864   4.677
 9048SOL    HW128043   0.976   3.792   4.647
 9048SOL    HW228044   1.043   3.935   4.606
 9049SOL     OW28045   5.665   6.761   6.171
 9049SOL    HW128046   5.566   6.759   6.159
 9049SOL    HW228047   5.690   6.841   6.226
 9050SOL     OW28048   6.969   4.629   6.805
 9050SOL    HW128049   6.913   4.667   6.880
 9050SOL    HW228050   0.014   4.570   6.843
 9051SOL     OW28051   5.960   5.695   0.090
 9051SOL    HW128052   5.943   5.794   0.098
 9051SOL    HW228053   5.896   5.656   0.023
 9052SOL     OW28054   2.353   4.859   4.420
 9052SOL    HW128055   2.402   4.833   4.503
 9052SOL    HW228056   2.273   4.801   4.408
 9053SOL     OW28057   2.465   2.671   4.013
 9053SOL    HW128058   2.439   2.752   4.066
 9053SOL    HW228059   2.496   2.599   4.075
 9054SOL     OW28060   2.016   0.194   1.996
 9054SOL    HW128061   1.980   0.111   1.954
 9054SOL    HW228062   2.033   0.263   1.925
 9055SOL     OW28063   0.636   2.087   3.805
 9055SOL    HW128064   0.540   2.073   3.829
 9055SOL    HW228065   0.681   2.141   3.875
 9056SOL     OW28066   4.800   0.313   2.923
 9056SOL    HW128067   4.733   0.240   2.938
 9056SOL    HW228068   4.813   0.364   3.008
 9057SOL     OW28069   6.220   6.112   6.748
 9057SOL    HW128070   6.277   6.192   6.767
 9057SOL    HW228071   6.126   6.141   6.730
 9058SOL     OW28072   1.894   2.828   5.150
 9058SOL    HW128073   1.893   2.921   5.187
 9058SOL    HW228074   1.918   2.831   5.052
 9059SOL     OW28075   6.466   1.928   2.939
 9059SOL    HW128076   6.519   1.913   2.856
 9059SOL    HW228077   6.370   1.942   2.915
 9060SOL     OW28078   0.526   3.401   1.740
 9060SOL    HW128079   0.478   3.315   1.756
 9060SOL    HW228080   0.464   3.478   1.755
 9061SOL     OW28081   4.899   5.631   1.850
 9061SOL    HW128082   4.884   5.577   1.767
 9061SOL    HW228083   4.946   5.716   1.827
 9062SOL     OW28084   0.525   4.386   3.663
 9062SOL    HW128085   0.476   4.467   3.695
 9062SOL    HW228086   0.466   4.306   3.672
 9063SOL     OW28087   3.124   0.762   2.523
 9063SOL    HW128088   3.112   0.775   2.621
 9063SOL    HW228089   3.189   0.689   2.507
 9064SOL     OW28090   0.687   4.014   3.496
 9064SOL    HW128091   0.654   3.947   3.563
 9064SOL    HW228092   0.764   4.065   3.535
 9065SOL     OW28093   2.759   5.686   4.956
 9065SOL    HW128094   2.840   5.703   5.013
 9065SOL    HW228095   2.718   5.599   4.983
 9066SOL     OW28096   5.361   5.302   6.266
 9066SOL    HW128097   5.425   5.247   6.212
 9066SOL    HW228098   5.361   5.396   6.232
 9067SOL     OW28099   6.500   0.487   4.795
 9067SOL    HW128100   6.587   0.448   4.824
 9067SOL    HW228101   6.468   0.441   4.712
 9068SOL     OW28102   4.974   0.279   4.823
 9068SOL    HW128103   5.033   0.356   4.849
 9068SOL    HW228104   4.973   0.268   4.724
 9069SOL     OW28105   4.574   2.062   1.682
 9069SOL    HW128106   4.642   1.988   1.688
 9069SOL    HW228107   4.516   2.060   1.764
 9070SOL     OW28108   1.091   2.030   5.504
 9070SOL    HW128109   1.051   1.938   5.494
 9070SOL    HW228110   1.073   2.064   5.596
 9071SOL     OW28111   4.533   1.446   5.854
 9071SOL    HW128112   4.540   1.524   5.916
 9071SOL    HW228113   4.625   1.413   5.830
 9072SOL     OW28114   5.453   0.416   2.119
 9072SOL    HW128115   5.446   0.362   2.035
 9072SOL    HW228116   5.389   0.493   2.115
 9073SOL     OW28117   3.881   0.615   6.843
 9073SOL    HW128118   3.881   0.536   6.904
 9073SOL    HW228119   3.952   0.679   6.872
 9074SOL     OW28120   1.514   6.851   1.309
 9074SOL    HW128121   1.514   6.842   1.409
 9074SOL    HW228122   1.424   6.884   1.279
 9075SOL     OW28123   6.557   0.802   1.392
 9075SOL    HW128124   6.541   0.855   1.475
 9075SOL    HW228125   6.651   0.817   1.361
 9076SOL     OW28126   5.685   6.713   2.433
 9076SOL    HW128127   5.640   6.688   2.518
 9076SOL    HW228128   5.704   6.811   2.433
 9077SOL     OW28129   5.832   1.448   5.928
 9077SOL    HW128130   5.826   1.438   6.028
 9077SOL    HW228131   5.814   1.360   5.885
 9078SOL     OW28132   5.023   5.828   0.055
 9078SOL    HW128133   5.123   5.828   0.048
 9078SOL    HW228134   4.997   5.820   0.151
 9079SOL     OW28135   1.127   0.318   5.680
 9079SOL    HW128136   1.111   0.300   5.583
 9079SOL    HW228137   1.152   0.233   5.726
 9080SOL     OW28138   6.656   3.374   1.042
 9080SOL    HW128139   6.683   3.345   1.134
 9080SOL    HW228140   6.601   3.457   1.048
 9081SOL     OW28141   3.752   1.784   1.462
 9081SOL    HW128142   3.809   1.721   1.409
 9081SOL    HW228143   3.713   1.853   1.402
 9082SOL     OW28144   3.024   6.026   6.120
 9082SOL    HW128145   3.073   6.078   6.049
 9082SOL    HW228146   3.086   5.960   6.161
 9083SOL     OW28147   4.964   4.726   6.045
 9083SOL    HW128148   4.969   4.796   6.116
 9083SOL    HW228149   4.872   4.686   6.043
 9084SOL     OW28150   0.678   2.606   5.636
 9084SOL    HW128151   0.694   2.590   5.538
 9084SOL    HW228152   0.723   2.691   5.663
 9085SOL     OW28153   3.078   5.232   6.765
 9085SOL    HW128154   3.124   5.264   6.682
 9085SOL    HW228155   3.138   5.247   6.844
 9086SOL     OW28156   6.520   4.297   0.636
 9086SOL    HW128157   6.517   4.202   0.669
 9086SOL    HW228158   6.546   4.297   0.539
 9087SOL     OW28159   6.000   2.101   1.725
 9087SOL    HW128160   6.087   2.095   1.675
 9087SOL    HW228161   5.974   2.010   1.757
 9088SOL     OW28162   6.230   0.847   1.721
 9088SOL    HW128163   6.153   0.866   1.660
 9088SOL    HW228164   6.196   0.831   1.814
 9089SOL     OW28165   4.082   5.418   3.533
 9089SOL    HW128166   4.011   5.457   3.591
 9089SOL    HW228167   4.136   5.352   3.585
 9090SOL     OW28168   5.774   6.312   4.527
 9090SOL    HW128169   5.753   6.215   4.512
 9090SOL    HW228170   5.688   6.364   4.534
 9091SOL     OW28171   3.167   2.230   0.281
 9091SOL    HW128172   3.128   2.251   0.371
 9091SOL    HW228173   3.109   2.165   0.234
 9092SOL     OW28174   1.591   6.679   5.394
 9092SOL    HW128175   1.641   6.653   5.477
 9092SOL    HW228176   1.579   6.598   5.337
 9093SOL     OW28177   1.399   5.683   0.533
 9093SOL    HW128178   1.497   5.662   0.525
 9093SOL    HW228179   1.351   5.602   0.567
 9094SOL     OW28180   0.018   5.715   2.048
 9094SOL    HW128181   0.063   5.731   2.136
 9094SOL    HW228182   0.036   5.792   1.987
 9095SOL     OW28183   4.920   3.352   6.671
 9095SOL    HW128184   4.844   3.378   6.612
 9095SOL    HW228185   4.887   3.292   6.744
 9096SOL     OW28186   5.860   3.199   2.909
 9096SOL    HW128187   5.792   3.161   2.847
 9096SOL    HW228188   5.879   3.134   2.983
 9097SOL     OW28189   0.647   3.877   6.820
 9097SOL    HW128190   0.684   3.809   6.884
 9097SOL    HW228191   0.716   3.898   6.751
 9098SOL     OW28192   3.842   3.795   2.175
 9098SOL    HW128193   3.819   3.883   2.219
 9098SOL    HW228194   3.940   3.791   2.160
 9099SOL     OW28195   3.149   3.417   0.780
 9099SOL    HW128196   3.059   3.381   0.754
 9099SOL    HW228197   3.196   3.351   0.838
 9100SOL     OW28198   0.780   3.312   1.320
 9100SOL    HW128199   0.867   3.282   1.357
 9100SOL    HW228200   0.729   3.362   1.390
 9101SOL     OW28201   1.826   2.775   2.738
 9101SOL    HW128202   1.753   2.757   2.805
 9101SOL    HW228203   1.799   2.852   2.680
 9102SOL     OW28204   3.873   5.570   2.338
 9102SOL    HW128205   3.811   5.502   2.376
 9102SOL    HW228206   3.861   5.574   2.239
 9103SOL     OW28207   0.096   3.830   1.154
 9103SOL    HW128208   0.130   3.915   1.195
 9103SOL    HW228209   0.109   3.833   1.055
 9104SOL     OW28210   4.489   6.194   1.784
 9104SOL    HW128211   4.416   6.202   1.852
 9104SOL    HW228212   4.553   6.123   1.813
 9105SOL     OW28213   1.620   0.323   6.650
 9105SOL    HW128214   1.700   0.363   6.695
 9105SOL    HW228215   1.544   0.387   6.654
 9106SOL     OW28216   5.547   4.351   0.495
 9106SOL    HW128217   5.557   4.292   0.574
 9106SOL    HW228218   5.625   4.338   0.433
 9107SOL     OW28219   4.041   6.902   6.729
 9107SOL    HW128220   3.995   6.953   6.657
 9107SOL    HW228221   4.010   6.807   6.728
 9108SOL     OW28222   4.826   4.483   5.247
 9108SOL    HW128223   4.849   4.395   5.207
 9108SOL    HW228224   4.901   4.547   5.231
 9109SOL     OW28225   2.411   2.083   3.058
 9109SOL    HW128226   2.378   1.991   3.077
 9109SOL    HW228227   2.380   2.146   3.130
 9110SOL     OW28228   2.502   4.822   3.807
 9110SOL    HW128229   2.575   4.890   3.811
 9110SOL    HW228230   2.541   4.730   3.804
 9111SOL     OW28231   3.572   4.246   1.588
 9111SOL    HW128232   3.655   4.300   1.603
 9111SOL    HW228233   3.597   4.160   1.542
 9112SOL     OW28234   0.710   3.281   3.307
 9112SOL    HW128235   0.807   3.272   3.329
 9112SOL    HW228236   0.674   3.193   3.278
 9113SOL     OW28237   4.684   0.999   6.949
 9113SOL    HW128238   4.618   1.017   7.022
 9113SOL    HW228239   4.739   0.918   6.974
 9114SOL     OW28240   2.262   4.389   2.210
 9114SOL    HW128241   2.324   4.456   2.169
 9114SOL    HW228242   2.168   4.415   2.192
 9115SOL     OW28243   1.065   5.355   4.055
 9115SOL    HW128244   1.072   5.262   4.092
 9115SOL    HW228245   1.152   5.402   4.067
 9116SOL     OW28246   6.930   1.745   6.363
 9116SOL    HW128247   7.013   1.786   6.402
 9116SOL    HW228248   6.944   1.646   6.353
 9117SOL     OW28249   6.394   3.143   6.634
 9117SOL    HW128250   6.347   3.228   6.610
 9117SOL    HW228251   6.424   3.147   6.729
 9118SOL     OW28252   6.214   6.867   1.016
 9118SOL    HW128253   6.233   6.883   1.113
 9118SOL    HW228254   6.274   6.794   0.982
 9119SOL     OW28255   5.901   1.129   2.182
 9119SOL    HW128256   5.838   1.206   2.185
 9119SOL    HW228257   5.852   1.047   2.150
 9120SOL     OW28258   5.839   2.752   6.028
 9120SOL    HW128259   5.788   2.828   6.066
 9120SOL    HW228260   5.797   2.722   5.942
 9121SOL     OW28261   0.248   3.281   5.370
 9121SOL    HW128262   0.270   3.350   5.302
 9121SOL    HW228263   0.272   3.315   5.461
 9122SOL     OW28264   1.829   2.636   1.841
 9122SOL    HW128265   1.860   2.541   1.844
 9122SOL    HW228266   1.899   2.696   1.881
 9123SOL     OW28267   3.439   6.374   5.326
 9123SOL    HW128268   3.514   6.390   5.261
 9123SOL    HW228269   3.387   6.458   5.339
 9124SOL     OW28270   6.222   5.717   5.303
 9124SOL    HW128271   6.126   5.724   5.274
 9124SOL    HW228272   6.281   5.746   5.228
 9125SOL     OW28273   4.735   4.230   3.882
 9125SOL    HW128274   4.753   4.161   3.812
 9125SOL    HW228275   4.755   4.192   3.972
 9126SOL     OW28276   6.156   1.283   2.336
 9126SOL    HW128277   6.082   1.239   2.387
 9126SOL    HW228278   6.120   1.318   2.250
 9127SOL     OW28279   5.882   0.143   5.515
 9127SOL    HW128280   5.971   0.099   5.523
 9127SOL    HW228281   5.876   0.219   5.579
 9128SOL     OW28282   4.158   1.578   5.265
 9128SOL    HW128283   4.079   1.558   5.207
 9128SOL    HW228284   4.241   1.571   5.210
 9129SOL     OW28285   1.751   3.339   0.813
 9129SOL    HW128286   1.662   3.356   0.772
 9129SOL    HW228287   1.819   3.399   0.771
 9130SOL     OW28288   0.132   4.327   6.654
 9130SOL    HW128289   0.089   4.292   6.737
 9130SOL    HW228290   0.167   4.419   6.671
 9131SOL     OW28291   0.377   4.214   4.820
 9131SOL    HW128292   0.342   4.305   4.845
 9131SOL    HW228293   0.351   4.148   4.889
 9132SOL     OW28294   6.858   3.846   3.445
 9132SOL    HW128295   6.886   3.750   3.441
 9132SOL    HW228296   6.782   3.861   3.381
 9133SOL     OW28297   3.156   5.106   0.938
 9133SOL    HW128298   3.088   5.175   0.959
 9133SOL    HW228299   3.246   5.150   0.927
 9134SOL     OW28300   3.325   7.024   0.656
 9134SOL    HW128301   3.409   7.001   0.607
 9134SOL    HW228302   3.289   6.942   0.700
 9135SOL     OW28303   0.187   6.392   2.046
 9135SOL    HW128304   0.107   6.450   2.031
 9135SOL    HW228305   0.157   6.297   2.060
 9136SOL     OW28306   4.760   5.155   5.578
 9136SOL    HW128307   4.791   5.243   5.616
 9136SOL    HW228308   4.707   5.171   5.495
 9137SOL     OW28309   5.652   1.324   0.766
 9137SOL    HW128310   5.693   1.414   0.777
 9137SOL    HW228311   5.703   1.257   0.819
 9138SOL     OW28312   6.698   4.869   6.012
 9138SOL    HW128313   6.661   4.849   5.920
 9138SOL    HW228314   6.693   4.786   6.067
 9139SOL     OW28315   2.354   1.227   4.666
 9139SOL    HW128316   2.333   1.198   4.573
 9139SOL    HW228317   2.285   1.290   4.698
 9140SOL     OW28318   6.507   2.552   2.918
 9140SOL    HW128319   6.480   2.489   2.990
 9140SOL    HW228320   6.595   2.523   2.879
 9141SOL     OW28321   5.443   6.767   6.603
 9141SOL    HW128322   5.422   6.724   6.515
 9141SOL    HW228323   5.531   6.814   6.597
 9142SOL     OW28324   0.279   2.535   5.546
 9142SOL    HW128325   0.315   2.628   5.539
 9142SOL    HW228326   0.330   2.474   5.486
 9143SOL     OW28327   4.962   4.044   0.083
 9143SOL    HW128328   4.944   4.141   0.104
 9143SOL    HW228329   5.017   4.038   7.025
 9144SOL     OW28330   2.250   5.454   6.166
 9144SOL    HW128331   2.347   5.432   6.153
 9144SOL    HW228332   2.238   5.499   6.254
 9145SOL     OW28333   6.821   4.844   1.043
 9145SOL    HW128334   6.777   4.905   0.977
 9145SOL    HW228335   6.920   4.858   1.041
 9146SOL     OW28336   5.053   1.913   1.766
 9146SOL    HW128337   5.066   1.843   1.696
 9146SOL    HW228338   5.127   1.908   1.833
 9147SOL     OW28339   5.883   6.965   4.527
 9147SOL    HW128340   5.939   6.920   4.458
 9147SOL    HW228341   5.931   6.963   4.615
 9148SOL     OW28342   5.401   0.068   1.196
 9148SOL    HW128343   5.466   0.010   1.245
 9148SOL    HW228344   5.364   0.018   1.117
 9149SOL     OW28345   4.953   2.569   4.318
 9149SOL    HW128346   4.979   2.662   4.345
 9149SOL    HW228347   4.948   2.562   4.219
 9150SOL     OW28348   3.764   5.494   3.459
 9150SOL    HW128349   3.665   5.489   3.447
 9150SOL    HW228350   3.810   5.471   3.373
 9151SOL     OW28351   1.248   4.272   3.040
 9151SOL    HW128352   1.258   4.350   3.101
 9151SOL    HW228353   1.285   4.296   2.950
 9152SOL     OW28354   2.483   5.452   4.706
 9152SOL    HW128355   2.553   5.388   4.674
 9152SOL    HW228356   2.445   5.419   4.792
 9153SOL     OW28357   1.460   3.608   1.130
 9153SOL    HW128358   1.499   3.661   1.054
 9153SOL    HW228359   1.515   3.525   1.144
 9154SOL     OW28360   2.960   5.067   0.040
 9154SOL    HW128361   2.916   4.994   0.093
 9154SOL    HW228362   2.936   5.056   6.968
 9155SOL     OW28363   2.045   3.476   0.519
 9155SOL    HW128364   1.952   3.474   0.481
 9155SOL    HW228365   2.080   3.569   0.517
 9156SOL     OW28366   3.083   3.030   1.250
 9156SOL    HW128367   3.113   3.060   1.340
 9156SOL    HW228368   3.013   3.092   1.215
 9157SOL     OW28369   6.194   4.945   5.653
 9157SOL    HW128370   6.174   5.003   5.733
 9157SOL    HW228371   6.185   5.000   5.570
 9158SOL     OW28372   6.277   3.472   5.033
 9158SOL    HW128373   6.196   3.530   5.040
 9158SOL    HW228374   6.338   3.491   5.110
 9159SOL     OW28375   1.167   6.669   3.976
 9159SOL    HW128376   1.094   6.729   3.942
 9159SOL    HW228377   1.251   6.687   3.925
 9160SOL     OW28378   6.454   0.443   5.248
 9160SOL    HW128379   6.537   0.444   5.305
 9160SOL    HW228380   6.382   0.392   5.296
 9161SOL     OW28381   4.884   4.180   4.126
 9161SOL    HW128382   4.916   4.093   4.164
 9161SOL    HW228383   4.825   4.226   4.192
 9162SOL     OW28384   4.844   1.728   3.836
 9162SOL    HW128385   4.830   1.827   3.840
 9162SOL    HW228386   4.902   1.706   3.758
 9163SOL     OW28387   2.111   3.307   3.773
 9163SOL    HW128388   2.110   3.276   3.678
 9163SOL    HW228389   2.104   3.406   3.776
 9164SOL     OW28390   2.956   0.807   6.874
 9164SOL    HW128391   2.969   0.730   6.937
 9164SOL    HW228392   3.010   0.885   6.905
 9165SOL     OW28393   6.424   0.892   5.208
 9165SOL    HW128394   6.405   0.909   5.305
 9165SOL    HW228395   6.502   0.830   5.200
 9166SOL     OW28396   4.783   6.058   0.998
 9166SOL    HW128397   4.694   6.030   1.034
 9166SOL    HW228398   4.816   6.137   1.050
 9167SOL     OW28399   1.611   2.884   6.662
 9167SOL    HW128400   1.554   2.861   6.740
 9167SOL    HW228401   1.676   2.810   6.646
 9168SOL     OW28402   0.672   0.020   5.943
 9168SOL    HW128403   0.605   6.974   5.924
 9168SOL    HW228404   0.709   0.055   5.857
 9169SOL     OW28405   6.873   1.364   4.910
 9169SOL    HW128406   6.836   1.432   4.847
 9169SOL    HW228407   6.972   1.357   4.897
 9170SOL     OW28408   0.565   4.882   0.495
 9170SOL    HW128409   0.507   4.949   0.542
 9170SOL    HW228410   0.635   4.930   0.442
 9171SOL     OW28411   2.764   5.477   0.432
 9171SOL    HW128412   2.669   5.486   0.402
 9171SOL    HW228413   2.820   5.442   0.357
 9172SOL     OW28414   3.138   0.699   5.074
 9172SOL    HW128415   3.217   0.728   5.020
 9172SOL    HW228416   3.065   0.668   5.012
 9173SOL     OW28417   6.081   4.068   4.929
 9173SOL    HW128418   6.090   3.969   4.922
 9173SOL    HW228419   6.163   4.111   4.889
 9174SOL     OW28420   6.511   4.094   1.006
 9174SOL    HW128421   6.487   4.110   1.101
 9174SOL    HW228422   6.611   4.102   0.995
 9175SOL     OW28423   1.641   6.783   4.885
 9175SOL    HW128424   1.644   6.693   4.841
 9175SOL    HW228425   1.676   6.775   4.978
 9176SOL     OW28426   2.886   1.017   4.788
 9176SOL    HW128427   2.917   1.104   4.751
 9176SOL    HW228428   2.926   0.942   4.735
 9177SOL     OW28429   1.639   5.251   4.495
 9177SOL    HW128430   1.704   5.313   4.538
 9177SOL    HW228431   1.556   5.301   4.470
 9178SOL     OW28432   2.095   5.619   0.719
 9178SOL    HW128433   2.075   5.714   0.696
 9178SOL    HW228434   2.157   5.580   0.650
 9179SOL     OW28435   3.502   5.489   3.764
 9179SOL    HW128436   3.526   5.584   3.783
 9179SOL    HW228437   3.486   5.441   3.851
 9180SOL     OW28438   5.549   2.167   3.001
 9180SOL    HW128439   5.497   2.117   2.932
 9180SOL    HW228440   5.631   2.114   3.025
 9181SOL     OW28441   3.834   2.168   3.932
 9181SOL    HW128442   3.737   2.192   3.931
 9181SOL    HW228443   3.847   2.076   3.895
 9182SOL     OW28444   2.486   6.391   2.191
 9182SOL    HW128445   2.499   6.337   2.274
 9182SOL    HW228446   2.429   6.340   2.127
 9183SOL     OW28447   4.988   6.620   0.442
 9183SOL    HW128448   4.993   6.714   0.475
 9183SOL    HW228449   5.076   6.575   0.455
 9184SOL     OW28450   5.363   1.817   6.735
 9184SOL    HW128451   5.275   1.849   6.769
 9184SOL    HW228452   5.390   1.734   6.786
 9185SOL     OW28453   4.291   6.467   5.184
 9185SOL    HW128454   4.310   6.556   5.227
 9185SOL    HW228455   4.218   6.477   5.118
 9186SOL     OW28456   5.952   0.363   3.942
 9186SOL    HW128457   5.867   0.404   3.911
 9186SOL    HW228458   6.028   0.425   3.925
 9187SOL     OW28459   2.574   1.014   0.996
 9187SOL    HW128460   2.579   0.963   1.081
 9187SOL    HW228461   2.515   1.094   1.008
 9188SOL     OW28462   2.136   6.500   1.988
 9188SOL    HW128463   2.045   6.484   1.949
 9188SOL    HW228464   2.177   6.413   2.014
 9189SOL     OW28465   5.583   6.122   1.462
 9189SOL    HW128466   5.637   6.042   1.436
 9189SOL    HW228467   5.638   6.205   1.450
 9190SOL     OW28468   1.740   4.987   0.086
 9190SOL    HW128469   1.704   4.999   0.179
 9190SOL    HW228470   1.803   5.061   0.065
 9191SOL     OW28471   5.629   0.734   6.037
 9191SOL    HW128472   5.655   0.787   6.118
 9191SOL    HW228473   5.653   0.785   5.955
 9192SOL     OW28474   0.433   4.222   5.823
 9192SOL    HW128475   0.449   4.187   5.916
 9192SOL    HW228476   0.448   4.321   5.822
 9193SOL     OW28477   4.656   4.774   0.500
 9193SOL    HW128478   4.637   4.864   0.461
 9193SOL    HW228479   4.726   4.728   0.445
 9194SOL     OW28480   2.917   0.514   2.951
 9194SOL    HW128481   2.826   0.473   2.953
 9194SOL    HW228482   2.914   0.598   2.897
 9195SOL     OW28483   1.894   2.362   4.464
 9195SOL    HW128484   1.820   2.395   4.404
 9195SOL    HW228485   1.868   2.377   4.559
 9196SOL     OW28486   4.517   0.206   3.993
 9196SOL    HW128487   4.503   0.148   4.073
 9196SOL    HW228488   4.604   0.183   3.950
 9197SOL     OW28489   1.996   4.523   1.613
 9197SOL    HW128490   2.031   4.617   1.604
 9197SOL    HW228491   2.073   4.459   1.612
 9198SOL     OW28492   6.513   4.805   6.333
 9198SOL    HW128493   6.447   4.779   6.262
 9198SOL    HW228494   6.492   4.757   6.418
 9199SOL     OW28495   1.598   3.826   5.922
 9199SOL    HW128496   1.536   3.762   5.967
 9199SOL    HW228497   1.648   3.879   5.991
 9200SOL     OW28498   2.779   0.255   0.798
 9200SOL    HW128499   2.811   0.187   0.733
 9200SOL    HW228500   2.798   0.347   0.763
 9201SOL     OW28501   0.541   2.680   0.413
 9201SOL    HW128502   0.492   2.596   0.389
 9201SOL    HW228503   0.508   2.755   0.357
 9202SOL     OW28504   1.682   6.568   2.714
 9202SOL    HW128505   1.686   6.634   2.789
 9202SOL    HW228506   1.679   6.617   2.627
 9203SOL     OW28507   0.446   5.165   0.208
 9203SOL    HW128508   0.384   5.132   0.279
 9203SOL    HW228509   0.447   5.100   0.131
 9204SOL     OW28510   4.093   2.469   6.709
 9204SOL    HW128511   4.080   2.416   6.626
 9204SOL    HW228512   4.090   2.408   6.789
 9205SOL     OW28513   6.059   4.974   2.539
 9205SOL    HW128514   6.117   5.012   2.611
 9205SOL    HW228515   5.979   5.033   2.526
 9206SOL     OW28516   4.048   5.422   1.941
 9206SOL    HW128517   3.973   5.415   1.874
 9206SOL    HW228518   4.022   5.376   2.025
 9207SOL     OW28519   4.255   5.053   6.684
 9207SOL    HW128520   4.235   5.025   6.590
 9207SOL    HW228521   4.170   5.082   6.729
 9208SOL     OW28522   5.850   3.875   3.913
 9208SOL    HW128523   5.821   3.965   3.946
 9208SOL    HW228524   5.911   3.834   3.981
 9209SOL     OW28525   2.916   1.003   0.105
 9209SOL    HW128526   2.892   1.095   0.073
 9209SOL    HW228527   2.850   0.937   0.068
 9210SOL     OW28528   6.818   1.064   3.146
 9210SOL    HW128529   6.727   1.106   3.141
 9210SOL    HW228530   6.883   1.130   3.185
 9211SOL     OW28531   6.433   3.179   4.788
 9211SOL    HW128532   6.416   3.097   4.734
 9211SOL    HW228533   6.349   3.207   4.834
 9212SOL     OW28534   3.986   5.086   4.302
 9212SOL    HW128535   3.966   4.988   4.298
 9212SOL    HW228536   3.955   5.122   4.390
 9213SOL     OW28537   5.311   3.685   5.983
 9213SOL    HW128538   5.372   3.762   6.003
 9213SOL    HW228539   5.325   3.613   6.051
 9214SOL     OW28540   0.354   5.417   6.106
 9214SOL    HW128541   0.303   5.495   6.142
 9214SOL    HW228542   0.442   5.449   6.070
 9215SOL     OW28543   1.394   2.233   0.174
 9215SOL    HW128544   1.435   2.187   0.253
 9215SOL    HW228545   1.334   2.307   0.206
 9216SOL     OW28546   2.642   0.434   2.954
 9216SOL    HW128547   2.569   0.365   2.950
 9216SOL    HW228548   2.623   0.506   2.888
 9217SOL     OW28549   0.772   1.065   6.509
 9217SOL    HW128550   0.726   1.003   6.446
 9217SOL    HW228551   0.710   1.139   6.535
 9218SOL     OW28552   3.527   6.454   0.855
 9218SOL    HW128553   3.511   6.369   0.805
 9218SOL    HW228554   3.573   6.519   0.795
 9219SOL     OW28555   0.182   2.452   1.280
 9219SOL    HW128556   0.177   2.353   1.288
 9219SOL    HW228557   0.200   2.477   1.185
 9220SOL     OW28558   1.974   6.750   0.665
 9220SOL    HW128559   2.007   6.842   0.643
 9220SOL    HW228560   1.889   6.732   0.616
 9221SOL     OW28561   3.010   1.105   4.189
 9221SOL    HW128562   2.986   1.149   4.276
 9221SOL    HW228563   2.928   1.070   4.145
 9222SOL     OW28564   2.060   0.246   6.314
 9222SOL    HW128565   2.077   0.265   6.218
 9222SOL    HW228566   2.078   0.328   6.368
 9223SOL     OW28567   1.709   1.635   4.300
 9223SOL    HW128568   1.809   1.643   4.303
 9223SOL    HW228569   1.674   1.688   4.223
 9224SOL     OW28570   2.678   5.258   5.257
 9224SOL    HW128571   2.591   5.227   5.295
 9224SOL    HW228572   2.741   5.181   5.249
 9225SOL     OW28573   4.081   0.011   6.166
 9225SOL    HW128574   4.071   6.938   6.180
 9225SOL    HW228575   4.040   0.060   6.244
 9226SOL     OW28576   5.536   0.050   1.964
 9226SOL    HW128577   5.509   6.991   2.011
 9226SOL    HW228578   5.607   0.096   2.017
 9227SOL     OW28579   0.764   5.370   1.318
 9227SOL    HW128580   0.770   5.327   1.408
 9227SOL    HW228581   0.824   5.323   1.254
 9228SOL     OW28582   1.775   0.890   5.829
 9228SOL    HW128583   1.776   0.920   5.924
 9228SOL    HW228584   1.734   0.799   5.823
 9229SOL     OW28585   1.427   5.436   4.496
 9229SOL    HW128586   1.341   5.467   4.455
 9229SOL    HW228587   1.477   5.515   4.532
 9230SOL     OW28588   5.845   0.793   3.476
 9230SOL    HW128589   5.776   0.794   3.548
 9230SOL    HW228590   5.933   0.766   3.514
 9231SOL     OW28591   1.391   4.999   4.539
 9231SOL    HW128592   1.449   4.930   4.581
 9231SOL    HW228593   1.389   5.080   4.597
 9232SOL     OW28594   3.186   5.343   0.655
 9232SOL    HW128595   3.132   5.280   0.598
 9232SOL    HW228596   3.281   5.341   0.625
 9233SOL     OW28597   5.212   5.595   1.542
 9233SOL    HW128598   5.266   5.660   1.488
 9233SOL    HW228599   5.251   5.503   1.532
 9234SOL     OW28600   3.839   5.603   5.125
 9234SOL    HW128601   3.917   5.544   5.103
 9234SOL    HW228602   3.788   5.623   5.042
 9235SOL     OW28603   1.398   2.538   3.653
 9235SOL    HW128604   1.426   2.631   3.627
 9235SOL    HW228605   1.312   2.542   3.704
 9236SOL     OW28606   2.714   4.352   5.568
 9236SOL    HW128607   2.752   4.294   5.640
 9236SOL    HW228608   2.654   4.298   5.509
 9237SOL     OW28609   2.264   4.868   5.282
 9237SOL    HW128610   2.331   4.853   5.355
 9237SOL    HW228611   2.187   4.805   5.293
 9238SOL     OW28612   3.904   1.553   6.092
 9238SOL    HW128613   3.932   1.608   6.170
 9238SOL    HW228614   3.833   1.489   6.120
 9239SOL     OW28615   0.461   3.865   1.058
 9239SOL    HW128616   0.444   3.934   1.129
 9239SOL    HW228617   0.558   3.864   1.035
 9240SOL     OW28618   5.363   1.769   0.502
 9240SOL    HW128619   5.428   1.755   0.577
 9240SOL    HW228620   5.391   1.849   0.448
 9241SOL     OW28621   0.817   5.147   6.767
 9241SOL    HW128622   0.829   5.089   6.687
 9241SOL    HW228623   0.728   5.129   6.809
 9242SOL     OW28624   6.588   5.569   1.016
 9242SOL    HW128625   6.676   5.564   1.063
 9242SOL    HW228626   6.570   5.663   0.987
 9243SOL     OW28627   6.020   6.356   2.543
 9243SOL    HW128628   5.965   6.419   2.597
 9243SOL    HW228629   6.086   6.310   2.601
 9244SOL     OW28630   4.645   5.320   6.032
 9244SOL    HW128631   4.633   5.259   5.954
 9244SOL    HW228632   4.567   5.381   6.039
 9245SOL     OW28633   1.281   5.626   2.945
 9245SOL    HW128634   1.188   5.661   2.943
 9245SOL    HW228635   1.337   5.676   2.879
 9246SOL     OW28636   0.214   4.897   3.034
 9246SOL    HW128637   0.127   4.857   3.063
 9246SOL    HW228638   0.289   4.843   3.071
 9247SOL     OW28639   0.798   0.149   3.349
 9247SOL    HW128640   0.766   0.074   3.291
 9247SOL    HW228641   0.730   0.169   3.419
 9248SOL     OW28642   1.794   2.996   6.403
 9248SOL    HW128643   1.753   2.941   6.476
 9248SOL    HW228644   1.853   3.066   6.443
 9249SOL     OW28645   5.397   3.436   6.237
 9249SOL    HW128646   5.410   3.341   6.263
 9249SOL    HW228647   5.445   3.496   6.301
 9250SOL     OW28648   5.183   3.267   5.049
 9250SOL    HW128649   5.100   3.318   5.029
 9250SOL    HW228650   5.161   3.171   5.064
 9251SOL     OW28651   3.662   2.068   3.123
 9251SOL    HW128652   3.600   2.018   3.184
 9251SOL    HW228653   3.740   2.102   3.176
 9252SOL     OW28654   6.323   0.249   4.070
 9252SOL    HW128655   6.241   0.225   4.019
 9252SOL    HW228656   6.301   0.321   4.136
 9253SOL     OW28657   4.915   5.907   5.992
 9253SOL    HW128658   4.842   5.870   6.049
 9253SOL    HW228659   4.922   5.852   5.908
 9254SOL     OW28660   6.246   4.637   1.656
 9254SOL    HW128661   6.250   4.728   1.696
 9254SOL    HW228662   6.182   4.580   1.708
 9255SOL     OW28663   5.574   3.070   0.242
 9255SOL    HW128664   5.549   3.132   0.168
 9255SOL    HW228665   5.649   3.110   0.296
 9256SOL     OW28666   3.855   5.214   2.981
 9256SOL    HW128667   3.868   5.307   2.949
 9256SOL    HW228668   3.939   5.181   3.024
 9257SOL     OW28669   0.738   3.759   2.582
 9257SOL    HW128670   0.830   3.799   2.577
 9257SOL    HW228671   0.676   3.825   2.624
 9258SOL     OW28672   3.962   3.178   4.050
 9258SOL    HW128673   3.999   3.162   3.958
 9258SOL    HW228674   3.941   3.275   4.061
 9259SOL     OW28675   1.650   2.309   1.218
 9259SOL    HW128676   1.688   2.402   1.225
 9259SOL    HW228677   1.719   2.248   1.179
 9260SOL     OW28678   4.944   1.583   5.406
 9260SOL    HW128679   4.906   1.505   5.454
 9260SOL    HW228680   4.982   1.553   5.319
 9261SOL     OW28681   4.592   0.723   6.265
 9261SOL    HW128682   4.576   0.636   6.311
 9261SOL    HW228683   4.562   0.798   6.325
 9262SOL     OW28684   6.442   3.433   5.602
 9262SOL    HW128685   6.375   3.507   5.600
 9262SOL    HW228686   6.531   3.468   5.572
 9263SOL     OW28687   6.287   3.799   1.094
 9263SOL    HW128688   6.287   3.874   1.161
 9263SOL    HW228689   6.203   3.804   1.040
 9264SOL     OW28690   5.562   4.073   0.331
 9264SOL    HW128691   5.609   4.150   0.288
 9264SOL    HW228692   5.625   4.023   0.390
 9265SOL     OW28693   3.095   1.425   0.540
 9265SOL    HW128694   3.142   1.351   0.588
 9265SOL    HW228695   3.141   1.511   0.559
 9266SOL     OW28696   1.854   6.172   2.051
 9266SOL    HW128697   1.810   6.090   2.017
 9266SOL    HW228698   1.803   6.208   2.130
 9267SOL     OW28699   6.768   4.245   5.932
 9267SOL    HW128700   6.807   4.287   6.014
 9267SOL    HW228701   6.668   4.251   5.937
 9268SOL     OW28702   1.158   5.926   1.182
 9268SOL    HW128703   1.130   5.991   1.253
 9268SOL    HW228704   1.193   5.843   1.225
 9269SOL     OW28705   3.447   2.556   6.081
 9269SOL    HW128706   3.418   2.506   6.000
 9269SOL    HW228707   3.546   2.548   6.092
 9270SOL     OW28708   5.373   0.152   5.776
 9270SOL    HW128709   5.370   0.099   5.691
 9270SOL    HW228710   5.427   0.103   5.844
 9271SOL     OW28711   1.604   5.604   6.732
 9271SOL    HW128712   1.629   5.696   6.702
 9271SOL    HW228713   1.641   5.536   6.668
 9272SOL     OW28714   3.131   5.258   5.705
 9272SOL    HW128715   3.145   5.283   5.801
 9272SOL    HW228716   3.148   5.338   5.647
 9273SOL     OW28717   5.239   5.942   4.126
 9273SOL    HW128718   5.336   5.958   4.107
 9273SOL    HW228719   5.218   5.846   4.111
 9274SOL     OW28720   6.545   2.706   0.094
 9274SOL    HW128721   6.463   2.755   0.064
 9274SOL    HW228722   6.550   2.706   0.194
 9275SOL     OW28723   0.441   1.885   6.734
 9275SOL    HW128724   0.481   1.977   6.737
 9275SOL    HW228725   0.430   1.852   6.828
 9276SOL     OW28726   2.698   4.699   4.145
 9276SOL    HW128727   2.699   4.701   4.244
 9276SOL    HW228728   2.605   4.680   4.112
 9277SOL     OW28729   4.052   3.687   0.303
 9277SOL    HW128730   4.030   3.590   0.310
 9277SOL    HW228731   4.139   3.705   0.349
 9278SOL     OW28732   1.771   0.942   4.319
 9278SOL    HW128733   1.696   0.910   4.262
 9278SOL    HW228734   1.823   1.012   4.271
 9279SOL     OW28735   4.586   0.276   1.627
 9279SOL    HW128736   4.497   0.239   1.604
 9279SOL    HW228737   4.598   0.274   1.727
 9280SOL     OW28738   1.660   0.244   3.255
 9280SOL    HW128739   1.588   0.311   3.275
 9280SOL    HW228740   1.747   0.292   3.241
 9281SOL     OW28741   3.351   3.951   1.336
 9281SOL    HW128742   3.282   4.022   1.346
 9281SOL    HW228743   3.307   3.864   1.312
 9282SOL     OW28744   4.360   2.032   4.288
 9282SOL    HW128745   4.333   1.941   4.320
 9282SOL    HW228746   4.437   2.065   4.344
 9283SOL     OW28747   5.756   0.914   3.176
 9283SOL    HW128748   5.802   0.827   3.157
 9283SOL    HW228749   5.776   0.941   3.270
 9284SOL     OW28750   3.449   5.383   6.773
 9284SOL    HW128751   3.402   5.469   6.792
 9284SOL    HW228752   3.548   5.397   6.776
 9285SOL     OW28753   5.352   3.528   0.379
 9285SOL    HW128754   5.315   3.556   0.291
 9285SOL    HW228755   5.315   3.587   0.451
 9286SOL     OW28756   5.097   0.128   5.846
 9286SOL    HW128757   5.035   0.206   5.841
 9286SOL    HW228758   5.189   0.156   5.820
 9287SOL     OW28759   2.892   5.783   0.570
 9287SOL    HW128760   2.958   5.854   0.595
 9287SOL    HW228761   2.861   5.736   0.653
 9288SOL     OW28762   2.577   1.571   5.221
 9288SOL    HW128763   2.534   1.504   5.159
 9288SOL    HW228764   2.672   1.585   5.193
 9289SOL     OW28765   3.785   1.774   2.173
 9289SOL    HW128766   3.848   1.742   2.244
 9289SOL    HW228767   3.708   1.709   2.167
 9290SOL     OW28768   4.862   2.028   3.994
 9290SOL    HW128769   4.841   2.117   4.034
 9290SOL    HW228770   4.928   1.980   4.052
 9291SOL     OW28771   2.586   0.383   5.211
 9291SOL    HW128772   2.561   0.474   5.245
 9291SOL    HW228773   2.506   0.340   5.169
 9292SOL     OW28774   6.944   3.428   6.131
 9292SOL    HW128775   0.004   3.419   6.182
 9292SOL    HW228776   6.893   3.508   6.163
 9293SOL     OW28777   6.483   3.817   0.885
 9293SOL    HW128778   6.503   3.912   0.911
 9293SOL    HW228779   6.423   3.775   0.954
 9294SOL     OW28780   3.433   6.452   5.739
 9294SOL    HW128781   3.344   6.488   5.768
 9294SOL    HW228782   3.504   6.486   5.800
 9295SOL     OW28783   5.224   2.049   3.678
 9295SOL    HW128784   5.253   2.091   3.764
 9295SOL    HW228785   5.215   1.951   3.691
 9296SOL     OW28786   0.481   6.181   6.452
 9296SOL    HW128787   0.567   6.144   6.486
 9296SOL    HW228788   0.407   6.155   6.514
 9297SOL     OW28789   6.838   0.583   1.069
 9297SOL    HW128790   6.886   0.495   1.062
 9297SOL    HW228791   6.878   0.648   1.004
 9298SOL     OW28792   2.220   6.732   5.546
 9298SOL    HW128793   2.136   6.780   5.571
 9298SOL    HW228794   2.197   6.643   5.506
 9299SOL     OW28795   0.874   2.705   4.622
 9299SOL    HW128796   0.845   2.612   4.644
 9299SOL    HW228797   0.799   2.769   4.640
 9300SOL     OW28798   0.316   4.932   4.827
 9300SOL    HW128799   0.249   5.005   4.812
 9300SOL    HW228800   0.392   4.943   4.763
 9301SOL     OW28801   4.779   4.246   3.489
 9301SOL    HW128802   4.804   4.176   3.422
 9301SOL    HW228803   4.710   4.307   3.449
 9302SOL     OW28804   2.207   3.112   4.304
 9302SOL    HW128805   2.215   3.077   4.397
 9302SOL    HW228806   2.268   3.191   4.293
 9303SOL     OW28807   3.777   6.261   0.914
 9303SOL    HW128808   3.853   6.230   0.857
 9303SOL    HW228809   3.702   6.291   0.856
 9304SOL     OW28810   4.405   4.093   0.874
 9304SOL    HW128811   4.416   4.089   0.974
 9304SOL    HW228812   4.315   4.057   0.850
 9305SOL     OW28813   3.961   1.563   1.685
 9305SOL    HW128814   4.006   1.635   1.633
 9305SOL    HW228815   3.864   1.561   1.661
 9306SOL     OW28816   0.519   4.919   5.034
 9306SOL    HW128817   0.454   4.971   4.978
 9306SOL    HW228818   0.521   4.824   5.003
 9307SOL     OW28819   1.348   3.483   1.422
 9307SOL    HW128820   1.288   3.461   1.345
 9307SOL    HW228821   1.350   3.582   1.436
 9308SOL     OW28822   1.045   3.916   1.058
 9308SOL    HW128823   1.044   3.943   0.962
 9308SOL    HW228824   1.135   3.933   1.097
 9309SOL     OW28825   3.451   5.085   5.422
 9309SOL    HW128826   3.413   5.004   5.379
 9309SOL    HW228827   3.532   5.060   5.476
 9310SOL     OW28828   4.552   5.669   6.425
 9310SOL    HW128829   4.641   5.623   6.433
 9310SOL    HW228830   4.552   5.726   6.343
 9311SOL     OW28831   5.852   4.968   1.567
 9311SOL    HW128832   5.924   5.035   1.584
 9311SOL    HW228833   5.892   4.880   1.545
 9312SOL     OW28834   1.309   4.260   1.602
 9312SOL    HW128835   1.278   4.354   1.615
 9312SOL    HW228836   1.370   4.234   1.677
 9313SOL     OW28837   0.463   0.742   1.037
 9313SOL    HW128838   0.469   0.794   0.952
 9313SOL    HW228839   0.540   0.678   1.043
 9314SOL     OW28840   3.810   5.267   5.768
 9314SOL    HW128841   3.772   5.349   5.725
 9314SOL    HW228842   3.736   5.205   5.793
 9315SOL     OW28843   6.722   0.726   5.131
 9315SOL    HW128844   6.772   0.658   5.078
 9315SOL    HW228845   6.734   0.709   5.229
 9316SOL     OW28846   4.131   5.164   5.190
 9316SOL    HW128847   4.066   5.186   5.263
 9316SOL    HW228848   4.080   5.132   5.110
 9317SOL     OW28849   6.590   5.584   3.301
 9317SOL    HW128850   6.541   5.665   3.332
 9317SOL    HW228851   6.545   5.502   3.336
 9318SOL     OW28852   6.599   1.034   4.897
 9318SOL    HW128853   6.518   0.975   4.898
 9318SOL    HW228854   6.572   1.128   4.917
 9319SOL     OW28855   0.467   2.513   5.774
 9319SOL    HW128856   0.394   2.496   5.708
 9319SOL    HW228857   0.551   2.537   5.726
 9320SOL     OW28858   4.581   1.947   6.457
 9320SOL    HW128859   4.644   1.956   6.380
 9320SOL    HW228860   4.487   1.942   6.423
 9321SOL     OW28861   6.261   6.813   2.729
 9321SOL    HW128862   6.322   6.803   2.650
 9321SOL    HW228863   6.181   6.866   2.703
 9322SOL     OW28864   0.030   6.160   6.261
 9322SOL    HW128865   0.066   6.158   6.354
 9322SOL    HW228866   0.099   6.196   6.199
 9323SOL     OW28867   1.773   7.023   5.590
 9323SOL    HW128868   1.733   0.064   5.653
 9323SOL    HW228869   1.702   6.962   5.556
 9324SOL     OW28870   1.642   5.137   0.339
 9324SOL    HW128871   1.622   5.130   0.437
 9324SOL    HW228872   1.589   5.211   0.299
 9325SOL     OW28873   5.204   2.068   7.020
 9325SOL    HW128874   5.129   2.005   0.017
 9325SOL    HW228875   5.217   2.133   0.069
 9326SOL     OW28876   2.457   0.102   0.957
 9326SOL    HW128877   2.386   0.142   0.899
 9326SOL    HW228878   2.424   0.016   0.995
 9327SOL     OW28879   4.948   6.479   2.542
 9327SOL    HW128880   4.851   6.470   2.518
 9327SOL    HW228881   4.956   6.535   2.625
 9328SOL     OW28882   3.438   0.859   6.258
 9328SOL    HW128883   3.401   0.943   6.299
 9328SOL    HW228884   3.511   0.882   6.193
 9329SOL     OW28885   0.128   3.929   1.993
 9329SOL    HW128886   0.161   3.835   1.981
 9329SOL    HW228887   0.206   3.990   2.006
 9330SOL     OW28888   0.415   6.128   0.026
 9330SOL    HW128889   0.412   6.144   0.125
 9330SOL    HW228890   0.355   6.194   7.005
 9331SOL     OW28891   1.330   1.456   6.028
 9331SOL    HW128892   1.354   1.464   6.124
 9331SOL    HW228893   1.269   1.377   6.016
 9332SOL     OW28894   3.649   4.172   3.080
 9332SOL    HW128895   3.551   4.162   3.097
 9332SOL    HW228896   3.681   4.256   3.124
 9333SOL     OW28897   4.649   4.019   1.443
 9333SOL    HW128898   4.552   4.045   1.446
 9333SOL    HW228899   4.687   4.024   1.536
 9334SOL     OW28900   4.210   6.821   3.958
 9334SOL    HW128901   4.227   6.854   4.051
 9334SOL    HW228902   4.281   6.855   3.897
 9335SOL     OW28903   1.001   1.032   6.274
 9335SOL    HW128904   1.084   1.027   6.218
 9335SOL    HW228905   1.014   0.979   6.358
 9336SOL     OW28906   3.376   5.663   6.385
 9336SOL    HW128907   3.321   5.656   6.468
 9336SOL    HW228908   3.366   5.580   6.330
 9337SOL     OW28909   5.091   0.739   3.487
 9337SOL    HW128910   5.144   0.684   3.423
 9337SOL    HW228911   5.088   0.694   3.576
 9338SOL     OW28912   4.382   0.745   1.911
 9338SOL    HW128913   4.341   0.778   1.826
 9338SOL    HW228914   4.389   0.820   1.976
 9339SOL     OW28915   5.362   6.939   0.630
 9339SOL    HW128916   5.449   6.977   0.601
 9339SOL    HW228917   5.300   6.934   0.551
 9340SOL     OW28918   5.107   3.640   5.152
 9340SOL    HW128919   5.021   3.603   5.115
 9340SOL    HW228920   5.179   3.572   5.142
 9341SOL     OW28921   0.443   5.821   6.255
 9341SOL    HW128922   0.411   5.915   6.241
 9341SOL    HW228923   0.528   5.822   6.309
 9342SOL     OW28924   2.504   0.798   3.868
 9342SOL    HW128925   2.588   0.747   3.853
 9342SOL    HW228926   2.499   0.875   3.803
 9343SOL     OW28927   6.064   4.687   3.094
 9343SOL    HW128928   6.104   4.739   3.018
 9343SOL    HW228929   6.137   4.640   3.144
 9344SOL     OW28930   4.467   5.961   1.454
 9344SOL    HW128931   4.537   6.029   1.433
 9344SOL    HW228932   4.494   5.873   1.417
 9345SOL     OW28933   6.476   4.055   1.802
 9345SOL    HW128934   6.557   4.007   1.838
 9345SOL    HW228935   6.427   3.996   1.739
 9346SOL     OW28936   6.384   1.001   1.050
 9346SOL    HW128937   6.385   1.101   1.043
 9346SOL    HW228938   6.329   0.974   1.129
 9347SOL     OW28939   1.248   5.473   0.925
 9347SOL    HW128940   1.273   5.378   0.945
 9347SOL    HW228941   1.268   5.530   1.005
 9348SOL     OW28942   3.893   5.504   1.513
 9348SOL    HW128943   3.863   5.420   1.467
 9348SOL    HW228944   3.979   5.534   1.472
 9349SOL     OW28945   0.605   6.871   2.484
 9349SOL    HW128946   0.681   6.935   2.496
 9349SOL    HW228947   0.571   6.876   2.390
 9350SOL     OW28948   0.568   2.976   5.354
 9350SOL    HW128949   0.517   2.905   5.305
 9350SOL    HW228950   0.509   3.055   5.370
 9351SOL     OW28951   3.261   1.261   6.173
 9351SOL    HW128952   3.170   1.270   6.131
 9351SOL    HW228953   3.329   1.249   6.101
 9352SOL     OW28954   2.910   3.518   0.483
 9352SOL    HW128955   2.961   3.442   0.524
 9352SOL    HW228956   2.867   3.572   0.556
 9353SOL     OW28957   0.738   5.390   1.599
 9353SOL    HW128958   0.831   5.410   1.570
 9353SOL    HW228959   0.702   5.466   1.653
 9354SOL     OW28960   6.769   2.160   6.845
 9354SOL    HW128961   6.685   2.166   6.792
 9354SOL    HW228962   6.834   2.228   6.811
 9355SOL     OW28963   0.689   2.537   5.038
 9355SOL    HW128964   0.649   2.447   5.057
 9355SOL    HW228965   0.788   2.532   5.044
 9356SOL     OW28966   3.677   0.118   1.455
 9356SOL    HW128967   3.673   0.025   1.490
 9356SOL    HW228968   3.758   0.164   1.491
 9357SOL     OW28969   1.195   3.280   6.192
 9357SOL    HW128970   1.220   3.306   6.286
 9357SOL    HW228971   1.204   3.181   6.181
 9358SOL     OW28972   0.766   3.994   2.150
 9358SOL    HW128973   0.759   4.081   2.199
 9358SOL    HW228974   0.862   3.964   2.148
 9359SOL     OW28975   1.785   4.967   6.320
 9359SOL    HW128976   1.878   5.002   6.309
 9359SOL    HW228977   1.760   4.912   6.240
 9360SOL     OW28978   1.558   6.184   6.479
 9360SOL    HW128979   1.530   6.090   6.499
 9360SOL    HW228980   1.657   6.192   6.491
 9361SOL     OW28981   1.951   5.715   3.569
 9361SOL    HW128982   1.951   5.766   3.655
 9361SOL    HW228983   2.033   5.659   3.563
 9362SOL     OW28984   1.382   1.631   2.441
 9362SOL    HW128985   1.363   1.541   2.482
 9362SOL    HW228986   1.299   1.666   2.397
 9363SOL     OW28987   3.564   5.406   1.721
 9363SOL    HW128988   3.606   5.408   1.630
 9363SOL    HW228989   3.466   5.424   1.713
 9364SOL     OW28990   2.491   2.443   1.829
 9364SOL    HW128991   2.486   2.400   1.919
 9364SOL    HW228992   2.429   2.396   1.766
 9365SOL     OW28993   2.888   1.893   4.236
 9365SOL    HW128994   2.857   1.966   4.175
 9365SOL    HW228995   2.822   1.880   4.310
 9366SOL     OW28996   2.954   6.084   7.006
 9366SOL    HW128997   3.005   6.082   6.920
 9366SOL    HW228998   2.927   5.991   0.005
 9367SOL     OW28999   5.844   0.518   1.313
 9367SOL    HW129000   5.826   0.538   1.217
 9367SOL    HW229001   5.769   0.554   1.369
 9368SOL     OW29002   3.859   0.025   2.454
 9368SOL    HW129003   3.794   0.072   2.514
 9368SOL    HW229004   3.951   0.033   2.492
 9369SOL     OW29005   0.730   5.740   4.864
 9369SOL    HW129006   0.711   5.769   4.957
 9369SOL    HW229007   0.763   5.645   4.865
 9370SOL     OW29008   4.941   1.229   3.524
 9370SOL    HW129009   4.866   1.239   3.459
 9370SOL    HW229010   5.008   1.302   3.510
 9371SOL     OW29011   3.280   5.374   1.409
 9371SOL    HW129012   3.196   5.326   1.435
 9371SOL    HW229013   3.276   5.396   1.311
 9372SOL     OW29014   4.264   0.122   1.503
 9372SOL    HW129015   4.213   0.045   1.463
 9372SOL    HW229016   4.326   0.087   1.573
 9373SOL     OW29017   6.569   2.646   0.421
 9373SOL    HW129018   6.613   2.735   0.410
 9373SOL    HW229019   6.558   2.626   0.518
 9374SOL     OW29020   0.534   4.028   5.642
 9374SOL    HW129021   0.482   4.078   5.711
 9374SOL    HW229022   0.489   3.941   5.622
 9375SOL     OW29023   0.059   1.867   0.264
 9375SOL    HW129024   7.009   1.933   0.262
 9375SOL    HW229025   0.140   1.908   0.223
 9376SOL     OW29026   2.067   3.496   2.186
 9376SOL    HW129027   2.135   3.488   2.113
 9376SOL    HW229028   2.056   3.592   2.212
 9377SOL     OW29029   2.762   5.319   3.003
 9377SOL    HW129030   2.835   5.338   2.938
 9377SOL    HW229031   2.776   5.374   3.086
 9378SOL     OW29032   3.643   0.939   3.572
 9378SOL    HW129033   3.689   0.863   3.526
 9378SOL    HW229034   3.603   1.001   3.504
 9379SOL     OW29035   4.544   6.498   4.789
 9379SOL    HW129036   4.622   6.457   4.742
 9379SOL    HW229037   4.536   6.459   4.881
 9380SOL     OW29038   3.471   5.615   5.743
 9380SOL    HW129039   3.379   5.574   5.746
 9380SOL    HW229040   3.478   5.674   5.663
 9381SOL     OW29041   4.847   1.602   4.460
 9381SOL    HW129042   4.775   1.534   4.475
 9381SOL    HW229043   4.820   1.662   4.384
 9382SOL     OW29044   3.817   0.949   3.925
 9382SOL    HW129045   3.790   0.858   3.955
 9382SOL    HW229046   3.813   0.954   3.825
 9383SOL     OW29047   4.808   4.048   3.686
 9383SOL    HW129048   4.854   3.972   3.641
 9383SOL    HW229049   4.791   4.120   3.619
 9384SOL     OW29050   1.990   6.744   1.980
 9384SOL    HW129051   2.032   6.659   2.011
 9384SOL    HW229052   1.987   6.746   1.880
 9385SOL     OW29053   4.031   1.405   4.423
 9385SOL    HW129054   4.014   1.465   4.501
 9385SOL    HW229055   4.032   1.310   4.454
 9386SOL     OW29056   3.344   5.866   5.352
 9386SOL    HW129057   3.398   5.829   5.276
 9386SOL    HW229058   3.280   5.934   5.317
 9387SOL     OW29059   3.710   2.025   0.310
 9387SOL    HW129060   3.710   1.936   0.357
 9387SOL    HW229061   3.616   2.056   0.298
 9388SOL     OW29062   1.636   6.915   4.139
 9388SOL    HW129063   1.686   6.979   4.196
 9388SOL    HW229064   1.640   6.823   4.179
 9389SOL     OW29065   3.253   5.247   2.677
 9389SOL    HW129066   3.185   5.188   2.720
 9389SOL    HW229067   3.293   5.199   2.598
 9390SOL     OW29068   5.293   4.698   5.417
 9390SOL    HW129069   5.285   4.599   5.432
 9390SOL    HW229070   5.387   4.719   5.390
 9391SOL     OW29071   1.014   7.019   4.927
 9391SOL    HW129072   0.998   0.045   5.011
 9391SOL    HW229073   1.065   0.050   4.862
 9392SOL     OW29074   5.199   4.651   3.421
 9392SOL    HW129075   5.200   4.582   3.494
 9392SOL    HW229076   5.106   4.686   3.410
 9393SOL     OW29077   3.385   6.092   6.113
 9393SOL    HW129078   3.433   6.031   6.177
 9393SOL    HW229079   3.327   6.037   6.053
 9394SOL     OW29080   5.589   0.708   1.506
 9394SOL    HW129081   5.576   0.761   1.422
 9394SOL    HW229082   5.637   0.764   1.574
 9395SOL     OW29083   3.122   1.475   1.129
 9395SOL    HW129084   3.184   1.473   1.050
 9395SOL    HW229085   3.034   1.436   1.104
 9396SOL     OW29086   1.906   6.108   6.231
 9396SOL    HW129087   1.914   6.094   6.132
 9396SOL    HW229088   1.865   6.198   6.249
 9397SOL     OW29089   3.732   6.918   6.131
 9397SOL    HW129090   3.641   6.876   6.126
 9397SOL    HW229091   3.727   7.001   6.187
 9398SOL     OW29092   6.262   0.990   6.444
 9398SOL    HW129093   6.228   0.953   6.531
 9398SOL    HW229094   6.361   0.983   6.442
 9399SOL     OW29095   1.688   3.191   4.338
 9399SOL    HW129096   1.690   3.138   4.423
 9399SOL    HW229097   1.782   3.209   4.308
 9400SOL     OW29098   5.362   1.437   0.058
 9400SOL    HW129099   5.440   1.425   0.119
 9400SOL    HW229100   5.344   1.352   0.009
 9401SOL     OW29101   0.858   2.628   2.816
 9401SOL    HW129102   0.791   2.668   2.752
 9401SOL    HW229103   0.877   2.534   2.789
 9402SOL     OW29104   1.567   5.780   3.058
 9402SOL    HW129105   1.607   5.866   3.027
 9402SOL    HW229106   1.569   5.775   3.157
 9403SOL     OW29107   6.796   1.147   2.226
 9403SOL    HW129108   6.799   1.124   2.129
 9403SOL    HW229109   6.701   1.156   2.256
 9404SOL     OW29110   1.261   3.226   1.330
 9404SOL    HW129111   1.225   3.215   1.422
 9404SOL    HW229112   1.248   3.141   1.279
 9405SOL     OW29113   0.161   4.838   5.106
 9405SOL    HW129114   0.093   4.766   5.095
 9405SOL    HW229115   0.218   4.842   5.024
 9406SOL     OW29116   0.823   2.913   6.465
 9406SOL    HW129117   0.816   2.904   6.565
 9406SOL    HW229118   0.733   2.902   6.424
 9407SOL     OW29119   2.360   5.300   4.911
 9407SOL    HW129120   2.319   5.352   4.986
 9407SOL    HW229121   2.329   5.205   4.915
 9408SOL     OW29122   6.685   4.097   5.418
 9408SOL    HW129123   6.657   4.062   5.507
 9408SOL    HW229124   6.780   4.128   5.422
 9409SOL     OW29125   6.755   5.647   2.270
 9409SOL    HW129126   6.679   5.629   2.332
 9409SOL    HW229127   6.841   5.637   2.320
 9410SOL     OW29128   4.315   0.284   1.878
 9410SOL    HW129129   4.317   0.372   1.924
 9410SOL    HW229130   4.372   0.219   1.928
 9411SOL     OW29131   3.621   2.883   3.824
 9411SOL    HW129132   3.661   2.931   3.902
 9411SOL    HW229133   3.521   2.882   3.833
 9412SOL     OW29134   0.221   0.648   0.949
 9412SOL    HW129135   0.301   0.673   1.004
 9412SOL    HW229136   0.183   0.562   0.982
 9413SOL     OW29137   4.432   4.908   4.169
 9413SOL    HW129138   4.463   4.984   4.226
 9413SOL    HW229139   4.504   4.838   4.165
 9414SOL     OW29140   2.182   2.232   4.975
 9414SOL    HW129141   2.231   2.251   5.061
 9414SOL    HW229142   2.120   2.155   4.989
 9415SOL     OW29143   3.768   0.187   2.272
 9415SOL    HW129144   3.802   0.097   2.297
 9415SOL    HW229145   3.815   0.257   2.326
 9416SOL     OW29146   0.481   6.294   6.095
 9416SOL    HW129147   0.541   6.358   6.141
 9416SOL    HW229148   0.471   6.319   5.999
 9417SOL     OW29149   3.217   6.540   1.218
 9417SOL    HW129150   3.245   6.551   1.313
 9417SOL    HW229151   3.265   6.463   1.178
 9418SOL     OW29152   3.140   1.925   4.322
 9418SOL    HW129153   3.042   1.928   4.305
 9418SOL    HW229154   3.181   2.012   4.296
 9419SOL     OW29155   3.171   2.402   6.611
 9419SOL    HW129156   3.225   2.462   6.553
 9419SOL    HW229157   3.115   2.341   6.554
 9420SOL     OW29158   5.577   3.427   0.481
 9420SOL    HW129159   5.567   3.345   0.539
 9420SOL    HW229160   5.486   3.464   0.461
 9421SOL     OW29161   3.836   6.265   5.701
 9421SOL    HW129162   3.788   6.184   5.668
 9421SOL    HW229163   3.800   6.291   5.791
 9422SOL     OW29164   2.591   5.999   4.262
 9422SOL    HW129165   2.632   6.088   4.243
 9422SOL    HW229166   2.644   5.952   4.333
 9423SOL     OW29167   4.156   5.998   2.944
 9423SOL    HW129168   4.233   5.987   2.881
 9423SOL    HW229169   4.168   5.936   3.022
 9424SOL     OW29170   5.399   1.201   4.392
 9424SOL    HW129171   5.355   1.251   4.467
 9424SOL    HW229172   5.393   1.255   4.308
 9425SOL     OW29173   6.489   4.870   1.042
 9425SOL    HW129174   6.431   4.927   0.984
 9425SOL    HW229175   6.441   4.850   1.128
 9426SOL     OW29176   0.521   1.852   6.248
 9426SOL    HW129177   0.465   1.797   6.186
 9426SOL    HW229178   0.617   1.846   6.221
 9427SOL     OW29179   3.678   5.679   2.946
 9427SOL    HW129180   3.672   5.729   3.033
 9427SOL    HW229181   3.773   5.655   2.928
 9428SOL     OW29182   6.308   6.754   6.941
 9428SOL    HW129183   6.269   6.788   6.855
 9428SOL    HW229184   6.408   6.759   6.936
 9429SOL     OW29185   1.333   2.361   4.191
 9429SOL    HW129186   1.326   2.408   4.103
 9429SOL    HW229187   1.401   2.288   4.185
 9430SOL     OW29188   0.443   2.138   4.229
 9430SOL    HW129189   0.426   2.115   4.133
 9430SOL    HW229190   0.368   2.193   4.265
 9431SOL     OW29191   6.799   4.389   6.982
 9431SOL    HW129192   6.708   4.427   6.964
 9431SOL    HW229193   6.821   4.401   0.053
 9432SOL     OW29194   6.676   1.492   3.405
 9432SOL    HW129195   6.700   1.480   3.309
 9432SOL    HW229196   6.626   1.578   3.417
 9433SOL     OW29197   4.266   6.251   2.637
 9433SOL    HW129198   4.177   6.265   2.680
 9433SOL    HW229199   4.261   6.280   2.541
 9434SOL     OW29200   4.755   5.941   3.960
 9434SOL    HW129201   4.697   5.876   3.910
 9434SOL    HW229202   4.704   5.977   4.038
 9435SOL     OW29203   0.683   2.525   2.105
 9435SOL    HW129204   0.613   2.597   2.104
 9435SOL    HW229205   0.730   2.524   2.193
 9436SOL     OW29206   0.375   0.976   2.671
 9436SOL    HW129207   0.316   0.898   2.649
 9436SOL    HW229208   0.469   0.945   2.679
 9437SOL     OW29209   0.185   5.210   4.495
 9437SOL    HW129210   0.087   5.226   4.483
 9437SOL    HW229211   0.233   5.235   4.411
 9438SOL     OW29212   2.224   6.415   1.554
 9438SOL    HW129213   2.196   6.383   1.645
 9438SOL    HW229214   2.314   6.377   1.532
 9439SOL     OW29215   0.773   2.922   0.158
 9439SOL    HW129216   0.841   2.878   0.098
 9439SOL    HW229217   0.685   2.877   0.147
 9440SOL     OW29218   3.144   4.866   3.597
 9440SOL    HW129219   3.243   4.880   3.588
 9440SOL    HW229220   3.099   4.889   3.511
 9441SOL     OW29221   6.376   5.562   4.354
 9441SOL    HW129222   6.342   5.468   4.361
 9441SOL    HW229223   6.475   5.563   4.371
 9442SOL     OW29224   4.752   3.769   0.570
 9442SOL    HW129225   4.748   3.721   0.658
 9442SOL    HW229226   4.805   3.715   0.505
 9443SOL     OW29227   2.796   4.706   2.450
 9443SOL    HW129228   2.757   4.718   2.358
 9443SOL    HW229229   2.722   4.682   2.514
 9444SOL     OW29230   2.126   3.734   0.451
 9444SOL    HW129231   2.108   3.796   0.374
 9444SOL    HW229232   2.225   3.721   0.460
 9445SOL     OW29233   0.467   1.448   3.798
 9445SOL    HW129234   0.383   1.490   3.763
 9445SOL    HW229235   0.488   1.488   3.887
 9446SOL     OW29236   6.541   4.691   3.544
 9446SOL    HW129237   6.453   4.731   3.517
 9446SOL    HW229238   6.605   4.765   3.568
 9447SOL     OW29239   5.665   5.482   2.717
 9447SOL    HW129240   5.678   5.530   2.630
 9447SOL    HW229241   5.743   5.421   2.734
 9448SOL     OW29242   5.465   0.532   5.898
 9448SOL    HW129243   5.530   0.514   5.825
 9448SOL    HW229244   5.494   0.613   5.950
 9449SOL     OW29245   5.653   6.793   0.858
 9449SOL    HW129246   5.679   6.842   0.775
 9449SOL    HW229247   5.731   6.790   0.921
 9450SOL     OW29248   1.474   5.716   4.110
 9450SOL    HW129249   1.427   5.801   4.135
 9450SOL    HW229250   1.527   5.683   4.188
 9451SOL     OW29251   3.912   5.421   6.029
 9451SOL    HW129252   4.011   5.414   6.034
 9451SOL    HW229253   3.882   5.401   5.935
 9452SOL     OW29254   0.428   4.181   1.060
 9452SOL    HW129255   0.361   4.167   0.987
 9452SOL    HW229256   0.520   4.157   1.026
 9453SOL     OW29257   3.704   5.433   3.179
 9453SOL    HW129258   3.799   5.444   3.148
 9453SOL    HW229259   3.696   5.350   3.234
 9454SOL     OW29260   4.250   4.506   0.682
 9454SOL    HW129261   4.326   4.531   0.622
 9454SOL    HW229262   4.285   4.486   0.773
 9455SOL     OW29263   2.707   2.280   2.254
 9455SOL    HW129264   2.664   2.190   2.258
 9455SOL    HW229265   2.790   2.276   2.197
 9456SOL     OW29266   6.187   3.198   2.353
 9456SOL    HW129267   6.158   3.123   2.412
 9456SOL    HW229268   6.200   3.165   2.260
 9457SOL     OW29269   1.043   4.856   4.076
 9457SOL    HW129270   0.991   4.839   3.993
 9457SOL    HW229271   1.014   4.794   4.148
 9458SOL     OW29272   6.710   4.168   0.282
 9458SOL    HW129273   6.645   4.244   0.287
 9458SOL    HW229274   6.691   4.102   0.355
 9459SOL     OW29275   5.314   4.610   4.502
 9459SOL    HW129276   5.405   4.568   4.496
 9459SOL    HW229277   5.314   4.697   4.451
 9460SOL     OW29278   1.119   2.992   3.201
 9460SOL    HW129279   1.181   3.059   3.160
 9460SOL    HW229280   1.168   2.941   3.272
 9461SOL     OW29281   1.492   2.210   1.433
 9461SOL    HW129282   1.575   2.225   1.487
 9461SOL    HW229283   1.515   2.207   1.336
 9462SOL     OW29284   2.106   1.852   4.199
 9462SOL    HW129285   2.106   1.867   4.298
 9462SOL    HW229286   2.117   1.940   4.152
 9463SOL     OW29287   5.221   6.706   0.775
 9463SOL    HW129288   5.127   6.740   0.778
 9463SOL    HW229289   5.277   6.768   0.720
 9464SOL     OW29290   0.250   0.923   1.499
 9464SOL    HW129291   0.256   0.885   1.406
 9464SOL    HW229292   0.155   0.945   1.520
 9465SOL     OW29293   0.465   4.198   1.446
 9465SOL    HW129294   0.474   4.237   1.355
 9465SOL    HW229295   0.503   4.105   1.446
 9466SOL     OW29296   3.981   5.125   6.798
 9466SOL    HW129297   4.013   5.218   6.780
 9466SOL    HW229298   3.913   5.099   6.729
 9467SOL     OW29299   2.046   3.353   1.061
 9467SOL    HW129300   2.115   3.392   1.000
 9467SOL    HW229301   1.967   3.415   1.066
 9468SOL     OW29302   6.548   3.274   0.505
 9468SOL    HW129303   6.643   3.292   0.478
 9468SOL    HW229304   6.535   3.176   0.515
 9469SOL     OW29305   0.164   6.237   0.783
 9469SOL    HW129306   0.197   6.148   0.753
 9469SOL    HW229307   0.241   6.292   0.816
 9470SOL     OW29308   5.208   3.727   0.566
 9470SOL    HW129309   5.264   3.810   0.558
 9470SOL    HW229310   5.112   3.750   0.555
 9471SOL     OW29311   6.123   2.095   5.124
 9471SOL    HW129312   6.194   2.058   5.064
 9471SOL    HW229313   6.152   2.185   5.159
 9472SOL     OW29314   1.505   4.300   6.155
 9472SOL    HW129315   1.480   4.254   6.241
 9472SOL    HW229316   1.427   4.297   6.092
 9473SOL     OW29317   2.824   4.414   0.281
 9473SOL    HW129318   2.820   4.326   0.328
 9473SOL    HW229319   2.914   4.426   0.241
 9474SOL     OW29320   5.884   3.587   1.917
 9474SOL    HW129321   5.983   3.579   1.929
 9474SOL    HW229322   5.849   3.501   1.880
 9475SOL     OW29323   4.914   3.607   5.738
 9475SOL    HW129324   4.843   3.597   5.669
 9475SOL    HW229325   4.962   3.694   5.725
 9476SOL     OW29326   3.577   4.314   5.936
 9476SOL    HW129327   3.545   4.336   5.844
 9476SOL    HW229328   3.562   4.393   5.996
 9477SOL     OW29329   1.856   4.024   1.490
 9477SOL    HW129330   1.902   4.107   1.457
 9477SOL    HW229331   1.871   4.016   1.589
 9478SOL     OW29332   5.063   2.615   0.385
 9478SOL    HW129333   4.970   2.584   0.407
 9478SOL    HW229334   5.059   2.678   0.307
 9479SOL     OW29335   4.503   1.007   1.758
 9479SOL    HW129336   4.501   0.930   1.694
 9479SOL    HW229337   4.426   1.068   1.739
 9480SOL     OW29338   5.948   6.240   6.665
 9480SOL    HW129339   5.905   6.180   6.733
 9480SOL    HW229340   5.934   6.203   6.574
 9481SOL     OW29341   4.733   1.617   3.444
 9481SOL    HW129342   4.711   1.714   3.437
 9481SOL    HW229343   4.696   1.580   3.528
 9482SOL     OW29344   5.857   1.001   0.670
 9482SOL    HW129345   5.915   1.063   0.618
 9482SOL    HW229346   5.879   0.907   0.646
 9483SOL     OW29347   0.933   0.583   0.389
 9483SOL    HW129348   0.853   0.643   0.387
 9483SOL    HW229349   0.915   0.505   0.449
 9484SOL     OW29350   2.616   6.444   4.678
 9484SOL    HW129351   2.627   6.411   4.772
 9484SOL    HW229352   2.608   6.365   4.616
 9485SOL     OW29353   6.701   1.310   0.118
 9485SOL    HW129354   6.629   1.378   0.107
 9485SOL    HW229355   6.680   1.250   0.196
 9486SOL     OW29356   4.452   5.540   7.009
 9486SOL    HW129357   4.459   5.579   0.076
 9486SOL    HW229358   4.377   5.474   7.006
 9487SOL     OW29359   2.916   3.606   4.311
 9487SOL    HW129360   2.938   3.605   4.213
 9487SOL    HW229361   2.899   3.513   4.343
 9488SOL     OW29362   1.479   1.259   1.078
 9488SOL    HW129363   1.407   1.193   1.055
 9488SOL    HW229364   1.456   1.304   1.164
 9489SOL     OW29365   5.112   4.089   0.811
 9489SOL    HW129366   5.120   4.074   0.712
 9489SOL    HW229367   5.133   4.004   0.859
 9490SOL     OW29368   6.151   4.574   3.792
 9490SOL    HW129369   6.067   4.523   3.813
 9490SOL    HW229370   6.178   4.555   3.698
 9491SOL     OW29371   5.192   6.666   3.600
 9491SOL    HW129372   5.238   6.698   3.518
 9491SOL    HW229373   5.260   6.637   3.668
 9492SOL     OW29374   4.860   3.198   4.279
 9492SOL    HW129375   4.866   3.159   4.371
 9492SOL    HW229376   4.850   3.125   4.212
 9493SOL     OW29377   4.376   6.315   4.046
 9493SOL    HW129378   4.327   6.390   4.000
 9493SOL    HW229379   4.331   6.228   4.027
 9494SOL     OW29380   5.075   2.882   2.177
 9494SOL    HW129381   5.033   2.916   2.261
 9494SOL    HW229382   5.017   2.906   2.099
 9495SOL     OW29383   0.438   0.335   1.662
 9495SOL    HW129384   0.518   0.372   1.614
 9495SOL    HW229385   0.387   0.410   1.704
 9496SOL     OW29386   4.395   1.940   2.358
 9496SOL    HW129387   4.380   1.933   2.259
 9496SOL    HW229388   4.402   2.036   2.384
 9497SOL     OW29389   5.758   5.628   4.563
 9497SOL    HW129390   5.670   5.647   4.607
 9497SOL    HW229391   5.830   5.675   4.613
 9498SOL     OW29392   6.777   5.245   4.565
 9498SOL    HW129393   6.857   5.295   4.532
 9498SOL    HW229394   6.706   5.311   4.590
 9499SOL     OW29395   6.251   5.464   5.435
 9499SOL    HW129396   6.273   5.541   5.375
 9499SOL    HW229397   6.299   5.475   5.522
 9500SOL     OW29398   4.220   0.096   1.044
 9500SOL    HW129399   4.289   0.076   1.113
 9500SOL    HW229400   4.207   0.195   1.037
 9501SOL     OW29401   1.492   1.651   4.716
 9501SOL    HW129402   1.550   1.603   4.649
 9501SOL    HW229403   1.550   1.704   4.778
 9502SOL     OW29404   5.418   4.941   5.683
 9502SOL    HW129405   5.319   4.952   5.672
 9502SOL    HW229406   5.448   4.861   5.630
 9503SOL     OW29407   0.501   2.059   0.293
 9503SOL    HW129408   0.454   2.081   0.208
 9503SOL    HW229409   0.594   2.095   0.290
 9504SOL     OW29410   6.922   4.394   1.238
 9504SOL    HW129411   6.900   4.342   1.321
 9504SOL    HW229412   6.840   4.443   1.208
 9505SOL     OW29413   4.335   4.580   5.539
 9505SOL    HW129414   4.433   4.593   5.522
 9505SOL    HW229415   4.321   4.488   5.578
 9506SOL     OW29416   2.664   2.246   1.372
 9506SOL    HW129417   2.593   2.253   1.301
 9506SOL    HW229418   2.705   2.154   1.369
 9507SOL     OW29419   6.053   0.285   1.555
 9507SOL    HW129420   6.147   0.284   1.520
 9507SOL    HW229421   6.035   0.372   1.600
 9508SOL     OW29422   4.478   1.392   2.498
 9508SOL    HW129423   4.535   1.384   2.417
 9508SOL    HW229424   4.527   1.446   2.567
 9509SOL     OW29425   6.359   0.423   2.704
 9509SOL    HW129426   6.434   0.444   2.767
 9509SOL    HW229427   6.305   0.505   2.688
 9510SOL     OW29428   0.355   3.059   3.867
 9510SOL    HW129429   0.427   3.096   3.808
 9510SOL    HW229430   0.337   2.965   3.841
 9511SOL     OW29431   1.324   1.028   1.107
 9511SOL    HW129432   1.348   0.946   1.161
 9511SOL    HW229433   1.262   1.002   1.033
 9512SOL     OW29434   6.698   2.924   0.961
 9512SOL    HW129435   6.611   2.964   0.933
 9512SOL    HW229436   6.705   2.928   1.061
 9513SOL     OW29437   4.563   4.626   6.438
 9513SOL    HW129438   4.524   4.703   6.488
 9513SOL    HW229439   4.549   4.542   6.491
 9514SOL     OW29440   2.939   2.990   6.707
 9514SOL    HW129441   3.022   2.953   6.750
 9514SOL    HW229442   2.963   3.070   6.652
 9515SOL     OW29443   2.727   5.136   3.943
 9515SOL    HW129444   2.723   5.076   3.864
 9515SOL    HW229445   2.728   5.081   4.027
 9516SOL     OW29446   6.100   4.114   0.180
 9516SOL    HW129447   6.132   4.019   0.187
 9516SOL    HW229448   6.086   4.151   0.272
 9517SOL     OW29449   0.929   4.119   1.191
 9517SOL    HW129450   0.960   4.038   1.140
 9517SOL    HW229451   0.905   4.192   1.126
 9518SOL     OW29452   2.210   1.568   0.768
 9518SOL    HW129453   2.300   1.536   0.799
 9518SOL    HW229454   2.140   1.506   0.802
 9519SOL     OW29455   0.995   2.654   5.411
 9519SOL    HW129456   1.050   2.583   5.367
 9519SOL    HW229457   0.901   2.648   5.379
 9520SOL     OW29458   2.407   0.292   2.876
 9520SOL    HW129459   2.331   0.329   2.822
 9520SOL    HW229460   2.382   0.291   2.973
 9521SOL     OW29461   5.783   5.828   3.897
 9521SOL    HW129462   5.740   5.765   3.832
 9521SOL    HW229463   5.821   5.776   3.974
 9522SOL     OW29464   3.525   5.958   1.369
 9522SOL    HW129465   3.457   5.976   1.441
 9522SOL    HW229466   3.582   6.038   1.357
 9523SOL     OW29467   3.570   5.195   4.388
 9523SOL    HW129468   3.533   5.102   4.397
 9523SOL    HW229469   3.651   5.192   4.329
 9524SOL     OW29470   3.600   3.240   1.366
 9524SOL    HW129471   3.630   3.146   1.348
 9524SOL    HW229472   3.573   3.249   1.461
 9525SOL     OW29473   1.981   1.032   5.740
 9525SOL    HW129474   2.042   1.021   5.818
 9525SOL    HW229475   1.911   0.960   5.743
 9526SOL     OW29476   5.042   6.263   3.226
 9526SOL    HW129477   5.096   6.182   3.201
 9526SOL    HW229478   5.024   6.261   3.325
 9527SOL     OW29479   1.071   1.132   1.978
 9527SOL    HW129480   1.011   1.114   1.900
 9527SOL    HW229481   1.048   1.221   2.018
 9528SOL     OW29482   6.186   0.210   1.214
 9528SOL    HW129483   6.119   0.138   1.231
 9528SOL    HW229484   6.141   0.287   1.168
 9529SOL     OW29485   0.937   3.334   6.434
 9529SOL    HW129486   0.921   3.351   6.336
 9529SOL    HW229487   1.002   3.259   6.444
 9530SOL     OW29488   1.687   2.695   3.020
 9530SOL    HW129489   1.673   2.640   2.938
 9530SOL    HW229490   1.626   2.663   3.093
 9531SOL     OW29491   3.358   0.161   3.241
 9531SOL    HW129492   3.281   0.098   3.250
 9531SOL    HW229493   3.431   0.116   3.190
 9532SOL     OW29494   1.852   0.064   1.469
 9532SOL    HW129495   1.794   0.001   1.520
 9532SOL    HW229496   1.870   0.027   1.378
 9533SOL     OW29497   1.317   1.174   5.623
 9533SOL    HW129498   1.410   1.138   5.631
 9533SOL    HW229499   1.264   1.146   5.702
 9534SOL     OW29500   5.226   2.046   4.695
 9534SOL    HW129501   5.180   2.134   4.688
 9534SOL    HW229502   5.167   1.981   4.743
 9535SOL     OW29503   2.612   1.139   5.473
 9535SOL    HW129504   2.675   1.215   5.485
 9535SOL    HW229505   2.570   1.115   5.561
 9536SOL     OW29506   1.770   5.689   5.532
 9536SOL    HW129507   1.796   5.747   5.609
 9536SOL    HW229508   1.765   5.594   5.561
 9537SOL     OW29509   3.230   0.423   2.234
 9537SOL    HW129510   3.135   0.396   2.216
 9537SOL    HW229511   3.268   0.463   2.151
 9538SOL     OW29512   6.665   2.169   4.525
 9538SOL    HW129513   6.758   2.202   4.515
 9538SOL    HW229514   6.644   2.156   4.622
 9539SOL     OW29515   0.708   5.890   7.022
 9539SOL    HW129516   0.773   5.910   0.071
 9539SOL    HW229517   0.712   5.963   6.954
 9540SOL     OW29518   4.409   5.081   4.969
 9540SOL    HW129519   4.442   5.003   4.914
 9540SOL    HW229520   4.343   5.049   5.036
 9541SOL     OW29521   1.787   2.696   4.375
 9541SOL    HW129522   1.852   2.687   4.451
 9541SOL    HW229523   1.811   2.777   4.321
 9542SOL     OW29524   4.960   3.105   4.509
 9542SOL    HW129525   4.941   3.173   4.579
 9542SOL    HW229526   5.036   3.047   4.539
 9543SOL     OW29527   4.446   1.142   3.374
 9543SOL    HW129528   4.386   1.204   3.323
 9543SOL    HW229529   4.462   1.179   3.465
 9544SOL     OW29530   5.148   1.203   2.132
 9544SOL    HW129531   5.198   1.141   2.071
 9544SOL    HW229532   5.170   1.182   2.227
 9545SOL     OW29533   0.061   0.376   3.035
 9545SOL    HW129534   7.010   0.381   3.100
 9545SOL    HW229535   0.026   0.350   2.945
 9546SOL     OW29536   2.844   5.684   6.373
 9546SOL    HW129537   2.765   5.741   6.396
 9546SOL    HW229538   2.917   5.702   6.439
 9547SOL     OW29539   0.927   6.122   4.783
 9547SOL    HW129540   0.990   6.082   4.851
 9547SOL    HW229541   0.976   6.191   4.730
 9548SOL     OW29542   5.570   5.947   4.295
 9548SOL    HW129543   5.643   5.880   4.277
 9548SOL    HW229544   5.554   6.002   4.213
 9549SOL     OW29545   2.276   5.715   0.361
 9549SOL    HW129546   2.253   5.804   0.323
 9549SOL    HW229547   2.212   5.647   0.328
 9550SOL     OW29548   1.285   1.717   0.314
 9550SOL    HW129549   1.210   1.659   0.346
 9550SOL    HW229550   1.342   1.744   0.392
 9551SOL     OW29551   0.456   6.785   4.829
 9551SOL    HW129552   0.512   6.706   4.853
 9551SOL    HW229553   0.513   6.867   4.825
 9552SOL     OW29554   1.735   6.325   3.457
 9552SOL    HW129555   1.779   6.236   3.448
 9552SOL    HW229556   1.638   6.316   3.435
 9553SOL     OW29557   5.932   4.562   6.007
 9553SOL    HW129558   5.952   4.649   5.962
 9553SOL    HW229559   5.956   4.569   6.104
 9554SOL     OW29560   2.512   1.519   1.853
 9554SOL    HW129561   2.525   1.539   1.756
 9554SOL    HW229562   2.477   1.425   1.864
 9555SOL     OW29563   6.754   2.229   0.798
 9555SOL    HW129564   6.773   2.283   0.716
 9555SOL    HW229565   6.662   2.191   0.793
 9556SOL     OW29566   2.657   1.140   1.385
 9556SOL    HW129567   2.632   1.052   1.425
 9556SOL    HW229568   2.587   1.167   1.318
 9557SOL     OW29569   5.570   0.259   2.299
 9557SOL    HW129570   5.529   0.168   2.302
 9557SOL    HW229571   5.516   0.318   2.240
 9558SOL     OW29572   6.676   5.009   2.911
 9558SOL    HW129573   6.684   4.917   2.872
 9558SOL    HW229574   6.713   5.009   3.004
 9559SOL     OW29575   6.692   3.078   1.902
 9559SOL    HW129576   6.759   3.081   1.976
 9559SOL    HW229577   6.727   3.130   1.823
 9560SOL     OW29578   2.596   1.112   3.202
 9560SOL    HW129579   2.522   1.149   3.257
 9560SOL    HW229580   2.676   1.094   3.260
 9561SOL     OW29581   4.259   6.823   0.996
 9561SOL    HW129582   4.202   6.769   0.934
 9561SOL    HW229583   4.271   6.915   0.958
 9562SOL     OW29584   5.056   5.118   2.635
 9562SOL    HW129585   5.089   5.208   2.607
 9562SOL    HW229586   5.132   5.053   2.636
 9563SOL     OW29587   6.728   5.985   6.299
 9563SOL    HW129588   6.671   5.919   6.347
 9563SOL    HW229589   6.725   5.966   6.200
 9564SOL     OW29590   2.945   6.739   6.832
 9564SOL    HW129591   2.982   6.819   6.879
 9564SOL    HW229592   2.958   6.657   6.888
 9565SOL     OW29593   3.442   6.232   4.584
 9565SOL    HW129594   3.477   6.325   4.576
 9565SOL    HW229595   3.446   6.188   4.494
 9566SOL     OW29596   3.094   4.760   5.505
 9566SOL    HW129597   3.064   4.741   5.598
 9566SOL    HW229598   3.138   4.850   5.502
 9567SOL     OW29599   6.017   5.776   6.019
 9567SOL    HW129600   6.015   5.677   6.015
 9567SOL    HW229601   6.073   5.806   6.096
 9568SOL     OW29602   4.793   3.791   6.585
 9568SOL    HW129603   4.836   3.754   6.667
 9568SOL    HW229604   4.719   3.853   6.611
 9569SOL     OW29605   6.076   0.615   0.051
 9569SOL    HW129606   6.107   0.711   0.047
 9569SOL    HW229607   6.080   0.583   0.146
 9570SOL     OW29608   1.201   1.259   0.061
 9570SOL    HW129609   1.256   1.229   7.008
 9570SOL    HW229610   1.237   1.347   0.094
 9571SOL     OW29611   2.187   3.540   0.241
 9571SOL    HW129612   2.177   3.583   0.331
 9571SOL    HW229613   2.205   3.442   0.252
 9572SOL     OW29614   1.367   4.291   1.901
 9572SOL    HW129615   1.286   4.349   1.908
 9572SOL    HW229616   1.393   4.258   1.992
 9573SOL     OW29617   1.928   1.464   0.356
 9573SOL    HW129618   2.009   1.511   0.321
 9573SOL    HW229619   1.854   1.472   0.289
 9574SOL     OW29620   2.759   3.173   5.848
 9574SOL    HW129621   2.660   3.165   5.837
 9574SOL    HW229622   2.798   3.082   5.861
 9575SOL     OW29623   5.237   0.881   2.202
 9575SOL    HW129624   5.140   0.877   2.225
 9575SOL    HW229625   5.262   0.799   2.150
 9576SOL     OW29626   3.082   1.155   4.664
 9576SOL    HW129627   3.147   1.096   4.712
 9576SOL    HW229628   3.099   1.250   4.691
 9577SOL     OW29629   0.948   6.168   2.694
 9577SOL    HW129630   0.931   6.225   2.613
 9577SOL    HW229631   1.025   6.107   2.676
 9578SOL     OW29632   6.392   2.895   2.300
 9578SOL    HW129633   6.334   2.867   2.377
 9578SOL    HW229634   6.346   2.965   2.247
 9579SOL     OW29635   0.930   6.738   2.377
 9579SOL    HW129636   0.913   6.816   2.318
 9579SOL    HW229637   0.845   6.687   2.391
 9580SOL     OW29638   4.098   3.713   6.527
 9580SOL    HW129639   4.017   3.717   6.468
 9580SOL    HW229640   4.177   3.749   6.477
 9581SOL     OW29641   1.247   4.330   6.073
 9581SOL    HW129642   1.188   4.408   6.095
 9581SOL    HW229643   1.207   4.247   6.111
 9582SOL     OW29644   4.282   4.659   4.283
 9582SOL    HW129645   4.349   4.591   4.313
 9582SOL    HW229646   4.329   4.733   4.235
 9583SOL     OW29647   1.992   4.290   2.078
 9583SOL    HW129648   1.990   4.353   2.155
 9583SOL    HW229649   2.030   4.202   2.107
 9584SOL     OW29650   6.294   5.533   6.836
 9584SOL    HW129651   6.364   5.464   6.855
 9584SOL    HW229652   6.337   5.622   6.825
 9585SOL     OW29653   6.168   0.184   4.493
 9585SOL    HW129654   6.122   0.251   4.435
 9585SOL    HW229655   6.104   0.149   4.562
 9586SOL     OW29656   5.567   3.303   3.434
 9586SOL    HW129657   5.492   3.358   3.398
 9586SOL    HW229658   5.650   3.358   3.439
 9587SOL     OW29659   5.162   0.299   2.546
 9587SOL    HW129660   5.172   0.398   2.534
 9587SOL    HW229661   5.074   0.279   2.588
 9588SOL     OW29662   0.625   0.765   1.486
 9588SOL    HW129663   0.635   0.865   1.492
 9588SOL    HW229664   0.655   0.734   1.396
 9589SOL     OW29665   2.781   1.055   6.701
 9589SOL    HW129666   2.855   1.003   6.743
 9589SOL    HW229667   2.812   1.094   6.615
 9590SOL     OW29668   0.394   4.040   3.363
 9590SOL    HW129669   0.444   4.040   3.277
 9590SOL    HW229670   0.426   4.116   3.420
 9591SOL     OW29671   1.477   5.208   1.136
 9591SOL    HW129672   1.537   5.245   1.066
 9591SOL    HW229673   1.438   5.121   1.104
 9592SOL     OW29674   4.991   5.509   2.088
 9592SOL    HW129675   4.985   5.561   2.002
 9592SOL    HW229676   5.023   5.416   2.068
 9593SOL     OW29677   6.816   2.706   4.726
 9593SOL    HW129678   6.888   2.723   4.659
 9593SOL    HW229679   6.755   2.635   4.692
 9594SOL     OW29680   6.394   6.838   2.457
 9594SOL    HW129681   6.420   6.753   2.410
 9594SOL    HW229682   6.310   6.874   2.416
 9595SOL     OW29683   1.480   5.510   3.933
 9595SOL    HW129684   1.477   5.605   3.961
 9595SOL    HW229685   1.570   5.489   3.894
 9596SOL     OW29686   5.731   5.979   5.001
 9596SOL    HW129687   5.790   6.010   5.076
 9596SOL    HW229688   5.664   5.913   5.036
 9597SOL     OW29689   1.938   4.284   1.401
 9597SOL    HW129690   1.904   4.349   1.333
 9597SOL    HW229691   1.940   4.328   1.491
 9598SOL     OW29692   0.050   5.390   5.885
 9598SOL    HW129693   0.114   5.315   5.898
 9598SOL    HW229694   0.072   5.464   5.949
 9599SOL     OW29695   4.720   1.682   5.642
 9599SOL    HW129696   4.748   1.760   5.587
 9599SOL    HW229697   4.621   1.676   5.646
 9600SOL     OW29698   1.389   0.482   6.735
 9600SOL    HW129699   1.364   0.419   6.808
 9600SOL    HW229700   1.306   0.517   6.692
 9601SOL     OW29701   0.235   5.542   5.535
 9601SOL    HW129702   0.249   5.593   5.450
 9601SOL    HW229703   0.168   5.590   5.592
 9602SOL     OW29704   1.141   5.814   6.925
 9602SOL    HW129705   1.134   5.716   6.908
 9602SOL    HW229706   1.102   5.864   6.848
 9603SOL     OW29707   1.919   5.916   4.490
 9603SOL    HW129708   1.953   5.955   4.575
 9603SOL    HW229709   1.978   5.944   4.414
 9604SOL     OW29710   5.793   1.714   6.896
 9604SOL    HW129711   5.848   1.782   6.943
 9604SOL    HW229712   5.781   1.742   6.800
 9605SOL     OW29713   1.709   5.862   6.652
 9605SOL    HW129714   1.801   5.879   6.616
 9605SOL    HW229715   1.695   5.917   6.734
 9606SOL     OW29716   6.922   6.365   4.392
 9606SOL    HW129717   6.944   6.462   4.385
 9606SOL    HW229718   6.996   6.311   4.352
 9607SOL     OW29719   0.971   2.359   2.210
 9607SOL    HW129720   0.905   2.376   2.137
 9607SOL    HW229721   1.024   2.277   2.189
 9608SOL     OW29722   0.576   6.866   2.220
 9608SOL    HW129723   0.516   6.794   2.185
 9608SOL    HW229724   0.626   6.907   2.143
 9609SOL     OW29725   1.515   4.048   4.362
 9609SOL    HW129726   1.424   4.016   4.337
 9609SOL    HW229727   1.539   4.010   4.452
 9610SOL     OW29728   2.114   1.832   6.004
 9610SOL    HW129729   2.142   1.835   6.099
 9610SOL    HW229730   2.119   1.924   5.965
 9611SOL     OW29731   6.114   0.590   1.420
 9611SOL    HW129732   6.178   0.649   1.370
 9611SOL    HW229733   6.068   0.530   1.355
 9612SOL     OW29734   5.950   2.765   1.666
 9612SOL    HW129735   6.031   2.711   1.690
 9612SOL    HW229736   5.960   2.800   1.573
 9613SOL     OW29737   6.119   6.682   5.107
 9613SOL    HW129738   6.061   6.678   5.026
 9613SOL    HW229739   6.109   6.597   5.159
 9614SOL     OW29740   3.873   3.596   2.623
 9614SOL    HW129741   3.779   3.624   2.605
 9614SOL    HW229742   3.875   3.499   2.646
 9615SOL     OW29743   1.025   5.719   2.839
 9615SOL    HW129744   0.948   5.746   2.897
 9615SOL    HW229745   1.095   5.791   2.843
 9616SOL     OW29746   3.988   3.025   0.934
 9616SOL    HW129747   3.945   2.943   0.896
 9616SOL    HW229748   3.938   3.106   0.905
 9617SOL     OW29749   1.182   3.265   3.940
 9617SOL    HW129750   1.161   3.205   4.017
 9617SOL    HW229751   1.238   3.341   3.971
 9618SOL     OW29752   4.012   6.185   6.817
 9618SOL    HW129753   3.988   6.168   6.912
 9618SOL    HW229754   3.959   6.124   6.758
 9619SOL     OW29755   2.537   6.396   0.507
 9619SOL    HW129756   2.634   6.382   0.525
 9619SOL    HW229757   2.516   6.493   0.504
 9620SOL     OW29758   3.264   1.612   6.154
 9620SOL    HW129759   3.245   1.710   6.154
 9620SOL    HW229760   3.212   1.568   6.081
 9621SOL     OW29761   0.666   0.597   1.086
 9621SOL    HW129762   0.737   0.660   1.116
 9621SOL    HW229763   0.707   0.521   1.036
 9622SOL     OW29764   5.757   0.507   6.050
 9622SOL    HW129765   5.725   0.423   6.094
 9622SOL    HW229766   5.692   0.581   6.066
 9623SOL     OW29767   4.359   6.248   6.023
 9623SOL    HW129768   4.446   6.276   6.064
 9623SOL    HW229769   4.367   6.156   5.986
 9624SOL     OW29770   4.045   4.857   5.098
 9624SOL    HW129771   4.028   4.866   5.000
 9624SOL    HW229772   3.958   4.842   5.145
 9625SOL     OW29773   5.328   4.608   5.750
 9625SOL    HW129774   5.302   4.642   5.841
 9625SOL    HW229775   5.245   4.584   5.699
 9626SOL     OW29776   2.580   4.248   6.066
 9626SOL    HW129777   2.601   4.246   5.968
 9626SOL    HW229778   2.582   4.343   6.098
 9627SOL     OW29779   0.716   5.309   0.196
 9627SOL    HW129780   0.742   5.369   0.120
 9627SOL    HW229781   0.641   5.250   0.168
 9628SOL     OW29782   5.758   3.206   6.538
 9628SOL    HW129783   5.703   3.286   6.513
 9628SOL    HW229784   5.814   3.178   6.459
 9629SOL     OW29785   0.231   5.588   3.595
 9629SOL    HW129786   0.151   5.648   3.587
 9629SOL    HW229787   0.268   5.571   3.505
 9630SOL     OW29788   6.524   5.810   6.427
 9630SOL    HW129789   6.481   5.801   6.337
 9630SOL    HW229790   6.463   5.861   6.488
 9631SOL     OW29791   4.151   1.078   0.796
 9631SOL    HW129792   4.106   1.093   0.708
 9631SOL    HW229793   4.083   1.048   0.863
 9632SOL     OW29794   3.662   6.452   1.509
 9632SOL    HW129795   3.565   6.458   1.486
 9632SOL    HW229796   3.673   6.442   1.608
 9633SOL     OW29797   3.134   3.100   2.481
 9633SOL    HW129798   3.091   3.110   2.570
 9633SOL    HW229799   3.184   3.185   2.459
 9634SOL     OW29800   5.176   4.327   2.470
 9634SOL    HW129801   5.100   4.367   2.522
 9634SOL    HW229802   5.245   4.292   2.533
 9635SOL     OW29803   0.955   3.747   3.349
 9635SOL    HW129804   0.943   3.747   3.448
 9635SOL    HW229805   0.885   3.690   3.306
 9636SOL     OW29806   4.543   2.510   4.649
 9636SOL    HW129807   4.515   2.526   4.743
 9636SOL    HW229808   4.638   2.478   4.648
 9637SOL     OW29809   2.551   3.070   0.307
 9637SOL    HW129810   2.501   3.050   0.223
 9637SOL    HW229811   2.552   2.989   0.365
 9638SOL     OW29812   0.145   4.465   5.608
 9638SOL    HW129813   0.079   4.399   5.644
 9638SOL    HW229814   0.168   4.532   5.679
 9639SOL     OW29815   4.361   1.815   2.633
 9639SOL    HW129816   4.266   1.786   2.637
 9639SOL    HW229817   4.385   1.842   2.540
 9640SOL     OW29818   3.551   0.330   2.479
 9640SOL    HW129819   3.589   0.412   2.435
 9640SOL    HW229820   3.521   0.265   2.408
 9641SOL     OW29821   6.174   4.248   2.404
 9641SOL    HW129822   6.266   4.239   2.443
 9641SOL    HW229823   6.167   4.335   2.357
 9642SOL     OW29824   2.054   0.382   3.610
 9642SOL    HW129825   2.084   0.318   3.681
 9642SOL    HW229826   2.018   0.465   3.653
 9643SOL     OW29827   5.664   4.417   4.226
 9643SOL    HW129828   5.601   4.433   4.149
 9643SOL    HW229829   5.616   4.436   4.312
 9644SOL     OW29830   1.361   5.386   5.006
 9644SOL    HW129831   1.301   5.321   5.052
 9644SOL    HW229832   1.313   5.473   4.993
 9645SOL     OW29833   0.731   5.612   0.064
 9645SOL    HW129834   0.742   5.712   0.058
 9645SOL    HW229835   0.819   5.568   0.046
 9646SOL     OW29836   3.373   6.204   5.776
 9646SOL    HW129837   3.457   6.165   5.813
 9646SOL    HW229838   3.386   6.301   5.757
 9647SOL     OW29839   6.112   6.781   3.476
 9647SOL    HW129840   6.130   6.694   3.520
 9647SOL    HW229841   6.187   6.805   3.415
 9648SOL     OW29842   4.614   2.311   1.173
 9648SOL    HW129843   4.591   2.252   1.096
 9648SOL    HW229844   4.555   2.393   1.171
 9649SOL     OW29845   2.374   4.027   0.399
 9649SOL    HW129846   2.292   4.037   0.343
 9649SOL    HW229847   2.436   4.103   0.381
 9650SOL     OW29848   0.033   4.741   4.609
 9650SOL    HW129849   0.044   4.817   4.544
 9650SOL    HW229850   6.963   4.735   4.637
 9651SOL     OW29851   3.178   1.182   0.658
 9651SOL    HW129852   3.125   1.217   0.735
 9651SOL    HW229853   3.119   1.177   0.577
 9652SOL     OW29854   6.900   3.795   0.491
 9652SOL    HW129855   6.891   3.701   0.522
 9652SOL    HW229856   6.949   3.797   0.404
 9653SOL     OW29857   4.632   3.802   6.139
 9653SOL    HW129858   4.688   3.730   6.179
 9653SOL    HW229859   4.550   3.762   6.098
 9654SOL     OW29860   3.296   3.601   4.024
 9654SOL    HW129861   3.306   3.624   4.120
 9654SOL    HW229862   3.386   3.579   3.986
 9655SOL     OW29863   4.873   1.326   1.826
 9655SOL    HW129864   4.922   1.243   1.799
 9655SOL    HW229865   4.820   1.360   1.748
 9656SOL     OW29866   5.583   4.294   1.403
 9656SOL    HW129867   5.484   4.290   1.417
 9656SOL    HW229868   5.616   4.386   1.421
 9657SOL     OW29869   5.761   3.500   3.390
 9657SOL    HW129870   5.772   3.592   3.427
 9657SOL    HW229871   5.842   3.445   3.413
 9658SOL     OW29872   4.869   1.818   2.032
 9658SOL    HW129873   4.845   1.771   1.948
 9658SOL    HW229874   4.907   1.753   2.098
 9659SOL     OW29875   3.413   3.121   0.670
 9659SOL    HW129876   3.495   3.178   0.662
 9659SOL    HW229877   3.430   3.048   0.737
 9660SOL     OW29878   0.192   5.720   1.145
 9660SOL    HW129879   0.234   5.641   1.101
 9660SOL    HW229880   0.095   5.724   1.123
 9661SOL     OW29881   4.550   4.898   0.931
 9661SOL    HW129882   4.546   4.806   0.891
 9661SOL    HW229883   4.578   4.964   0.861
 9662SOL     OW29884   5.084   4.293   6.827
 9662SOL    HW129885   5.158   4.360   6.834
 9662SOL    HW229886   5.006   4.334   6.782
 9663SOL     OW29887   0.780   4.587   3.620
 9663SOL    HW129888   0.844   4.527   3.571
 9663SOL    HW229889   0.775   4.559   3.716
 9664SOL     OW29890   5.661   3.999   3.270
 9664SOL    HW129891   5.740   4.023   3.214
 9664SOL    HW229892   5.688   3.928   3.336
 9665SOL     OW29893   5.444   6.187   6.662
 9665SOL    HW129894   5.459   6.154   6.756
 9665SOL    HW229895   5.409   6.281   6.665
 9666SOL     OW29896   5.957   3.789   0.677
 9666SOL    HW129897   5.950   3.885   0.651
 9666SOL    HW229898   5.870   3.742   0.656
 9667SOL     OW29899   5.373   5.567   0.203
 9667SOL    HW129900   5.291   5.509   0.208
 9667SOL    HW229901   5.432   5.548   0.281
 9668SOL     OW29902   0.962   0.033   6.024
 9668SOL    HW129903   0.967   0.108   6.090
 9668SOL    HW229904   0.925   6.977   6.069
 9669SOL     OW29905   3.532   0.148   0.279
 9669SOL    HW129906   3.510   0.053   0.303
 9669SOL    HW229907   3.592   0.149   0.199
 9670SOL     OW29908   0.382   0.390   5.987
 9670SOL    HW129909   0.410   0.481   6.017
 9670SOL    HW229910   0.445   0.321   6.023
 9671SOL     OW29911   1.281   4.997   6.663
 9671SOL    HW129912   1.318   5.076   6.615
 9671SOL    HW229913   1.193   5.022   6.704
 9672SOL     OW29914   0.445   3.986   4.501
 9672SOL    HW129915   0.452   4.023   4.408
 9672SOL    HW229916   0.357   4.014   4.541
 9673SOL     OW29917   2.457   3.971   1.282
 9673SOL    HW129918   2.500   3.927   1.203
 9673SOL    HW229919   2.420   3.900   1.343
 9674SOL     OW29920   3.457   6.427   3.820
 9674SOL    HW129921   3.527   6.483   3.863
 9674SOL    HW229922   3.484   6.331   3.823
 9675SOL     OW29923   4.637   3.952   1.752
 9675SOL    HW129924   4.715   3.913   1.800
 9675SOL    HW229925   4.634   4.051   1.766
 9676SOL     OW29926   1.496   3.396   5.688
 9676SOL    HW129927   1.569   3.447   5.733
 9676SOL    HW229928   1.412   3.404   5.741
 9677SOL     OW29929   6.135   4.953   0.356
 9677SOL    HW129930   6.110   4.888   0.285
 9677SOL    HW229931   6.216   4.920   0.404
 9678SOL     OW29932   3.439   3.711   5.012
 9678SOL    HW129933   3.427   3.632   5.071
 9678SOL    HW229934   3.464   3.791   5.067
 9679SOL     OW29935   1.843   1.381   5.153
 9679SOL    HW129936   1.773   1.450   5.134
 9679SOL    HW229937   1.933   1.416   5.125
 9680SOL     OW29938   4.434   5.976   2.884
 9680SOL    HW129939   4.510   6.037   2.859
 9680SOL    HW229940   4.452   5.884   2.849
 9681SOL     OW29941   1.820   1.610   2.471
 9681SOL    HW129942   1.751   1.671   2.431
 9681SOL    HW229943   1.871   1.660   2.541
 9682SOL     OW29944   5.503   6.012   4.722
 9682SOL    HW129945   5.526   6.002   4.819
 9682SOL    HW229946   5.422   6.069   4.712
 9683SOL     OW29947   2.920   6.869   1.074
 9683SOL    HW129948   2.942   6.846   0.979
 9683SOL    HW229949   2.925   6.787   1.131
 9684SOL     OW29950   1.450   4.596   5.843
 9684SOL    HW129951   1.412   4.663   5.778
 9684SOL    HW229952   1.479   4.515   5.793
 9685SOL     OW29953   3.696   4.753   1.507
 9685SOL    HW129954   3.749   4.712   1.433
 9685SOL    HW229955   3.611   4.702   1.519
 9686SOL     OW29956   6.574   1.828   5.796
 9686SOL    HW129957   6.498   1.851   5.736
 9686SOL    HW229958   6.541   1.775   5.874
 9687SOL     OW29959   6.064   0.407   2.389
 9687SOL    HW129960   6.159   0.394   2.417
 9687SOL    HW229961   6.031   0.495   2.423
 9688SOL     OW29962   1.209   4.805   1.546
 9688SOL    HW129963   1.272   4.880   1.527
 9688SOL    HW229964   1.121   4.823   1.502
 9689SOL     OW29965   1.037   6.244   0.537
 9689SOL    HW129966   1.115   6.188   0.511
 9689SOL    HW229967   1.046   6.335   0.495
 9690SOL     OW29968   5.807   5.705   5.489
 9690SOL    HW129969   5.858   5.732   5.408
 9690SOL    HW229970   5.852   5.741   5.571
 9691SOL     OW29971   3.278   3.458   2.126
 9691SOL    HW129972   3.222   3.430   2.048
 9691SOL    HW229973   3.371   3.422   2.114
 9692SOL     OW29974   4.572   5.031   0.403
 9692SOL    HW129975   4.547   5.116   0.357
 9692SOL    HW229976   4.509   5.016   0.479
 9693SOL     OW29977   5.414   4.124   3.900
 9693SOL    HW129978   5.479   4.095   3.829
 9693SOL    HW229979   5.347   4.187   3.860
 9694SOL     OW29980   3.460   6.466   1.937
 9694SOL    HW129981   3.458   6.528   1.859
 9694SOL    HW229982   3.466   6.518   2.022
 9695SOL     OW29983   0.454   2.800   3.750
 9695SOL    HW129984   0.436   2.714   3.701
 9695SOL    HW229985   0.546   2.833   3.726
 9696SOL     OW29986   5.943   2.153   2.807
 9696SOL    HW129987   5.877   2.094   2.762
 9696SOL    HW229988   5.994   2.205   2.739
 9697SOL     OW29989   6.946   5.964   0.231
 9697SOL    HW129990   6.947   5.890   0.163
 9697SOL    HW229991   7.000   6.041   0.197
 9698SOL     OW29992   5.190   3.696   0.178
 9698SOL    HW129993   5.223   3.741   0.096
 9698SOL    HW229994   5.129   3.758   0.228
 9699SOL     OW29995   1.075   5.224   0.418
 9699SOL    HW129996   1.089   5.215   0.517
 9699SOL    HW229997   1.112   5.144   0.372
 9700SOL     OW29998   5.712   6.603   4.352
 9700SOL    HW129999   5.700   6.506   4.330
 9700SOL    HW230000   5.808   6.621   4.375
 9701SOL     OW30001   5.074   3.235   6.457
 9701SOL    HW130002   5.050   3.297   6.531
 9701SOL    HW230003   5.130   3.160   6.493
 9702SOL     OW30004   3.240   3.202   0.962
 9702SOL    HW130005   3.161   3.143   0.977
 9702SOL    HW230006   3.291   3.213   1.047
 9703SOL     OW30007   5.909   3.818   5.136
 9703SOL    HW130008   5.872   3.906   5.167
 9703SOL    HW230009   5.994   3.834   5.086
 9704SOL     OW30010   2.937   4.768   2.969
 9704SOL    HW130011   2.902   4.675   2.955
 9704SOL    HW230012   2.922   4.821   2.886
 9705SOL     OW30013   6.062   4.461   5.764
 9705SOL    HW130014   6.103   4.371   5.780
 9705SOL    HW230015   6.047   4.506   5.852
 9706SOL     OW30016   1.112   1.593   2.646
 9706SOL    HW130017   1.012   1.594   2.643
 9706SOL    HW230018   1.146   1.686   2.658
 9707SOL     OW30019   6.289   4.788   2.293
 9707SOL    HW130020   6.220   4.832   2.350
 9707SOL    HW230021   6.379   4.798   2.335
 9708SOL     OW30022   1.974   0.644   2.096
 9708SOL    HW130023   1.963   0.724   2.155
 9708SOL    HW230024   1.929   0.661   2.008
 9709SOL     OW30025   5.733   2.657   2.369
 9709SOL    HW130026   5.799   2.688   2.301
 9709SOL    HW230027   5.656   2.721   2.373
 9710SOL     OW30028   5.955   5.996   4.793
 9710SOL    HW130029   6.034   6.049   4.824
 9710SOL    HW230030   5.877   6.017   4.851
 9711SOL     OW30031   3.892   6.545   6.514
 9711SOL    HW130032   3.899   6.583   6.422
 9711SOL    HW230033   3.928   6.452   6.515
 9712SOL     OW30034   6.483   2.585   0.676
 9712SOL    HW130035   6.545   2.551   0.747
 9712SOL    HW230036   6.396   2.536   0.682
 9713SOL     OW30037   1.860   6.372   3.714
 9713SOL    HW130038   1.798   6.367   3.636
 9713SOL    HW230039   1.818   6.427   3.786
 9714SOL     OW30040   3.459   4.953   4.837
 9714SOL    HW130041   3.398   4.913   4.768
 9714SOL    HW230042   3.405   4.980   4.917
 9715SOL     OW30043   6.084   4.340   1.048
 9715SOL    HW130044   5.994   4.330   1.007
 9715SOL    HW230045   6.153   4.298   0.989
 9716SOL     OW30046   3.111   4.868   6.826
 9716SOL    HW130047   3.042   4.925   6.780
 9716SOL    HW230048   3.118   4.896   6.922
 9717SOL     OW30049   3.939   0.822   5.885
 9717SOL    HW130050   3.986   0.874   5.956
 9717SOL    HW230051   3.859   0.874   5.855
 9718SOL     OW30052   3.198   1.909   0.004
 9718SOL    HW130053   3.210   1.976   6.956
 9718SOL    HW230054   3.272   1.843   0.002
 9719SOL     OW30055   4.505   5.881   5.151
 9719SOL    HW130056   4.464   5.894   5.242
 9719SOL    HW230057   4.490   5.787   5.122
 9720SOL     OW30058   1.575   4.652   2.908
 9720SOL    HW130059   1.567   4.747   2.941
 9720SOL    HW230060   1.627   4.651   2.823
 9721SOL     OW30061   0.757   2.153   0.293
 9721SOL    HW130062   0.838   2.110   0.251
 9721SOL    HW230063   0.773   2.251   0.304
 9722SOL     OW30064   3.659   2.976   5.389
 9722SOL    HW130065   3.704   2.990   5.477
 9722SOL    HW230066   3.573   2.928   5.403
 9723SOL     OW30067   6.089   4.976   4.910
 9723SOL    HW130068   6.085   4.945   5.005
 9723SOL    HW230069   6.075   4.897   4.849
 9724SOL     OW30070   0.990   5.430   0.052
 9724SOL    HW130071   0.975   5.486   0.133
 9724SOL    HW230072   1.012   5.336   0.079
 9725SOL     OW30073   3.378   5.456   4.783
 9725SOL    HW130074   3.378   5.429   4.880
 9725SOL    HW230075   3.465   5.499   4.761
 9726SOL     OW30076   6.401   1.077   4.142
 9726SOL    HW130077   6.320   1.136   4.133
 9726SOL    HW230078   6.473   1.110   4.080
 9727SOL     OW30079   0.661   1.280   6.625
 9727SOL    HW130080   0.698   1.327   6.705
 9727SOL    HW230081   0.610   1.345   6.568
 9728SOL     OW30082   4.909   0.534   5.935
 9728SOL    HW130083   4.905   0.501   6.029
 9728SOL    HW230084   5.000   0.569   5.915
 9729SOL     OW30085   0.565   4.543   3.405
 9729SOL    HW130086   0.601   4.455   3.375
 9729SOL    HW230087   0.621   4.578   3.480
 9730SOL     OW30088   0.964   4.320   2.903
 9730SOL    HW130089   0.886   4.348   2.959
 9730SOL    HW230090   1.011   4.244   2.946
 9731SOL     OW30091   4.810   3.930   3.008
 9731SOL    HW130092   4.799   3.992   2.931
 9731SOL    HW230093   4.885   3.866   2.989
 9732SOL     OW30094   1.545   2.908   2.393
 9732SOL    HW130095   1.463   2.937   2.343
 9732SOL    HW230096   1.567   2.814   2.368
 9733SOL     OW30097   6.266   5.536   2.483
 9733SOL    HW130098   6.215   5.561   2.566
 9733SOL    HW230099   6.213   5.468   2.432
 9734SOL     OW30100   5.961   6.938   6.715
 9734SOL    HW130101   5.917   6.849   6.712
 9734SOL    HW230102   6.059   6.927   6.729
 9735SOL     OW30103   0.833   1.624   2.689
 9735SOL    HW130104   0.789   1.608   2.778
 9735SOL    HW230105   0.807   1.714   2.655
 9736SOL     OW30106   4.738   2.485   5.205
 9736SOL    HW130107   4.656   2.457   5.254
 9736SOL    HW230108   4.819   2.457   5.256
 9737SOL     OW30109   6.251   1.967   2.484
 9737SOL    HW130110   6.327   2.022   2.520
 9737SOL    HW230111   6.245   1.981   2.385
 9738SOL     OW30112   2.099   5.791   1.224
 9738SOL    HW130113   2.180   5.769   1.170
 9738SOL    HW230114   2.094   5.729   1.303
 9739SOL     OW30115   5.210   0.204   7.013
 9739SOL    HW130116   5.279   0.274   0.006
 9739SOL    HW230117   5.164   0.179   0.072
 9740SOL     OW30118   6.863   0.455   2.565
 9740SOL    HW130119   6.896   0.528   2.505
 9740SOL    HW230120   6.850   0.371   2.511
 9741SOL     OW30121   3.399   1.487   4.615
 9741SOL    HW130122   3.371   1.460   4.523
 9741SOL    HW230123   3.487   1.444   4.637
 9742SOL     OW30124   3.878   1.697   6.326
 9742SOL    HW130125   3.813   1.771   6.343
 9742SOL    HW230126   3.844   1.612   6.366
 9743SOL     OW30127   6.334   2.799   3.350
 9743SOL    HW130128   6.356   2.705   3.376
 9743SOL    HW230129   6.237   2.817   3.369
 9744SOL     OW30130   1.967   6.704   3.509
 9744SOL    HW130131   2.032   6.723   3.582
 9744SOL    HW230132   1.874   6.708   3.544
 9745SOL     OW30133   5.795   1.174   5.853
 9745SOL    HW130134   5.872   1.110   5.864
 9745SOL    HW230135   5.800   1.216   5.762
 9746SOL     OW30136   5.035   6.234   6.563
 9746SOL    HW130137   5.033   6.134   6.565
 9746SOL    HW230138   4.987   6.270   6.642
 9747SOL     OW30139   2.614   2.018   2.219
 9747SOL    HW130140   2.587   1.921   2.219
 9747SOL    HW230141   2.631   2.047   2.125
 9748SOL     OW30142   0.749   0.616   3.061
 9748SOL    HW130143   0.798   0.698   3.091
 9748SOL    HW230144   0.769   0.540   3.124
 9749SOL     OW30145   0.289   1.855   2.561
 9749SOL    HW130146   0.228   1.848   2.482
 9749SOL    HW230147   0.365   1.790   2.550
 9750SOL     OW30148   6.509   4.646   4.056
 9750SOL    HW130149   6.604   4.625   4.032
 9750SOL    HW230150   6.448   4.582   4.010
 9751SOL     OW30151   2.521   0.735   1.891
 9751SOL    HW130152   2.564   0.824   1.874
 9751SOL    HW230153   2.438   0.748   1.945
 9752SOL     OW30154   4.351   2.669   0.667
 9752SOL    HW130155   4.273   2.678   0.728
 9752SOL    HW230156   4.344   2.735   0.592
 9753SOL     OW30157   6.557   6.245   6.066
 9753SOL    HW130158   6.542   6.230   5.968
 9753SOL    HW230159   6.644   6.204   6.093
 9754SOL     OW30160   3.863   0.313   1.081
 9754SOL    HW130161   3.901   0.342   0.994
 9754SOL    HW230162   3.854   0.213   1.082
 9755SOL     OW30163   3.311   3.914   5.872
 9755SOL    HW130164   3.338   3.986   5.935
 9755SOL    HW230165   3.383   3.845   5.866
 9756SOL     OW30166   5.571   1.335   6.328
 9756SOL    HW130167   5.664   1.350   6.295
 9756SOL    HW230168   5.519   1.420   6.320
 9757SOL     OW30169   5.235   3.969   4.032
 9757SOL    HW130170   5.324   3.989   3.992
 9757SOL    HW230171   5.163   3.987   3.965
 9758SOL     OW30172   1.641   0.820   0.578
 9758SOL    HW130173   1.627   0.777   0.668
 9758SOL    HW230174   1.619   0.755   0.506
 9759SOL     OW30175   1.307   1.626   0.585
 9759SOL    HW130176   1.227   1.602   0.530
 9759SOL    HW230177   1.385   1.569   0.558
 9760SOL     OW30178   4.953   2.272   6.873
 9760SOL    HW130179   4.870   2.226   6.906
 9760SOL    HW230180   4.978   2.345   6.936
 9761SOL     OW30181   1.498   1.275   1.834
 9761SOL    HW130182   1.484   1.324   1.920
 9761SOL    HW230183   1.570   1.319   1.781
 9762SOL     OW30184   2.870   1.622   5.187
 9762SOL    HW130185   2.864   1.701   5.126
 9762SOL    HW230186   2.947   1.634   5.249
 9763SOL     OW30187   6.289   1.319   1.636
 9763SOL    HW130188   6.379   1.315   1.591
 9763SOL    HW230189   6.287   1.399   1.696
 9764SOL     OW30190   5.605   1.970   2.376
 9764SOL    HW130191   5.521   1.928   2.342
 9764SOL    HW230192   5.594   2.069   2.378
 9765SOL     OW30193   6.585   1.443   2.100
 9765SOL    HW130194   6.574   1.394   2.014
 9765SOL    HW230195   6.668   1.499   2.096
 9766SOL     OW30196   2.061   0.866   3.698
 9766SOL    HW130197   2.051   0.942   3.763
 9766SOL    HW230198   1.997   0.793   3.722
 9767SOL     OW30199   1.893   3.197   5.817
 9767SOL    HW130200   1.799   3.210   5.850
 9767SOL    HW230201   1.953   3.175   5.894
 9768SOL     OW30202   6.196   2.470   0.722
 9768SOL    HW130203   6.120   2.513   0.770
 9768SOL    HW230204   6.165   2.385   0.680
 9769SOL     OW30205   2.884   1.799   4.981
 9769SOL    HW130206   2.858   1.740   4.904
 9769SOL    HW230207   2.901   1.892   4.947
 9770SOL     OW30208   3.651   2.500   6.386
 9770SOL    HW130209   3.653   2.532   6.481
 9770SOL    HW230210   3.671   2.575   6.324
 9771SOL     OW30211   2.863   6.317   2.446
 9771SOL    HW130212   2.879   6.229   2.490
 9771SOL    HW230213   2.767   6.322   2.416
 9772SOL     OW30214   1.659   5.972   1.976
 9772SOL    HW130215   1.732   5.990   1.910
 9772SOL    HW230216   1.571   6.001   1.937
 9773SOL     OW30217   5.369   5.475   2.469
 9773SOL    HW130218   5.304   5.522   2.409
 9773SOL    HW230219   5.325   5.454   2.556
 9774SOL     OW30220   0.342   5.509   4.107
 9774SOL    HW130221   0.437   5.512   4.074
 9774SOL    HW230222   0.280   5.499   4.029
 9775SOL     OW30223   2.464   1.017   3.649
 9775SOL    HW130224   2.545   0.967   3.619
 9775SOL    HW230225   2.482   1.115   3.645
 9776SOL     OW30226   1.648   5.217   6.319
 9776SOL    HW130227   1.693   5.242   6.234
 9776SOL    HW230228   1.677   5.125   6.346
 9777SOL     OW30229   5.431   6.922   6.210
 9777SOL    HW130230   5.349   6.961   6.168
 9777SOL    HW230231   5.509   6.983   6.195
 9778SOL     OW30232   0.296   1.967   4.824
 9778SOL    HW130233   0.329   2.057   4.796
 9778SOL    HW230234   0.197   1.962   4.812
 9779SOL     OW30235   0.889   1.658   3.507
 9779SOL    HW130236   0.862   1.752   3.525
 9779SOL    HW230237   0.957   1.656   3.433
 9780SOL     OW30238   1.831   1.699   1.197
 9780SOL    HW130239   1.757   1.637   1.169
 9780SOL    HW230240   1.796   1.793   1.200
 9781SOL     OW30241   1.296   3.479   3.432
 9781SOL    HW130242   1.376   3.467   3.374
 9781SOL    HW230243   1.303   3.420   3.513
 9782SOL     OW30244   0.751   2.334   0.605
 9782SOL    HW130245   0.775   2.237   0.612
 9782SOL    HW230246   0.671   2.352   0.663
 9783SOL     OW30247   3.688   1.634   3.308
 9783SOL    HW130248   3.623   1.648   3.383
 9783SOL    HW230249   3.651   1.671   3.223
 9784SOL     OW30250   2.959   1.475   0.276
 9784SOL    HW130251   2.975   1.452   0.372
 9784SOL    HW230252   2.907   1.560   0.270
 9785SOL     OW30253   6.759   2.372   4.876
 9785SOL    HW130254   6.770   2.379   4.975
 9785SOL    HW230255   6.665   2.397   4.851
 9786SOL     OW30256   2.433   4.572   0.739
 9786SOL    HW130257   2.396   4.508   0.672
 9786SOL    HW230258   2.478   4.521   0.812
 9787SOL     OW30259   3.727   3.118   3.068
 9787SOL    HW130260   3.635   3.125   3.029
 9787SOL    HW230261   3.734   3.035   3.122
 9788SOL     OW30262   0.403   5.582   2.074
 9788SOL    HW130263   0.491   5.536   2.087
 9788SOL    HW230264   0.409   5.643   1.996
 9789SOL     OW30265   2.794   0.026   6.749
 9789SOL    HW130266   2.697   0.008   6.764
 9789SOL    HW230267   2.841   6.967   6.725
 9790SOL     OW30268   6.996   3.893   4.424
 9790SOL    HW130269   6.902   3.927   4.430
 9790SOL    HW230270   0.004   3.873   4.516
 9791SOL     OW30271   0.648   6.621   0.330
 9791SOL    HW130272   0.588   6.667   0.395
 9791SOL    HW230273   0.741   6.615   0.367
 9792SOL     OW30274   3.827   5.606   0.953
 9792SOL    HW130275   3.868   5.639   1.038
 9792SOL    HW230276   3.754   5.542   0.974
 9793SOL     OW30277   4.590   1.485   1.914
 9793SOL    HW130278   4.506   1.505   1.965
 9793SOL    HW230279   4.613   1.388   1.925
 9794SOL     OW30280   4.994   4.628   4.621
 9794SOL    HW130281   4.985   4.588   4.530
 9794SOL    HW230282   5.073   4.587   4.667
 9795SOL     OW30283   0.934   2.937   3.547
 9795SOL    HW130284   1.005   3.007   3.554
 9795SOL    HW230285   0.963   2.867   3.483
 9796SOL     OW30286   3.441   4.176   3.698
 9796SOL    HW130287   3.525   4.195   3.748
 9796SOL    HW230288   3.364   4.175   3.761
 9797SOL     OW30289   2.710   6.103   6.357
 9797SOL    HW130290   2.662   6.191   6.349
 9797SOL    HW230291   2.698   6.051   6.273
 9798SOL     OW30292   1.151   2.712   1.314
 9798SOL    HW130293   1.071   2.669   1.273
 9798SOL    HW230294   1.234   2.680   1.267
 9799SOL     OW30295   2.680   5.584   5.937
 9799SOL    HW130296   2.650   5.676   5.913
 9799SOL    HW230297   2.688   5.529   5.855
 9800SOL     OW30298   5.415   3.210   4.044
 9800SOL    HW130299   5.464   3.264   4.112
 9800SOL    HW230300   5.453   3.118   4.041
 9801SOL     OW30301   5.756   4.830   6.646
 9801SOL    HW130302   5.843   4.803   6.604
 9801SOL    HW230303   5.769   4.914   6.699
 9802SOL     OW30304   4.066   5.405   1.057
 9802SOL    HW130305   3.975   5.367   1.074
 9802SOL    HW230306   4.133   5.331   1.054
 9803SOL     OW30307   1.566   3.667   6.691
 9803SOL    HW130308   1.572   3.669   6.791
 9803SOL    HW230309   1.607   3.751   6.654
 9804SOL     OW30310   6.652   5.624   3.018
 9804SOL    HW130311   6.597   5.706   3.005
 9804SOL    HW230312   6.661   5.604   3.116
 9805SOL     OW30313   0.378   6.515   3.858
 9805SOL    HW130314   0.475   6.496   3.842
 9805SOL    HW230315   0.370   6.600   3.911
 9806SOL     OW30316   4.208   2.161   5.797
 9806SOL    HW130317   4.208   2.238   5.733
 9806SOL    HW230318   4.153   2.087   5.759
 9807SOL     OW30319   3.245   2.950   2.162
 9807SOL    HW130320   3.189   3.026   2.194
 9807SOL    HW230321   3.213   2.919   2.073
 9808SOL     OW30322   4.632   6.268   3.952
 9808SOL    HW130323   4.646   6.290   3.856
 9808SOL    HW230324   4.538   6.291   3.978
 9809SOL     OW30325   0.527   3.061   0.651
 9809SOL    HW130326   0.592   3.001   0.698
 9809SOL    HW230327   0.533   3.153   0.691
 9810SOL     OW30328   2.325   1.648   5.665
 9810SOL    HW130329   2.373   1.594   5.595
 9810SOL    HW230330   2.282   1.727   5.621
 9811SOL     OW30331   6.833   3.659   4.233
 9811SOL    HW130332   6.808   3.653   4.329
 9811SOL    HW230333   6.821   3.753   4.201
 9812SOL     OW30334   2.206   6.914   4.642
 9812SOL    HW130335   2.302   6.938   4.631
 9812SOL    HW230336   2.151   6.966   4.576
 9813SOL     OW30337   5.500   2.403   0.807
 9813SOL    HW130338   5.516   2.318   0.756
 9813SOL    HW230339   5.409   2.438   0.785
 9814SOL     OW30340   5.917   1.941   7.011
 9814SOL    HW130341   5.996   1.998   6.990
 9814SOL    HW230342   5.871   1.977   0.067
 9815SOL     OW30343   4.679   2.759   4.616
 9815SOL    HW130344   4.615   2.696   4.661
 9815SOL    HW230345   4.672   2.749   4.517
 9816SOL     OW30346   1.316   0.290   0.379
 9816SOL    HW130347   1.329   0.389   0.389
 9816SOL    HW230348   1.234   0.262   0.428
 9817SOL     OW30349   0.448   0.120   3.301
 9817SOL    HW130350   0.351   0.112   3.324
 9817SOL    HW230351   0.458   0.144   3.204
 9818SOL     OW30352   5.968   1.715   4.692
 9818SOL    HW130353   5.982   1.626   4.648
 9818SOL    HW230354   6.038   1.779   4.660
 9819SOL     OW30355   3.941   1.716   3.347
 9819SOL    HW130356   3.950   1.773   3.265
 9819SOL    HW230357   3.846   1.686   3.357
 9820SOL     OW30358   3.394   4.123   6.028
 9820SOL    HW130359   3.445   4.106   6.112
 9820SOL    HW230360   3.437   4.197   5.977
 9821SOL     OW30361   5.521   6.121   6.924
 9821SOL    HW130362   5.615   6.129   6.891
 9821SOL    HW230363   5.488   6.210   6.953
 9822SOL     OW30364   0.508   6.716   2.917
 9822SOL    HW130365   0.515   6.672   2.828
 9822SOL    HW230366   0.499   6.815   2.905
 9823SOL     OW30367   3.310   0.538   1.970
 9823SOL    HW130368   3.280   0.450   1.932
 9823SOL    HW230369   3.278   0.612   1.910
 9824SOL     OW30370   0.699   4.137   5.441
 9824SOL    HW130371   0.650   4.117   5.526
 9824SOL    HW230372   0.713   4.053   5.389
 9825SOL     OW30373   3.637   5.307   5.324
 9825SOL    HW130374   3.623   5.387   5.382
 9825SOL    HW230375   3.559   5.245   5.332
 9826SOL     OW30376   4.690   5.797   6.185
 9826SOL    HW130377   4.707   5.708   6.144
 9826SOL    HW230378   4.612   5.840   6.140
 9827SOL     OW30379   1.531   4.445   4.839
 9827SOL    HW130380   1.631   4.439   4.833
 9827SOL    HW230381   1.492   4.353   4.839
 9828SOL     OW30382   3.401   2.912   6.873
 9828SOL    HW130383   3.337   2.938   6.945
 9828SOL    HW230384   3.427   2.993   6.821
 9829SOL     OW30385   3.482   6.364   0.320
 9829SOL    HW130386   3.513   6.280   0.365
 9829SOL    HW230387   3.385   6.379   0.341
 9830SOL     OW30388   6.348   1.916   0.912
 9830SOL    HW130389   6.343   1.967   0.827
 9830SOL    HW230390   6.320   1.821   0.896
 9831SOL     OW30391   0.987   5.970   0.954
 9831SOL    HW130392   1.043   5.933   1.029
 9831SOL    HW230393   0.946   5.894   0.903
 9832SOL     OW30394   4.427   4.884   2.719
 9832SOL    HW130395   4.463   4.971   2.749
 9832SOL    HW230396   4.467   4.859   2.630
 9833SOL     OW30397   3.386   3.289   4.957
 9833SOL    HW130398   3.440   3.357   4.908
 9833SOL    HW230399   3.443   3.245   5.027
 9834SOL     OW30400   2.719   3.608   6.012
 9834SOL    HW130401   2.701   3.626   5.915
 9834SOL    HW230402   2.660   3.667   6.068
 9835SOL     OW30403   4.919   1.549   4.043
 9835SOL    HW130404   4.879   1.626   4.093
 9835SOL    HW230405   4.936   1.577   3.948
 9836SOL     OW30406   5.937   3.803   3.213
 9836SOL    HW130407   5.945   3.708   3.243
 9836SOL    HW230408   6.028   3.845   3.213
 9837SOL     OW30409   1.669   6.968   3.629
 9837SOL    HW130410   1.702   0.037   3.634
 9837SOL    HW230411   1.573   6.968   3.601
 9838SOL     OW30412   0.742   6.528   5.581
 9838SOL    HW130413   0.805   6.548   5.506
 9838SOL    HW230414   0.758   6.435   5.615
 9839SOL     OW30415   6.598   1.217   2.523
 9839SOL    HW130416   6.680   1.162   2.532
 9839SOL    HW230417   6.579   1.265   2.609
 9840SOL     OW30418   0.416   0.489   0.464
 9840SOL    HW130419   0.373   0.411   0.420
 9840SOL    HW230420   0.473   0.538   0.397
 9841SOL     OW30421   1.435   4.573   4.419
 9841SOL    HW130422   1.488   4.601   4.339
 9841SOL    HW230423   1.448   4.475   4.434
 9842SOL     OW30424   3.355   3.166   3.660
 9842SOL    HW130425   3.301   3.249   3.645
 9842SOL    HW230426   3.349   3.107   3.579
 9843SOL     OW30427   6.535   2.136   1.283
 9843SOL    HW130428   6.634   2.132   1.297
 9843SOL    HW230429   6.492   2.186   1.359
 9844SOL     OW30430   4.583   6.630   2.874
 9844SOL    HW130431   4.517   6.692   2.915
 9844SOL    HW230432   4.644   6.595   2.945
 9845SOL     OW30433   2.043   1.561   5.068
 9845SOL    HW130434   2.055   1.608   4.980
 9845SOL    HW230435   2.074   1.620   5.142
 9846SOL     OW30436   2.961   3.835   3.517
 9846SOL    HW130437   2.910   3.868   3.596
 9846SOL    HW230438   3.042   3.892   3.504
 9847SOL     OW30439   2.440   2.761   5.976
 9847SOL    HW130440   2.394   2.743   5.889
 9847SOL    HW230441   2.438   2.679   6.032
 9848SOL     OW30442   3.790   2.310   6.743
 9848SOL    HW130443   3.880   2.267   6.730
 9848SOL    HW230444   3.718   2.242   6.724
 9849SOL     OW30445   5.437   0.535   6.457
 9849SOL    HW130446   5.535   0.549   6.443
 9849SOL    HW230447   5.421   0.502   6.551
 9850SOL     OW30448   4.678   5.730   2.292
 9850SOL    HW130449   4.712   5.784   2.216
 9850SOL    HW230450   4.751   5.718   2.359
 9851SOL     OW30451   4.373   1.845   5.127
 9851SOL    HW130452   4.447   1.873   5.189
 9851SOL    HW230453   4.355   1.748   5.140
 9852SOL     OW30454   4.135   1.483   2.955
 9852SOL    HW130455   4.184   1.567   2.978
 9852SOL    HW230456   4.055   1.473   3.015
 9853SOL     OW30457   4.706   4.179   3.124
 9853SOL    HW130458   4.696   4.240   3.046
 9853SOL    HW230459   4.734   4.088   3.092
 9854SOL     OW30460   6.003   5.230   5.271
 9854SOL    HW130461   6.014   5.237   5.172
 9854SOL    HW230462   5.929   5.291   5.301
 9855SOL     OW30463   0.863   4.432   1.281
 9855SOL    HW130464   0.816   4.401   1.364
 9855SOL    HW230465   0.804   4.495   1.231
 9856SOL     OW30466   4.353   3.885   6.977
 9856SOL    HW130467   4.344   3.983   6.956
 9856SOL    HW230468   4.438   3.870   0.002
 9857SOL     OW30469   5.401   2.021   2.829
 9857SOL    HW130470   5.380   2.054   2.736
 9857SOL    HW230471   5.329   1.958   2.858
 9858SOL     OW30472   5.234   0.779   1.323
 9858SOL    HW130473   5.206   0.772   1.419
 9858SOL    HW230474   5.257   0.874   1.302
 9859SOL     OW30475   6.628   6.985   1.003
 9859SOL    HW130476   6.546   6.944   1.043
 9859SOL    HW230477   6.680   0.006   1.075
 9860SOL     OW30478   0.723   1.041   1.529
 9860SOL    HW130479   0.805   1.027   1.584
 9860SOL    HW230480   0.663   1.107   1.575
 9861SOL     OW30481   3.675   6.801   4.459
 9861SOL    HW130482   3.725   6.770   4.539
 9861SOL    HW230483   3.714   6.759   4.377
 9862SOL     OW30484   2.773   3.684   0.783
 9862SOL    HW130485   2.823   3.727   0.858
 9862SOL    HW230486   2.689   3.736   0.764
 9863SOL     OW30487   3.143   7.007   3.244
 9863SOL    HW130488   3.185   6.934   3.189
 9863SOL    HW230489   3.082   0.035   3.186
 9864SOL     OW30490   4.186   6.018   3.481
 9864SOL    HW130491   4.133   6.033   3.398
 9864SOL    HW230492   4.163   5.929   3.520
 9865SOL     OW30493   0.946   1.050   3.731
 9865SOL    HW130494   0.974   1.038   3.827
 9865SOL    HW230495   0.855   1.011   3.718
 9866SOL     OW30496   5.028   4.040   4.640
 9866SOL    HW130497   5.025   3.945   4.607
 9866SOL    HW230498   5.074   4.097   4.571
 9867SOL     OW30499   4.270   0.845   1.217
 9867SOL    HW130500   4.218   0.887   1.292
 9867SOL    HW230501   4.342   0.908   1.188
 9868SOL     OW30502   1.873   4.497   6.160
 9868SOL    HW130503   1.905   4.449   6.078
 9868SOL    HW230504   1.792   4.551   6.137
 9869SOL     OW30505   2.060   3.695   2.465
 9869SOL    HW130506   2.005   3.715   2.547
 9869SOL    HW230507   2.034   3.607   2.427
 9870SOL     OW30508   3.908   6.015   2.324
 9870SOL    HW130509   4.000   5.975   2.328
 9870SOL    HW230510   3.843   5.954   2.369
 9871SOL     OW30511   0.743   6.855   6.394
 9871SOL    HW130512   0.662   6.856   6.453
 9871SOL    HW230513   0.803   6.779   6.420
 9872SOL     OW30514   2.887   5.465   3.193
 9872SOL    HW130515   2.905   5.434   3.286
 9872SOL    HW230516   2.974   5.473   3.143
 9873SOL     OW30517   2.083   2.539   1.064
 9873SOL    HW130518   1.991   2.547   1.101
 9873SOL    HW230519   2.138   2.618   1.092
 9874SOL     OW30520   0.527   2.439   4.362
 9874SOL    HW130521   0.491   2.450   4.454
 9874SOL    HW230522   0.528   2.342   4.338
 9875SOL     OW30523   0.245   6.752   2.287
 9875SOL    HW130524   0.219   6.838   2.245
 9875SOL    HW230525   0.307   6.702   2.226
 9876SOL     OW30526   6.979   0.925   1.992
 9876SOL    HW130527   0.006   1.008   2.010
 9876SOL    HW230528   0.009   0.861   1.938
 9877SOL     OW30529   1.577   6.092   2.609
 9877SOL    HW130530   1.566   6.189   2.627
 9877SOL    HW230531   1.673   6.066   2.622
 9878SOL     OW30532   2.188   5.359   5.153
 9878SOL    HW130533   2.198   5.277   5.209
 9878SOL    HW230534   2.255   5.428   5.181
 9879SOL     OW30535   5.776   5.178   4.949
 9879SOL    HW130536   5.870   5.213   4.958
 9879SOL    HW230537   5.711   5.253   4.958
 9880SOL     OW30538   1.853   2.595   5.301
 9880SOL    HW130539   1.799   2.516   5.270
 9880SOL    HW230540   1.859   2.662   5.227
 9881SOL     OW30541   1.850   1.865   5.184
 9881SOL    HW130542   1.756   1.899   5.171
 9881SOL    HW230543   1.848   1.782   5.238
 9882SOL     OW30544   1.200   2.116   3.559
 9882SOL    HW130545   1.215   2.211   3.532
 9882SOL    HW230546   1.200   2.110   3.659
 9883SOL     OW30547   1.018   5.478   0.307
 9883SOL    HW130548   1.006   5.382   0.334
 9883SOL    HW230549   1.013   5.536   0.388
 9884SOL     OW30550   4.298   1.691   3.098
 9884SOL    HW130551   4.359   1.639   3.158
 9884SOL    HW230552   4.351   1.736   3.026
 9885SOL     OW30553   0.095   3.542   5.473
 9885SOL    HW130554   0.021   3.491   5.518
 9885SOL    HW230555   0.183   3.513   5.511
 9886SOL     OW30556   0.941   4.396   2.067
 9886SOL    HW130557   0.963   4.419   2.162
 9886SOL    HW230558   0.946   4.478   2.011
 9887SOL     OW30559   3.328   1.783   6.406
 9887SOL    HW130560   3.275   1.799   6.324
 9887SOL    HW230561   3.320   1.861   6.468
 9888SOL     OW30562   6.949   4.528   0.920
 9888SOL    HW130563   0.021   4.508   0.909
 9888SOL    HW230564   6.919   4.500   1.012
 9889SOL     OW30565   6.701   5.002   1.233
 9889SOL    HW130566   6.679   4.915   1.189
 9889SOL    HW230567   6.675   5.078   1.173
 9890SOL     OW30568   1.783   2.622   0.172
 9890SOL    HW130569   1.818   2.599   0.263
 9890SOL    HW230570   1.684   2.635   0.178
 9891SOL     OW30571   5.945   3.075   1.082
 9891SOL    HW130572   5.967   3.075   0.984
 9891SOL    HW230573   5.850   3.101   1.095
 9892SOL     OW30574   6.646   5.244   0.337
 9892SOL    HW130575   6.679   5.333   0.305
 9892SOL    HW230576   6.613   5.190   0.259
 9893SOL     OW30577   1.448   0.123   1.027
 9893SOL    HW130578   1.448   0.223   1.019
 9893SOL    HW230579   1.507   0.096   1.103
 9894SOL     OW30580   1.960   2.094   1.777
 9894SOL    HW130581   1.971   2.106   1.678
 9894SOL    HW230582   2.050   2.077   1.818
 9895SOL     OW30583   5.613   3.600   5.693
 9895SOL    HW130584   5.669   3.591   5.611
 9895SOL    HW230585   5.588   3.509   5.726
 9896SOL     OW30586   6.294   6.947   5.818
 9896SOL    HW130587   6.279   0.021   5.812
 9896SOL    HW230588   6.206   6.901   5.825
 9897SOL     OW30589   5.715   5.393   3.807
 9897SOL    HW130590   5.694   5.342   3.724
 9897SOL    HW230591   5.801   5.358   3.846
 9898SOL     OW30592   2.321   5.654   5.786
 9898SOL    HW130593   2.395   5.587   5.787
 9898SOL    HW230594   2.292   5.670   5.692
 9899SOL     OW30595   0.077   5.566   6.987
 9899SOL    HW130596   0.166   5.586   0.002
 9899SOL    HW230597   0.090   5.520   6.899
 9900SOL     OW30598   2.173   3.837   3.555
 9900SOL    HW130599   2.080   3.855   3.525
 9900SOL    HW230600   2.223   3.924   3.564
 9901SOL     OW30601   3.012   1.698   6.341
 9901SOL    HW130602   3.020   1.745   6.254
 9901SOL    HW230603   3.058   1.609   6.336
 9902SOL     OW30604   3.152   4.840   0.083
 9902SOL    HW130605   3.067   4.844   0.134
 9902SOL    HW230606   3.227   4.815   0.144
 9903SOL     OW30607   4.973   1.109   1.695
 9903SOL    HW130608   4.939   1.065   1.612
 9903SOL    HW230609   5.054   1.163   1.674
 9904SOL     OW30610   0.654   3.409   0.021
 9904SOL    HW130611   0.644   3.315   0.052
 9904SOL    HW230612   0.726   3.414   6.977
 9905SOL     OW30613   2.629   0.645   6.928
 9905SOL    HW130614   2.642   0.679   6.835
 9905SOL    HW230615   2.692   0.570   6.945
 9906SOL     OW30616   3.073   3.232   1.511
 9906SOL    HW130617   3.102   3.291   1.436
 9906SOL    HW230618   3.152   3.208   1.567
 9907SOL     OW30619   6.345   0.616   0.479
 9907SOL    HW130620   6.414   0.653   0.542
 9907SOL    HW230621   6.370   0.639   0.385
 9908SOL     OW30622   5.505   1.659   4.093
 9908SOL    HW130623   5.484   1.596   4.018
 9908SOL    HW230624   5.446   1.638   4.171
 9909SOL     OW30625   4.083   0.501   3.697
 9909SOL    HW130626   4.080   0.578   3.633
 9909SOL    HW230627   4.164   0.509   3.756
 9910SOL     OW30628   1.166   3.818   2.833
 9910SOL    HW130629   1.088   3.767   2.868
 9910SOL    HW230630   1.205   3.770   2.754
 9911SOL     OW30631   3.472   6.576   2.174
 9911SOL    HW130632   3.491   6.495   2.230
 9911SOL    HW230633   3.420   6.643   2.228
 9912SOL     OW30634   3.900   1.790   1.927
 9912SOL    HW130635   3.894   1.693   1.902
 9912SOL    HW230636   3.860   1.803   2.018
 9913SOL     OW30637   6.661   3.958   0.475
 9913SOL    HW130638   6.577   3.923   0.516
 9913SOL    HW230639   6.739   3.913   0.517
 9914SOL     OW30640   5.130   2.285   4.890
 9914SOL    HW130641   5.122   2.322   4.798
 9914SOL    HW230642   5.217   2.313   4.930
 9915SOL     OW30643   5.510   0.575   3.524
 9915SOL    HW130644   5.573   0.619   3.460
 9915SOL    HW230645   5.522   0.476   3.521
 9916SOL     OW30646   1.777   2.596   3.465
 9916SOL    HW130647   1.713   2.520   3.480
 9916SOL    HW230648   1.869   2.559   3.450
 9917SOL     OW30649   5.966   3.701   0.297
 9917SOL    HW130650   5.961   3.644   0.379
 9917SOL    HW230651   5.973   3.643   0.216
 9918SOL     OW30652   2.943   1.339   3.304
 9918SOL    HW130653   2.884   1.401   3.253
 9918SOL    HW230654   3.032   1.383   3.319
 9919SOL     OW30655   6.138   5.236   1.181
 9919SOL    HW130656   6.073   5.311   1.191
 9919SOL    HW230657   6.189   5.246   1.096
 9920SOL     OW30658   4.771   1.901   1.738
 9920SOL    HW130659   4.762   1.819   1.794
 9920SOL    HW230660   4.868   1.927   1.733
 9921SOL     OW30661   4.627   0.150   6.359
 9921SOL    HW130662   4.627   0.058   6.320
 9921SOL    HW230663   4.615   0.217   6.286
 9922SOL     OW30664   1.905   4.564   0.887
 9922SOL    HW130665   1.960   4.638   0.924
 9922SOL    HW230666   1.926   4.479   0.935
 9923SOL     OW30667   4.800   4.617   0.341
 9923SOL    HW130668   4.851   4.680   0.283
 9923SOL    HW230669   4.861   4.544   0.373
 9924SOL     OW30670   6.232   2.325   4.562
 9924SOL    HW130671   6.279   2.290   4.644
 9924SOL    HW230672   6.175   2.253   4.524
 9925SOL     OW30673   6.712   3.385   3.814
 9925SOL    HW130674   6.804   3.377   3.853
 9925SOL    HW230675   6.719   3.384   3.714
 9926SOL     OW30676   3.740   3.115   0.691
 9926SOL    HW130677   3.741   3.184   0.764
 9926SOL    HW230678   3.804   3.142   0.619
 9927SOL     OW30679   7.006   6.952   1.012
 9927SOL    HW130680   0.032   6.885   1.066
 9927SOL    HW230681   0.040   0.003   0.988
 9928SOL     OW30682   5.176   6.263   1.819
 9928SOL    HW130683   5.235   6.307   1.751
 9928SOL    HW230684   5.226   6.190   1.865
 9929SOL     OW30685   2.670   5.445   5.006
 9929SOL    HW130686   2.583   5.401   4.984
 9929SOL    HW230687   2.709   5.404   5.088
 9930SOL     OW30688   6.598   6.821   4.621
 9930SOL    HW130689   6.662   6.881   4.574
 9930SOL    HW230690   6.629   6.806   4.715
 9931SOL     OW30691   1.196   4.728   4.445
 9931SOL    HW130692   1.184   4.770   4.535
 9931SOL    HW230693   1.292   4.704   4.431
 9932SOL     OW30694   2.164   5.217   6.454
 9932SOL    HW130695   2.108   5.184   6.531
 9932SOL    HW230696   2.139   5.311   6.433
 9933SOL     OW30697   1.162   5.396   3.385
 9933SOL    HW130698   1.115   5.405   3.297
 9933SOL    HW230699   1.153   5.481   3.436
 9934SOL     OW30700   5.404   1.392   5.496
 9934SOL    HW130701   5.410   1.491   5.486
 9934SOL    HW230702   5.330   1.357   5.438
 9935SOL     OW30703   3.159   6.967   0.402
 9935SOL    HW130704   3.075   6.935   0.446
 9935SOL    HW230705   3.216   7.014   0.470
 9936SOL     OW30706   6.784   5.017   6.235
 9936SOL    HW130707   6.752   4.962   6.158
 9936SOL    HW230708   6.862   5.072   6.207
 9937SOL     OW30709   6.670   1.514   6.740
 9937SOL    HW130710   6.733   1.506   6.818
 9937SOL    HW230711   6.610   1.593   6.754
 9938SOL     OW30712   6.893   5.453   2.743
 9938SOL    HW130713   6.885   5.551   2.762
 9938SOL    HW230714   6.874   5.401   2.826
 9939SOL     OW30715   4.193   2.236   0.590
 9939SOL    HW130716   4.202   2.180   0.508
 9939SOL    HW230717   4.129   2.191   0.654
 9940SOL     OW30718   0.963   0.928   1.329
 9940SOL    HW130719   0.900   0.971   1.393
 9940SOL    HW230720   1.034   0.993   1.303
 9941SOL     OW30721   3.233   3.852   5.266
 9941SOL    HW130722   3.263   3.874   5.359
 9941SOL    HW230723   3.277   3.914   5.201
 9942SOL     OW30724   2.395   5.409   2.751
 9942SOL    HW130725   2.412   5.485   2.689
 9942SOL    HW230726   2.308   5.365   2.728
 9943SOL     OW30727   6.791   5.508   5.623
 9943SOL    HW130728   6.835   5.587   5.665
 9943SOL    HW230729   6.851   5.428   5.632
 9944SOL     OW30730   2.112   4.756   6.249
 9944SOL    HW130731   2.150   4.807   6.326
 9944SOL    HW230732   2.059   4.679   6.284
 9945SOL     OW30733   6.442   5.424   6.360
 9945SOL    HW130734   6.472   5.329   6.355
 9945SOL    HW230735   6.345   5.427   6.383
 9946SOL     OW30736   4.647   1.032   4.763
 9946SOL    HW130737   4.616   1.115   4.810
 9946SOL    HW230738   4.606   0.952   4.807
 9947SOL     OW30739   1.760   3.306   5.439
 9947SOL    HW130740   1.705   3.301   5.355
 9947SOL    HW230741   1.740   3.227   5.497
 9948SOL     OW30742   5.705   4.876   4.327
 9948SOL    HW130743   5.718   4.816   4.248
 9948SOL    HW230744   5.698   4.821   4.410
 9949SOL     OW30745   5.838   4.769   3.679
 9949SOL    HW130746   5.777   4.719   3.740
 9949SOL    HW230747   5.816   4.866   3.682
 9950SOL     OW30748   5.864   6.001   5.240
 9950SOL    HW130749   5.822   6.043   5.320
 9950SOL    HW230750   5.964   6.003   5.250
 9951SOL     OW30751   6.040   1.461   4.584
 9951SOL    HW130752   6.131   1.461   4.625
 9951SOL    HW230753   5.995   1.373   4.600
 9952SOL     OW30754   0.647   3.291   1.069
 9952SOL    HW130755   0.686   3.302   1.161
 9952SOL    HW230756   0.721   3.283   1.002
 9953SOL     OW30757   6.248   2.494   4.088
 9953SOL    HW130758   6.285   2.446   4.167
 9953SOL    HW230759   6.148   2.497   4.095
 9954SOL     OW30760   5.753   0.334   5.821
 9954SOL    HW130761   5.691   0.368   5.751
 9954SOL    HW230762   5.825   0.401   5.838
 9955SOL     OW30763   6.102   3.756   5.837
 9955SOL    HW130764   6.034   3.800   5.779
 9955SOL    HW230765   6.109   3.806   5.924
 9956SOL     OW30766   1.700   6.902   1.602
 9956SOL    HW130767   1.774   6.838   1.622
 9956SOL    HW230768   1.613   6.853   1.598
 9957SOL     OW30769   5.885   5.451   3.009
 9957SOL    HW130770   5.899   5.409   2.919
 9957SOL    HW230771   5.841   5.540   2.998
 9958SOL     OW30772   2.872   5.327   0.725
 9958SOL    HW130773   2.806   5.309   0.651
 9958SOL    HW230774   2.958   5.358   0.685
 9959SOL     OW30775   4.132   3.629   5.598
 9959SOL    HW130776   4.173   3.720   5.606
 9959SOL    HW230777   4.152   3.591   5.508
 9960SOL     OW30778   6.929   6.895   2.262
 9960SOL    HW130779   6.982   6.891   2.347
 9960SOL    HW230780   6.912   6.802   2.230
 9961SOL     OW30781   1.550   5.716   3.627
 9961SOL    HW130782   1.610   5.794   3.646
 9961SOL    HW230783   1.603   5.645   3.580
 9962SOL     OW30784   6.797   7.011   3.015
 9962SOL    HW130785   6.748   7.017   2.928
 9962SOL    HW230786   6.750   0.042   3.084
 9963SOL     OW30787   3.233   2.684   0.072
 9963SOL    HW130788   3.222   2.762   0.010
 9963SOL    HW230789   3.145   2.662   0.113
 9964SOL     OW30790   4.777   4.983   5.177
 9964SOL    HW130791   4.728   4.960   5.093
 9964SOL    HW230792   4.721   4.955   5.256
 9965SOL     OW30793   3.628   6.704   6.880
 9965SOL    HW130794   3.720   6.678   6.909
 9965SOL    HW230795   3.627   6.800   6.852
 9966SOL     OW30796   1.636   5.188   1.565
 9966SOL    HW130797   1.693   5.248   1.508
 9966SOL    HW230798   1.668   5.093   1.555
 9967SOL     OW30799   0.169   5.745   2.284
 9967SOL    HW130800   0.227   5.675   2.241
 9967SOL    HW230801   0.226   5.820   2.316
 9968SOL     OW30802   3.815   4.044   1.451
 9968SOL    HW130803   3.839   4.090   1.366
 9968SOL    HW230804   3.726   4.000   1.442
 9969SOL     OW30805   1.701   3.657   2.480
 9969SOL    HW130806   1.724   3.573   2.431
 9969SOL    HW230807   1.616   3.643   2.532
 9970SOL     OW30808   5.197   4.202   3.064
 9970SOL    HW130809   5.276   4.263   3.062
 9970SOL    HW230810   5.181   4.166   2.972
 9971SOL     OW30811   2.091   5.051   1.323
 9971SOL    HW130812   2.107   5.107   1.242
 9971SOL    HW230813   2.167   4.986   1.333
 9972SOL     OW30814   5.784   4.944   1.196
 9972SOL    HW130815   5.863   4.883   1.189
 9972SOL    HW230816   5.813   5.038   1.178
 9973SOL     OW30817   6.137   1.722   3.459
 9973SOL    HW130818   6.037   1.720   3.450
 9973SOL    HW230819   6.173   1.629   3.455
 9974SOL     OW30820   0.815   2.382   2.709
 9974SOL    HW130821   0.891   2.428   2.662
 9974SOL    HW230822   0.757   2.337   2.642
 9975SOL     OW30823   6.055   3.136   0.581
 9975SOL    HW130824   6.073   3.127   0.679
 9975SOL    HW230825   6.097   3.059   0.533
 9976SOL     OW30826   1.085   6.007   4.998
 9976SOL    HW130827   1.113   5.912   5.014
 9976SOL    HW230828   1.163   6.060   4.964
 9977SOL     OW30829   6.545   5.855   5.530
 9977SOL    HW130830   6.589   5.775   5.489
 9977SOL    HW230831   6.552   5.850   5.629
 9978SOL     OW30832   1.241   2.997   4.790
 9978SOL    HW130833   1.235   3.018   4.888
 9978SOL    HW230834   1.241   3.083   4.738
 9979SOL     OW30835   6.531   4.978   5.402
 9979SOL    HW130836   6.630   4.971   5.387
 9979SOL    HW230837   6.489   4.890   5.381
 9980SOL     OW30838   2.282   0.200   0.002
 9980SOL    HW130839   2.281   0.136   0.079
 9980SOL    HW230840   2.342   0.166   6.955
 9981SOL     OW30841   2.146   1.744   2.870
 9981SOL    HW130842   2.184   1.756   2.962
 9981SOL    HW230843   2.046   1.734   2.876
 9982SOL     OW30844   6.389   5.965   4.178
 9982SOL    HW130845   6.402   6.021   4.259
 9982SOL    HW230846   6.475   5.955   4.129
 9983SOL     OW30847   0.400   2.380   3.080
 9983SOL    HW130848   0.393   2.402   2.983
 9983SOL    HW230849   0.309   2.356   3.115
 9984SOL     OW30850   2.511   1.969   6.999
 9984SOL    HW130851   2.470   1.950   6.910
 9984SOL    HW230852   2.596   1.917   7.009
 9985SOL     OW30853   1.998   0.902   0.823
 9985SOL    HW130854   2.071   0.966   0.846
 9985SOL    HW230855   1.965   0.921   0.730
 9986SOL     OW30856   6.302   4.112   6.023
 9986SOL    HW130857   6.358   4.076   6.098
 9986SOL    HW230858   6.264   4.201   6.050
 9987SOL     OW30859   6.050   3.071   5.196
 9987SOL    HW130860   6.109   3.150   5.177
 9987SOL    HW230861   5.987   3.058   5.120
 9988SOL     OW30862   0.431   5.880   4.375
 9988SOL    HW130863   0.413   5.784   4.358
 9988SOL    HW230864   0.460   5.893   4.469
 9989SOL     OW30865   6.757   3.352   3.546
 9989SOL    HW130866   6.768   3.253   3.554
 9989SOL    HW230867   6.727   3.376   3.454
 9990SOL     OW30868   1.920   4.775   3.165
 9990SOL    HW130869   1.942   4.786   3.068
 9990SOL    HW230870   1.971   4.843   3.219
 9991SOL     OW30871   2.913   2.161   4.438
 9991SOL    HW130872   2.949   2.184   4.528
 9991SOL    HW230873   2.917   2.062   4.424
 9992SOL     OW30874   5.600   4.855   0.097
 9992SOL    HW130875   5.501   4.850   0.107
 9992SOL    HW230876   5.622   4.877   0.002
 9993SOL     OW30877   2.850   1.080   0.951
 9993SOL    HW130878   2.885   1.172   0.969
 9993SOL    HW230879   2.766   1.066   1.003
 9994SOL     OW30880   6.668   4.514   2.915
 9994SOL    HW130881   6.686   4.443   2.846
 9994SOL    HW230882   6.673   4.473   3.006
 9995SOL     OW30883   4.672   1.470   3.226
 9995SOL    HW130884   4.574   1.483   3.243
 9995SOL    HW230885   4.724   1.529   3.287
 9996SOL     OW30886   3.232   3.880   7.016
 9996SOL    HW130887   3.191   3.833   0.069
 9996SOL    HW230888   3.313   3.831   6.986
 9997SOL     OW30889   2.867   1.992   5.512
 9997SOL    HW130890   2.967   1.985   5.514
 9997SOL    HW230891   2.838   2.019   5.420
 9998SOL     OW30892   6.002   4.856   5.423
 9998SOL    HW130893   6.096   4.891   5.411
 9998SOL    HW230894   5.966   4.890   5.509
 9999SOL     OW30895   6.330   3.111   6.071
 9999SOL    HW130896   6.377   3.171   6.006
 9999SOL    HW230897   6.392   3.088   6.146
10000SOL     OW30898   6.679   4.082   0.018
10000SOL    HW130899   6.584   4.051   0.013
10000SOL    HW230900   6.698   4.116   0.110
10001SOL     OW30901   4.945   0.045   2.114
10001SOL    HW130902   4.881   7.024   2.175
10001SOL    HW230903   4.904   0.054   2.023
10002SOL     OW30904   1.346   6.992   1.773
10002SOL    HW130905   1.379   7.004   1.867
10002SOL    HW230906   1.272   6.925   1.772
10003SOL     OW30907   3.271   2.012   4.033
10003SOL    HW130908   3.210   2.090   4.048
10003SOL    HW230909   3.309   2.018   3.941
10004SOL     OW30910   0.051   3.013   4.862
10004SOL    HW130911   6.984   3.045   4.842
10004SOL    HW230912   0.101   2.998   4.777
10005SOL     OW30913   5.745   0.472   3.809
10005SOL    HW130914   5.749   0.571   3.821
10005SOL    HW230915   5.777   0.448   3.717
10006SOL     OW30916   4.606   6.630   4.405
10006SOL    HW130917   4.565   6.689   4.474
10006SOL    HW230918   4.681   6.679   4.360
10007SOL     OW30919   0.340   3.965   4.952
10007SOL    HW130920   0.259   3.915   4.984
10007SOL    HW230921   0.414   3.953   5.018
10008SOL     OW30922   4.064   1.111   4.993
10008SOL    HW130923   4.097   1.149   5.079
10008SOL    HW230924   4.060   1.011   5.001
10009SOL     OW30925   1.775   3.902   2.361
10009SOL    HW130926   1.857   3.850   2.340
10009SOL    HW230927   1.715   3.849   2.420
10010SOL     OW30928   2.109   0.796   6.433
10010SOL    HW130929   2.044   0.793   6.357
10010SOL    HW230930   2.202   0.786   6.397
10011SOL     OW30931   6.645   0.328   5.416
10011SOL    HW130932   6.726   0.331   5.357
10011SOL    HW230933   6.655   0.254   5.482
10012SOL     OW30934   6.033   0.433   2.930
10012SOL    HW130935   5.967   0.446   2.856
10012SOL    HW230936   6.090   0.353   2.910
10013SOL     OW30937   0.210   1.207   3.135
10013SOL    HW130938   0.260   1.125   3.107
10013SOL    HW230939   0.262   1.255   3.206
10014SOL     OW30940   0.399   4.423   6.986
10014SOL    HW130941   0.353   4.353   0.015
10014SOL    HW230942   0.453   4.379   6.914
10015SOL     OW30943   2.371   5.168   0.518
10015SOL    HW130944   2.450   5.125   0.476
10015SOL    HW230945   2.295   5.102   0.522
10016SOL     OW30946   1.536   1.535   6.245
10016SOL    HW130947   1.561   1.476   6.169
10016SOL    HW230948   1.608   1.533   6.314
10017SOL     OW30949   3.085   2.211   4.101
10017SOL    HW130950   3.015   2.234   4.168
10017SOL    HW230951   3.053   2.235   4.009
10018SOL     OW30952   5.014   0.246   6.792
10018SOL    HW130953   5.052   0.216   6.705
10018SOL    HW230954   5.070   0.212   6.867
10019SOL     OW30955   0.980   1.503   3.028
10019SOL    HW130956   0.932   1.465   3.107
10019SOL    HW230957   0.916   1.557   2.974
10020SOL     OW30958   0.816   2.830   1.688
10020SOL    HW130959   0.870   2.798   1.766
10020SOL    HW230960   0.877   2.860   1.615
10021SOL     OW30961   6.770   3.296   1.340
10021SOL    HW130962   6.714   3.214   1.330
10021SOL    HW230963   6.711   3.375   1.353
10022SOL     OW30964   2.528   1.531   6.093
10022SOL    HW130965   2.461   1.555   6.024
10022SOL    HW230966   2.571   1.613   6.129
10023SOL     OW30967   6.544   4.391   0.352
10023SOL    HW130968   6.616   4.453   0.323
10023SOL    HW230969   6.468   4.443   0.391
10024SOL     OW30970   1.202   6.047   3.883
10024SOL    HW130971   1.292   6.090   3.882
10024SOL    HW230972   1.194   5.986   3.804
10025SOL     OW30973   1.947   0.747   1.831
10025SOL    HW130974   1.894   0.825   1.866
10025SOL    HW230975   1.895   0.701   1.759
10026SOL     OW30976   5.528   0.285   3.809
10026SOL    HW130977   5.520   0.240   3.898
10026SOL    HW230978   5.608   0.345   3.809
10027SOL     OW30979   5.433   3.419   4.227
10027SOL    HW130980   5.517   3.400   4.277
10027SOL    HW230981   5.354   3.388   4.280
10028SOL     OW30982   1.194   0.655   1.024
10028SOL    HW130983   1.244   0.673   0.939
10028SOL    HW230984   1.227   0.717   1.095
10029SOL     OW30985   5.355   1.900   3.438
10029SOL    HW130986   5.336   1.997   3.448
10029SOL    HW230987   5.434   1.876   3.495
10030SOL     OW30988   2.207   0.983   3.490
10030SOL    HW130989   2.179   0.943   3.578
10030SOL    HW230990   2.307   0.990   3.487
10031SOL     OW30991   5.442   4.850   3.703
10031SOL    HW130992   5.494   4.872   3.620
10031SOL    HW230993   5.361   4.908   3.709
10032SOL     OW30994   2.398   1.626   4.956
10032SOL    HW130995   2.334   1.550   4.942
10032SOL    HW230996   2.351   1.700   5.003
10033SOL     OW30997   6.298   3.062   4.124
10033SOL    HW130998   6.349   3.042   4.040
10033SOL    HW230999   6.362   3.093   4.195
10034SOL     OW31000   3.713   0.660   4.720
10034SOL    HW131001   3.716   0.567   4.684
10034SOL    HW231002   3.704   0.657   4.820
10035SOL     OW31003   0.025   5.053   1.921
10035SOL    HW131004   0.120   5.027   1.938
10035SOL    HW231005   0.011   5.149   1.945
10036SOL     OW31006   6.451   1.932   0.308
10036SOL    HW131007   6.354   1.912   0.323
10036SOL    HW231008   6.461   2.025   0.273
10037SOL     OW31009   6.547   0.949   6.204
10037SOL    HW131010   6.564   0.985   6.296
10037SOL    HW231011   6.544   1.025   6.139
10038SOL     OW31012   6.616   0.301   0.957
10038SOL    HW131013   6.575   0.368   1.019
10038SOL    HW231014   6.607   0.210   0.997
10039SOL     OW31015   2.895   0.293   3.385
10039SOL    HW131016   2.975   0.353   3.379
10039SOL    HW231017   2.906   0.217   3.321
10040SOL     OW31018   6.219   3.886   0.260
10040SOL    HW131019   6.298   3.824   0.260
10040SOL    HW231020   6.135   3.832   0.269
10041SOL     OW31021   3.327   6.389   0.039
10041SOL    HW131022   3.342   6.473   7.011
10041SOL    HW231023   3.387   6.390   0.119
10042SOL     OW31024   6.838   2.067   3.291
10042SOL    HW131025   6.900   2.074   3.213
10042SOL    HW231026   6.869   1.994   3.352
10043SOL     OW31027   6.893   1.735   5.773
10043SOL    HW131028   6.940   1.756   5.859
10043SOL    HW231029   6.802   1.777   5.774
10044SOL     OW31030   2.496   3.131   5.840
10044SOL    HW131031   2.417   3.156   5.896
10044SOL    HW231032   2.473   3.053   5.783
10045SOL     OW31033   4.475   1.023   1.091
10045SOL    HW131034   4.487   0.950   1.024
10045SOL    HW231035   4.444   1.106   1.044
10046SOL     OW31036   1.005   4.729   1.369
10046SOL    HW131037   0.934   4.759   1.432
10046SOL    HW231038   1.060   4.657   1.411
10047SOL     OW31039   1.009   3.020   5.778
10047SOL    HW131040   1.081   3.084   5.752
10047SOL    HW231041   0.950   3.062   5.848
10048SOL     OW31042   6.501   6.463   2.863
10048SOL    HW131043   6.429   6.486   2.928
10048SOL    HW231044   6.572   6.410   2.910
10049SOL     OW31045   0.008   2.503   5.784
10049SOL    HW131046   0.077   2.432   5.771
10049SOL    HW231047   0.048   2.593   5.765
10050SOL     OW31048   5.337   3.484   5.137
10050SOL    HW131049   5.278   3.409   5.109
10050SOL    HW231050   5.406   3.451   5.202
10051SOL     OW31051   1.003   4.152   4.763
10051SOL    HW131052   1.016   4.053   4.761
10051SOL    HW231053   0.920   4.176   4.712
10052SOL     OW31054   0.651   0.877   3.312
10052SOL    HW131055   0.739   0.866   3.266
10052SOL    HW231056   0.617   0.970   3.296
10053SOL     OW31057   4.917   5.377   4.388
10053SOL    HW131058   4.863   5.449   4.432
10053SOL    HW231059   4.857   5.320   4.332
10054SOL     OW31060   5.381   3.898   4.458
10054SOL    HW131061   5.297   3.917   4.408
10054SOL    HW231062   5.371   3.814   4.511
10055SOL     OW31063   6.593   2.227   6.631
10055SOL    HW131064   6.505   2.199   6.593
10055SOL    HW231065   6.663   2.223   6.560
10056SOL     OW31066   5.173   2.981   2.890
10056SOL    HW131067   5.089   3.007   2.937
10056SOL    HW231068   5.160   2.985   2.791
10057SOL     OW31069   5.200   4.463   6.398
10057SOL    HW131070   5.235   4.437   6.488
10057SOL    HW231071   5.272   4.507   6.345
10058SOL     OW31072   5.966   3.266   4.897
10058SOL    HW131073   5.955   3.197   4.825
10058SOL    HW231074   5.876   3.293   4.931
10059SOL     OW31075   6.847   1.500   6.947
10059SOL    HW131076   6.849   1.596   6.974
10059SOL    HW231077   6.790   1.448   7.011
10060SOL     OW31078   2.261   1.752   2.636
10060SOL    HW131079   2.228   1.746   2.730
10060SOL    HW231080   2.345   1.807   2.634
10061SOL     OW31081   3.577   0.699   3.390
10061SOL    HW131082   3.661   0.646   3.397
10061SOL    HW231083   3.502   0.650   3.435
10062SOL     OW31084   0.540   0.315   4.138
10062SOL    HW131085   0.446   0.285   4.155
10062SOL    HW231086   0.564   0.388   4.203
10063SOL     OW31087   1.725   3.032   4.964
10063SOL    HW131088   1.673   2.959   5.008
10063SOL    HW231089   1.672   3.069   4.888
10064SOL     OW31090   2.977   6.697   0.551
10064SOL    HW131091   3.015   6.708   0.459
10064SOL    HW231092   2.881   6.668   0.543
10065SOL     OW31093   0.603   0.843   1.869
10065SOL    HW131094   0.544   0.785   1.813
10065SOL    HW231095   0.667   0.786   1.922
10066SOL     OW31096   6.800   3.591   4.787
10066SOL    HW131097   6.831   3.506   4.746
10066SOL    HW231098   6.721   3.626   4.736
10067SOL     OW31099   6.762   2.413   5.363
10067SOL    HW131100   6.830   2.473   5.406
10067SOL    HW231101   6.715   2.361   5.434
10068SOL     OW31102   2.756   2.347   2.704
10068SOL    HW131103   2.809   2.337   2.620
10068SOL    HW231104   2.659   2.332   2.685
10069SOL     OW31105   3.594   5.378   1.152
10069SOL    HW131106   3.518   5.314   1.144
10069SOL    HW231107   3.564   5.469   1.124
10070SOL     OW31108   3.414   5.693   5.061
10070SOL    HW131109   3.391   5.788   5.037
10070SOL    HW231110   3.493   5.664   5.008
10071SOL     OW31111   6.687   0.144   3.245
10071SOL    HW131112   6.629   0.183   3.316
10071SOL    HW231113   6.763   0.094   3.288
10072SOL     OW31114   6.675   1.626   2.370
10072SOL    HW131115   6.726   1.541   2.382
10072SOL    HW231116   6.731   1.703   2.401
10073SOL     OW31117   6.281   3.751   4.471
10073SOL    HW131118   6.343   3.692   4.419
10073SOL    HW231119   6.263   3.710   4.561
10074SOL     OW31120   1.603   4.927   0.566
10074SOL    HW131121   1.580   4.901   0.472
10074SOL    HW231122   1.591   4.848   0.626
10075SOL     OW31123   1.931   3.160   1.706
10075SOL    HW131124   2.002   3.093   1.723
10075SOL    HW231125   1.950   3.209   1.620
10076SOL     OW31126   5.266   5.144   3.476
10076SOL    HW131127   5.352   5.192   3.492
10076SOL    HW231128   5.242   5.092   3.559
10077SOL     OW31129   6.353   2.788   6.876
10077SOL    HW131130   6.350   2.834   6.965
10077SOL    HW231131   6.288   2.712   6.876
10078SOL     OW31132   0.269   6.513   5.107
10078SOL    HW131133   0.325   6.587   5.146
10078SOL    HW231134   0.264   6.437   5.172
10079SOL     OW31135   4.322   2.419   3.085
10079SOL    HW131136   4.229   2.391   3.106
10079SOL    HW231137   4.339   2.409   2.987
10080SOL     OW31138   5.448   0.327   6.129
10080SOL    HW131139   5.396   0.388   6.189
10080SOL    HW231140   5.443   0.360   6.035
10081SOL     OW31141   2.230   2.737   0.322
10081SOL    HW131142   2.194   2.729   0.229
10081SOL    HW231143   2.264   2.649   0.353
10082SOL     OW31144   1.219   4.550   1.962
10082SOL    HW131145   1.250   4.547   1.868
10082SOL    HW231146   1.297   4.570   2.022
10083SOL     OW31147   3.785   5.327   3.674
10083SOL    HW131148   3.696   5.329   3.719
10083SOL    HW231149   3.790   5.400   3.606
10084SOL     OW31150   1.205   0.444   5.019
10084SOL    HW131151   1.178   0.465   5.113
10084SOL    HW231152   1.251   0.356   5.016
10085SOL     OW31153   4.306   6.992   0.312
10085SOL    HW131154   4.234   6.949   0.257
10085SOL    HW231155   4.392   6.943   0.297
10086SOL     OW31156   7.004   6.241   1.607
10086SOL    HW131157   6.930   6.176   1.590
10086SOL    HW231158   7.012   6.304   1.530
10087SOL     OW31159   1.711   6.274   4.869
10087SOL    HW131160   1.726   6.209   4.795
10087SOL    HW231161   1.794   6.283   4.924
10088SOL     OW31162   0.138   2.767   0.192
10088SOL    HW131163   0.069   2.841   0.191
10088SOL    HW231164   0.175   2.755   0.100
10089SOL     OW31165   4.045   1.918   2.329
10089SOL    HW131166   4.088   1.930   2.240
10089SOL    HW231167   4.002   2.004   2.357
10090SOL     OW31168   1.589   5.927   1.362
10090SOL    HW131169   1.542   6.003   1.317
10090SOL    HW231170   1.687   5.943   1.361
10091SOL     OW31171   6.444   4.528   5.656
10091SOL    HW131172   6.347   4.549   5.672
10091SOL    HW231173   6.451   4.459   5.585
10092SOL     OW31174   0.400   2.337   5.396
10092SOL    HW131175   0.330   2.266   5.398
10092SOL    HW231176   0.474   2.312   5.459
10093SOL     OW31177   5.585   4.450   5.699
10093SOL    HW131178   5.487   4.455   5.719
10093SOL    HW231179   5.613   4.531   5.649
10094SOL     OW31180   3.119   0.707   1.144
10094SOL    HW131181   3.046   0.775   1.144
10094SOL    HW231182   3.205   0.750   1.172
10095SOL     OW31183   4.956   2.716   5.045
10095SOL    HW131184   4.897   2.747   4.971
10095SOL    HW231185   4.939   2.770   5.127
10096SOL     OW31186   4.929   1.172   3.152
10096SOL    HW131187   4.845   1.173   3.205
10096SOL    HW231188   4.989   1.247   3.182
10097SOL     OW31189   1.352   1.519   0.041
10097SOL    HW131190   1.428   1.520   7.002
10097SOL    HW231191   1.327   1.613   0.064
10098SOL     OW31192   3.467   5.472   4.050
10098SOL    HW131193   3.394   5.446   4.114
10098SOL    HW231194   3.464   5.571   4.035
10099SOL     OW31195   0.051   4.579   1.370
10099SOL    HW131196   7.023   4.512   1.319
10099SOL    HW231197   0.001   4.605   1.453
10100SOL     OW31198   4.654   5.226   4.688
10100SOL    HW131199   4.562   5.243   4.652
10100SOL    HW231200   4.649   5.211   4.787
10101SOL     OW31201   0.956   2.019   1.934
10101SOL    HW131202   1.042   2.043   1.979
10101SOL    HW231203   0.889   2.092   1.948
10102SOL     OW31204   6.433   6.658   1.403
10102SOL    HW131205   6.392   6.657   1.494
10102SOL    HW231206   6.523   6.703   1.408
10103SOL     OW31207   6.894   6.437   6.144
10103SOL    HW131208   6.915   6.458   6.048
10103SOL    HW231209   6.891   6.338   6.156
10104SOL     OW31210   2.385   0.367   4.753
10104SOL    HW131211   2.444   0.304   4.803
10104SOL    HW231212   2.290   0.352   4.780
10105SOL     OW31213   2.596   0.560   6.378
10105SOL    HW131214   2.693   0.534   6.382
10105SOL    HW231215   2.561   0.572   6.471
10106SOL     OW31216   5.105   5.753   1.275
10106SOL    HW131217   5.031   5.711   1.223
10106SOL    HW231218   5.183   5.769   1.215
10107SOL     OW31219   4.812   4.526   0.014
10107SOL    HW131220   4.716   4.540   0.038
10107SOL    HW231221   4.841   4.436   0.047
10108SOL     OW31222   1.931   2.862   0.139
10108SOL    HW131223   1.930   2.898   0.232
10108SOL    HW231224   1.884   2.773   0.137
10109SOL     OW31225   1.031   1.999   1.416
10109SOL    HW131226   1.043   2.010   1.317
10109SOL    HW231227   1.111   1.952   1.454
10110SOL     OW31228   4.786   6.075   2.728
10110SOL    HW131229   4.719   6.139   2.766
10110SOL    HW231230   4.799   5.999   2.792
10111SOL     OW31231   0.925   1.348   2.093
10111SOL    HW131232   0.903   1.389   2.182
10111SOL    HW231233   0.943   1.421   2.027
10112SOL     OW31234   6.693   1.863   3.672
10112SOL    HW131235   6.663   1.788   3.731
10112SOL    HW231236   6.613   1.905   3.628
10113SOL     OW31237   5.936   1.161   6.448
10113SOL    HW131238   5.844   1.131   6.473
10113SOL    HW231239   6.003   1.110   6.501
10114SOL     OW31240   4.801   1.677   2.411
10114SOL    HW131241   4.892   1.664   2.451
10114SOL    HW231242   4.788   1.611   2.337
10115SOL     OW31243   3.253   2.549   5.603
10115SOL    HW131244   3.252   2.525   5.506
10115SOL    HW231245   3.253   2.648   5.613
10116SOL     OW31246   6.364   0.046   5.079
10116SOL    HW131247   6.348   0.038   4.980
10116SOL    HW231248   6.277   0.033   5.127
10117SOL     OW31249   6.346   4.460   3.968
10117SOL    HW131250   6.388   4.376   3.934
10117SOL    HW231251   6.273   4.488   3.906
10118SOL     OW31252   3.699   5.337   4.592
10118SOL    HW131253   3.649   5.290   4.519
10118SOL    HW231254   3.724   5.271   4.663
10119SOL     OW31255   0.243   5.297   5.218
10119SOL    HW131256   0.156   5.336   5.245
10119SOL    HW231257   0.251   5.298   5.118
10120SOL     OW31258   2.045   2.735   2.305
10120SOL    HW131259   2.090   2.646   2.312
10120SOL    HW231260   2.114   2.806   2.292
10121SOL     OW31261   6.442   3.870   0.624
10121SOL    HW131262   6.487   3.825   0.701
10121SOL    HW231263   6.367   3.813   0.591
10122SOL     OW31264   1.265   0.412   3.494
10122SOL    HW131265   1.279   0.509   3.514
10122SOL    HW231266   1.180   0.381   3.537
10123SOL     OW31267   5.673   5.791   6.860
10123SOL    HW131268   5.649   5.717   6.922
10123SOL    HW231269   5.593   5.817   6.806
10124SOL     OW31270   1.352   4.625   2.738
10124SOL    HW131271   1.425   4.640   2.804
10124SOL    HW231272   1.383   4.562   2.666
10125SOL     OW31273   1.221   1.100   6.126
10125SOL    HW131274   1.206   1.193   6.160
10125SOL    HW231275   1.318   1.077   6.134
10126SOL     OW31276   6.223   6.889   6.709
10126SOL    HW131277   6.271   6.831   6.644
10126SOL    HW231278   6.273   6.974   6.722
10127SOL     OW31279   1.891   5.487   5.915
10127SOL    HW131280   1.950   5.561   5.947
10127SOL    HW231281   1.933   5.399   5.938
10128SOL     OW31282   2.752   1.446   6.947
10128SOL    HW131283   2.672   1.505   6.953
10128SOL    HW231284   2.823   1.491   6.894
10129SOL     OW31285   5.942   1.208   3.972
10129SOL    HW131286   5.892   1.129   4.007
10129SOL    HW231287   5.927   1.216   3.873
10130SOL     OW31288   1.479   2.118   2.628
10130SOL    HW131289   1.416   2.044   2.603
10130SOL    HW231290   1.562   2.110   2.573
10131SOL     OW31291   2.218   0.404   4.464
10131SOL    HW131292   2.241   0.346   4.386
10131SOL    HW231293   2.268   0.490   4.458
10132SOL     OW31294   6.830   0.959   1.754
10132SOL    HW131295   6.844   0.914   1.842
10132SOL    HW231296   6.771   0.901   1.696
10133SOL     OW31297   5.494   0.060   0.326
10133SOL    HW131298   5.557   0.061   0.404
10133SOL    HW231299   5.525   0.125   0.257
10134SOL     OW31300   6.147   0.161   1.925
10134SOL    HW131301   6.168   0.257   1.912
10134SOL    HW231302   6.120   0.145   2.020
10135SOL     OW31303   6.445   6.943   2.894
10135SOL    HW131304   6.529   6.894   2.871
10135SOL    HW231305   6.366   6.888   2.869
10136SOL     OW31306   5.621   1.846   2.760
10136SOL    HW131307   5.559   1.907   2.810
10136SOL    HW231308   5.570   1.765   2.730
10137SOL     OW31309   6.311   5.274   5.695
10137SOL    HW131310   6.351   5.359   5.661
10137SOL    HW231311   6.384   5.207   5.713
10138SOL     OW31312   0.057   1.785   0.540
10138SOL    HW131313   7.005   1.848   0.551
10138SOL    HW231314   0.109   1.810   0.458
10139SOL     OW31315   3.461   2.903   6.192
10139SOL    HW131316   3.381   2.849   6.218
10139SOL    HW231317   3.503   2.943   6.273
10140SOL     OW31318   0.203   6.112   5.963
10140SOL    HW131319   0.202   6.204   6.002
10140SOL    HW231320   0.297   6.083   5.947
10141SOL     OW31321   2.318   2.537   4.556
10141SOL    HW131322   2.269   2.476   4.616
10141SOL    HW231323   2.397   2.490   4.517
10142SOL     OW31324   5.044   6.318   4.466
10142SOL    HW131325   5.058   6.223   4.493
10142SOL    HW231326   4.947   6.339   4.465
10143SOL     OW31327   5.011   3.624   6.850
10143SOL    HW131328   5.094   3.674   6.873
10143SOL    HW231329   5.014   3.596   6.753
10144SOL     OW31330   3.622   6.552   5.912
10144SOL    HW131331   3.629   6.470   5.968
10144SOL    HW231332   3.692   6.618   5.942
10145SOL     OW31333   5.839   6.028   6.814
10145SOL    HW131334   5.897   5.993   6.740
10145SOL    HW231335   5.782   5.954   6.848
10146SOL     OW31336   0.295   2.641   4.223
10146SOL    HW131337   0.324   2.568   4.286
10146SOL    HW231338   0.363   2.714   4.223
10147SOL     OW31339   4.976   5.060   5.957
10147SOL    HW131340   4.981   5.117   6.039
10147SOL    HW231341   5.064   5.016   5.942
10148SOL     OW31342   1.448   4.614   0.498
10148SOL    HW131343   1.473   4.544   0.565
10148SOL    HW231344   1.523   4.625   0.432
10149SOL     OW31345   3.815   4.613   0.033
10149SOL    HW131346   3.787   4.595   0.127
10149SOL    HW231347   3.763   4.554   6.996
10150SOL     OW31348   4.093   4.506   6.890
10150SOL    HW131349   4.094   4.413   6.929
10150SOL    HW231350   4.032   4.564   6.944
10151SOL     OW31351   5.560   6.794   5.588
10151SOL    HW131352   5.625   6.823   5.659
10151SOL    HW231353   5.495   6.868   5.571
10152SOL     OW31354   4.914   6.610   2.797
10152SOL    HW131355   5.011   6.596   2.816
10152SOL    HW231356   4.860   6.547   2.851
10153SOL     OW31357   4.441   4.538   3.247
10153SOL    HW131358   4.412   4.629   3.276
10153SOL    HW231359   4.444   4.533   3.147
10154SOL     OW31360   5.321   5.526   5.494
10154SOL    HW131361   5.409   5.565   5.470
10154SOL    HW231362   5.319   5.429   5.469
10155SOL     OW31363   4.152   1.348   4.846
10155SOL    HW131364   4.103   1.264   4.870
10155SOL    HW231365   4.247   1.326   4.822
10156SOL     OW31366   5.213   2.160   6.492
10156SOL    HW131367   5.225   2.179   6.589
10156SOL    HW231368   5.268   2.224   6.438
10157SOL     OW31369   0.742   2.657   0.849
10157SOL    HW131370   0.741   2.639   0.947
10157SOL    HW231371   0.650   2.645   0.812
10158SOL     OW31372   5.512   5.282   0.953
10158SOL    HW131373   5.476   5.206   1.006
10158SOL    HW231374   5.502   5.264   0.856
10159SOL     OW31375   3.438   3.444   2.924
10159SOL    HW131376   3.466   3.351   2.944
10159SOL    HW231377   3.357   3.467   2.979
10160SOL     OW31378   0.997   5.335   3.141
10160SOL    HW131379   0.944   5.417   3.117
10160SOL    HW231380   1.091   5.346   3.111
10161SOL     OW31381   5.424   3.262   5.560
10161SOL    HW131382   5.328   3.241   5.580
10161SOL    HW231383   5.475   3.272   5.645
10162SOL     OW31384   1.486   3.050   2.723
10162SOL    HW131385   1.480   3.116   2.648
10162SOL    HW231386   1.580   3.044   2.755
10163SOL     OW31387   1.560   5.947   5.192
10163SOL    HW131388   1.598   5.869   5.241
10163SOL    HW231389   1.461   5.936   5.182
10164SOL     OW31390   1.041   2.584   3.281
10164SOL    HW131391   0.961   2.632   3.243
10164SOL    HW231392   1.015   2.538   3.365
10165SOL     OW31393   0.224   3.627   4.711
10165SOL    HW131394   0.293   3.588   4.771
10165SOL    HW231395   0.210   3.724   4.734
10166SOL     OW31396   2.263   0.902   1.702
10166SOL    HW131397   2.343   0.844   1.689
10166SOL    HW231398   2.199   0.889   1.626
10167SOL     OW31399   2.093   0.269   6.810
10167SOL    HW131400   2.127   0.339   6.747
10167SOL    HW231401   2.170   0.217   6.847
10168SOL     OW31402   0.198   1.291   0.578
10168SOL    HW131403   0.110   1.245   0.568
10168SOL    HW231404   0.186   1.390   0.571
10169SOL     OW31405   6.162   2.449   3.602
10169SOL    HW131406   6.189   2.353   3.599
10169SOL    HW231407   6.177   2.485   3.694
10170SOL     OW31408   5.755   5.711   6.298
10170SOL    HW131409   5.755   5.734   6.396
10170SOL    HW231410   5.806   5.780   6.247
10171SOL     OW31411   2.313   3.844   5.997
10171SOL    HW131412   2.246   3.772   5.976
10171SOL    HW231413   2.269   3.933   5.987
10172SOL     OW31414   6.666   6.701   2.887
10172SOL    HW131415   6.711   6.721   2.974
10172SOL    HW231416   6.620   6.612   2.893
10173SOL     OW31417   3.058   4.204   5.166
10173SOL    HW131418   3.010   4.241   5.246
10173SOL    HW231419   3.009   4.231   5.083
10174SOL     OW31420   4.670   5.965   3.110
10174SOL    HW131421   4.619   6.046   3.138
10174SOL    HW231422   4.753   5.992   3.062
10175SOL     OW31423   0.261   1.544   3.615
10175SOL    HW131424   0.253   1.620   3.551
10175SOL    HW231425   0.190   1.477   3.596
10176SOL     OW31426   6.224   1.723   6.073
10176SOL    HW131427   6.212   1.721   6.173
10176SOL    HW231428   6.160   1.788   6.033
10177SOL     OW31429   2.303   0.592   2.824
10177SOL    HW131430   2.356   0.653   2.882
10177SOL    HW231431   2.362   0.557   2.750
10178SOL     OW31432   1.818   2.389   0.738
10178SOL    HW131433   1.902   2.371   0.789
10178SOL    HW231434   1.801   2.314   0.674
10179SOL     OW31435   0.661   4.545   1.119
10179SOL    HW131436   0.582   4.543   1.057
10179SOL    HW231437   0.745   4.556   1.066
10180SOL     OW31438   4.122   0.334   5.881
10180SOL    HW131439   4.203   0.325   5.940
10180SOL    HW231440   4.150   0.322   5.786
10181SOL     OW31441   6.653   3.410   2.041
10181SOL    HW131442   6.713   3.484   2.072
10181SOL    HW231443   6.567   3.448   2.008
10182SOL     OW31444   5.939   2.251   0.235
10182SOL    HW131445   5.957   2.279   0.141
10182SOL    HW231446   5.984   2.314   0.298
10183SOL     OW31447   6.075   2.090   6.772
10183SOL    HW131448   6.090   2.136   6.685
10183SOL    HW231449   6.087   1.991   6.761
10184SOL     OW31450   5.768   3.162   6.151
10184SOL    HW131451   5.728   3.072   6.169
10184SOL    HW231452   5.742   3.192   6.059
10185SOL     OW31453   3.835   5.616   2.079
10185SOL    HW131454   3.908   5.633   2.012
10185SOL    HW231455   3.759   5.570   2.034
10186SOL     OW31456   3.770   3.282   5.884
10186SOL    HW131457   3.692   3.221   5.874
10186SOL    HW231458   3.739   3.370   5.920
10187SOL     OW31459   1.776   5.847   6.310
10187SOL    HW131460   1.679   5.872   6.314
10187SOL    HW231461   1.829   5.925   6.278
10188SOL     OW31462   3.013   0.458   6.592
10188SOL    HW131463   3.040   0.362   6.583
10188SOL    HW231464   3.092   0.517   6.573
10189SOL     OW31465   1.177   2.230   6.476
10189SOL    HW131466   1.195   2.141   6.433
10189SOL    HW231467   1.263   2.274   6.499
10190SOL     OW31468   3.248   5.171   2.173
10190SOL    HW131469   3.280   5.229   2.099
10190SOL    HW231470   3.243   5.076   2.142
10191SOL     OW31471   5.963   5.932   6.589
10191SOL    HW131472   5.924   5.947   6.498
10191SOL    HW231473   6.023   5.852   6.587
10192SOL     OW31474   2.001   1.605   4.246
10192SOL    HW131475   2.027   1.700   4.228
10192SOL    HW231476   2.020   1.549   4.165
10193SOL     OW31477   3.403   3.817   3.680
10193SOL    HW131478   3.476   3.857   3.625
10193SOL    HW231479   3.419   3.838   3.776
10194SOL     OW31480   3.334   0.311   2.934
10194SOL    HW131481   3.283   0.352   2.858
10194SOL    HW231482   3.271   0.293   3.010
10195SOL     OW31483   4.046   6.438   1.822
10195SOL    HW131484   4.051   6.376   1.744
10195SOL    HW231485   4.139   6.460   1.852
10196SOL     OW31486   6.459   1.967   3.532
10196SOL    HW131487   6.400   1.974   3.612
10196SOL    HW231488   6.419   2.018   3.456
10197SOL     OW31489   5.795   0.370   1.949
10197SOL    HW131490   5.868   0.396   2.012
10197SOL    HW231491   5.825   0.292   1.893
10198SOL     OW31492   2.691   6.676   0.914
10198SOL    HW131493   2.770   6.729   0.947
10198SOL    HW231494   2.610   6.701   0.966
10199SOL     OW31495   1.270   1.252   0.394
10199SOL    HW131496   1.183   1.260   0.442
10199SOL    HW231497   1.256   1.267   0.296
10200SOL     OW31498   5.199   4.541   4.765
10200SOL    HW131499   5.233   4.553   4.671
10200SOL    HW231500   5.274   4.555   4.829
10201SOL     OW31501   1.356   4.787   2.049
10201SOL    HW131502   1.352   4.874   2.098
10201SOL    HW231503   1.282   4.783   1.981
10202SOL     OW31504   1.245   3.664   2.569
10202SOL    HW131505   1.278   3.744   2.519
10202SOL    HW231506   1.208   3.597   2.504
10203SOL     OW31507   1.976   2.994   2.472
10203SOL    HW131508   2.072   3.014   2.492
10203SOL    HW231509   1.970   2.930   2.396
10204SOL     OW31510   3.134   4.624   5.286
10204SOL    HW131511   3.131   4.659   5.380
10204SOL    HW231512   3.044   4.590   5.260
10205SOL     OW31513   5.116   2.250   2.880
10205SOL    HW131514   5.051   2.313   2.921
10205SOL    HW231515   5.186   2.225   2.947
10206SOL     OW31516   5.354   6.827   5.890
10206SOL    HW131517   5.405   6.741   5.886
10206SOL    HW231518   5.416   6.902   5.912
10207SOL     OW31519   3.880   0.733   2.628
10207SOL    HW131520   3.892   0.822   2.673
10207SOL    HW231521   3.902   0.660   2.693
10208SOL     OW31522   6.518   4.286   5.523
10208SOL    HW131523   6.579   4.225   5.472
10208SOL    HW231524   6.424   4.254   5.514
10209SOL     OW31525   6.256   6.910   6.318
10209SOL    HW131526   6.308   6.922   6.234
10209SOL    HW231527   6.317   6.881   6.391
10210SOL     OW31528   4.917   6.093   2.173
10210SOL    HW131529   4.964   6.168   2.220
10210SOL    HW231530   4.820   6.094   2.196
10211SOL     OW31531   3.706   5.934   4.870
10211SOL    HW131532   3.675   5.962   4.779
10211SOL    HW231533   3.676   6.001   4.937
10212SOL     OW31534   0.098   0.647   4.926
10212SOL    HW131535   0.184   0.619   4.968
10212SOL    HW231536   0.116   0.695   4.840
10213SOL     OW31537   6.155   1.363   2.989
10213SOL    HW131538   6.079   1.300   2.976
10213SOL    HW231539   6.236   1.327   2.942
10214SOL     OW31540   7.014   1.150   1.737
10214SOL    HW131541   0.028   1.144   1.829
10214SOL    HW231542   6.942   1.082   1.728
10215SOL     OW31543   4.017   4.202   6.602
10215SOL    HW131544   3.967   4.187   6.517
10215SOL    HW231545   3.994   4.128   6.667
10216SOL     OW31546   5.051   0.676   1.524
10216SOL    HW131547   5.066   0.633   1.613
10216SOL    HW231548   5.043   0.606   1.454
10217SOL     OW31549   2.191   1.936   4.829
10217SOL    HW131550   2.244   1.934   4.914
10217SOL    HW231551   2.195   2.028   4.790
10218SOL     OW31552   2.143   1.305   1.050
10218SOL    HW131553   2.111   1.213   1.071
10218SOL    HW231554   2.069   1.358   1.007
10219SOL     OW31555   0.964   3.248   1.517
10219SOL    HW131556   1.042   3.295   1.557
10219SOL    HW231557   0.913   3.201   1.588
10220SOL     OW31558   4.650   2.112   0.843
10220SOL    HW131559   4.568   2.126   0.897
10220SOL    HW231560   4.642   2.160   0.756
10221SOL     OW31561   2.902   0.092   5.044
10221SOL    HW131562   2.861   0.053   4.962
10221SOL    HW231563   2.938   0.184   5.024
10222SOL     OW31564   1.773   5.174   5.601
10222SOL    HW131565   1.864   5.189   5.563
10222SOL    HW231566   1.779   5.112   5.678
10223SOL     OW31567   1.193   4.401   0.252
10223SOL    HW131568   1.191   4.410   0.152
10223SOL    HW231569   1.129   4.467   0.292
10224SOL     OW31570   1.456   0.210   4.104
10224SOL    HW131571   1.368   0.257   4.096
10224SOL    HW231572   1.522   0.270   4.148
10225SOL     OW31573   6.281   5.329   4.682
10225SOL    HW131574   6.373   5.366   4.671
10225SOL    HW231575   6.264   5.261   4.610
10226SOL     OW31576   1.905   1.425   6.970
10226SOL    HW131577   1.836   1.458   0.009
10226SOL    HW231578   1.992   1.414   7.018
10227SOL     OW31579   4.786   4.795   0.039
10227SOL    HW131580   4.816   4.700   0.039
10227SOL    HW231581   4.827   4.843   0.118
10228SOL     OW31582   1.297   5.770   3.224
10228SOL    HW131583   1.315   5.868   3.220
10228SOL    HW231584   1.310   5.730   3.133
10229SOL     OW31585   0.730   0.026   3.104
10229SOL    HW131586   0.772   6.961   3.097
10229SOL    HW231587   0.766   0.085   3.031
10230SOL     OW31588   6.864   0.846   3.917
10230SOL    HW131589   6.826   0.882   4.002
10230SOL    HW231590   6.794   0.795   3.868
10231SOL     OW31591   5.815   6.896   4.857
10231SOL    HW131592   5.899   6.942   4.828
10231SOL    HW231593   5.750   6.963   4.893
10232SOL     OW31594   3.223   2.059   4.965
10232SOL    HW131595   3.194   2.154   4.975
10232SOL    HW231596   3.179   2.003   5.035
10233SOL     OW31597   4.883   1.746   5.860
10233SOL    HW131598   4.839   1.728   5.772
10233SOL    HW231599   4.841   1.690   5.931
10234SOL     OW31600   5.602   0.013   1.693
10234SOL    HW131601   5.574   0.103   1.661
10234SOL    HW231602   5.592   0.008   1.793
10235SOL     OW31603   5.517   1.272   6.815
10235SOL    HW131604   5.602   1.324   6.821
10235SOL    HW231605   5.465   1.301   6.735
10236SOL     OW31606   2.365   5.511   1.923
10236SOL    HW131607   2.331   5.489   1.832
10236SOL    HW231608   2.290   5.505   1.989
10237SOL     OW31609   6.090   3.466   2.345
10237SOL    HW131610   6.055   3.453   2.438
10237SOL    HW231611   6.144   3.386   2.318
10238SOL     OW31612   4.538   4.879   4.862
10238SOL    HW131613   4.549   4.803   4.927
10238SOL    HW231614   4.525   4.842   4.770
10239SOL     OW31615   0.094   3.791   3.858
10239SOL    HW131616   0.068   3.709   3.909
10239SOL    HW231617   0.165   3.768   3.791
10240SOL     OW31618   0.835   3.763   3.949
10240SOL    HW131619   0.927   3.739   3.920
10240SOL    HW231620   0.768   3.725   3.885
10241SOL     OW31621   1.229   1.579   2.019
10241SOL    HW131622   1.141   1.532   2.015
10241SOL    HW231623   1.232   1.651   1.949
10242SOL     OW31624   0.189   0.628   6.279
10242SOL    HW131625   0.221   0.534   6.293
10242SOL    HW231626   0.103   0.625   6.227
10243SOL     OW31627   1.082   5.680   1.753
10243SOL    HW131628   1.081   5.732   1.838
10243SOL    HW231629   1.175   5.651   1.731
10244SOL     OW31630   1.978   5.929   6.637
10244SOL    HW131631   2.035   5.872   6.578
10244SOL    HW231632   2.036   5.991   6.690
10245SOL     OW31633   2.333   2.421   5.708
10245SOL    HW131634   2.393   2.437   5.629
10245SOL    HW231635   2.385   2.376   5.781
10246SOL     OW31636   3.321   4.069   5.121
10246SOL    HW131637   3.355   4.080   5.028
10246SOL    HW231638   3.256   4.142   5.141
10247SOL     OW31639   0.151   4.946   6.049
10247SOL    HW131640   0.161   5.024   5.988
10247SOL    HW231641   0.115   4.868   5.998
10248SOL     OW31642   3.114   0.100   2.011
10248SOL    HW131643   3.192   0.038   2.019
10248SOL    HW231644   3.036   0.052   1.973
10249SOL     OW31645   4.786   1.291   5.876
10249SOL    HW131646   4.802   1.214   5.938
10249SOL    HW231647   4.857   1.360   5.891
10250SOL     OW31648   6.469   1.219   0.613
10250SOL    HW131649   6.421   1.144   0.567
10250SOL    HW231650   6.560   1.189   0.639
10251SOL     OW31651   2.447   3.494   6.725
10251SOL    HW131652   2.411   3.419   6.670
10251SOL    HW231653   2.544   3.507   6.704
10252SOL     OW31654   6.052   6.177   1.037
10252SOL    HW131655   6.092   6.171   0.946
10252SOL    HW231656   6.054   6.086   1.080
10253SOL     OW31657   4.776   5.123   0.179
10253SOL    HW131658   4.712   5.051   0.152
10253SOL    HW231659   4.733   5.213   0.167
10254SOL     OW31660   2.340   1.933   5.051
10254SOL    HW131661   2.289   1.915   5.135
10254SOL    HW231662   2.426   1.979   5.073
10255SOL     OW31663   2.684   5.742   2.495
10255SOL    HW131664   2.771   5.775   2.459
10255SOL    HW231665   2.611   5.760   2.428
10256SOL     OW31666   5.467   0.755   0.039
10256SOL    HW131667   5.392   0.704   7.024
10256SOL    HW231668   5.431   0.836   0.085
10257SOL     OW31669   1.347   5.365   6.156
10257SOL    HW131670   1.359   5.275   6.114
10257SOL    HW231671   1.372   5.436   6.090
10258SOL     OW31672   3.996   6.546   3.402
10258SOL    HW131673   4.082   6.502   3.377
10258SOL    HW231674   3.980   6.534   3.501
10259SOL     OW31675   6.975   3.604   3.707
10259SOL    HW131676   0.049   3.610   3.696
10259SOL    HW231677   6.954   3.556   3.793
10260SOL     OW31678   0.935   6.855   2.109
10260SOL    HW131679   0.958   6.773   2.056
10260SOL    HW231680   0.875   6.913   2.054
10261SOL     OW31681   1.231   5.862   1.941
10261SOL    HW131682   1.294   5.889   1.868
10261SOL    HW231683   1.271   5.789   1.995
10262SOL     OW31684   2.688   5.021   4.820
10262SOL    HW131685   2.706   4.925   4.842
10262SOL    HW231686   2.630   5.061   4.892
10263SOL     OW31687   5.680   1.707   5.913
10263SOL    HW131688   5.656   1.706   6.011
10263SOL    HW231689   5.713   1.616   5.887
10264SOL     OW31690   6.388   0.552   5.992
10264SOL    HW131691   6.346   0.488   6.056
10264SOL    HW231692   6.362   0.646   6.016
10265SOL     OW31693   3.734   1.594   2.455
10265SOL    HW131694   3.731   1.671   2.519
10265SOL    HW231695   3.682   1.517   2.493
10266SOL     OW31696   3.133   4.093   6.676
10266SOL    HW131697   3.232   4.080   6.668
10266SOL    HW231698   3.100   4.151   6.602
10267SOL     OW31699   0.255   2.192   6.596
10267SOL    HW131700   0.207   2.157   6.515
10267SOL    HW231701   0.315   2.267   6.570
10268SOL     OW31702   5.212   5.699   1.810
10268SOL    HW131703   5.153   5.778   1.790
10268SOL    HW231704   5.224   5.645   1.726
10269SOL     OW31705   2.369   2.198   6.449
10269SOL    HW131706   2.460   2.173   6.415
10269SOL    HW231707   2.304   2.198   6.373
10270SOL     OW31708   1.759   5.967   0.602
10270SOL    HW131709   1.713   5.926   0.680
10270SOL    HW231710   1.747   6.066   0.605
10271SOL     OW31711   4.109   4.419   1.545
10271SOL    HW131712   4.035   4.352   1.541
10271SOL    HW231713   4.132   4.438   1.640
10272SOL     OW31714   0.630   0.398   5.080
10272SOL    HW131715   0.578   0.364   5.159
10272SOL    HW231716   0.706   0.455   5.112
10273SOL     OW31717   3.927   5.526   4.786
10273SOL    HW131718   3.866   5.461   4.831
10273SOL    HW231719   3.903   5.532   4.689
10274SOL     OW31720   0.814   5.104   5.389
10274SOL    HW131721   0.815   5.119   5.290
10274SOL    HW231722   0.907   5.111   5.425
10275SOL     OW31723   0.778   6.765   3.104
10275SOL    HW131724   0.685   6.757   3.067
10275SOL    HW231725   0.812   6.674   3.128
10276SOL     OW31726   0.013   5.433   5.275
10276SOL    HW131727   0.003   5.528   5.304
10276SOL    HW231728   6.948   5.389   5.277
10277SOL     OW31729   2.874   6.694   4.719
10277SOL    HW131730   2.942   6.671   4.788
10277SOL    HW231731   2.783   6.677   4.755
10278SOL     OW31732   5.692   0.205   6.051
10278SOL    HW131733   5.732   0.265   5.983
10278SOL    HW231734   5.602   0.240   6.079
10279SOL     OW31735   3.311   0.414   4.368
10279SOL    HW131736   3.300   0.315   4.357
10279SOL    HW231737   3.333   0.455   4.280
10280SOL     OW31738   1.609   3.995   0.666
10280SOL    HW131739   1.567   3.954   0.747
10280SOL    HW231740   1.555   3.974   0.585
10281SOL     OW31741   4.847   0.847   3.399
10281SOL    HW131742   4.820   0.853   3.303
10281SOL    HW231743   4.931   0.795   3.407
10282SOL     OW31744   0.991   2.142   3.860
10282SOL    HW131745   0.997   2.235   3.825
10282SOL    HW231746   1.083   2.106   3.876
10283SOL     OW31747   1.131   3.390   0.542
10283SOL    HW131748   1.081   3.336   0.610
10283SOL    HW231749   1.213   3.340   0.514
10284SOL     OW31750   5.520   3.450   5.396
10284SOL    HW131751   5.606   3.416   5.357
10284SOL    HW231752   5.482   3.383   5.458
10285SOL     OW31753   5.195   0.734   0.623
10285SOL    HW131754   5.293   0.744   0.641
10285SOL    HW231755   5.179   0.731   0.524
10286SOL     OW31756   4.080   0.425   3.186
10286SOL    HW131757   4.149   0.425   3.259
10286SOL    HW231758   4.027   0.509   3.191
10287SOL     OW31759   1.916   6.724   1.677
10287SOL    HW131760   2.000   6.719   1.623
10287SOL    HW231761   1.866   6.638   1.670
10288SOL     OW31762   5.953   6.004   3.569
10288SOL    HW131763   6.046   5.988   3.601
10288SOL    HW231764   5.941   5.962   3.479
10289SOL     OW31765   3.174   1.513   1.812
10289SOL    HW131766   3.196   1.609   1.798
10289SOL    HW231767   3.081   1.505   1.849
10290SOL     OW31768   4.048   3.190   3.029
10290SOL    HW131769   4.101   3.111   3.061
10290SOL    HW231770   3.958   3.189   3.073
10291SOL     OW31771   3.278   0.585   4.833
10291SOL    HW131772   3.323   0.535   4.758
10291SOL    HW231773   3.189   0.618   4.802
10292SOL     OW31774   0.600   1.379   4.646
10292SOL    HW131775   0.649   1.348   4.565
10292SOL    HW231776   0.665   1.390   4.722
10293SOL     OW31777   2.372   6.589   3.220
10293SOL    HW131778   2.374   6.501   3.269
10293SOL    HW231779   2.451   6.595   3.159
10294SOL     OW31780   5.309   1.551   3.218
10294SOL    HW131781   5.310   1.598   3.129
10294SOL    HW231782   5.394   1.499   3.229
10295SOL     OW31783   0.609   5.426   6.511
10295SOL    HW131784   0.596   5.379   6.598
10295SOL    HW231785   0.587   5.523   6.522
10296SOL     OW31786   6.488   3.418   0.157
10296SOL    HW131787   6.547   3.483   0.204
10296SOL    HW231788   6.529   3.392   0.070
10297SOL     OW31789   0.841   5.515   4.096
10297SOL    HW131790   0.884   5.605   4.107
10297SOL    HW231791   0.911   5.445   4.085
10298SOL     OW31792   5.242   4.298   3.757
10298SOL    HW131793   5.302   4.366   3.714
10298SOL    HW231794   5.154   4.340   3.778
10299SOL     OW31795   4.630   4.902   3.291
10299SOL    HW131796   4.588   4.924   3.203
10299SOL    HW231797   4.638   4.803   3.302
10300SOL     OW31798   0.989   3.929   2.630
10300SOL    HW131799   1.053   3.922   2.706
10300SOL    HW231800   0.937   4.014   2.638
10301SOL     OW31801   6.123   0.957   2.174
10301SOL    HW131802   6.053   1.022   2.202
10301SOL    HW231803   6.213   1.000   2.183
10302SOL     OW31804   1.361   5.971   2.700
10302SOL    HW131805   1.451   6.011   2.683
10302SOL    HW231806   1.342   5.971   2.798
10303SOL     OW31807   3.988   3.852   1.373
10303SOL    HW131808   3.939   3.780   1.325
10303SOL    HW231809   3.923   3.911   1.421
10304SOL     OW31810   6.890   6.672   2.613
10304SOL    HW131811   6.813   6.733   2.595
10304SOL    HW231812   6.975   6.718   2.587
10305SOL     OW31813   1.351   5.806   0.078
10305SOL    HW131814   1.334   5.713   0.109
10305SOL    HW231815   1.277   5.835   0.016
10306SOL     OW31816   3.941   5.884   0.505
10306SOL    HW131817   3.844   5.907   0.491
10306SOL    HW231818   3.967   5.904   0.599
10307SOL     OW31819   1.570   1.285   6.424
10307SOL    HW131820   1.635   1.245   6.489
10307SOL    HW231821   1.607   1.277   6.331
10308SOL     OW31822   3.051   6.113   3.358
10308SOL    HW131823   3.038   6.057   3.276
10308SOL    HW231824   3.009   6.068   3.437
10309SOL     OW31825   6.897   6.447   2.791
10309SOL    HW131826   6.997   6.443   2.796
10309SOL    HW231827   6.870   6.534   2.749
10310SOL     OW31828   3.858   3.718   3.048
10310SOL    HW131829   3.888   3.638   2.996
10310SOL    HW231830   3.759   3.713   3.062
10311SOL     OW31831   0.485   5.518   6.888
10311SOL    HW131832   0.561   5.564   6.934
10311SOL    HW231833   0.410   5.504   6.953
10312SOL     OW31834   2.731   4.666   0.177
10312SOL    HW131835   2.639   4.633   0.199
10312SOL    HW231836   2.799   4.599   0.208
10313SOL     OW31837   5.193   0.573   2.485
10313SOL    HW131838   5.131   0.613   2.552
10313SOL    HW231839   5.269   0.636   2.468
10314SOL     OW31840   6.230   6.997   0.653
10314SOL    HW131841   6.199   6.985   0.558
10314SOL    HW231842   6.324   0.005   0.653
10315SOL     OW31843   5.984   5.777   4.633
10315SOL    HW131844   6.084   5.781   4.629
10315SOL    HW231845   5.949   5.862   4.671
10316SOL     OW31846   0.615   3.342   3.869
10316SOL    HW131847   0.567   3.330   3.956
10316SOL    HW231848   0.669   3.260   3.849
10317SOL     OW31849   4.385   5.290   6.772
10317SOL    HW131850   4.480   5.286   6.803
10317SOL    HW231851   4.365   5.209   6.716
10318SOL     OW31852   5.903   5.247   2.074
10318SOL    HW131853   5.970   5.316   2.101
10318SOL    HW231854   5.812   5.287   2.076
10319SOL     OW31855   6.211   5.776   3.346
10319SOL    HW131856   6.156   5.714   3.291
10319SOL    HW231857   6.247   5.727   3.426
10320SOL     OW31858   6.644   6.869   1.298
10320SOL    HW131859   6.722   6.894   1.355
10320SOL    HW231860   6.664   6.784   1.249
10321SOL     OW31861   4.574   5.322   4.304
10321SOL    HW131862   4.614   5.402   4.348
10321SOL    HW231863   4.572   5.335   4.205
10322SOL     OW31864   6.337   3.689   0.387
10322SOL    HW131865   6.425   3.649   0.413
10322SOL    HW231866   6.272   3.677   0.462
10323SOL     OW31867   5.184   3.171   5.664
10323SOL    HW131868   5.161   3.233   5.739
10323SOL    HW231869   5.133   3.196   5.582
10324SOL     OW31870   3.227   2.927   3.519
10324SOL    HW131871   3.156   2.985   3.558
10324SOL    HW231872   3.186   2.842   3.486
10325SOL     OW31873   0.671   2.730   2.603
10325SOL    HW131874   0.611   2.652   2.623
10325SOL    HW231875   0.638   2.810   2.653
10326SOL     OW31876   5.527   2.327   0.372
10326SOL    HW131877   5.611   2.346   0.424
10326SOL    HW231878   5.454   2.386   0.405
10327SOL     OW31879   0.194   0.942   3.257
10327SOL    HW131880   0.285   0.947   3.216
10327SOL    HW231881   0.184   0.855   3.306
10328SOL     OW31882   5.828   3.189   2.525
10328SOL    HW131883   5.785   3.191   2.435
10328SOL    HW231884   5.763   3.151   2.592
10329SOL     OW31885   3.252   0.044   2.911
10329SOL    HW131886   3.299   7.005   2.850
10329SOL    HW231887   3.298   0.133   2.907
10330SOL     OW31888   4.268   5.302   1.829
10330SOL    HW131889   4.206   5.319   1.906
10330SOL    HW231890   4.318   5.217   1.846
10331SOL     OW31891   5.529   0.445   3.171
10331SOL    HW131892   5.579   0.527   3.201
10331SOL    HW231893   5.546   0.430   3.074
10332SOL     OW31894   6.771   2.029   5.910
10332SOL    HW131895   6.711   2.025   5.989
10332SOL    HW231896   6.779   2.124   5.878
10333SOL     OW31897   5.614   5.507   4.198
10333SOL    HW131898   5.622   5.442   4.273
10333SOL    HW231899   5.626   5.459   4.111
10334SOL     OW31900   2.104   4.779   4.195
10334SOL    HW131901   2.020   4.777   4.141
10334SOL    HW231902   2.109   4.697   4.251
10335SOL     OW31903   1.537   5.559   1.505
10335SOL    HW131904   1.450   5.609   1.502
10335SOL    HW231905   1.522   5.466   1.471
10336SOL     OW31906   4.145   6.289   2.168
10336SOL    HW131907   4.071   6.303   2.102
10336SOL    HW231908   4.231   6.318   2.126
10337SOL     OW31909   0.804   4.777   4.942
10337SOL    HW131910   0.709   4.796   4.919
10337SOL    HW231911   0.835   4.842   5.012
10338SOL     OW31912   2.890   6.209   2.811
10338SOL    HW131913   2.846   6.155   2.883
10338SOL    HW231914   2.875   6.306   2.829
10339SOL     OW31915   2.453   6.282   1.467
10339SOL    HW131916   2.460   6.183   1.483
10339SOL    HW231917   2.443   6.299   1.370
10340SOL     OW31918   1.359   6.853   0.302
10340SOL    HW131919   1.285   6.915   0.330
10340SOL    HW231920   1.388   6.798   0.380
10341SOL     OW31921   1.935   1.731   2.657
10341SOL    HW131922   2.017   1.787   2.653
10341SOL    HW231923   1.871   1.770   2.723
10342SOL     OW31924   2.528   0.128   4.798
10342SOL    HW131925   2.610   0.178   4.771
10342SOL    HW231926   2.537   0.097   4.893
10343SOL     OW31927   2.545   3.783   6.129
10343SOL    HW131928   2.582   3.875   6.144
10343SOL    HW231929   2.460   3.789   6.078
10344SOL     OW31930   3.961   3.643   4.952
10344SOL    HW131931   3.966   3.562   5.010
10344SOL    HW231932   3.918   3.620   4.865
10345SOL     OW31933   2.348   1.484   6.506
10345SOL    HW131934   2.372   1.575   6.472
10345SOL    HW231935   2.299   1.434   6.434
10346SOL     OW31936   4.999   6.626   0.086
10346SOL    HW131937   4.927   6.694   0.097
10346SOL    HW231938   4.974   6.544   0.138
10347SOL     OW31939   5.885   1.826   1.650
10347SOL    HW131940   5.842   1.887   1.583
10347SOL    HW231941   5.933   1.753   1.602
10348SOL     OW31942   0.102   0.134   5.789
10348SOL    HW131943   0.113   0.041   5.824
10348SOL    HW231944   0.159   0.197   5.841
10349SOL     OW31945   6.866   1.689   1.563
10349SOL    HW131946   6.797   1.699   1.491
10349SOL    HW231947   6.931   1.618   1.536
10350SOL     OW31948   2.717   5.173   4.366
10350SOL    HW131949   2.620   5.186   4.349
10350SOL    HW231950   2.752   5.099   4.309
10351SOL     OW31951   5.854   4.781   5.193
10351SOL    HW131952   5.927   4.810   5.256
10351SOL    HW231953   5.825   4.688   5.216
10352SOL     OW31954   6.135   2.376   0.386
10352SOL    HW131955   6.220   2.416   0.354
10352SOL    HW231956   6.152   2.321   0.468
10353SOL     OW31957   6.646   2.570   3.751
10353SOL    HW131958   6.652   2.553   3.653
10353SOL    HW231959   6.566   2.525   3.788
10354SOL     OW31960   0.305   2.903   0.784
10354SOL    HW131961   0.216   2.890   0.739
10354SOL    HW231962   0.354   2.978   0.741
10355SOL     OW31963   1.347   0.658   0.775
10355SOL    HW131964   1.339   0.665   0.675
10355SOL    HW231965   1.444   0.646   0.799
10356SOL     OW31966   6.826   4.066   6.748
10356SOL    HW131967   6.809   3.999   6.676
10356SOL    HW231968   6.830   4.019   6.837
10357SOL     OW31969   1.110   3.028   6.152
10357SOL    HW131970   1.050   3.063   6.081
10357SOL    HW231971   1.068   2.949   6.196
10358SOL     OW31972   0.822   2.795   2.135
10358SOL    HW131973   0.771   2.713   2.110
10358SOL    HW231974   0.812   2.864   2.063
10359SOL     OW31975   5.998   1.876   2.227
10359SOL    HW131976   6.015   1.845   2.321
10359SOL    HW231977   6.037   1.967   2.215
10360SOL     OW31978   5.999   4.741   2.405
10360SOL    HW131979   5.935   4.678   2.449
10360SOL    HW231980   6.013   4.820   2.464
10361SOL     OW31981   0.386   1.746   1.723
10361SOL    HW131982   0.449   1.673   1.747
10361SOL    HW231983   0.382   1.756   1.624
10362SOL     OW31984   1.305   4.879   2.624
10362SOL    HW131985   1.302   4.919   2.716
10362SOL    HW231986   1.320   4.780   2.632
10363SOL     OW31987   4.902   4.529   0.663
10363SOL    HW131988   5.000   4.544   0.647
10363SOL    HW231989   4.888   4.437   0.699
10364SOL     OW31990   6.129   4.516   2.253
10364SOL    HW131991   6.144   4.607   2.291
10364SOL    HW231992   6.168   4.511   2.160
10365SOL     OW31993   6.282   5.815   0.399
10365SOL    HW131994   6.183   5.829   0.400
10365SOL    HW231995   6.302   5.724   0.363
10366SOL     OW31996   2.878   6.325   3.263
10366SOL    HW131997   2.939   6.246   3.262
10366SOL    HW231998   2.802   6.309   3.201
10367SOL     OW31999   6.379   2.066   0.683
10367SOL    HW132000   6.456   2.073   0.620
10367SOL    HW232001   6.306   2.126   0.653
10368SOL     OW32002   2.026   5.819   2.076
10368SOL    HW132003   2.094   5.753   2.107
10368SOL    HW232004   1.991   5.870   2.156
10369SOL     OW32005   3.609   0.190   5.920
10369SOL    HW132006   3.574   0.275   5.959
10369SOL    HW232007   3.698   0.170   5.960
10370SOL     OW32008   0.511   0.839   4.659
10370SOL    HW132009   0.610   0.835   4.671
10370SOL    HW232010   0.471   0.749   4.677
10371SOL     OW32011   3.081   5.609   3.548
10371SOL    HW132012   2.999   5.666   3.551
10371SOL    HW232013   3.141   5.641   3.475
10372SOL     OW32014   2.715   6.583   1.606
10372SOL    HW132015   2.642   6.633   1.651
10372SOL    HW232016   2.720   6.490   1.643
10373SOL     OW32017   0.308   1.749   5.245
10373SOL    HW132018   0.333   1.799   5.328
10373SOL    HW232019   0.273   1.813   5.176
10374SOL     OW32020   3.386   6.937   4.665
10374SOL    HW132021   3.318   6.975   4.727
10374SOL    HW232022   3.342   6.908   4.580
10375SOL     OW32023   3.325   3.436   0.431
10375SOL    HW132024   3.403   3.449   0.370
10375SOL    HW232025   3.285   3.526   0.453
10376SOL     OW32026   2.185   5.011   2.722
10376SOL    HW132027   2.176   5.064   2.806
10376SOL    HW232028   2.254   4.940   2.735
10377SOL     OW32029   1.232   1.078   2.924
10377SOL    HW132030   1.216   1.002   2.861
10377SOL    HW232031   1.287   1.148   2.877
10378SOL     OW32032   0.130   4.532   5.337
10378SOL    HW132033   0.133   4.498   5.431
10378SOL    HW232034   0.103   4.628   5.338
10379SOL     OW32035   1.844   6.638   4.606
10379SOL    HW132036   1.790   6.715   4.572
10379SOL    HW232037   1.930   6.672   4.644
10380SOL     OW32038   1.388   3.104   4.492
10380SOL    HW132039   1.347   3.174   4.434
10380SOL    HW232040   1.486   3.123   4.504
10381SOL     OW32041   4.478   4.383   1.177
10381SOL    HW132042   4.553   4.330   1.216
10381SOL    HW232043   4.447   4.451   1.245
10382SOL     OW32044   3.170   4.948   1.441
10382SOL    HW132045   3.256   4.999   1.447
10382SOL    HW232046   3.185   4.853   1.468
10383SOL     OW32047   2.061   4.622   0.653
10383SOL    HW132048   2.015   4.576   0.729
10383SOL    HW232049   2.040   4.720   0.657
10384SOL     OW32050   5.606   6.810   1.520
10384SOL    HW132051   5.622   6.870   1.442
10384SOL    HW232052   5.587   6.865   1.601
10385SOL     OW32053   3.724   4.674   6.478
10385SOL    HW132054   3.653   4.675   6.549
10385SOL    HW232055   3.774   4.588   6.483
10386SOL     OW32056   0.167   0.843   6.769
10386SOL    HW132057   0.079   0.814   6.805
10386SOL    HW232058   0.233   0.768   6.779
10387SOL     OW32059   4.933   2.871   2.733
10387SOL    HW132060   4.944   2.789   2.789
10387SOL    HW232061   4.868   2.852   2.659
10388SOL     OW32062   2.746   0.406   5.944
10388SOL    HW132063   2.669   0.403   6.008
10388SOL    HW232064   2.714   0.437   5.855
10389SOL     OW32065   0.500   3.120   0.389
10389SOL    HW132066   0.593   3.149   0.366
10389SOL    HW232067   0.497   3.092   0.485
10390SOL     OW32068   2.809   2.261   0.992
10390SOL    HW132069   2.865   2.243   0.911
10390SOL    HW232070   2.719   2.296   0.963
10391SOL     OW32071   6.728   6.594   4.160
10391SOL    HW132072   6.773   6.586   4.249
10391SOL    HW232073   6.698   6.503   4.130
10392SOL     OW32074   6.622   5.007   4.802
10392SOL    HW132075   6.564   5.081   4.835
10392SOL    HW232076   6.615   5.000   4.702
10393SOL     OW32077   1.920   3.956   3.953
10393SOL    HW132078   1.996   3.909   3.907
10393SOL    HW232079   1.944   4.052   3.966
10394SOL     OW32080   3.173   6.352   4.199
10394SOL    HW132081   3.096   6.289   4.209
10394SOL    HW232082   3.153   6.418   4.126
10395SOL     OW32083   6.864   6.830   0.596
10395SOL    HW132084   6.775   6.842   0.641
10395SOL    HW232085   6.850   6.802   0.501
10396SOL     OW32086   3.004   1.748   4.500
10396SOL    HW132087   3.091   1.709   4.529
10396SOL    HW232088   3.020   1.816   4.429
10397SOL     OW32089   3.041   2.148   2.272
10397SOL    HW132090   3.140   2.158   2.270
10397SOL    HW232091   3.001   2.199   2.196
10398SOL     OW32092   0.092   3.200   1.768
10398SOL    HW132093   0.012   3.162   1.722
10398SOL    HW232094   0.143   3.258   1.705
10399SOL     OW32095   6.078   2.417   2.200
10399SOL    HW132096   6.088   2.515   2.218
10399SOL    HW232097   6.015   2.404   2.123
10400SOL     OW32098   4.275   0.335   0.360
10400SOL    HW132099   4.351   0.281   0.398
10400SOL    HW232100   4.296   0.361   0.266
10401SOL     OW32101   6.795   0.917   4.182
10401SOL    HW132102   6.726   0.969   4.233
10401SOL    HW232103   6.886   0.952   4.203
10402SOL     OW32104   5.884   2.855   4.868
10402SOL    HW132105   5.954   2.908   4.819
10402SOL    HW232106   5.913   2.760   4.874
10403SOL     OW32107   3.415   0.436   3.188
10403SOL    HW132108   3.463   0.469   3.106
10403SOL    HW232109   3.412   0.336   3.186
10404SOL     OW32110   6.142   0.061   5.526
10404SOL    HW132111   6.099   6.997   5.538
10404SOL    HW232112   6.238   0.048   5.499
10405SOL     OW32113   0.931   1.697   5.800
10405SOL    HW132114   0.874   1.617   5.780
10405SOL    HW232115   1.018   1.668   5.840
10406SOL     OW32116   3.269   4.897   1.790
10406SOL    HW132117   3.203   4.822   1.793
10406SOL    HW232118   3.222   4.984   1.802
10407SOL     OW32119   3.525   5.812   5.564
10407SOL    HW132120   3.515   5.870   5.645
10407SOL    HW232121   3.443   5.821   5.507
10408SOL     OW32122   4.962   1.632   0.336
10408SOL    HW132123   5.022   1.683   0.398
10408SOL    HW232124   5.007   1.621   0.247
10409SOL     OW32125   6.816   4.873   0.162
10409SOL    HW132126   6.892   4.814   0.135
10409SOL    HW232127   6.801   4.943   0.092
10410SOL     OW32128   5.382   1.541   6.828
10410SOL    HW132129   5.370   1.525   6.926
10410SOL    HW232130   5.434   1.466   6.787
10411SOL     OW32131   3.243   6.056   3.036
10411SOL    HW132132   3.289   6.139   3.069
10411SOL    HW232133   3.311   5.987   3.013
10412SOL     OW32134   6.185   0.846   0.537
10412SOL    HW132135   6.093   0.825   0.572
10412SOL    HW232136   6.238   0.761   0.531
10413SOL     OW32137   0.368   1.910   1.098
10413SOL    HW132138   0.355   1.868   1.187
10413SOL    HW232139   0.320   1.857   1.028
10414SOL     OW32140   4.445   4.097   5.831
10414SOL    HW132141   4.349   4.120   5.847
10414SOL    HW232142   4.495   4.100   5.918
10415SOL     OW32143   0.448   5.012   5.935
10415SOL    HW132144   0.363   5.007   5.987
10415SOL    HW232145   0.500   5.093   5.963
10416SOL     OW32146   6.458   1.425   2.984
10416SOL    HW132147   6.394   1.449   3.057
10416SOL    HW232148   6.534   1.491   2.984
10417SOL     OW32149   3.771   5.182   4.183
10417SOL    HW132150   3.789   5.195   4.085
10417SOL    HW232151   3.849   5.137   4.225
10418SOL     OW32152   0.205   4.742   5.721
10418SOL    HW132153   0.180   4.839   5.718
10418SOL    HW232154   0.299   4.731   5.687
10419SOL     OW32155   1.529   0.652   0.180
10419SOL    HW132156   1.510   0.657   0.278
10419SOL    HW232157   1.443   0.654   0.129
10420SOL     OW32158   6.976   3.475   2.493
10420SOL    HW132159   6.892   3.435   2.531
10420SOL    HW232160   0.011   3.402   2.461
10421SOL     OW32161   1.053   1.660   3.252
10421SOL    HW132162   1.009   1.737   3.205
10421SOL    HW232163   1.084   1.593   3.186
10422SOL     OW32164   6.413   2.158   5.501
10422SOL    HW132165   6.415   2.195   5.408
10422SOL    HW232166   6.499   2.181   5.548
10423SOL     OW32167   4.764   5.001   4.550
10423SOL    HW132168   4.750   4.934   4.623
10423SOL    HW232169   4.760   5.094   4.588
10424SOL     OW32170   5.686   2.791   0.478
10424SOL    HW132171   5.730   2.872   0.517
10424SOL    HW232172   5.610   2.819   0.420
10425SOL     OW32173   2.139   6.662   2.423
10425SOL    HW132174   2.202   6.670   2.346
10425SOL    HW232175   2.094   6.750   2.439
10426SOL     OW32176   6.792   3.682   0.903
10426SOL    HW132177   6.700   3.698   0.866
10426SOL    HW232178   6.825   3.593   0.872
10427SOL     OW32179   4.394   1.300   0.594
10427SOL    HW132180   4.304   1.336   0.618
10427SOL    HW232181   4.414   1.321   0.498
10428SOL     OW32182   3.200   1.647   4.682
10428SOL    HW132183   3.275   1.586   4.658
10428SOL    HW232184   3.234   1.740   4.692
10429SOL     OW32185   6.933   5.692   1.204
10429SOL    HW132186   6.920   5.693   1.105
10429SOL    HW232187   6.864   5.750   1.248
10430SOL     OW32188   4.312   0.142   3.780
10430SOL    HW132189   4.217   0.171   3.795
10430SOL    HW232190   4.370   0.181   3.851
10431SOL     OW32191   3.360   6.807   5.506
10431SOL    HW132192   3.415   6.827   5.425
10431SOL    HW232193   3.320   6.892   5.541
10432SOL     OW32194   6.566   0.995   4.338
10432SOL    HW132195   6.508   1.026   4.263
10432SOL    HW232196   6.537   0.904   4.367
10433SOL     OW32197   1.360   6.189   1.468
10433SOL    HW132198   1.406   6.173   1.380
10433SOL    HW232199   1.283   6.125   1.476
10434SOL     OW32200   3.595   6.497   3.109
10434SOL    HW132201   3.559   6.582   3.072
10434SOL    HW232202   3.620   6.510   3.205
10435SOL     OW32203   6.165   0.589   4.810
10435SOL    HW132204   6.213   0.631   4.733
10435SOL    HW232205   6.228   0.528   4.859
10436SOL     OW32206   1.164   4.791   4.732
10436SOL    HW132207   1.237   4.858   4.725
10436SOL    HW232208   1.187   4.724   4.803
10437SOL     OW32209   6.440   5.215   5.306
10437SOL    HW132210   6.490   5.138   5.345
10437SOL    HW232211   6.383   5.257   5.377
10438SOL     OW32212   5.224   6.708   0.224
10438SOL    HW132213   5.310   6.660   0.241
10438SOL    HW232214   5.165   6.652   0.166
10439SOL     OW32215   3.452   1.563   5.930
10439SOL    HW132216   3.402   1.592   6.012
10439SOL    HW232217   3.545   1.599   5.933
10440SOL     OW32218   0.141   5.756   0.769
10440SOL    HW132219   0.071   5.731   0.703
10440SOL    HW232220   0.163   5.853   0.760
10441SOL     OW32221   4.871   1.599   6.553
10441SOL    HW132222   4.933   1.590   6.631
10441SOL    HW232223   4.779   1.623   6.587
10442SOL     OW32224   3.247   5.247   5.325
10442SOL    HW132225   3.316   5.179   5.352
10442SOL    HW232226   3.287   5.338   5.327
10443SOL     OW32227   4.918   3.377   4.680
10443SOL    HW132228   4.857   3.455   4.663
10443SOL    HW232229   4.983   3.369   4.605
10444SOL     OW32230   3.971   5.159   4.565
10444SOL    HW132231   3.896   5.094   4.559
10444SOL    HW232232   4.049   5.117   4.612
10445SOL     OW32233   0.787   4.731   4.263
10445SOL    HW132234   0.764   4.729   4.360
10445SOL    HW232235   0.705   4.752   4.209
10446SOL     OW32236   0.852   4.093   6.150
10446SOL    HW132237   0.847   4.134   6.059
10446SOL    HW232238   0.947   4.087   6.179
10447SOL     OW32239   0.360   1.298   2.035
10447SOL    HW132240   0.457   1.323   2.038
10447SOL    HW232241   0.316   1.327   2.119
10448SOL     OW32242   4.199   3.332   1.061
10448SOL    HW132243   4.262   3.304   1.133
10448SOL    HW232244   4.219   3.280   0.977
10449SOL     OW32245   2.888   5.388   4.069
10449SOL    HW132246   2.883   5.402   4.168
10449SOL    HW232247   2.796   5.392   4.030
10450SOL     OW32248   0.897   2.499   6.799
10450SOL    HW132249   0.902   2.514   6.897
10450SOL    HW232250   0.828   2.429   6.780
10451SOL     OW32251   2.849   4.861   2.712
10451SOL    HW132252   2.836   4.959   2.694
10451SOL    HW232253   2.863   4.813   2.626
10452SOL     OW32254   6.508   3.664   3.420
10452SOL    HW132255   6.530   3.740   3.358
10452SOL    HW232256   6.562   3.584   3.394
10453SOL     OW32257   5.845   6.000   1.777
10453SOL    HW132258   5.858   5.920   1.718
10453SOL    HW232259   5.752   6.035   1.767
10454SOL     OW32260   5.574   2.874   1.874
10454SOL    HW132261   5.517   2.809   1.925
10454SOL    HW232262   5.648   2.907   1.932
10455SOL     OW32263   0.299   5.058   3.518
10455SOL    HW132264   0.350   5.068   3.432
10455SOL    HW232265   0.307   5.142   3.571
10456SOL     OW32266   2.888   6.085   1.196
10456SOL    HW132267   2.899   6.083   1.295
10456SOL    HW232268   2.868   6.179   1.167
10457SOL     OW32269   3.356   3.267   4.168
10457SOL    HW132270   3.375   3.177   4.129
10457SOL    HW232271   3.260   3.291   4.150
10458SOL     OW32272   0.093   6.809   6.956
10458SOL    HW132273   0.169   6.744   6.955
10458SOL    HW232274   0.056   6.817   6.863
10459SOL     OW32275   6.000   5.628   2.678
10459SOL    HW132276   6.076   5.636   2.742
10459SOL    HW232277   5.916   5.658   2.722
10460SOL     OW32278   2.140   6.000   1.386
10460SOL    HW132279   2.237   6.013   1.407
10460SOL    HW232280   2.130   5.929   1.317
10461SOL     OW32281   1.613   6.526   6.156
10461SOL    HW132282   1.624   6.615   6.201
10461SOL    HW232283   1.533   6.529   6.097
10462SOL     OW32284   6.163   1.098   1.496
10462SOL    HW132285   6.082   1.050   1.529
10462SOL    HW232286   6.192   1.166   1.563
10463SOL     OW32287   3.117   4.011   6.185
10463SOL    HW132288   3.043   3.980   6.125
10463SOL    HW232289   3.149   4.101   6.156
10464SOL     OW32290   4.573   0.100   0.993
10464SOL    HW132291   4.568   0.199   1.007
10464SOL    HW232292   4.535   0.053   1.073
10465SOL     OW32293   0.331   7.018   6.196
10465SOL    HW132294   0.341   6.955   6.273
10465SOL    HW232295   0.235   0.019   6.186
10466SOL     OW32296   4.787   5.618   5.193
10466SOL    HW132297   4.793   5.658   5.102
10466SOL    HW232298   4.876   5.625   5.239
10467SOL     OW32299   1.675   1.801   5.460
10467SOL    HW132300   1.729   1.741   5.401
10467SOL    HW232301   1.640   1.748   5.538
10468SOL     OW32302   3.569   6.260   4.175
10468SOL    HW132303   3.652   6.311   4.193
10468SOL    HW232304   3.578   6.213   4.087
10469SOL     OW32305   2.149   3.694   1.249
10469SOL    HW132306   2.185   3.764   1.311
10469SOL    HW232307   2.180   3.604   1.278
10470SOL     OW32308   2.491   1.956   4.016
10470SOL    HW132309   2.513   1.916   3.928
10470SOL    HW232310   2.447   2.044   4.003
10471SOL     OW32311   2.470   3.858   1.712
10471SOL    HW132312   2.374   3.831   1.717
10471SOL    HW232313   2.526   3.778   1.689
10472SOL     OW32314   3.967   6.951   2.128
10472SOL    HW132315   3.916   0.007   2.101
10472SOL    HW232316   4.060   6.977   2.154
10473SOL     OW32317   5.838   6.944   0.629
10473SOL    HW132318   5.910   6.889   0.672
10473SOL    HW232319   5.844   6.935   0.530
10474SOL     OW32320   4.326   0.845   4.298
10474SOL    HW132321   4.233   0.834   4.264
10474SOL    HW232322   4.346   0.772   4.364
10475SOL     OW32323   4.186   5.859   0.979
10475SOL    HW132324   4.186   5.762   0.956
10475SOL    HW232325   4.230   5.873   1.068
10476SOL     OW32326   6.535   5.429   0.070
10476SOL    HW132327   6.471   5.378   0.128
10476SOL    HW232328   6.525   5.400   7.000
10477SOL     OW32329   5.314   3.375   4.558
10477SOL    HW132330   5.285   3.316   4.482
10477SOL    HW232331   5.235   3.424   4.594
10478SOL     OW32332   0.679   6.902   6.954
10478SOL    HW132333   0.627   6.858   6.880
10478SOL    HW232334   0.777   6.898   6.932
10479SOL     OW32335   1.324   3.254   1.984
10479SOL    HW132336   1.353   3.240   2.078
10479SOL    HW232337   1.247   3.317   1.982
10480SOL     OW32338   5.555   6.424   1.864
10480SOL    HW132339   5.598   6.504   1.906
10480SOL    HW232340   5.461   6.447   1.837
10481SOL     OW32341   2.657   0.916   4.863
10481SOL    HW132342   2.577   0.973   4.882
10481SOL    HW232343   2.740   0.971   4.875
10482SOL     OW32344   1.234   6.689   4.660
10482SOL    HW132345   1.159   6.636   4.621
10482SOL    HW232346   1.321   6.655   4.624
10483SOL     OW32347   6.285   5.561   0.306
10483SOL    HW132348   6.268   5.488   0.373
10483SOL    HW232349   6.237   5.539   0.221
10484SOL     OW32350   6.855   0.842   1.361
10484SOL    HW132351   6.859   0.745   1.383
10484SOL    HW232352   6.911   0.860   1.280
10485SOL     OW32353   2.986   3.826   2.947
10485SOL    HW132354   2.959   3.898   2.883
10485SOL    HW232355   2.986   3.738   2.900
10486SOL     OW32356   6.830   0.242   5.875
10486SOL    HW132357   6.851   0.328   5.830
10486SOL    HW232358   6.882   0.168   5.833
10487SOL     OW32359   4.836   1.448   1.572
10487SOL    HW132360   4.816   1.545   1.561
10487SOL    HW232361   4.796   1.397   1.496
10488SOL     OW32362   0.573   2.270   5.604
10488SOL    HW132363   0.524   2.234   5.683
10488SOL    HW232364   0.665   2.298   5.632
10489SOL     OW32365   6.201   5.074   3.856
10489SOL    HW132366   6.145   5.132   3.915
10489SOL    HW232367   6.145   4.997   3.823
10490SOL     OW32368   5.771   0.437   1.018
10490SOL    HW132369   5.716   0.491   0.955
10490SOL    HW232370   5.733   0.345   1.027
10491SOL     OW32371   1.620   3.281   6.817
10491SOL    HW132372   1.664   3.192   6.824
10491SOL    HW232373   1.690   3.353   6.826
10492SOL     OW32374   5.170   0.109   0.667
10492SOL    HW132375   5.246   0.048   0.688
10492SOL    HW232376   5.204   0.187   0.615
10493SOL     OW32377   4.363   5.552   1.173
10493SOL    HW132378   4.318   5.596   1.095
10493SOL    HW232379   4.444   5.604   1.199
10494SOL     OW32380   0.799   4.845   6.598
10494SOL    HW132381   0.884   4.865   6.549
10494SOL    HW232382   0.817   4.776   6.668
10495SOL     OW32383   0.435   6.320   5.839
10495SOL    HW132384   0.469   6.230   5.810
10495SOL    HW232385   0.360   6.348   5.779
10496SOL     OW32386   6.696   3.448   5.432
10496SOL    HW132387   6.755   3.499   5.370
10496SOL    HW232388   6.636   3.387   5.380
10497SOL     OW32389   2.568   6.943   2.028
10497SOL    HW132390   2.605   6.917   1.939
10497SOL    HW232391   2.496   7.011   2.015
10498SOL     OW32392   4.866   5.416   0.495
10498SOL    HW132393   4.767   5.408   0.491
10498SOL    HW232394   4.897   5.403   0.589
10499SOL     OW32395   6.207   5.941   1.781
10499SOL    HW132396   6.226   5.986   1.694
10499SOL    HW232397   6.219   5.842   1.772
10500SOL     OW32398   5.359   4.502   5.010
10500SOL    HW132399   5.434   4.478   4.949
10500SOL    HW232400   5.359   4.601   5.024
10501SOL     OW32401   2.522   5.784   2.281
10501SOL    HW132402   2.529   5.687   2.257
10501SOL    HW232403   2.492   5.836   2.200
10502SOL     OW32404   2.886   3.464   2.643
10502SOL    HW132405   2.867   3.537   2.577
10502SOL    HW232406   2.911   3.380   2.594
10503SOL     OW32407   0.040   3.587   6.453
10503SOL    HW132408   0.091   3.552   6.531
10503SOL    HW232409   0.078   3.550   6.369
10504SOL     OW32410   1.704   3.351   6.271
10504SOL    HW132411   1.803   3.346   6.285
10504SOL    HW232412   1.666   3.258   6.273
10505SOL     OW32413   5.744   6.253   2.005
10505SOL    HW132414   5.649   6.280   1.985
10505SOL    HW232415   5.798   6.335   2.025
10506SOL     OW32416   0.685   2.871   6.720
10506SOL    HW132417   0.716   2.966   6.727
10506SOL    HW232418   0.739   2.813   6.781
10507SOL     OW32419   2.555   5.023   6.876
10507SOL    HW132420   2.622   4.949   6.870
10507SOL    HW232421   2.579   5.094   6.809
10508SOL     OW32422   1.058   5.125   5.479
10508SOL    HW132423   1.120   5.202   5.488
10508SOL    HW232424   1.109   5.040   5.494
10509SOL     OW32425   5.008   3.211   3.802
10509SOL    HW132426   5.054   3.276   3.742
10509SOL    HW232427   4.954   3.261   3.870
10510SOL     OW32428   4.700   5.704   4.941
10510SOL    HW132429   4.708   5.780   4.876
10510SOL    HW232430   4.611   5.708   4.986
10511SOL     OW32431   2.903   1.611   2.029
10511SOL    HW132432   2.898   1.614   1.930
10511SOL    HW232433   2.986   1.658   2.060
10512SOL     OW32434   4.656   0.644   5.384
10512SOL    HW132435   4.647   0.708   5.461
10512SOL    HW232436   4.568   0.635   5.338
10513SOL     OW32437   5.350   2.935   2.198
10513SOL    HW132438   5.256   2.916   2.171
10513SOL    HW232439   5.403   2.963   2.118
10514SOL     OW32440   1.107   2.825   1.826
10514SOL    HW132441   1.150   2.807   1.738
10514SOL    HW232442   1.171   2.804   1.900
10515SOL     OW32443   2.084   3.268   4.917
10515SOL    HW132444   2.112   3.362   4.937
10515SOL    HW232445   1.996   3.249   4.961
10516SOL     OW32446   3.502   2.598   0.085
10516SOL    HW132447   3.514   2.506   0.123
10516SOL    HW232448   3.406   2.624   0.090
10517SOL     OW32449   1.134   3.107   3.512
10517SOL    HW132450   1.211   3.090   3.450
10517SOL    HW232451   1.154   3.067   3.602
10518SOL     OW32452   0.669   5.286   2.097
10518SOL    HW132453   0.735   5.320   2.030
10518SOL    HW232454   0.609   5.220   2.052
10519SOL     OW32455   2.181   6.229   1.085
10519SOL    HW132456   2.122   6.254   1.161
10519SOL    HW232457   2.146   6.147   1.041
10520SOL     OW32458   6.542   1.030   6.468
10520SOL    HW132459   6.594   1.115   6.477
10520SOL    HW232460   6.560   0.972   6.547
10521SOL     OW32461   6.284   3.161   1.658
10521SOL    HW132462   6.333   3.159   1.745
10521SOL    HW232463   6.308   3.244   1.609
10522SOL     OW32464   5.737   2.442   2.774
10522SOL    HW132465   5.713   2.534   2.806
10522SOL    HW232466   5.723   2.376   2.848
10523SOL     OW32467   0.592   4.149   3.999
10523SOL    HW132468   0.547   4.232   3.969
10523SOL    HW232469   0.686   4.147   3.963
10524SOL     OW32470   6.635   5.607   4.492
10524SOL    HW132471   6.703   5.631   4.423
10524SOL    HW232472   6.658   5.652   4.578
10525SOL     OW32473   4.427   1.084   4.423
10525SOL    HW132474   4.376   1.155   4.374
10525SOL    HW232475   4.363   1.015   4.457
10526SOL     OW32476   0.426   5.524   0.313
10526SOL    HW132477   0.524   5.506   0.316
10526SOL    HW232478   0.384   5.502   0.401
10527SOL     OW32479   0.808   1.421   4.858
10527SOL    HW132480   0.748   1.474   4.918
10527SOL    HW232481   0.869   1.483   4.809
10528SOL     OW32482   0.776   4.893   7.016
10528SOL    HW132483   0.704   4.941   6.965
10528SOL    HW232484   0.766   4.794   7.002
10529SOL     OW32485   1.607   6.753   6.308
10529SOL    HW132486   1.577   6.831   6.254
10529SOL    HW232487   1.682   6.780   6.368
10530SOL     OW32488   1.053   0.154   6.922
10530SOL    HW132489   1.019   0.159   7.016
10530SOL    HW232490   1.049   0.060   6.890
10531SOL     OW32491   2.965   2.473   5.328
10531SOL    HW132492   3.053   2.449   5.289
10531SOL    HW232493   2.938   2.565   5.298
10532SOL     OW32494   5.531   6.469   6.546
10532SOL    HW132495   5.514   6.535   6.473
10532SOL    HW232496   5.582   6.391   6.509
10533SOL     OW32497   3.588   5.784   3.829
10533SOL    HW132498   3.538   5.849   3.887
10533SOL    HW232499   3.575   5.808   3.733
10534SOL     OW32500   0.626   6.114   2.463
10534SOL    HW132501   0.677   6.176   2.523
10534SOL    HW232502   0.529   6.119   2.485
10535SOL     OW32503   2.774   1.345   2.603
10535SOL    HW132504   2.771   1.438   2.564
10535SOL    HW232505   2.839   1.290   2.551
10536SOL     OW32506   4.792   1.250   4.427
10536SOL    HW132507   4.821   1.244   4.332
10536SOL    HW232508   4.739   1.168   4.451
10537SOL     OW32509   4.981   0.009   3.139
10537SOL    HW132510   5.023   0.037   3.225
10537SOL    HW232511   5.005   6.939   3.120
10538SOL     OW32512   6.612   3.102   2.583
10538SOL    HW132513   6.551   3.181   2.579
10538SOL    HW232514   6.561   3.022   2.616
10539SOL     OW32515   6.094   6.434   2.873
10539SOL    HW132516   6.019   6.472   2.818
10539SOL    HW232517   6.126   6.349   2.831
10540SOL     OW32518   2.700   3.945   6.472
10540SOL    HW132519   2.662   3.984   6.388
10540SOL    HW232520   2.644   3.869   6.503
10541SOL     OW32521   3.005   3.148   5.140
10541SOL    HW132522   3.049   3.098   5.214
10541SOL    HW232523   2.930   3.204   5.176
10542SOL     OW32524   6.283   6.965   4.389
10542SOL    HW132525   6.296   6.902   4.466
10542SOL    HW232526   6.264   0.031   4.424
10543SOL     OW32527   6.938   3.088   5.758
10543SOL    HW132528   6.942   3.172   5.704
10543SOL    HW232529   6.943   3.009   5.697
10544SOL     OW32530   1.160   1.478   3.470
10544SOL    HW132531   1.115   1.407   3.417
10544SOL    HW232532   1.210   1.539   3.409
10545SOL     OW32533   2.564   2.174   2.844
10545SOL    HW132534   2.641   2.227   2.879
10545SOL    HW232535   2.497   2.160   2.917
10546SOL     OW32536   3.326   6.353   1.036
10546SOL    HW132537   3.349   6.282   1.103
10546SOL    HW232538   3.403   6.368   0.975
10547SOL     OW32539   4.382   6.711   5.260
10547SOL    HW132540   4.473   6.711   5.302
10547SOL    HW232541   4.375   6.786   5.195
10548SOL     OW32542   1.049   4.624   4.247
10548SOL    HW132543   1.102   4.660   4.324
10548SOL    HW232544   0.952   4.644   4.260
10549SOL     OW32545   0.366   1.215   0.779
10549SOL    HW132546   0.329   1.255   0.695
10549SOL    HW232547   0.336   1.120   0.787
10550SOL     OW32548   4.007   6.186   2.837
10550SOL    HW132549   4.024   6.264   2.897
10550SOL    HW232550   4.061   6.108   2.868
10551SOL     OW32551   2.991   2.049   5.889
10551SOL    HW132552   2.941   1.978   5.840
10551SOL    HW232553   3.059   2.090   5.828
10552SOL     OW32554   3.675   0.963   4.681
10552SOL    HW132555   3.734   0.990   4.757
10552SOL    HW232556   3.689   0.867   4.659
10553SOL     OW32557   0.387   5.291   0.772
10553SOL    HW132558   0.455   5.221   0.752
10553SOL    HW232559   0.368   5.293   0.870
10554SOL     OW32560   6.477   5.144   2.697
10554SOL    HW132561   6.463   5.046   2.692
10554SOL    HW232562   6.520   5.168   2.784
10555SOL     OW32563   3.385   2.002   0.544
10555SOL    HW132564   3.470   2.037   0.583
10555SOL    HW232565   3.404   1.960   0.455
10556SOL     OW32566   1.783   1.551   3.351
10556SOL    HW132567   1.784   1.573   3.253
10556SOL    HW232568   1.847   1.477   3.369
10557SOL     OW32569   2.137   3.569   3.630
10557SOL    HW132570   2.099   3.584   3.721
10557SOL    HW232571   2.155   3.657   3.586
10558SOL     OW32572   2.894   5.546   5.178
10558SOL    HW132573   2.899   5.490   5.261
10558SOL    HW232574   2.969   5.521   5.116
10559SOL     OW32575   3.328   0.379   6.863
10559SOL    HW132576   3.330   0.430   6.949
10559SOL    HW232577   3.235   0.345   6.847
10560SOL     OW32578   5.006   6.613   1.424
10560SOL    HW132579   5.048   6.541   1.370
10560SOL    HW232580   5.074   6.681   1.450
10561SOL     OW32581   5.665   4.037   1.063
10561SOL    HW132582   5.575   4.080   1.069
10561SOL    HW232583   5.661   3.959   1.000
10562SOL     OW32584   2.950   6.710   1.563
10562SOL    HW132585   2.986   6.769   1.635
10562SOL    HW232586   2.867   6.664   1.595
10563SOL     OW32587   0.437   0.015   0.521
10563SOL    HW132588   0.364   7.022   0.587
10563SOL    HW232589   0.491   6.958   0.507
10564SOL     OW32590   6.347   5.568   4.067
10564SOL    HW132591   6.407   5.502   4.020
10564SOL    HW232592   6.378   5.580   4.161
10565SOL     OW32593   6.458   6.635   5.603
10565SOL    HW132594   6.451   6.660   5.507
10565SOL    HW232595   6.367   6.635   5.644
10566SOL     OW32596   2.964   2.506   0.523
10566SOL    HW132597   2.914   2.579   0.570
10566SOL    HW232598   2.906   2.467   0.452
10567SOL     OW32599   1.844   2.687   6.332
10567SOL    HW132600   1.897   2.698   6.248
10567SOL    HW232601   1.823   2.777   6.370
10568SOL     OW32602   5.163   2.642   5.900
10568SOL    HW132603   5.222   2.689   5.965
10568SOL    HW232604   5.081   2.697   5.884
10569SOL     OW32605   5.358   0.262   1.906
10569SOL    HW132606   5.276   0.246   1.962
10569SOL    HW232607   5.420   0.185   1.916
10570SOL     OW32608   0.724   5.021   4.594
10570SOL    HW132609   0.794   4.950   4.601
10570SOL    HW232610   0.633   4.978   4.600
10571SOL     OW32611   0.033   4.724   5.923
10571SOL    HW132612   6.973   4.684   5.892
10571SOL    HW232613   0.101   4.720   5.849
10572SOL     OW32614   6.554   4.458   1.313
10572SOL    HW132615   6.494   4.527   1.355
10572SOL    HW232616   6.627   4.504   1.262
10573SOL     OW32617   6.192   0.522   3.931
10573SOL    HW132618   6.268   0.461   3.952
10573SOL    HW232619   6.218   0.616   3.951
10574SOL     OW32620   7.002   1.365   3.221
10574SOL    HW132621   0.047   1.295   3.203
10574SOL    HW232622   6.958   1.345   3.309
10575SOL     OW32623   6.393   1.030   2.107
10575SOL    HW132624   6.368   1.076   2.022
10575SOL    HW232625   6.453   1.089   2.162
10576SOL     OW32626   2.467   4.778   3.405
10576SOL    HW132627   2.441   4.710   3.337
10576SOL    HW232628   2.388   4.799   3.463
10577SOL     OW32629   4.045   6.103   1.038
10577SOL    HW132630   4.077   6.013   1.009
10577SOL    HW232631   4.013   6.099   1.133
10578SOL     OW32632   6.486   2.092   4.040
10578SOL    HW132633   6.529   2.013   4.084
10578SOL    HW232634   6.502   2.174   4.096
10579SOL     OW32635   2.621   2.984   1.180
10579SOL    HW132636   2.545   3.017   1.236
10579SOL    HW232637   2.595   2.987   1.083
10580SOL     OW32638   6.392   6.759   6.527
10580SOL    HW132639   6.343   6.672   6.527
10580SOL    HW232640   6.490   6.742   6.532
10581SOL     OW32641   5.395   0.017   3.634
10581SOL    HW132642   5.347   7.011   3.715
10581SOL    HW232643   5.493   0.019   3.652
10582SOL     OW32644   5.412   5.045   6.724
10582SOL    HW132645   5.398   5.059   6.626
10582SOL    HW232646   5.324   5.031   6.768
10583SOL     OW32647   2.648   0.295   3.561
10583SOL    HW132648   2.560   0.287   3.515
10583SOL    HW232649   2.722   0.288   3.494
10584SOL     OW32650   6.961   6.970   5.418
10584SOL    HW132651   6.952   6.962   5.319
10584SOL    HW232652   7.008   0.030   5.440
10585SOL     OW32653   0.367   1.690   5.777
10585SOL    HW132654   0.453   1.700   5.827
10585SOL    HW232655   0.332   1.598   5.790
10586SOL     OW32656   5.040   4.524   5.644
10586SOL    HW132657   5.113   4.459   5.625
10586SOL    HW232658   4.953   4.486   5.614
10587SOL     OW32659   0.985   5.767   5.636
10587SOL    HW132660   1.059   5.833   5.653
10587SOL    HW232661   1.024   5.679   5.612
10588SOL     OW32662   1.120   3.495   4.072
10588SOL    HW132663   1.109   3.496   4.171
10588SOL    HW232664   1.048   3.440   4.030
10589SOL     OW32665   5.203   6.223   3.886
10589SOL    HW132666   5.277   6.157   3.875
10589SOL    HW232667   5.211   6.269   3.974
10590SOL     OW32668   0.571   5.552   1.840
10590SOL    HW132669   0.535   5.642   1.815
10590SOL    HW232670   0.512   5.481   1.803
10591SOL     OW32671   1.089   1.708   1.318
10591SOL    HW132672   1.045   1.795   1.297
10591SOL    HW232673   1.156   1.688   1.247
10592SOL     OW32674   5.972   1.913   5.290
10592SOL    HW132675   6.013   1.824   5.309
10592SOL    HW232676   5.985   1.936   5.193
10593SOL     OW32677   2.911   6.681   1.267
10593SOL    HW132678   2.843   6.608   1.268
10593SOL    HW232679   2.935   6.706   1.360
10594SOL     OW32680   3.829   0.060   3.208
10594SOL    HW132681   3.899   7.015   3.195
10594SOL    HW232682   3.850   0.138   3.149
10595SOL     OW32683   5.906   0.751   0.585
10595SOL    HW132684   5.899   0.670   0.643
10595SOL    HW232685   5.883   0.727   0.490
10596SOL     OW32686   4.130   1.515   6.666
10596SOL    HW132687   4.223   1.501   6.701
10596SOL    HW232688   4.064   1.478   6.731
10597SOL     OW32689   2.400   0.237   6.139
10597SOL    HW132690   2.363   0.166   6.079
10597SOL    HW232691   2.405   0.203   6.233
10598SOL     OW32692   2.690   1.895   5.896
10598SOL    HW132693   2.764   1.855   5.950
10598SOL    HW232694   2.690   1.854   5.805
10599SOL     OW32695   0.060   3.822   6.254
10599SOL    HW132696   0.073   3.767   6.336
10599SOL    HW232697   6.988   3.828   6.232
10600SOL     OW32698   2.422   1.958   1.975
10600SOL    HW132699   2.412   1.904   2.059
10600SOL    HW232700   2.375   2.045   1.986
10601SOL     OW32701   6.963   6.802   6.701
10601SOL    HW132702   6.916   6.832   6.618
10601SOL    HW232703   6.906   6.735   6.749
10602SOL     OW32704   0.175   7.008   0.280
10602SOL    HW132705   0.107   7.011   0.207
10602SOL    HW232706   0.144   0.040   0.357
10603SOL     OW32707   4.518   6.590   1.883
10603SOL    HW132708   4.608   6.586   1.926
10603SOL    HW232709   4.504   6.680   1.842
10604SOL     OW32710   0.560   6.971   5.136
10604SOL    HW132711   0.545   0.011   5.210
10604SOL    HW232712   0.594   7.018   5.055
10605SOL     OW32713   2.388   1.230   0.937
10605SOL    HW132714   2.297   1.258   0.967
10605SOL    HW232715   2.379   1.154   0.872
10606SOL     OW32716   6.266   0.958   1.295
10606SOL    HW132717   6.311   0.875   1.328
10606SOL    HW232718   6.226   1.007   1.373
10607SOL     OW32719   4.397   4.199   6.092
10607SOL    HW132720   4.314   4.155   6.126
10607SOL    HW232721   4.463   4.209   6.166
10608SOL     OW32722   6.312   2.665   2.740
10608SOL    HW132723   6.243   2.593   2.734
10608SOL    HW232724   6.392   2.630   2.790
10609SOL     OW32725   3.585   0.436   0.193
10609SOL    HW132726   3.503   0.379   0.193
10609SOL    HW232727   3.639   0.416   0.276
10610SOL     OW32728   0.007   1.447   4.660
10610SOL    HW132729   7.002   1.512   4.592
10610SOL    HW232730   0.063   1.493   4.728
10611SOL     OW32731   2.331   5.701   4.737
10611SOL    HW132732   2.367   5.768   4.802
10611SOL    HW232733   2.383   5.616   4.745
10612SOL     OW32734   5.238   1.184   3.947
10612SOL    HW132735   5.152   1.134   3.958
10612SOL    HW232736   5.268   1.178   3.851
10613SOL     OW32737   6.444   6.821   3.958
10613SOL    HW132738   6.381   6.825   4.036
10613SOL    HW232739   6.516   6.890   3.969
10614SOL     OW32740   5.029   0.658   6.386
10614SOL    HW132741   5.017   0.749   6.346
10614SOL    HW232742   5.008   0.661   6.483
10615SOL     OW32743   2.620   2.117   6.351
10615SOL    HW132744   2.688   2.044   6.362
10615SOL    HW232745   2.662   2.196   6.307
10616SOL     OW32746   2.863   6.241   6.621
10616SOL    HW132747   2.950   6.207   6.657
10616SOL    HW232748   2.879   6.326   6.572
10617SOL     OW32749   2.809   3.054   1.530
10617SOL    HW132750   2.778   2.988   1.599
10617SOL    HW232751   2.908   3.066   1.537
10618SOL     OW32752   0.826   5.483   4.819
10618SOL    HW132753   0.768   5.412   4.779
10618SOL    HW232754   0.921   5.450   4.822
10619SOL     OW32755   1.117   1.920   3.098
10619SOL    HW132756   1.171   1.943   3.179
10619SOL    HW232757   1.176   1.875   3.031
10620SOL     OW32758   2.204   6.819   5.950
10620SOL    HW132759   2.231   6.782   5.861
10620SOL    HW232760   2.286   6.846   6.001
10621SOL     OW32761   1.235   3.755   3.155
10621SOL    HW132762   1.184   3.839   3.134
10621SOL    HW232763   1.182   3.676   3.126
10622SOL     OW32764   4.542   2.932   0.838
10622SOL    HW132765   4.489   2.898   0.916
10622SOL    HW232766   4.640   2.927   0.859
10623SOL     OW32767   5.864   5.958   6.324
10623SOL    HW132768   5.838   5.948   6.228
10623SOL    HW232769   5.878   6.055   6.345
10624SOL     OW32770   0.806   2.343   5.261
10624SOL    HW132771   0.839   2.352   5.355
10624SOL    HW232772   0.872   2.290   5.208
10625SOL     OW32773   6.688   3.775   6.724
10625SOL    HW132774   6.716   3.735   6.637
10625SOL    HW232775   6.766   3.777   6.787
10626SOL     OW32776   4.170   3.081   1.647
10626SOL    HW132777   4.195   3.025   1.568
10626SOL    HW232778   4.106   3.031   1.704
10627SOL     OW32779   5.839   6.701   5.977
10627SOL    HW132780   5.796   6.739   6.059
10627SOL    HW232781   5.848   6.602   5.988
10628SOL     OW32782   4.300   0.654   0.382
10628SOL    HW132783   4.363   0.603   0.324
10628SOL    HW232784   4.278   0.600   0.463
10629SOL     OW32785   3.880   5.245   4.878
10629SOL    HW132786   3.974   5.240   4.844
10629SOL    HW232787   3.823   5.179   4.829
10630SOL     OW32788   4.401   0.500   2.968
10630SOL    HW132789   4.487   0.551   2.964
10630SOL    HW232790   4.413   0.418   3.023
10631SOL     OW32791   4.604   5.695   0.169
10631SOL    HW132792   4.677   5.712   0.235
10631SOL    HW232793   4.527   5.756   0.189
10632SOL     OW32794   4.878   5.632   3.011
10632SOL    HW132795   4.963   5.603   3.054
10632SOL    HW232796   4.810   5.650   3.081
10633SOL     OW32797   2.061   2.908   1.954
10633SOL    HW132798   2.075   2.950   1.865
10633SOL    HW232799   2.128   2.944   2.019
10634SOL     OW32800   1.189   4.478   6.901
10634SOL    HW132801   1.260   4.540   6.869
10634SOL    HW232802   1.232   4.393   6.935
10635SOL     OW32803   2.474   3.533   0.470
10635SOL    HW132804   2.480   3.632   0.458
10635SOL    HW232805   2.513   3.488   0.390
10636SOL     OW32806   6.495   2.430   6.791
10636SOL    HW132807   6.542   2.360   6.737
10636SOL    HW232808   6.530   2.520   6.765
10637SOL     OW32809   2.927   6.491   6.503
10637SOL    HW132810   2.854   6.521   6.442
10637SOL    HW232811   3.010   6.544   6.484
10638SOL     OW32812   6.763   5.315   1.870
10638SOL    HW132813   6.789   5.391   1.929
10638SOL    HW232814   6.720   5.243   1.924
10639SOL     OW32815   2.334   3.549   1.578
10639SOL    HW132816   2.326   3.520   1.674
10639SOL    HW232817   2.377   3.477   1.525
10640SOL     OW32818   3.923   0.061   3.950
10640SOL    HW132819   3.990   0.122   3.908
10640SOL    HW232820   3.832   0.099   3.939
10641SOL     OW32821   1.014   0.247   3.507
10641SOL    HW132822   0.949   0.207   3.443
10641SOL    HW232823   0.986   0.340   3.530
10642SOL     OW32824   6.192   2.591   0.088
10642SOL    HW132825   6.134   2.610   0.009
10642SOL    HW232826   6.248   2.510   0.070
10643SOL     OW32827   1.610   4.919   5.214
10643SOL    HW132828   1.559   4.962   5.289
10643SOL    HW232829   1.619   4.984   5.139
10644SOL     OW32830   0.178   2.368   2.449
10644SOL    HW132831   0.110   2.435   2.419
10644SOL    HW232832   0.257   2.416   2.488
10645SOL     OW32833   2.419   2.706   3.236
10645SOL    HW132834   2.369   2.739   3.316
10645SOL    HW232835   2.498   2.764   3.220
10646SOL     OW32836   5.045   1.348   4.180
10646SOL    HW132837   5.012   1.414   4.113
10646SOL    HW232838   5.023   1.255   4.150
10647SOL     OW32839   4.318   5.119   5.383
10647SOL    HW132840   4.267   5.156   5.306
10647SOL    HW232841   4.294   5.022   5.395
10648SOL     OW32842   6.192   5.063   5.366
10648SOL    HW132843   6.134   5.139   5.337
10648SOL    HW232844   6.232   5.020   5.285
10649SOL     OW32845   0.190   3.274   3.839
10649SOL    HW132846   0.262   3.340   3.815
10649SOL    HW232847   0.228   3.182   3.836
10650SOL     OW32848   6.935   7.011   4.100
10650SOL    HW132849   6.980   0.047   4.034
10650SOL    HW232850   6.846   0.022   4.125
10651SOL     OW32851   5.140   6.246   6.033
10651SOL    HW132852   5.135   6.212   6.127
10651SOL    HW232853   5.162   6.170   5.972
10652SOL     OW32854   1.226   6.910   6.213
10652SOL    HW132855   1.156   6.962   6.262
10652SOL    HW232856   1.301   6.889   6.275
10653SOL     OW32857   3.653   6.119   5.104
10653SOL    HW132858   3.633   6.213   5.129
10653SOL    HW232859   3.568   6.068   5.093
10654SOL     OW32860   5.099   1.479   4.394
10654SOL    HW132861   5.012   1.509   4.434
10654SOL    HW232862   5.082   1.415   4.320
10655SOL     OW32863   1.169   4.775   1.144
10655SOL    HW132864   1.221   4.689   1.151
10655SOL    HW232865   1.089   4.771   1.204
10656SOL     OW32866   6.526   1.335   1.861
10656SOL    HW132867   6.438   1.292   1.878
10656SOL    HW232868   6.528   1.368   1.766
10657SOL     OW32869   6.209   0.747   4.236
10657SOL    HW132870   6.110   0.761   4.243
10657SOL    HW232871   6.249   0.743   4.327
10658SOL     OW32872   5.484   3.295   4.771
10658SOL    HW132873   5.444   3.216   4.815
10658SOL    HW232874   5.423   3.327   4.697
10659SOL     OW32875   0.871   4.586   0.970
10659SOL    HW132876   0.833   4.671   0.933
10659SOL    HW232877   0.954   4.562   0.919
10660SOL     OW32878   6.219   3.598   5.542
10660SOL    HW132879   6.180   3.669   5.484
10660SOL    HW232880   6.175   3.599   5.632
10661SOL     OW32881   1.078   4.243   0.725
10661SOL    HW132882   1.171   4.255   0.690
10661SOL    HW232883   1.024   4.324   0.703
10662SOL     OW32884   2.953   1.186   2.420
10662SOL    HW132885   2.912   1.235   2.343
10662SOL    HW232886   3.047   1.160   2.397
10663SOL     OW32887   1.336   1.032   3.440
10663SOL    HW132888   1.354   1.128   3.460
10663SOL    HW232889   1.314   1.021   3.343
10664SOL     OW32890   1.136   5.019   4.427
10664SOL    HW132891   1.231   5.013   4.455
10664SOL    HW232892   1.104   4.929   4.397
10665SOL     OW32893   2.156   3.354   6.772
10665SOL    HW132894   2.196   3.410   6.845
10665SOL    HW232895   2.181   3.258   6.785
10666SOL     OW32896   3.826   3.296   2.491
10666SOL    HW132897   3.732   3.304   2.461
10666SOL    HW232898   3.853   3.199   2.493
10667SOL     OW32899   5.171   1.835   2.910
10667SOL    HW132900   5.205   1.858   3.001
10667SOL    HW232901   5.083   1.880   2.894
10668SOL     OW32902   3.586   1.905   5.279
10668SOL    HW132903   3.525   1.968   5.230
10668SOL    HW232904   3.611   1.829   5.219
10669SOL     OW32905   5.803   0.732   0.332
10669SOL    HW132906   5.774   0.670   0.260
10669SOL    HW232907   5.857   0.807   0.293
10670SOL     OW32908   5.174   3.980   4.298
10670SOL    HW132909   5.195   3.963   4.201
10670SOL    HW232910   5.185   4.078   4.317
10671SOL     OW32911   1.062   1.727   4.256
10671SOL    HW132912   1.115   1.684   4.182
10671SOL    HW232913   1.042   1.822   4.233
10672SOL     OW32914   6.388   4.305   1.655
10672SOL    HW132915   6.403   4.224   1.712
10672SOL    HW232916   6.393   4.387   1.711
10673SOL     OW32917   2.185   0.693   0.693
10673SOL    HW132918   2.232   0.710   0.780
10673SOL    HW232919   2.144   0.778   0.660
10674SOL     OW32920   4.036   3.394   4.685
10674SOL    HW132921   4.125   3.405   4.730
10674SOL    HW232922   3.995   3.307   4.714
10675SOL     OW32923   3.220   1.233   6.578
10675SOL    HW132924   3.254   1.294   6.649
10675SOL    HW232925   3.121   1.243   6.569
10676SOL     OW32926   0.892   5.868   4.688
10676SOL    HW132927   0.832   5.821   4.754
10676SOL    HW232928   0.894   5.966   4.709
10677SOL     OW32929   1.675   1.469   1.136
10677SOL    HW132930   1.737   1.392   1.133
10677SOL    HW232931   1.599   1.449   1.199
10678SOL     OW32932   3.843   5.177   3.895
10678SOL    HW132933   3.841   5.244   3.821
10678SOL    HW232934   3.929   5.127   3.893
10679SOL     OW32935   3.776   4.896   0.476
10679SOL    HW132936   3.801   4.992   0.484
10679SOL    HW232937   3.843   4.848   0.419
10680SOL     OW32938   3.541   1.737   4.311
10680SOL    HW132939   3.582   1.649   4.290
10680SOL    HW232940   3.445   1.725   4.334
10681SOL     OW32941   0.286   3.834   0.056
10681SOL    HW132942   0.214   3.873   0.114
10681SOL    HW232943   0.320   3.750   0.098
10682SOL     OW32944   6.198   3.211   4.972
10682SOL    HW132945   6.229   3.303   4.998
10682SOL    HW232946   6.101   3.214   4.949
10683SOL     OW32947   4.292   0.380   3.362
10683SOL    HW132948   4.303   0.308   3.431
10683SOL    HW232949   4.321   0.467   3.401
10684SOL     OW32950   4.638   5.456   1.229
10684SOL    HW132951   4.627   5.529   1.296
10684SOL    HW232952   4.688   5.380   1.270
10685SOL     OW32953   6.709   5.864   1.304
10685SOL    HW132954   6.619   5.860   1.260
10685SOL    HW232955   6.749   5.954   1.289
10686SOL     OW32956   2.611   4.511   6.176
10686SOL    HW132957   2.680   4.502   6.247
10686SOL    HW232958   2.529   4.555   6.214
10687SOL     OW32959   6.272   5.048   3.389
10687SOL    HW132960   6.366   5.068   3.363
10687SOL    HW232961   6.265   4.953   3.420
10688SOL     OW32962   5.722   1.341   2.193
10688SOL    HW132963   5.712   1.382   2.284
10688SOL    HW232964   5.713   1.413   2.123
10689SOL     OW32965   0.270   0.036   1.573
10689SOL    HW132966   0.318   0.114   1.533
10689SOL    HW232967   0.216   7.015   1.502
10690SOL     OW32968   0.053   4.927   3.869
10690SOL    HW132969   0.149   4.928   3.841
10690SOL    HW232970   0.015   5.020   3.862
10691SOL     OW32971   2.056   1.582   2.058
10691SOL    HW132972   2.065   1.558   2.155
10691SOL    HW232973   2.140   1.627   2.027
10692SOL     OW32974   3.034   0.827   4.620
10692SOL    HW132975   3.052   0.806   4.525
10692SOL    HW232976   3.107   0.886   4.656
10693SOL     OW32977   0.695   6.026   1.546
10693SOL    HW132978   0.783   5.985   1.571
10693SOL    HW232979   0.633   5.954   1.513
10694SOL     OW32980   5.094   6.712   6.124
10694SOL    HW132981   5.092   6.775   6.047
10694SOL    HW232982   5.001   6.678   6.142
10695SOL     OW32983   1.253   2.806   1.576
10695SOL    HW132984   1.235   2.758   1.490
10695SOL    HW232985   1.350   2.831   1.580
10696SOL     OW32986   6.051   3.730   5.356
10696SOL    HW132987   5.988   3.727   5.278
10696SOL    HW232988   6.078   3.825   5.373
10697SOL     OW32989   0.242   6.393   5.678
10697SOL    HW132990   0.267   6.483   5.641
10697SOL    HW232991   0.146   6.374   5.658
10698SOL     OW32992   4.470   4.556   0.528
10698SOL    HW132993   4.522   4.475   0.553
10698SOL    HW232994   4.532   4.631   0.504
10699SOL     OW32995   3.883   4.208   0.842
10699SOL    HW132996   3.949   4.162   0.782
10699SOL    HW232997   3.805   4.148   0.857
10700SOL     OW32998   5.611   0.236   0.973
10700SOL    HW132999   5.678   0.162   0.983
10700SOL    HW233000   5.554   0.240   1.055
10701SOL     OW33001   3.216   0.300   6.134
10701SOL    HW133002   3.190   0.384   6.085
10701SOL    HW233003   3.275   0.324   6.211
10702SOL     OW33004   5.027   3.755   2.921
10702SOL    HW133005   4.996   3.732   2.829
10702SOL    HW233006   5.112   3.808   2.916
10703SOL     OW33007   2.231   3.013   5.614
10703SOL    HW133008   2.282   2.987   5.532
10703SOL    HW233009   2.251   3.108   5.637
10704SOL     OW33010   0.234   4.919   2.773
10704SOL    HW133011   0.217   4.933   2.871
10704SOL    HW233012   0.322   4.872   2.761
10705SOL     OW33013   5.814   5.224   1.185
10705SOL    HW133014   5.848   5.317   1.177
10705SOL    HW233015   5.715   5.223   1.170
10706SOL     OW33016   4.521   6.790   1.384
10706SOL    HW133017   4.592   6.723   1.364
10706SOL    HW233018   4.461   6.755   1.456
10707SOL     OW33019   0.313   6.702   4.057
10707SOL    HW133020   0.257   6.770   4.010
10707SOL    HW233021   0.255   6.630   4.094
10708SOL     OW33022   4.579   0.819   1.512
10708SOL    HW133023   4.674   0.834   1.538
10708SOL    HW233024   4.544   0.901   1.465
10709SOL     OW33025   5.633   4.884   4.783
10709SOL    HW133026   5.536   4.902   4.766
10709SOL    HW233027   5.679   4.969   4.807
10710SOL     OW33028   6.053   0.878   3.790
10710SOL    HW133029   6.108   0.876   3.874
10710SOL    HW233030   6.112   0.865   3.711
10711SOL     OW33031   2.538   6.878   4.141
10711SOL    HW133032   2.471   6.872   4.215
10711SOL    HW233033   2.547   6.789   4.097
10712SOL     OW33034   3.636   0.072   2.613
10712SOL    HW133035   3.619   0.050   2.709
10712SOL    HW233036   3.585   0.155   2.588
10713SOL     OW33037   1.309   2.645   0.050
10713SOL    HW133038   1.221   2.633   0.097
10713SOL    HW233039   1.297   2.625   6.978
10714SOL     OW33040   4.203   3.526   5.340
10714SOL    HW133041   4.174   3.589   5.268
10714SOL    HW233042   4.302   3.513   5.335
10715SOL     OW33043   4.556   0.459   2.223
10715SOL    HW133044   4.519   0.367   2.242
10715SOL    HW233045   4.535   0.484   2.129
10716SOL     OW33046   5.916   2.998   3.104
10716SOL    HW133047   5.928   2.926   3.036
10716SOL    HW233048   5.893   2.957   3.192
10717SOL     OW33049   1.696   3.081   0.915
10717SOL    HW133050   1.611   3.077   0.967
10717SOL    HW233051   1.715   3.175   0.888
10718SOL     OW33052   1.240   4.070   0.134
10718SOL    HW133053   1.174   4.105   0.201
10718SOL    HW233054   1.294   3.997   0.175
10719SOL     OW33055   6.525   5.826   3.415
10719SOL    HW133056   6.453   5.876   3.367
10719SOL    HW233057   6.561   5.883   3.490
10720SOL     OW33058   5.971   5.204   4.607
10720SOL    HW133059   5.978   5.233   4.702
10720SOL    HW233060   5.980   5.284   4.547
10721SOL     OW33061   5.305   3.831   5.234
10721SOL    HW133062   5.260   3.764   5.175
10721SOL    HW233063   5.329   3.912   5.181
10722SOL     OW33064   0.115   4.757   0.703
10722SOL    HW133065   0.208   4.756   0.739
10722SOL    HW233066   0.082   4.663   0.694
10723SOL     OW33067   0.251   2.063   6.343
10723SOL    HW133068   0.195   2.071   6.260
10723SOL    HW233069   0.345   2.040   6.317
10724SOL     OW33070   6.040   6.767   6.253
10724SOL    HW133071   6.117   6.815   6.295
10724SOL    HW233072   6.073   6.688   6.202
10725SOL     OW33073   2.032   5.769   5.187
10725SOL    HW133074   1.937   5.765   5.154
10725SOL    HW233075   2.093   5.789   5.110
10726SOL     OW33076   5.825   0.941   4.015
10726SOL    HW133077   5.726   0.953   4.008
10726SOL    HW233078   5.866   0.944   3.924
10727SOL     OW33079   0.631   5.214   6.078
10727SOL    HW133080   0.721   5.189   6.113
10727SOL    HW233081   0.640   5.264   5.993
10728SOL     OW33082   1.066   5.046   6.839
10728SOL    HW133083   1.089   4.971   6.901
10728SOL    HW233084   0.967   5.063   6.843
10729SOL     OW33085   5.888   1.257   2.520
10729SOL    HW133086   5.948   1.303   2.586
10729SOL    HW233087   5.825   1.324   2.480
10730SOL     OW33088   2.497   0.344   1.317
10730SOL    HW133089   2.430   0.270   1.318
10730SOL    HW233090   2.570   0.322   1.252
10731SOL     OW33091   3.308   1.231   0.233
10731SOL    HW133092   3.222   1.184   0.253
10731SOL    HW233093   3.371   1.167   0.189
10732SOL     OW33094   0.368   4.474   5.194
10732SOL    HW133095   0.278   4.484   5.237
10732SOL    HW233096   0.420   4.558   5.207
10733SOL     OW33097   6.607   1.977   6.431
10733SOL    HW133098   6.704   1.992   6.451
10733SOL    HW233099   6.559   1.954   6.516
10734SOL     OW33100   1.244   0.987   0.650
10734SOL    HW133101   1.161   0.955   0.605
10734SOL    HW233102   1.309   1.020   0.581
10735SOL     OW33103   0.402   2.956   2.121
10735SOL    HW133104   0.437   3.040   2.162
10735SOL    HW233105   0.321   2.977   2.065
10736SOL     OW33106   0.967   0.543   3.573
10736SOL    HW133107   0.960   0.564   3.671
10736SOL    HW233108   0.876   0.545   3.532
10737SOL     OW33109   1.623   1.810   0.447
10737SOL    HW133110   1.680   1.729   0.439
10737SOL    HW233111   1.672   1.881   0.497
10738SOL     OW33112   2.941   6.786   2.975
10738SOL    HW133113   2.893   6.769   2.889
10738SOL    HW233114   3.030   6.828   2.956
10739SOL     OW33115   1.854   0.965   1.947
10739SOL    HW133116   1.771   0.997   1.901
10739SOL    HW233117   1.909   1.044   1.976
10740SOL     OW33118   0.192   5.258   5.512
10740SOL    HW133119   0.193   5.358   5.513
10740SOL    HW233120   0.204   5.225   5.418
10741SOL     OW33121   4.141   0.949   1.442
10741SOL    HW133122   4.180   0.963   1.533
10741SOL    HW233123   4.067   1.014   1.426
10742SOL     OW33124   5.655   6.909   1.264
10742SOL    HW133125   5.751   6.937   1.259
10742SOL    HW233126   5.642   6.826   1.209
10743SOL     OW33127   1.159   2.797   5.768
10743SOL    HW133128   1.093   2.871   5.778
10743SOL    HW233129   1.232   2.808   5.836
10744SOL     OW33130   3.043   1.299   0.889
10744SOL    HW133131   2.979   1.372   0.914
10744SOL    HW233132   3.133   1.320   0.928
10745SOL     OW33133   6.572   5.801   5.786
10745SOL    HW133134   6.495   5.850   5.828
10745SOL    HW233135   6.573   5.707   5.819
10746SOL     OW33136   2.070   4.700   1.091
10746SOL    HW133137   2.131   4.653   1.155
10746SOL    HW233138   1.982   4.718   1.135
10747SOL     OW33139   3.794   1.027   4.928
10747SOL    HW133140   3.893   1.025   4.945
10747SOL    HW233141   3.761   1.121   4.939
10748SOL     OW33142   5.484   1.294   0.531
10748SOL    HW133143   5.428   1.374   0.507
10748SOL    HW233144   5.559   1.323   0.590
10749SOL     OW33145   0.204   5.517   3.873
10749SOL    HW133146   0.230   5.545   3.780
10749SOL    HW233147   0.148   5.588   3.915
10750SOL     OW33148   4.526   6.137   5.024
10750SOL    HW133149   4.558   6.122   4.930
10750SOL    HW233150   4.509   6.049   5.067
10751SOL     OW33151   1.541   4.712   4.197
10751SOL    HW133152   1.565   4.729   4.102
10751SOL    HW233153   1.504   4.796   4.237
10752SOL     OW33154   6.225   4.840   5.180
10752SOL    HW133155   6.297   4.849   5.111
10752SOL    HW233156   6.200   4.744   5.190
10753SOL     OW33157   6.189   4.952   4.282
10753SOL    HW133158   6.213   4.874   4.225
10753SOL    HW233159   6.121   4.923   4.350
10754SOL     OW33160   0.522   6.804   3.616
10754SOL    HW133161   0.562   6.867   3.549
10754SOL    HW233162   0.495   6.719   3.570
10755SOL     OW33163   0.108   0.367   0.721
10755SOL    HW133164   0.121   0.300   0.648
10755SOL    HW233165   0.170   0.346   0.797
10756SOL     OW33166   6.465   5.143   6.210
10756SOL    HW133167   6.367   5.124   6.211
10756SOL    HW233168   6.496   5.157   6.116
10757SOL     OW33169   1.506   2.686   0.227
10757SOL    HW133170   1.491   2.776   0.270
10757SOL    HW233171   1.432   2.668   0.163
10758SOL     OW33172   0.711   5.843   4.268
10758SOL    HW133173   0.617   5.863   4.296
10758SOL    HW233174   0.774   5.905   4.315
10759SOL     OW33175   1.471   4.059   1.440
10759SOL    HW133176   1.520   4.080   1.525
10759SOL    HW233177   1.385   4.110   1.437
10760SOL     OW33178   5.117   0.316   3.069
10760SOL    HW133179   5.017   0.311   3.059
10760SOL    HW233180   5.141   0.300   3.164
10761SOL     OW33181   0.498   6.035   5.822
10761SOL    HW133182   0.589   6.052   5.784
10761SOL    HW233183   0.446   5.979   5.758
10762SOL     OW33184   2.871   1.529   4.406
10762SOL    HW133185   2.920   1.611   4.438
10762SOL    HW233186   2.845   1.541   4.311
10763SOL     OW33187   3.803   6.772   2.461
10763SOL    HW133188   3.837   6.688   2.420
10763SOL    HW233189   3.825   6.850   2.402
10764SOL     OW33190   5.460   2.301   5.454
10764SOL    HW133191   5.513   2.247   5.519
10764SOL    HW233192   5.369   2.318   5.491
10765SOL     OW33193   4.841   2.881   0.542
10765SOL    HW133194   4.850   2.943   0.465
10765SOL    HW233195   4.745   2.861   0.558
10766SOL     OW33196   3.994   5.241   0.688
10766SOL    HW133197   4.012   5.167   0.623
10766SOL    HW233198   4.024   5.213   0.779
10767SOL     OW33199   1.929   0.339   1.563
10767SOL    HW133200   1.908   0.244   1.540
10767SOL    HW233201   1.858   0.375   1.622
10768SOL     OW33202   5.182   5.212   1.420
10768SOL    HW133203   5.157   5.131   1.473
10768SOL    HW233204   5.109   5.232   1.355
10769SOL     OW33205   2.329   4.151   5.354
10769SOL    HW133206   2.365   4.092   5.282
10769SOL    HW233207   2.280   4.094   5.421
10770SOL     OW33208   5.204   6.303   4.151
10770SOL    HW133209   5.136   6.250   4.202
10770SOL    HW233210   5.235   6.379   4.208
10771SOL     OW33211   4.733   6.840   4.270
10771SOL    HW133212   4.807   6.828   4.204
10771SOL    HW233213   4.771   6.857   4.360
10772SOL     OW33214   6.332   0.112   4.793
10772SOL    HW133215   6.356   0.035   4.734
10772SOL    HW233216   6.344   0.198   4.744
10773SOL     OW33217   5.719   5.279   6.582
10773SOL    HW133218   5.707   5.339   6.503
10773SOL    HW233219   5.676   5.320   6.662
10774SOL     OW33220   2.074   1.439   6.029
10774SOL    HW133221   2.022   1.357   6.003
10774SOL    HW233222   2.058   1.510   5.960
10775SOL     OW33223   0.618   4.538   2.799
10775SOL    HW133224   0.659   4.505   2.885
10775SOL    HW233225   0.533   4.586   2.819
10776SOL     OW33226   0.383   0.955   6.210
10776SOL    HW133227   0.308   0.893   6.186
10776SOL    HW233228   0.420   0.996   6.127
10777SOL     OW33229   3.847   5.434   1.783
10777SOL    HW133230   3.771   5.370   1.787
10777SOL    HW233231   3.863   5.461   1.688
10778SOL     OW33232   4.780   0.091   3.521
10778SOL    HW133233   4.760   7.020   3.539
10778SOL    HW233234   4.870   0.114   3.558
10779SOL     OW33235   5.704   3.060   3.376
10779SOL    HW133236   5.670   3.151   3.398
10779SOL    HW233237   5.752   3.022   3.455
10780SOL     OW33238   1.834   0.561   4.215
10780SOL    HW133239   1.885   0.624   4.158
10780SOL    HW233240   1.738   0.590   4.219
10781SOL     OW33241   4.366   1.057   3.914
10781SOL    HW133242   4.315   0.990   3.859
10781SOL    HW233243   4.377   1.141   3.861
10782SOL     OW33244   0.044   0.827   3.007
10782SOL    HW133245   0.119   0.766   3.032
10782SOL    HW233246   6.996   0.820   3.074
10783SOL     OW33247   0.724   2.243   2.453
10783SOL    HW133248   0.645   2.185   2.470
10783SOL    HW233249   0.780   2.204   2.380
10784SOL     OW33250   4.022   0.689   4.423
10784SOL    HW133251   3.931   0.723   4.400
10784SOL    HW233252   4.033   0.596   4.387
10785SOL     OW33253   1.043   3.979   0.754
10785SOL    HW133254   1.065   4.074   0.732
10785SOL    HW233255   1.074   3.920   0.680
10786SOL     OW33256   6.230   5.279   3.274
10786SOL    HW133257   6.232   5.202   3.337
10786SOL    HW233258   6.194   5.250   3.186
10787SOL     OW33259   1.492   1.116   6.086
10787SOL    HW133260   1.584   1.138   6.119
10787SOL    HW233261   1.477   1.162   5.999
10788SOL     OW33262   1.350   4.285   0.012
10788SOL    HW133263   1.449   4.279   0.018
10788SOL    HW233264   1.308   4.204   0.053
10789SOL     OW33265   6.793   3.407   6.779
10789SOL    HW133266   6.805   3.308   6.785
10789SOL    HW233267   6.697   3.431   6.797
10790SOL     OW33268   0.746   6.611   1.953
10790SOL    HW133269   0.703   6.689   1.907
10790SOL    HW233270   0.739   6.530   1.895
10791SOL     OW33271   0.350   5.706   1.815
10791SOL    HW133272   0.350   5.799   1.778
10791SOL    HW233273   0.258   5.668   1.811
10792SOL     OW33274   3.335   2.883   4.875
10792SOL    HW133275   3.290   2.794   4.888
10792SOL    HW233276   3.371   2.915   4.962
10793SOL     OW33277   6.444   3.976   6.193
10793SOL    HW133278   6.452   3.877   6.197
10793SOL    HW233279   6.487   4.016   6.274
10794SOL     OW33280   3.952   3.771   4.135
10794SOL    HW133281   3.929   3.860   4.175
10794SOL    HW233282   3.920   3.768   4.041
10795SOL     OW33283   0.149   5.299   2.866
10795SOL    HW133284   0.151   5.241   2.785
10795SOL    HW233285   0.207   5.259   2.937
10796SOL     OW33286   6.754   6.809   5.495
10796SOL    HW133287   6.822   6.876   5.466
10796SOL    HW233288   6.799   6.740   5.552
10797SOL     OW33289   2.963   2.324   1.211
10797SOL    HW133290   2.911   2.339   1.127
10797SOL    HW233291   2.929   2.385   1.283
10798SOL     OW33292   2.321   1.027   0.752
10798SOL    HW133293   2.286   0.987   0.667
10798SOL    HW233294   2.327   0.956   0.823
10799SOL     OW33295   4.122   1.063   2.044
10799SOL    HW133296   4.054   1.045   1.973
10799SOL    HW233297   4.173   0.980   2.064
10800SOL     OW33298   1.057   6.207   5.521
10800SOL    HW133299   1.059   6.165   5.430
10800SOL    HW233300   1.089   6.140   5.589
10801SOL     OW33301   0.916   6.973   6.809
10801SOL    HW133302   0.941   6.882   6.777
10801SOL    HW233303   0.829   7.000   6.770
10802SOL     OW33304   0.617   0.458   2.513
10802SOL    HW133305   0.590   0.383   2.574
10802SOL    HW233306   0.681   0.423   2.444
10803SOL     OW33307   1.459   5.549   5.337
10803SOL    HW133308   1.458   5.508   5.428
10803SOL    HW233309   1.495   5.483   5.271
10804SOL     OW33310   6.341   3.177   2.869
10804SOL    HW133311   6.254   3.223   2.853
10804SOL    HW233312   6.414   3.245   2.876
10805SOL     OW33313   5.031   0.790   4.914
10805SOL    HW133314   4.982   0.875   4.895
10805SOL    HW233315   5.129   0.804   4.899
10806SOL     OW33316   3.503   4.106   6.301
10806SOL    HW133317   3.552   4.193   6.304
10806SOL    HW233318   3.563   4.035   6.266
10807SOL     OW33319   1.242   6.436   3.625
10807SOL    HW133320   1.179   6.469   3.695
10807SOL    HW233321   1.289   6.354   3.658
10808SOL     OW33322   6.858   2.307   5.927
10808SOL    HW133323   6.858   2.292   6.026
10808SOL    HW233324   6.913   2.387   5.905
10809SOL     OW33325   2.531   4.509   3.778
10809SOL    HW133326   2.532   4.488   3.876
10809SOL    HW233327   2.533   4.424   3.725
10810SOL     OW33328   0.055   0.114   3.925
10810SOL    HW133329   0.122   0.051   3.883
10810SOL    HW233330   0.095   0.205   3.931
10811SOL     OW33331   4.221   4.865   5.451
10811SOL    HW133332   4.133   4.836   5.413
10811SOL    HW233333   4.268   4.786   5.491
10812SOL     OW33334   6.881   3.828   6.918
10812SOL    HW133335   6.882   3.792   7.011
10812SOL    HW233336   6.975   3.831   6.882
10813SOL     OW33337   0.753   3.677   6.117
10813SOL    HW133338   0.845   3.651   6.088
10813SOL    HW233339   0.759   3.727   6.204
10814SOL     OW33340   2.010   0.026   6.674
10814SOL    HW133341   1.913   0.023   6.651
10814SOL    HW233342   2.031   0.114   6.717
10815SOL     OW33343   5.194   2.889   2.600
10815SOL    HW133344   5.104   2.856   2.628
10815SOL    HW233345   5.186   2.982   2.564
10816SOL     OW33346   3.493   3.565   2.604
10816SOL    HW133347   3.524   3.555   2.699
10816SOL    HW233348   3.393   3.567   2.602
10817SOL     OW33349   3.745   0.707   4.012
10817SOL    HW133350   3.800   0.629   4.043
10817SOL    HW233351   3.677   0.675   3.946
10818SOL     OW33352   4.533   4.421   5.685
10818SOL    HW133353   4.491   4.386   5.768
10818SOL    HW233354   4.565   4.515   5.700
10819SOL     OW33355   6.149   5.365   6.387
10819SOL    HW133356   6.055   5.335   6.368
10819SOL    HW233357   6.158   5.462   6.367
10820SOL     OW33358   6.994   5.169   4.261
10820SOL    HW133359   0.051   5.136   4.214
10820SOL    HW233360   6.923   5.187   4.193
10821SOL     OW33361   4.342   6.844   2.085
10821SOL    HW133362   4.280   6.842   2.163
10821SOL    HW233363   4.416   6.778   2.098
10822SOL     OW33364   6.757   1.646   2.086
10822SOL    HW133365   6.754   1.702   2.004
10822SOL    HW233366   6.731   1.701   2.166
10823SOL     OW33367   0.335   0.409   2.904
10823SOL    HW133368   0.434   0.406   2.887
10823SOL    HW233369   0.318   0.465   2.985
10824SOL     OW33370   0.591   0.911   2.474
10824SOL    HW133371   0.526   0.840   2.446
10824SOL    HW233372   0.582   0.990   2.413
10825SOL     OW33373   1.518   2.518   0.441
10825SOL    HW133374   1.528   2.592   0.374
10825SOL    HW233375   1.583   2.445   0.420
10826SOL     OW33376   0.475   1.689   2.429
10826SOL    HW133377   0.440   1.602   2.465
10826SOL    HW233378   0.575   1.683   2.419
10827SOL     OW33379   6.815   3.384   4.613
10827SOL    HW133380   6.888   3.396   4.546
10827SOL    HW233381   6.789   3.287   4.616
10828SOL     OW33382   0.681   4.131   0.948
10828SOL    HW133383   0.676   4.071   0.867
10828SOL    HW233384   0.766   4.182   0.946
10829SOL     OW33385   4.889   3.626   0.395
10829SOL    HW133386   4.926   3.660   0.309
10829SOL    HW233387   4.943   3.548   0.427
10830SOL     OW33388   4.508   1.819   3.278
10830SOL    HW133389   4.409   1.807   3.285
10830SOL    HW233390   4.548   1.824   3.370
10831SOL     OW33391   2.931   6.301   2.164
10831SOL    HW133392   2.898   6.386   2.122
10831SOL    HW233393   2.931   6.312   2.264
10832SOL     OW33394   6.502   3.741   6.920
10832SOL    HW133395   6.483   3.645   6.942
10832SOL    HW233396   6.572   3.746   6.850
10833SOL     OW33397   0.476   2.345   0.414
10833SOL    HW133398   0.459   2.368   0.510
10833SOL    HW233399   0.512   2.252   0.408
10834SOL     OW33400   6.935   1.798   6.945
10834SOL    HW133401   6.998   1.865   6.905
10834SOL    HW233402   6.987   1.730   6.996
10835SOL     OW33403   5.821   3.217   0.351
10835SOL    HW133404   5.909   3.258   0.326
10835SOL    HW233405   5.836   3.148   0.423
10836SOL     OW33406   0.099   1.176   2.624
10836SOL    HW133407   0.168   1.147   2.557
10836SOL    HW233408   0.126   1.145   2.715
10837SOL     OW33409   6.901   4.811   1.975
10837SOL    HW133410   6.905   4.804   1.875
10837SOL    HW233411   6.931   4.901   2.004
10838SOL     OW33412   5.628   6.676   4.093
10838SOL    HW133413   5.633   6.659   4.192
10838SOL    HW233414   5.715   6.651   4.051
10839SOL     OW33415   4.506   3.193   0.730
10839SOL    HW133416   4.558   3.209   0.814
10839SOL    HW233417   4.500   3.095   0.713
10840SOL     OW33418   3.528   6.883   2.491
10840SOL    HW133419   3.586   6.803   2.473
10840SOL    HW233420   3.584   6.957   2.527
10841SOL     OW33421   6.539   5.142   5.039
10841SOL    HW133422   6.457   5.135   4.982
10841SOL    HW233423   6.514   5.179   5.128
10842SOL     OW33424   4.977   2.290   1.308
10842SOL    HW133425   4.929   2.242   1.382
10842SOL    HW233426   4.923   2.284   1.224
10843SOL     OW33427   1.784   1.479   1.433
10843SOL    HW133428   1.828   1.492   1.345
10843SOL    HW233429   1.853   1.455   1.502
10844SOL     OW33430   0.003   4.742   3.155
10844SOL    HW133431   0.078   4.767   3.216
10844SOL    HW233432   6.943   4.740   3.206
10845SOL     OW33433   4.403   5.915   5.406
10845SOL    HW133434   4.361   5.847   5.466
10845SOL    HW233435   4.380   6.007   5.439
10846SOL     OW33436   5.367   0.120   6.805
10846SOL    HW133437   5.308   0.153   6.879
10846SOL    HW233438   5.313   0.065   6.741
10847SOL     OW33439   3.008   2.075   0.144
10847SOL    HW133440   2.917   2.096   0.109
10847SOL    HW233441   3.045   1.995   0.096
10848SOL     OW33442   0.562   3.859   0.639
10848SOL    HW133443   0.565   3.871   0.540
10848SOL    HW233444   0.647   3.893   0.679
10849SOL     OW33445   2.448   4.515   4.350
10849SOL    HW133446   2.378   4.447   4.331
10849SOL    HW233447   2.457   4.577   4.273
10850SOL     OW33448   3.638   6.351   6.872
10850SOL    HW133449   3.638   6.430   6.810
10850SOL    HW233450   3.707   6.365   6.944
10851SOL     OW33451   3.191   4.192   1.091
10851SOL    HW133452   3.227   4.285   1.092
10851SOL    HW233453   3.230   4.142   1.013
10852SOL     OW33454   1.972   1.278   6.740
10852SOL    HW133455   1.935   1.346   6.804
10852SOL    HW233456   1.975   1.189   6.785
10853SOL     OW33457   2.368   3.205   6.121
10853SOL    HW133458   2.333   3.277   6.181
10853SOL    HW233459   2.463   3.186   6.145
10854SOL     OW33460   4.546   5.251   5.439
10854SOL    HW133461   4.571   5.311   5.363
10854SOL    HW233462   4.462   5.202   5.417
10855SOL     OW33463   4.006   0.781   0.734
10855SOL    HW133464   3.993   0.752   0.829
10855SOL    HW233465   4.087   0.735   0.697
10856SOL     OW33466   6.851   1.097   0.024
10856SOL    HW133467   6.925   1.163   0.007
10856SOL    HW233468   6.768   1.146   0.051
10857SOL     OW33469   0.374   2.428   2.818
10857SOL    HW133470   0.406   2.506   2.762
10857SOL    HW233471   0.275   2.417   2.806
10858SOL     OW33472   1.080   0.035   0.668
10858SOL    HW133473   1.154   0.016   0.733
10858SOL    HW233474   0.993   0.034   0.716
10859SOL     OW33475   0.227   4.419   4.614
10859SOL    HW133476   0.295   4.396   4.544
10859SOL    HW233477   0.258   4.499   4.666
10860SOL     OW33478   0.325   3.016   4.585
10860SOL    HW133479   0.258   3.083   4.554
10860SOL    HW233480   0.417   3.048   4.561
10861SOL     OW33481   3.253   2.913   2.638
10861SOL    HW133482   3.339   2.895   2.591
10861SOL    HW233483   3.190   2.960   2.576
10862SOL     OW33484   1.748   0.815   5.137
10862SOL    HW133485   1.726   0.912   5.130
10862SOL    HW233486   1.779   0.781   5.048
10863SOL     OW33487   2.501   0.373   4.505
10863SOL    HW133488   2.510   0.276   4.485
10863SOL    HW233489   2.469   0.384   4.599
10864SOL     OW33490   3.228   6.480   0.349
10864SOL    HW133491   3.277   6.565   0.369
10864SOL    HW233492   3.143   6.502   0.302
10865SOL     OW33493   6.801   1.401   0.443
10865SOL    HW133494   6.746   1.328   0.404
10865SOL    HW233495   6.792   1.399   0.543
10866SOL     OW33496   5.564   4.864   0.872
10866SOL    HW133497   5.652   4.854   0.919
10866SOL    HW233498   5.514   4.778   0.875
10867SOL     OW33499   2.912   4.611   0.536
10867SOL    HW133500   2.994   4.628   0.482
10867SOL    HW233501   2.935   4.558   0.617
10868SOL     OW33502   5.246   1.827   4.051
10868SOL    HW133503   5.298   1.817   3.967
10868SOL    HW233504   5.253   1.742   4.104
10869NA      NA33505   6.353   3.215   5.561
10870NA      NA33506   4.594   4.545   5.095
10871NA      NA33507   1.706   2.995   1.712
10872NA      NA33508   5.086   3.802   5.340
10873NA      NA33509   4.184   2.298   5.209
10874NA      NA33510   3.678   4.838   1.744
10875NA      NA33511   6.603   5.046   6.384
10876NA      NA33512   3.137   3.510   4.834
10877NA      NA33513   4.507   6.187   6.941
10878NA      NA33514   3.834   6.427   5.518
10879NA      NA33515   6.655   5.122   2.527
10880NA      NA33516   2.338   0.343   3.339
10881NA      NA33517   4.212   5.598   1.906
10882NA      NA33518   3.994   3.459   2.427
   7.02537   7.02537   7.02537
