Generated by trjconv : CNT in water t= 564.00000
33518
    1C        C    1   2.845   2.773   4.748
    1C        C    2   2.898   2.720   4.868
    1C        C    3   2.848   2.776   4.986
    1C        C    4   2.860   2.784   4.260
    1C        C    5   2.909   2.734   4.383
    1C        C    6   2.851   2.776   4.505
    1C        C    7   3.016   2.644   4.627
    1C        C    8   2.902   2.728   4.627
    1C        C    9   3.079   2.605   4.747
    1C        C   10   3.010   2.634   4.867
    1C        C   11   3.182   2.501   4.976
    1C        C   12   3.060   2.569   4.980
    1C        C   13   2.858   2.779   3.774
    1C        C   14   2.911   2.733   3.896
    1C        C   15   2.859   2.783   4.017
    1C        C   16   3.025   2.650   4.140
    1C        C   17   2.911   2.733   4.139
    1C        C   18   3.087   2.616   4.263
    1C        C   19   3.026   2.654   4.384
    1C        C   20   3.214   2.560   4.506
    1C        C   21   3.082   2.611   4.507
    1C        C   22   3.283   2.539   4.627
    1C        C   23   3.210   2.550   4.748
    1C        C   24   3.416   2.483   4.869
    1C        C   25   3.275   2.510   4.867
    1C        C   26   3.491   2.478   4.987
    1C        C   27   2.860   2.777   3.283
    1C        C   28   2.916   2.736   3.407
    1C        C   29   2.864   2.783   3.530
    1C        C   30   3.023   2.645   3.652
    1C        C   31   2.910   2.729   3.653
    1C        C   32   3.085   2.611   3.775
    1C        C   33   3.023   2.647   3.897
    1C        C   34   3.216   2.558   4.016
    1C        C   35   3.087   2.614   4.018
    1C        C   36   3.281   2.535   4.139
    1C        C   37   3.218   2.563   4.262
    1C        C   38   3.422   2.510   4.383
    1C        C   39   3.284   2.542   4.385
    1C        C   40   3.490   2.502   4.506
    1C        C   41   3.421   2.508   4.629
    1C        C   42   3.633   2.487   4.749
    1C        C   43   3.491   2.483   4.749
    1C        C   44   3.706   2.492   4.870
    1C        C   45   3.630   2.483   4.988
    1C        C   46   2.841   2.757   2.795
    1C        C   47   2.899   2.713   2.916
    1C        C   48   2.851   2.765   3.039
    1C        C   49   3.023   2.642   3.163
    1C        C   50   2.911   2.728   3.161
    1C        C   51   3.087   2.608   3.285
    1C        C   52   3.025   2.647   3.406
    1C        C   53   3.210   2.548   3.526
    1C        C   54   3.082   2.608   3.529
    1C        C   55   3.276   2.521   3.648
    1C        C   56   3.211   2.548   3.771
    1C        C   57   3.418   2.499   3.895
    1C        C   58   3.279   2.529   3.893
    1C        C   59   3.489   2.498   4.017
    1C        C   60   3.419   2.503   4.140
    1C        C   61   3.632   2.500   4.263
    1C        C   62   3.491   2.494   4.261
    1C        C   63   3.704   2.505   4.385
    1C        C   64   3.632   2.503   4.506
    1C        C   65   3.839   2.543   4.624
    1C        C   66   3.703   2.503   4.627
    1C        C   67   3.908   2.561   4.746
    1C        C   68   3.841   2.531   4.867
    1C        C   69   4.051   2.590   4.982
    1C        C   70   3.922   2.537   4.981
    1C        C   71   2.825   2.736   2.312
    1C        C   72   2.887   2.695   2.432
    1C        C   73   2.841   2.754   2.552
    1C        C   74   3.010   2.626   2.674
    1C        C   75   2.893   2.705   2.674
    1C        C   76   3.076   2.596   2.795
    1C        C   77   3.018   2.637   2.917
    1C        C   78   3.207   2.542   3.038
    1C        C   79   3.081   2.604   3.040
    1C        C   80   3.280   2.524   3.159
    1C        C   81   3.216   2.551   3.282
    1C        C   82   3.418   2.494   3.405
    1C        C   83   3.280   2.527   3.405
    1C        C   84   3.486   2.486   3.529
    1C        C   85   3.415   2.499   3.650
    1C        C   86   3.628   2.499   3.770
    1C        C   87   3.487   2.493   3.772
    1C        C   88   3.695   2.510   3.894
    1C        C   89   3.630   2.504   4.020
    1C        C   90   3.837   2.553   4.139
    1C        C   91   3.702   2.514   4.141
    1C        C   92   3.907   2.576   4.260
    1C        C   93   3.839   2.546   4.381
    1C        C   94   4.031   2.635   4.503
    1C        C   95   3.906   2.569   4.503
    1C        C   96   4.092   2.670   4.626
    1C        C   97   4.036   2.623   4.746
    1C        C   98   4.193   2.769   4.866
    1C        C   99   4.102   2.659   4.867
    1C        C  100   4.219   2.843   4.982
    1C        C  101   2.825   2.736   2.077
    1C        C  102   2.993   2.593   2.194
    1C        C  103   2.878   2.678   2.193
    1C        C  104   3.067   2.574   2.313
    1C        C  105   3.008   2.623   2.432
    1C        C  106   3.205   2.538   2.551
    1C        C  107   3.074   2.592   2.553
    1C        C  108   3.276   2.522   2.672
    1C        C  109   3.207   2.543   2.793
    1C        C  110   3.412   2.493   2.918
    1C        C  111   3.273   2.517   2.916
    1C        C  112   3.488   2.487   3.037
    1C        C  113   3.418   2.498   3.160
    1C        C  114   3.629   2.494   3.279
    1C        C  115   3.488   2.491   3.283
    1C        C  116   3.697   2.507   3.402
    1C        C  117   3.627   2.496   3.525
    1C        C  118   3.833   2.545   3.647
    1C        C  119   3.697   2.508   3.647
    1C        C  120   3.896   2.572   3.771
    1C        C  121   3.829   2.554   3.894
    1C        C  122   4.025   2.642   4.013
    1C        C  123   3.898   2.581   4.014
    1C        C  124   4.088   2.678   4.134
    1C        C  125   4.033   2.640   4.258
    1C        C  126   4.196   2.769   4.380
    1C        C  127   4.090   2.676   4.382
    1C        C  128   4.247   2.819   4.502
    1C        C  129   4.195   2.767   4.623
    1C        C  130   4.332   2.933   4.745
    1C        C  131   4.245   2.820   4.744
    1C        C  132   4.361   3.004   4.863
    1C        C  133   4.283   2.966   4.973
    1C        C  134   3.173   2.468   2.083
    1C        C  135   3.040   2.512   2.086
    1C        C  136   3.263   2.483   2.190
    1C        C  137   3.201   2.526   2.309
    1C        C  138   3.409   2.479   2.430
    1C        C  139   3.271   2.506   2.431
    1C        C  140   3.483   2.481   2.551
    1C        C  141   3.414   2.493   2.673
    1C        C  142   3.624   2.490   2.792
    1C        C  143   3.483   2.482   2.796
    1C        C  144   3.697   2.506   2.911
    1C        C  145   3.629   2.493   3.034
    1C        C  146   3.835   2.538   3.158
    1C        C  147   3.699   2.500   3.157
    1C        C  148   3.902   2.565   3.280
    1C        C  149   3.833   2.543   3.401
    1C        C  150   4.025   2.631   3.526
    1C        C  151   3.898   2.570   3.524
    1C        C  152   4.086   2.672   3.647
    1C        C  153   4.020   2.640   3.767
    1C        C  154   4.190   2.770   3.890
    1C        C  155   4.080   2.681   3.888
    1C        C  156   4.244   2.815   4.012
    1C        C  157   4.200   2.765   4.136
    1C        C  158   4.339   2.925   4.256
    1C        C  159   4.250   2.815   4.258
    1C        C  160   4.374   2.986   4.378
    1C        C  161   4.335   2.930   4.501
    1C        C  162   4.435   3.117   4.617
    1C        C  163   4.377   2.988   4.623
    1C        C  164   4.459   3.189   4.735
    1C        C  165   4.427   3.128   4.859
    1C        C  166   4.516   3.324   4.974
    1C        C  167   4.479   3.190   4.973
    1C        C  168   3.480   2.445   2.074
    1C        C  169   3.402   2.459   2.190
    1C        C  170   3.621   2.471   2.308
    1C        C  171   3.479   2.463   2.309
    1C        C  172   3.695   2.492   2.427
    1C        C  173   3.624   2.487   2.549
    1C        C  174   3.832   2.534   2.666
    1C        C  175   3.696   2.494   2.670
    1C        C  176   3.899   2.560   2.788
    1C        C  177   3.835   2.538   2.912
    1C        C  178   4.026   2.626   3.033
    1C        C  179   3.902   2.558   3.035
    1C        C  180   4.088   2.665   3.154
    1C        C  181   4.026   2.633   3.277
    1C        C  182   4.195   2.754   3.400
    1C        C  183   4.083   2.667   3.402
    1C        C  184   4.243   2.810   3.521
    1C        C  185   4.195   2.763   3.645
    1C        C  186   4.337   2.919   3.766
    1C        C  187   4.245   2.813   3.767
    1C        C  188   4.381   2.978   3.887
    1C        C  189   4.339   2.921   4.009
    1C        C  190   4.442   3.106   4.129
    1C        C  191   4.376   2.982   4.131
    1C        C  192   4.464   3.175   4.250
    1C        C  193   4.434   3.114   4.374
    1C        C  194   4.503   3.318   4.492
    1C        C  195   4.465   3.182   4.495
    1C        C  196   4.517   3.389   4.613
    1C        C  197   4.508   3.323   4.737
    1C        C  198   4.560   3.538   4.852
    1C        C  199   4.535   3.397   4.856
    1C        C  200   4.588   3.620   4.966
    1C        C  201   3.618   2.421   2.075
    1C        C  202   3.829   2.515   2.184
    1C        C  203   3.696   2.463   2.188
    1C        C  204   3.902   2.538   2.304
    1C        C  205   3.834   2.517   2.426
    1C        C  206   4.027   2.617   2.544
    1C        C  207   3.902   2.551   2.545
    1C        C  208   4.086   2.657   2.666
    1C        C  209   4.026   2.621   2.788
    1C        C  210   4.198   2.746   2.909
    1C        C  211   4.086   2.660   2.910
    1C        C  212   4.253   2.793   3.030
    1C        C  213   4.203   2.746   3.153
    1C        C  214   4.332   2.911   3.273
    1C        C  215   4.248   2.798   3.277
    1C        C  216   4.367   2.976   3.394
    1C        C  217   4.330   2.920   3.519
    1C        C  218   4.428   3.106   3.641
    1C        C  219   4.372   2.977   3.642
    1C        C  220   4.459   3.172   3.762
    1C        C  221   4.442   3.105   3.885
    1C        C  222   4.505   3.308   4.006
    1C        C  223   4.472   3.171   4.007
    1C        C  224   4.521   3.378   4.128
    1C        C  225   4.512   3.308   4.250
    1C        C  226   4.526   3.525   4.366
    1C        C  227   4.521   3.383   4.369
    1C        C  228   4.524   3.599   4.486
    1C        C  229   4.529   3.530   4.609
    1C        C  230   4.502   3.742   4.728
    1C        C  231   4.538   3.604   4.729
    1C        C  232   4.497   3.817   4.848
    1C        C  233   4.555   3.756   4.960
    1C        C  234   4.020   2.611   2.061
    1C        C  235   3.897   2.547   2.065
    1C        C  236   4.087   2.648   2.178
    1C        C  237   4.026   2.608   2.299
    1C        C  238   4.198   2.737   2.421
    1C        C  239   4.086   2.649   2.420
    1C        C  240   4.253   2.785   2.542
    1C        C  241   4.198   2.743   2.665
    1C        C  242   4.337   2.906   2.784
    1C        C  243   4.249   2.795   2.786
    1C        C  244   4.377   2.963   2.907
    1C        C  245   4.335   2.908   3.030
    1C        C  246   4.439   3.094   3.152
    1C        C  247   4.376   2.968   3.151
    1C        C  248   4.463   3.163   3.273
    1C        C  249   4.437   3.098   3.396
    1C        C  250   4.499   3.303   3.519
    1C        C  251   4.458   3.168   3.518
    1C        C  252   4.516   3.375   3.639
    1C        C  253   4.501   3.307   3.762
    1C        C  254   4.529   3.518   3.880
    1C        C  255   4.519   3.377   3.883
    1C        C  256   4.524   3.590   4.001
    1C        C  257   4.525   3.519   4.124
    1C        C  258   4.493   3.733   4.242
    1C        C  259   4.518   3.594   4.244
    1C        C  260   4.478   3.804   4.363
    1C        C  261   4.496   3.738   4.486
    1C        C  262   4.430   3.942   4.607
    1C        C  263   4.476   3.808   4.606
    1C        C  264   4.403   4.010   4.728
    1C        C  265   4.438   3.945   4.848
    1C        C  266   4.331   4.133   4.959
    1C        C  267   4.394   4.010   4.964
    1C        C  268   4.258   2.782   2.063
    1C        C  269   4.199   2.735   2.181
    1C        C  270   4.342   2.896   2.300
    1C        C  271   4.256   2.783   2.301
    1C        C  272   4.388   2.951   2.422
    1C        C  273   4.345   2.892   2.543
    1C        C  274   4.446   3.086   2.662
    1C        C  275   4.381   2.961   2.661
    1C        C  276   4.471   3.152   2.785
    1C        C  277   4.444   3.087   2.907
    1C        C  278   4.503   3.293   3.028
    1C        C  279   4.467   3.156   3.028
    1C        C  280   4.505   3.366   3.148
    1C        C  281   4.495   3.301   3.273
    1C        C  282   4.528   3.510   3.390
    1C        C  283   4.514   3.369   3.395
    1C        C  284   4.523   3.582   3.512
    1C        C  285   4.525   3.516   3.637
    1C        C  286   4.497   3.727   3.754
    1C        C  287   4.526   3.589   3.758
    1C        C  288   4.480   3.796   3.876
    1C        C  289   4.498   3.729   4.000
    1C        C  290   4.428   3.934   4.117
    1C        C  291   4.475   3.801   4.119
    1C        C  292   4.399   4.000   4.238
    1C        C  293   4.427   3.936   4.360
    1C        C  294   4.324   4.120   4.482
    1C        C  295   4.403   4.003   4.482
    1C        C  296   4.284   4.185   4.600
    1C        C  297   4.328   4.131   4.723
    1C        C  298   4.202   4.312   4.841
    1C        C  299   4.291   4.200   4.842
    1C        C  300   4.172   4.396   4.952
    1C        C  301   4.353   2.884   2.060
    1C        C  302   4.468   3.070   2.177
    1C        C  303   4.393   2.948   2.178
    1C        C  304   4.482   3.142   2.298
    1C        C  305   4.452   3.077   2.420
    1C        C  306   4.511   3.285   2.541
    1C        C  307   4.475   3.149   2.539
    1C        C  308   4.525   3.357   2.662
    1C        C  309   4.506   3.289   2.784
    1C        C  310   4.526   3.502   2.902
    1C        C  311   4.517   3.361   2.905
    1C        C  312   4.522   3.575   3.023
    1C        C  313   4.515   3.507   3.147
    1C        C  314   4.495   3.719   3.266
    1C        C  315   4.520   3.580   3.268
    1C        C  316   4.482   3.792   3.387
    1C        C  317   4.501   3.721   3.508
    1C        C  318   4.425   3.921   3.629
    1C        C  319   4.481   3.791   3.629
    1C        C  320   4.390   3.984   3.750
    1C        C  321   4.425   3.926   3.873
    1C        C  322   4.313   4.109   3.993
    1C        C  323   4.395   3.994   3.993
    1C        C  324   4.273   4.167   4.115
    1C        C  325   4.321   4.118   4.238
    1C        C  326   4.184   4.281   4.356
    1C        C  327   4.279   4.176   4.360
    1C        C  328   4.133   4.336   4.476
    1C        C  329   4.191   4.292   4.597
    1C        C  330   4.028   4.433   4.717
    1C        C  331   4.141   4.347   4.717
    1C        C  332   3.973   4.491   4.833
    1C        C  333   4.054   4.472   4.946
    1C        C  334   4.553   3.268   2.062
    1C        C  335   4.529   3.130   2.063
    1C        C  336   4.537   3.349   2.175
    1C        C  337   4.515   3.281   2.297
    1C        C  338   4.525   3.495   2.413
    1C        C  339   4.519   3.354   2.418
    1C        C  340   4.527   3.568   2.534
    1C        C  341   4.529   3.499   2.657
    1C        C  342   4.497   3.710   2.776
    1C        C  343   4.524   3.571   2.778
    1C        C  344   4.480   3.781   2.898
    1C        C  345   4.502   3.715   3.020
    1C        C  346   4.428   3.915   3.138
    1C        C  347   4.479   3.784   3.141
    1C        C  348   4.396   3.980   3.260
    1C        C  349   4.428   3.922   3.385
    1C        C  350   4.316   4.103   3.503
    1C        C  351   4.393   3.984   3.506
    1C        C  352   4.273   4.162   3.624
    1C        C  353   4.315   4.104   3.746
    1C        C  354   4.180   4.268   3.869
    1C        C  355   4.273   4.162   3.868
    1C        C  356   4.126   4.319   3.989
    1C        C  357   4.175   4.270   4.112
    1C        C  358   4.015   4.407   4.231
    1C        C  359   4.128   4.324   4.233
    1C        C  360   3.953   4.450   4.351
    1C        C  361   4.020   4.420   4.472
    1C        C  362   3.834   4.518   4.595
    1C        C  363   3.963   4.462   4.595
    1C        C  364   3.765   4.550   4.714
    1C        C  365   3.842   4.542   4.832
    1C        C  366   3.630   4.587   4.954
    1C        C  367   3.768   4.571   4.948
    1C        C  368   4.514   3.568   2.059
    1C        C  369   4.529   3.490   2.174
    1C        C  370   4.500   3.706   2.287
    1C        C  371   4.517   3.566   2.292
    1C        C  372   4.486   3.776   2.409
    1C        C  373   4.512   3.708   2.531
    1C        C  374   4.428   3.905   2.650
    1C        C  375   4.481   3.774   2.652
    1C        C  376   4.394   3.971   2.770
    1C        C  377   4.429   3.912   2.893
    1C        C  378   4.326   4.098   3.014
    1C        C  379   4.400   3.978   3.015
    1C        C  380   4.280   4.157   3.134
    1C        C  381   4.320   4.099   3.257
    1C        C  382   4.175   4.255   3.378
    1C        C  383   4.274   4.154   3.379
    1C        C  384   4.125   4.310   3.498
    1C        C  385   4.178   4.266   3.622
    1C        C  386   4.010   4.391   3.741
    1C        C  387   4.127   4.312   3.745
    1C        C  388   3.950   4.431   3.863
    1C        C  389   4.010   4.400   3.987
    1C        C  390   3.822   4.493   4.110
    1C        C  391   3.955   4.444   4.109
    1C        C  392   3.755   4.521   4.231
    1C        C  393   3.824   4.507   4.353
    1C        C  394   3.622   4.562   4.475
    1C        C  395   3.761   4.538   4.476
    1C        C  396   3.552   4.571   4.598
    1C        C  397   3.625   4.569   4.719
    1C        C  398   3.412   4.553   4.842
    1C        C  399   3.551   4.577   4.839
    1C        C  400   3.344   4.524   4.961
    1C        C  401   4.503   3.706   2.051
    1C        C  402   4.456   3.919   2.170
    1C        C  403   4.492   3.782   2.169
    1C        C  404   4.415   3.980   2.291
    1C        C  405   4.433   3.907   2.410
    1C        C  406   4.326   4.094   2.528
    1C        C  407   4.400   3.974   2.530
    1C        C  408   4.276   4.147   2.649
    1C        C  409   4.315   4.089   2.771
    1C        C  410   4.179   4.252   2.891
    1C        C  411   4.276   4.150   2.892
    1C        C  412   4.124   4.298   3.012
    1C        C  413   4.178   4.254   3.135
    1C        C  414   4.002   4.379   3.256
    1C        C  415   4.120   4.300   3.256
    1C        C  416   3.942   4.418   3.377
    1C        C  417   4.006   4.386   3.499
    1C        C  418   3.817   4.484   3.621
    1C        C  419   3.945   4.425   3.620
    1C        C  420   3.751   4.508   3.743
    1C        C  421   3.821   4.490   3.864
    1C        C  422   3.617   4.543   3.990
    1C        C  423   3.756   4.515   3.987
    1C        C  424   3.545   4.553   4.111
    1C        C  425   3.616   4.547   4.232
    1C        C  426   3.406   4.551   4.360
    1C        C  427   3.547   4.559   4.355
    1C        C  428   3.335   4.548   4.482
    1C        C  429   3.411   4.559   4.600
    1C        C  430   3.200   4.520   4.727
    1C        C  431   3.339   4.548   4.721
    1C        C  432   3.127   4.494   4.846
    1C        C  433   3.207   4.499   4.960
    1C        C  434   4.386   4.127   2.056
    1C        C  435   4.444   3.999   2.056
    1C        C  436   4.303   4.165   2.166
    1C        C  437   4.333   4.096   2.287
    1C        C  438   4.181   4.250   2.404
    1C        C  439   4.284   4.153   2.407
    1C        C  440   4.126   4.297   2.525
    1C        C  441   4.179   4.251   2.648
    1C        C  442   4.008   4.379   2.767
    1C        C  443   4.123   4.298   2.769
    1C        C  444   3.946   4.414   2.889
    1C        C  445   4.006   4.377   3.011
    1C        C  446   3.817   4.477   3.132
    1C        C  447   3.944   4.414   3.132
    1C        C  448   3.750   4.502   3.254
    1C        C  449   3.815   4.480   3.378
    1C        C  450   3.610   4.537   3.500
    1C        C  451   3.748   4.507   3.500
    1C        C  452   3.544   4.553   3.624
    1C        C  453   3.614   4.543   3.746
    1C        C  454   3.404   4.552   3.868
    1C        C  455   3.545   4.555   3.869
    1C        C  456   3.335   4.541   3.991
    1C        C  457   3.404   4.547   4.114
    1C        C  458   3.198   4.508   4.239
    1C        C  459   3.336   4.540   4.238
    1C        C  460   3.132   4.490   4.362
    1C        C  461   3.198   4.514   4.485
    1C        C  462   3.002   4.435   4.605
    1C        C  463   3.129   4.497   4.607
    1C        C  464   2.936   4.401   4.725
    1C        C  465   2.992   4.444   4.848
    1C        C  466   2.801   4.343   4.960
    1C        C  467   2.903   4.440   4.959
    1C        C  468   4.116   4.281   2.046
    1C        C  469   4.191   4.255   2.161
    1C        C  470   4.008   4.372   2.281
    1C        C  471   4.130   4.298   2.282
    1C        C  472   3.942   4.403   2.402
    1C        C  473   4.007   4.373   2.524
    1C        C  474   3.817   4.470   2.648
    1C        C  475   3.946   4.413   2.645
    1C        C  476   3.750   4.499   2.769
    1C        C  477   3.815   4.468   2.890
    1C        C  478   3.609   4.525   3.012
    1C        C  479   3.747   4.495   3.011
    1C        C  480   3.538   4.534   3.134
    1C        C  481   3.611   4.527   3.254
    1C        C  482   3.400   4.539   3.378
    1C        C  483   3.541   4.538   3.376
    1C        C  484   3.330   4.533   3.501
    1C        C  485   3.403   4.548   3.621
    1C        C  486   3.199   4.503   3.749
    1C        C  487   3.335   4.540   3.745
    1C        C  488   3.132   4.477   3.871
    1C        C  489   3.198   4.505   3.993
    1C        C  490   3.011   4.410   4.120
    1C        C  491   3.133   4.482   4.116
    1C        C  492   2.949   4.377   4.242
    1C        C  493   3.007   4.424   4.362
    1C        C  494   2.835   4.301   4.485
    1C        C  495   2.945   4.389   4.484
    1C        C  496   2.777   4.257   4.607
    1C        C  497   2.824   4.314   4.728
    1C        C  498   2.665   4.169   4.846
    1C        C  499   2.752   4.281   4.845
    1C        C  500   2.593   4.123   4.957
    1C        C  501   4.005   4.365   2.046
    1C        C  502   3.814   4.470   2.160
    1C        C  503   3.942   4.412   2.163
    1C        C  504   3.744   4.483   2.282
    1C        C  505   3.813   4.460   2.404
    1C        C  506   3.610   4.517   2.524
    1C        C  507   3.748   4.489   2.526
    1C        C  508   3.539   4.524   2.646
    1C        C  509   3.611   4.524   2.768
    1C        C  510   3.398   4.533   2.887
    1C        C  511   3.539   4.533   2.889
    1C        C  512   3.328   4.531   3.009
    1C        C  513   3.397   4.536   3.132
    1C        C  514   3.192   4.494   3.257
    1C        C  515   3.329   4.530   3.256
    1C        C  516   3.127   4.472   3.381
    1C        C  517   3.193   4.499   3.503
    1C        C  518   3.006   4.411   3.628
    1C        C  519   3.130   4.479   3.628
    1C        C  520   2.952   4.368   3.751
    1C        C  521   3.011   4.404   3.874
    1C        C  522   2.843   4.280   4.000
    1C        C  523   2.953   4.368   3.998
    1C        C  524   2.794   4.231   4.124
    1C        C  525   2.842   4.285   4.245
    1C        C  526   2.696   4.132   4.366
    1C        C  527   2.782   4.244   4.367
    1C        C  528   2.654   4.077   4.489
    1C        C  529   2.693   4.144   4.607
    1C        C  530   2.582   3.966   4.731
    1C        C  531   2.643   4.094   4.729
    1C        C  532   2.543   3.906   4.854
    1C        C  533   2.528   3.999   4.962
    1C        C  534   3.620   4.564   2.040
    1C        C  535   3.750   4.512   2.043
    1C        C  536   3.541   4.539   2.157
    1C        C  537   3.606   4.516   2.282
    1C        C  538   3.394   4.528   2.404
    1C        C  539   3.536   4.524   2.404
    1C        C  540   3.322   4.520   2.525
    1C        C  541   3.398   4.530   2.643
    1C        C  542   3.190   4.487   2.769
    1C        C  543   3.327   4.523   2.765
    1C        C  544   3.125   4.462   2.892
    1C        C  545   3.192   4.490   3.014
    1C        C  546   3.001   4.399   3.137
    1C        C  547   3.126   4.465   3.136
    1C        C  548   2.947   4.360   3.262
    1C        C  549   3.003   4.405   3.383
    1C        C  550   2.837   4.279   3.509
    1C        C  551   2.943   4.372   3.507
    1C        C  552   2.787   4.233   3.632
    1C        C  553   2.840   4.282   3.754
    1C        C  554   2.708   4.119   3.877
    1C        C  555   2.794   4.231   3.877
    1C        C  556   2.666   4.062   3.999
    1C        C  557   2.702   4.125   4.121
    1C        C  558   2.592   3.947   4.248
    1C        C  559   2.656   4.073   4.244
    1C        C  560   2.567   3.881   4.371
    1C        C  561   2.592   3.950   4.491
    1C        C  562   2.535   3.750   4.619
    1C        C  563   2.559   3.889   4.614
    1C        C  564   2.521   3.684   4.743
    1C        C  565   2.523   3.764   4.860
    1C        C  566   2.532   3.551   4.980
    1C        C  567   2.526   3.690   4.979
    1C        C  568   3.331   4.482   2.045
    1C        C  569   3.401   4.516   2.161
    1C        C  570   3.188   4.478   2.284
    1C        C  571   3.326   4.515   2.282
    1C        C  572   3.117   4.461   2.405
    1C        C  573   3.184   4.489   2.527
    1C        C  574   2.992   4.403   2.651
    1C        C  575   3.118   4.468   2.650
    1C        C  576   2.933   4.365   2.774
    1C        C  577   2.999   4.399   2.894
    1C        C  578   2.832   4.269   3.017
    1C        C  579   2.940   4.360   3.016
    1C        C  580   2.788   4.219   3.142
    1C        C  581   2.838   4.269   3.264
    1C        C  582   2.702   4.112   3.388
    1C        C  583   2.787   4.225   3.388
    1C        C  584   2.664   4.057   3.513
    1C        C  585   2.702   4.120   3.633
    1C        C  586   2.603   3.933   3.758
    1C        C  587   2.667   4.059   3.756
    1C        C  588   2.571   3.873   3.882
    1C        C  589   2.595   3.940   4.005
    1C        C  590   2.531   3.740   4.130
    1C        C  591   2.570   3.876   4.128
    1C        C  592   2.519   3.674   4.254
    1C        C  593   2.531   3.745   4.375
    1C        C  594   2.514   3.536   4.498
    1C        C  595   2.520   3.677   4.499
    1C        C  596   2.521   3.469   4.622
    1C        C  597   2.516   3.542   4.743
    1C        C  598   2.536   3.330   4.864
    1C        C  599   2.527   3.471   4.865
    1C        C  600   2.534   3.255   4.983
    1C        C  601   3.198   4.447   2.047
    1C        C  602   2.985   4.398   2.164
    1C        C  603   3.120   4.447   2.164
    1C        C  604   2.928   4.358   2.287
    1C        C  605   2.989   4.402   2.407
    1C        C  606   2.824   4.272   2.532
    1C        C  607   2.932   4.363   2.530
    1C        C  608   2.773   4.220   2.653
    1C        C  609   2.826   4.271   2.773
    1C        C  610   2.689   4.112   2.895
    1C        C  611   2.779   4.221   2.896
    1C        C  612   2.660   4.053   3.021
    1C        C  613   2.698   4.110   3.144
    1C        C  614   2.595   3.927   3.270
    1C        C  615   2.658   4.054   3.267
    1C        C  616   2.574   3.861   3.392
    1C        C  617   2.604   3.929   3.512
    1C        C  618   2.531   3.734   3.642
    1C        C  619   2.576   3.867   3.636
    1C        C  620   2.514   3.667   3.765
    1C        C  621   2.528   3.739   3.886
    1C        C  622   2.502   3.529   4.012
    1C        C  623   2.516   3.670   4.008
    1C        C  624   2.508   3.459   4.135
    1C        C  625   2.508   3.533   4.255
    1C        C  626   2.535   3.323   4.383
    1C        C  627   2.514   3.462   4.378
    1C        C  628   2.551   3.253   4.504
    1C        C  629   2.542   3.330   4.623
    1C        C  630   2.603   3.125   4.745
    1C        C  631   2.556   3.259   4.744
    1C        C  632   2.624   3.056   4.868
    1C        C  633   2.566   3.119   4.983
    1C        C  634   2.785   4.302   2.054
    1C        C  635   2.895   4.388   2.053
    1C        C  636   2.754   4.227   2.168
    1C        C  637   2.816   4.270   2.287
    1C        C  638   2.683   4.110   2.412
    1C        C  639   2.770   4.221   2.412
    1C        C  640   2.641   4.049   2.532
    1C        C  641   2.685   4.109   2.652
    1C        C  642   2.586   3.923   2.779
    1C        C  643   2.647   4.050   2.775
    1C        C  644   2.567   3.860   2.904
    1C        C  645   2.599   3.926   3.026
    1C        C  646   2.526   3.726   3.151
    1C        C  647   2.569   3.861   3.148
    1C        C  648   2.512   3.658   3.273
    1C        C  649   2.527   3.727   3.395
    1C        C  650   2.504   3.522   3.522
    1C        C  651   2.512   3.663   3.521
    1C        C  652   2.512   3.454   3.646
    1C        C  653   2.508   3.526   3.767
    1C        C  654   2.533   3.318   3.891
    1C        C  655   2.507   3.457   3.891
    1C        C  656   2.554   3.253   4.015
    1C        C  657   2.537   3.321   4.138
    1C        C  658   2.604   3.121   4.260
    1C        C  659   2.556   3.254   4.261
    1C        C  660   2.634   3.056   4.381
    1C        C  661   2.601   3.121   4.502
    1C        C  662   2.712   2.941   4.626
    1C        C  663   2.634   3.058   4.625
    1C        C  664   2.756   2.883   4.748
    1C        C  665   2.706   2.939   4.869
    1C        C  666   2.748   2.872   4.985
    1C        C  667   2.680   4.022   2.057
    1C        C  668   2.683   4.106   2.169
    1C        C  669   2.593   3.913   2.295
    1C        C  670   2.648   4.044   2.292
    1C        C  671   2.559   3.848   2.416
    1C        C  672   2.581   3.921   2.535
    1C        C  673   2.520   3.720   2.663
    1C        C  674   2.558   3.856   2.658
    1C        C  675   2.505   3.652   2.786
    1C        C  676   2.528   3.725   2.905
    1C        C  677   2.503   3.516   3.030
    1C        C  678   2.516   3.657   3.028
    1C        C  679   2.508   3.448   3.154
    1C        C  680   2.500   3.517   3.277
    1C        C  681   2.526   3.311   3.404
    1C        C  682   2.501   3.450   3.401
    1C        C  683   2.552   3.244   3.526
    1C        C  684   2.533   3.314   3.646
    1C        C  685   2.608   3.119   3.774
    1C        C  686   2.550   3.248   3.770
    1C        C  687   2.642   3.059   3.897
    1C        C  688   2.599   3.119   4.017
    1C        C  689   2.716   2.940   4.141
    1C        C  690   2.635   3.056   4.138
    1C        C  691   2.761   2.885   4.263
    1C        C  692   2.714   2.940   4.384
    1C        C  693   2.757   2.882   4.506
    1C        C  694   2.625   3.894   2.059
    1C        C  695   2.534   3.701   2.178
    1C        C  696   2.581   3.834   2.178
    1C        C  697   2.504   3.639   2.301
    1C        C  698   2.515   3.714   2.420
    1C        C  699   2.490   3.506   2.545
    1C        C  700   2.503   3.647   2.543
    1C        C  701   2.499   3.437   2.668
    1C        C  702   2.499   3.511   2.789
    1C        C  703   2.521   3.302   2.915
    1C        C  704   2.496   3.440   2.911
    1C        C  705   2.548   3.237   3.038
    1C        C  706   2.537   3.310   3.158
    1C        C  707   2.599   3.111   3.281
    1C        C  708   2.549   3.243   3.282
    1C        C  709   2.637   3.051   3.403
    1C        C  710   2.609   3.115   3.527
    1C        C  711   2.718   2.939   3.651
    1C        C  712   2.639   3.055   3.651
    1C        C  713   2.767   2.887   3.774
    1C        C  714   2.723   2.944   3.896
    1C        C  715   2.764   2.888   4.019
    1C        C  716   2.449   3.500   2.063
    1C        C  717   2.489   3.634   2.064
    1C        C  718   2.465   3.423   2.183
    1C        C  719   2.483   3.498   2.303
    1C        C  720   2.516   3.292   2.431
    1C        C  721   2.486   3.430   2.426
    1C        C  722   2.535   3.222   2.552
    1C        C  723   2.520   3.298   2.671
    1C        C  724   2.593   3.101   2.795
    1C        C  725   2.537   3.231   2.794
    1C        C  726   2.631   3.042   2.918
    1C        C  727   2.601   3.106   3.040
    1C        C  728   2.720   2.931   3.161
    1C        C  729   2.634   3.043   3.162
    1C        C  730   2.764   2.880   3.286
    1C        C  731   2.721   2.938   3.407
    1C        C  732   2.768   2.886   3.530
    1C        C  733   2.488   3.198   2.078
    1C        C  734   2.485   3.282   2.191
    1C        C  735   2.587   3.090   2.311
    1C        C  736   2.529   3.219   2.310
    1C        C  737   2.618   3.023   2.431
    1C        C  738   2.590   3.092   2.551
    1C        C  739   2.698   2.914   2.675
    1C        C  740   2.620   3.031   2.675
    1C        C  741   2.751   2.866   2.797
    1C        C  742   2.707   2.923   2.918
    1C        C  743   2.758   2.871   3.039
    1C        C  744   2.548   3.073   2.076
    1C        C  745   2.687   2.901   2.190
    1C        C  746   2.608   3.018   2.191
    1C        C  747   2.732   2.844   2.311
    1C        C  748   2.689   2.901   2.432
    1C        C  749   2.743   2.855   2.554
    1C        C  750   2.741   2.846   2.072
    1C        C  751   3.668   2.326   1.974
    1C        O  752   3.640   2.204   1.989
    1C        O  753   3.722   2.365   1.850
    1C        C  754   4.628   3.060   1.978
    1C        O  755   4.600   3.017   1.863
    1C        O  756   4.761   3.040   2.016
    1C        C  757   4.446   4.210   1.949
    1C        O  758   4.556   4.270   1.965
    1C        O  759   4.411   4.193   1.815
    1C        C  760   3.608   4.681   1.949
    1C        O  761   3.665   4.788   1.984
    1C        O  762   3.618   4.669   1.810
    1C        C  763   2.900   4.475   1.932
    1C        O  764   2.917   4.432   1.815
    1C        O  765   2.846   4.604   1.934
    1C        C  766   2.338   3.466   1.972
    1C        O  767   2.354   3.470   1.847
    1C        O  768   2.207   3.494   2.013
    1C        C  769   4.714   3.582   5.035
    1C        O  770   4.714   3.518   5.143
    1C        O  771   4.844   3.608   4.988
    1C        C  772   4.277   4.453   5.040
    1C        O  773   4.293   4.434   5.163
    1C        O  774   4.332   4.579   5.014
    1C        C  775   4.131   2.535   5.093
    1C        O  776   4.129   2.411   5.116
    1C        O  777   4.128   2.586   5.223
    1C        C  778   2.892   4.565   5.037
    1C        O  779   2.788   4.632   5.013
    1C        O  780   2.923   4.585   5.172
    1C        C  781   2.479   3.035   5.069
    1C        O  782   2.361   3.015   5.031
    1C        O  783   2.499   3.032   5.206
    1C        C  784   2.411   4.002   5.053
    1C        O  785   2.294   4.007   5.008
    1C        O  786   2.428   4.019   5.191
    1C        C  787   2.946   2.435   2.002
    1C        O  788   2.935   2.466   1.880
    1C        O  789   2.940   2.296   2.000
    1C        C  790   3.170   2.375   5.052
    1C        O  791   3.091   2.279   5.026
    1C        O  792   3.244   2.346   5.167
    1C        H  793   4.241   3.042   5.037
    1C        H  794   4.216   2.795   5.077
    1C        H  795   4.501   3.129   5.059
    1C        H  796   4.567   3.360   5.061
    1C        H  797   4.599   3.817   5.035
    1C        H  798   4.344   3.945   5.032
    1C        H  799   4.283   4.167   5.048
    1C        H  800   4.018   4.507   5.041
    1C        H  801   3.824   4.576   5.039
    1C        H  802   3.588   4.626   5.044
    1C        H  803   3.395   4.484   5.047
    1C        H  804   3.158   4.506   5.055
    1C        H  805   3.890   2.479   5.066
    1C        H  806   3.680   2.454   5.078
    1C        H  807   3.022   2.594   5.077
    1C        H  808   3.453   2.413   5.063
    1C        H  809   2.911   2.772   5.072
    1C        H  810   2.677   2.868   5.065
    1C        H  811   2.468   3.287   5.061
    1C        H  812   2.505   3.509   5.075
    1C        H  813   2.545   3.746   5.068
    1C        H  814   2.573   4.187   5.040
    1C        H  815   2.769   4.305   5.055
    1C        H  816   2.699   2.874   1.978
    1C        H  817   2.823   2.679   1.986
    1C        H  818   3.201   2.399   2.006
    1C        H  819   3.441   2.486   1.983
    1C        H  820   3.873   2.502   1.971
    1C        H  821   4.071   2.617   1.967
    1C        H  822   4.250   2.726   1.972
    1C        H  823   4.418   2.890   1.975
    1C        H  824   4.628   3.304   1.994
    1C        H  825   4.494   3.517   1.967
    1C        H  826   4.543   3.754   1.964
    1C        H  827   3.807   4.518   1.952
    1C        H  828   3.996   4.430   1.961
    1C        H  829   4.128   4.213   1.965
    1C        H  830   4.518   3.981   1.980
    1C        H  831   2.626   3.842   1.965
    1C        H  832   2.703   4.064   1.961
    1C        H  833   2.730   4.293   1.962
    1C        H  834   3.371   4.512   1.950
    1C        H  835   3.146   4.469   1.955
    1C        H  836   2.593   3.052   1.981
    1C        H  837   2.422   3.221   1.997
    1C        H  838   2.435   3.696   1.996
    2V3OU   H29  839   2.805   3.556   6.206
    2V3OU   C27  840   2.786   3.504   6.304
    2V3OU   H27  841   2.724   3.569   6.370
    2V3OU   H28  842   2.733   3.407   6.288
    2V3OU   O11  843   2.910   3.475   6.369
    2V3OU   C15  844   2.925   3.397   6.482
    2V3OU   C13  845   3.051   3.381   6.545
    2V3OU   C14  846   3.076   3.280   6.637
    2V3OU   C16  847   2.974   3.191   6.667
    2V3OU    H6  848   2.997   3.111   6.739
    2V3OU   C12  849   3.216   3.241   6.668
    2V3OU    O2  850   3.244   3.132   6.721
    2V3OU   C10  851   3.326   3.310   6.599
    2V3OU    C8  852   3.458   3.275   6.625
    2V3OU   O10  853   3.491   3.157   6.684
    2V3OU   H26  854   3.402   3.117   6.691
    2V3OU    C6  855   3.569   3.356   6.586
    2V3OU    C5  856   3.542   3.474   6.516
    2V3OU    C4  857   3.705   3.296   6.589
    2V3OU    H4  858   3.723   3.233   6.680
    2V3OU    H5  859   3.713   3.230   6.497
    2V3OU    C2  860   3.816   3.401   6.579
    2V3OU    O6  861   3.810   3.478   6.699
    2V3OU   H21  862   3.766   3.559   6.667
    2V3OU    C3  863   3.784   3.500   6.467
    2V3OU    H2  864   3.866   3.574   6.451
    2V3OU    H3  865   3.779   3.440   6.372
    2V3OU   C25  866   3.950   3.330   6.558
    2V3OU    O7  867   3.997   3.298   6.449
    2V3OU   C26  868   4.031   3.289   6.680
    2V3OU   H22  869   4.067   3.382   6.733
    2V3OU   H23  870   4.121   3.231   6.647
    2V3OU    O8  871   3.963   3.215   6.779
    2V3OU   H24  872   3.925   3.268   6.852
    2V3OU    C1  873   3.651   3.572   6.487
    2V3OU    H1  874   3.627   3.627   6.391
    2V3OU    O3  875   3.667   3.657   6.602
    2V3OU   C19  876   3.623   3.791   6.579
    2V3OU    H9  877   3.531   3.813   6.518
    2V3OU    O4  878   3.713   3.855   6.491
    2V3OU   C20  879   3.846   3.875   6.540
    2V3OU   H10  880   3.901   3.776   6.544
    2V3OU   C24  881   3.611   3.859   6.715
    2V3OU   H16  882   3.544   3.795   6.779
    2V3OU   H17  883   3.560   3.958   6.707
    2V3OU   C23  884   3.753   3.879   6.771
    2V3OU   H15  885   3.794   3.776   6.796
    2V3OU    N1  886   3.739   3.954   6.894
    2V3OU   H19  887   3.811   3.920   6.954
    2V3OU   H20  888   3.654   3.927   6.939
    2V3OU   C21  889   3.851   3.950   6.673
    2V3OU   H11  890   3.958   3.937   6.707
    2V3OU    O5  891   3.827   4.090   6.687
    2V3OU   H18  892   3.788   4.104   6.775
    2V3OU   C22  893   3.914   3.953   6.428
    2V3OU   H12  894   3.862   4.051   6.413
    2V3OU   H13  895   3.905   3.897   6.331
    2V3OU   H14  896   4.023   3.961   6.454
    2V3OU   C11  897   3.160   3.474   6.510
    2V3OU    O1  898   3.136   3.585   6.458
    2V3OU    C9  899   3.300   3.428   6.524
    2V3OU    C7  900   3.407   3.508   6.485
    2V3OU    O9  901   3.387   3.625   6.415
    2V3OU   H25  902   3.290   3.637   6.414
    2V3OU   C17  903   2.823   3.317   6.536
    2V3OU    H7  904   2.720   3.343   6.513
    2V3OU   C18  905   2.843   3.212   6.626
    2V3OU    H8  906   2.760   3.151   6.665
    3SOL     OW  907   3.018   3.542   4.579
    3SOL    HW1  908   2.968   3.628   4.565
    3SOL    HW2  909   3.097   3.559   4.639
    4SOL     OW  910   0.909   0.017   0.585
    4SOL    HW1  911   1.005   0.016   0.554
    4SOL    HW2  912   0.907   0.004   0.684
    5SOL     OW  913   4.242   2.031   0.865
    5SOL    HW1  914   4.237   2.125   0.901
    5SOL    HW2  915   4.156   2.009   0.817
    6SOL     OW  916   3.672   1.709   2.406
    6SOL    HW1  917   3.654   1.807   2.410
    6SOL    HW2  918   3.710   1.686   2.316
    7SOL     OW  919   2.300   2.912   4.771
    7SOL    HW1  920   2.275   2.820   4.803
    7SOL    HW2  921   2.319   2.971   4.849
    8SOL     OW  922   1.130   2.006   6.031
    8SOL    HW1  923   1.149   2.066   5.954
    8SOL    HW2  924   1.032   1.985   6.034
    9SOL     OW  925   2.200   2.052   5.861
    9SOL    HW1  926   2.107   2.016   5.856
    9SOL    HW2  927   2.245   2.018   5.943
   10SOL     OW  928   5.707   5.069   1.168
   10SOL    HW1  929   5.682   5.159   1.132
   10SOL    HW2  930   5.786   5.033   1.119
   11SOL     OW  931   3.504   1.542   0.352
   11SOL    HW1  932   3.483   1.448   0.325
   11SOL    HW2  933   3.494   1.551   0.451
   12SOL     OW  934   5.339   4.628   1.299
   12SOL    HW1  935   5.381   4.683   1.372
   12SOL    HW2  936   5.281   4.686   1.243
   13SOL     OW  937   4.824   5.532   1.752
   13SOL    HW1  938   4.749   5.498   1.809
   13SOL    HW2  939   4.875   5.454   1.714
   14SOL     OW  940   3.996   5.757   1.069
   14SOL    HW1  941   3.954   5.733   0.981
   14SOL    HW2  942   4.096   5.755   1.060
   15SOL     OW  943   1.045   6.926   6.798
   15SOL    HW1  944   1.081   6.872   6.721
   15SOL    HW2  945   1.082   7.018   6.793
   16SOL     OW  946   1.958   5.133   5.211
   16SOL    HW1  947   1.935   5.136   5.309
   16SOL    HW2  948   1.976   5.039   5.184
   17SOL     OW  949   0.137   2.200   4.087
   17SOL    HW1  950   0.228   2.231   4.060
   17SOL    HW2  951   0.109   2.123   4.030
   18SOL     OW  952   2.727   0.845   5.607
   18SOL    HW1  953   2.766   0.833   5.515
   18SOL    HW2  954   2.744   0.938   5.638
   19SOL     OW  955   3.365   5.783   3.307
   19SOL    HW1  956   3.350   5.687   3.328
   19SOL    HW2  957   3.409   5.792   3.218
   20SOL     OW  958   0.015   1.659   5.152
   20SOL    HW1  959   6.983   1.580   5.145
   20SOL    HW2  960   6.993   1.741   5.123
   21SOL     OW  961   1.136   3.551   1.949
   21SOL    HW1  962   1.053   3.592   1.985
   21SOL    HW2  963   1.147   3.458   1.985
   22SOL     OW  964   0.535   1.108   0.450
   22SOL    HW1  965   0.485   1.021   0.450
   22SOL    HW2  966   0.480   1.179   0.495
   23SOL     OW  967   6.862   5.085   0.066
   23SOL    HW1  968   6.906   5.169   0.035
   23SOL    HW2  969   6.915   5.046   0.141
   24SOL     OW  970   5.179   0.883   0.445
   24SOL    HW1  971   5.253   0.934   0.401
   24SOL    HW2  972   5.124   0.945   0.500
   25SOL     OW  973   0.986   0.650   4.918
   25SOL    HW1  974   0.900   0.617   4.957
   25SOL    HW2  975   1.020   0.584   4.851
   26SOL     OW  976   1.879   6.841   5.984
   26SOL    HW1  977   1.909   6.851   6.079
   26SOL    HW2  978   1.867   6.744   5.964
   27SOL     OW  979   0.260   6.964   2.593
   27SOL    HW1  980   0.273   6.866   2.578
   27SOL    HW2  981   0.171   6.992   2.558
   28SOL     OW  982   1.629   0.550   5.316
   28SOL    HW1  983   1.729   0.553   5.318
   28SOL    HW2  984   1.598   0.455   5.323
   29SOL     OW  985   5.683   0.990   1.432
   29SOL    HW1  986   5.671   1.068   1.494
   29SOL    HW2  987   5.776   0.955   1.439
   30SOL     OW  988   4.365   6.978   4.421
   30SOL    HW1  989   4.300   7.011   4.489
   30SOL    HW2  990   4.383   0.022   4.353
   31SOL     OW  991   6.041   4.404   4.605
   31SOL    HW1  992   6.062   4.502   4.608
   31SOL    HW2  993   6.007   4.380   4.514
   32SOL     OW  994   3.092   1.469   0.883
   32SOL    HW1  995   3.077   1.403   0.810
   32SOL    HW2  996   3.084   1.423   0.972
   33SOL     OW  997   1.814   4.385   6.090
   33SOL    HW1  998   1.814   4.334   6.004
   33SOL    HW2  999   1.797   4.322   6.166
   34SOL     OW 1000   2.598   6.497   5.547
   34SOL    HW1 1001   2.530   6.429   5.574
   34SOL    HW2 1002   2.593   6.575   5.610
   35SOL     OW 1003   1.993   2.681   4.599
   35SOL    HW1 1004   2.043   2.763   4.568
   35SOL    HW2 1005   1.897   2.688   4.570
   36SOL     OW 1006   5.448   1.296   4.420
   36SOL    HW1 1007   5.485   1.219   4.472
   36SOL    HW2 1008   5.348   1.292   4.421
   37SOL     OW 1009   1.871   6.569   4.290
   37SOL    HW1 1010   1.830   6.511   4.220
   37SOL    HW2 1011   1.823   6.556   4.377
   38SOL     OW 1012   1.084   3.631   1.386
   38SOL    HW1 1013   1.108   3.690   1.463
   38SOL    HW2 1014   1.157   3.563   1.373
   39SOL     OW 1015   6.835   5.598   1.333
   39SOL    HW1 1016   6.841   5.646   1.246
   39SOL    HW2 1017   6.748   5.549   1.339
   40SOL     OW 1018   4.014   0.742   6.874
   40SOL    HW1 1019   4.001   0.657   6.926
   40SOL    HW2 1020   3.931   0.762   6.822
   41SOL     OW 1021   6.297   3.516   1.645
   41SOL    HW1 1022   6.276   3.510   1.547
   41SOL    HW2 1023   6.306   3.423   1.682
   42SOL     OW 1024   2.421   3.766   0.499
   42SOL    HW1 1025   2.443   3.856   0.463
   42SOL    HW2 1026   2.488   3.741   0.570
   43SOL     OW 1027   4.888   0.672   3.527
   43SOL    HW1 1028   4.863   0.586   3.571
   43SOL    HW2 1029   4.987   0.675   3.512
   44SOL     OW 1030   6.992   0.674   0.209
   44SOL    HW1 1031   6.896   0.670   0.239
   44SOL    HW2 1032   7.027   0.581   0.199
   45SOL     OW 1033   2.378   3.862   5.921
   45SOL    HW1 1034   2.369   3.765   5.896
   45SOL    HW2 1035   2.475   3.886   5.928
   46SOL     OW 1036   1.406   4.399   4.615
   46SOL    HW1 1037   1.480   4.335   4.635
   46SOL    HW2 1038   1.432   4.457   4.538
   47SOL     OW 1039   6.970   4.202   6.746
   47SOL    HW1 1040   6.941   4.112   6.780
   47SOL    HW2 1041   7.001   4.258   6.822
   48SOL     OW 1042   0.665   4.069   0.117
   48SOL    HW1 1043   0.739   4.001   0.117
   48SOL    HW2 1044   0.670   4.123   0.033
   49SOL     OW 1045   2.979   1.207   6.749
   49SOL    HW1 1046   2.900   1.169   6.796
   49SOL    HW2 1047   3.052   1.139   6.745
   50SOL     OW 1048   5.158   2.276   5.793
   50SOL    HW1 1049   5.219   2.284   5.714
   50SOL    HW2 1050   5.202   2.222   5.864
   51SOL     OW 1051   1.535   6.374   2.217
   51SOL    HW1 1052   1.499   6.280   2.213
   51SOL    HW2 1053   1.615   6.376   2.277
   52SOL     OW 1054   5.625   2.664   2.913
   52SOL    HW1 1055   5.615   2.661   3.012
   52SOL    HW2 1056   5.717   2.634   2.888
   53SOL     OW 1057   4.492   0.113   0.680
   53SOL    HW1 1058   4.480   0.201   0.724
   53SOL    HW2 1059   4.558   0.122   0.605
   54SOL     OW 1060   0.372   1.221   6.122
   54SOL    HW1 1061   0.383   1.260   6.213
   54SOL    HW2 1062   0.446   1.252   6.063
   55SOL     OW 1063   2.086   3.056   6.883
   55SOL    HW1 1064   2.166   3.108   6.913
   55SOL    HW2 1065   2.114   2.986   6.818
   56SOL     OW 1066   0.725   2.230   6.518
   56SOL    HW1 1067   0.673   2.303   6.564
   56SOL    HW2 1068   0.724   2.148   6.575
   57SOL     OW 1069   3.878   5.344   1.459
   57SOL    HW1 1070   3.878   5.425   1.401
   57SOL    HW2 1071   3.909   5.265   1.407
   58SOL     OW 1072   0.340   1.119   0.173
   58SOL    HW1 1073   0.433   1.081   0.173
   58SOL    HW2 1074   0.277   1.051   0.135
   59SOL     OW 1075   4.023   2.906   0.026
   59SOL    HW1 1076   4.114   2.906   7.013
   59SOL    HW2 1077   4.016   2.980   0.093
   60SOL     OW 1078   6.459   2.650   2.753
   60SOL    HW1 1079   6.522   2.576   2.776
   60SOL    HW2 1080   6.436   2.645   2.656
   61SOL     OW 1081   1.920   5.568   2.814
   61SOL    HW1 1082   1.831   5.526   2.831
   61SOL    HW2 1083   1.949   5.548   2.720
   62SOL     OW 1084   4.867   3.000   3.501
   62SOL    HW1 1085   4.831   3.094   3.500
   62SOL    HW2 1086   4.796   2.938   3.467
   63SOL     OW 1087   3.681   6.926   6.354
   63SOL    HW1 1088   3.694   7.023   6.375
   63SOL    HW2 1089   3.661   6.915   6.256
   64SOL     OW 1090   1.911   2.007   6.727
   64SOL    HW1 1091   1.868   2.013   6.637
   64SOL    HW2 1092   2.002   2.047   6.722
   65SOL     OW 1093   0.476   5.339   5.159
   65SOL    HW1 1094   0.420   5.422   5.160
   65SOL    HW2 1095   0.573   5.363   5.159
   66SOL     OW 1096   4.163   1.047   1.137
   66SOL    HW1 1097   4.180   1.145   1.147
   66SOL    HW2 1098   4.205   1.014   1.053
   67SOL     OW 1099   0.092   3.304   1.746
   67SOL    HW1 1100   0.003   3.259   1.756
   67SOL    HW2 1101   0.086   3.396   1.784
   68SOL     OW 1102   1.115   1.030   6.320
   68SOL    HW1 1103   1.086   1.024   6.416
   68SOL    HW2 1104   1.040   1.003   6.261
   69SOL     OW 1105   1.751   0.379   6.277
   69SOL    HW1 1106   1.664   0.411   6.315
   69SOL    HW2 1107   1.738   0.355   6.181
   70SOL     OW 1108   4.473   5.234   3.410
   70SOL    HW1 1109   4.468   5.262   3.314
   70SOL    HW2 1110   4.503   5.139   3.416
   71SOL     OW 1111   5.545   0.770   5.068
   71SOL    HW1 1112   5.552   0.828   5.150
   71SOL    HW2 1113   5.495   0.819   4.997
   72SOL     OW 1114   6.656   1.231   2.463
   72SOL    HW1 1115   6.613   1.277   2.540
   72SOL    HW2 1116   6.587   1.177   2.413
   73SOL     OW 1117   3.124   1.037   0.928
   73SOL    HW1 1118   3.215   1.022   0.889
   73SOL    HW2 1119   3.065   0.959   0.905
   74SOL     OW 1120   2.720   0.666   0.469
   74SOL    HW1 1121   2.799   0.642   0.413
   74SOL    HW2 1122   2.668   0.739   0.425
   75SOL     OW 1123   2.624   2.660   1.745
   75SOL    HW1 1124   2.584   2.629   1.831
   75SOL    HW2 1125   2.581   2.612   1.669
   76SOL     OW 1126   3.368   4.991   6.382
   76SOL    HW1 1127   3.288   4.974   6.324
   76SOL    HW2 1128   3.352   4.954   6.473
   77SOL     OW 1129   6.919   4.943   4.646
   77SOL    HW1 1130   6.981   4.890   4.589
   77SOL    HW2 1131   6.964   5.028   4.676
   78SOL     OW 1132   5.466   1.203   1.471
   78SOL    HW1 1133   5.397   1.135   1.497
   78SOL    HW2 1134   5.539   1.204   1.538
   79SOL     OW 1135   1.836   4.041   3.802
   79SOL    HW1 1136   1.885   4.114   3.753
   79SOL    HW2 1137   1.806   4.075   3.891
   80SOL     OW 1138   3.831   2.359   5.325
   80SOL    HW1 1139   3.817   2.457   5.311
   80SOL    HW2 1140   3.745   2.316   5.352
   81SOL     OW 1141   2.730   4.974   3.360
   81SOL    HW1 1142   2.769   4.997   3.449
   81SOL    HW2 1143   2.701   4.878   3.359
   82SOL     OW 1144   2.963   0.569   1.650
   82SOL    HW1 1145   2.998   0.663   1.649
   82SOL    HW2 1146   3.021   0.511   1.593
   83SOL     OW 1147   5.872   2.118   3.543
   83SOL    HW1 1148   5.893   2.020   3.546
   83SOL    HW2 1149   5.774   2.131   3.527
   84SOL     OW 1150   5.092   2.176   2.629
   84SOL    HW1 1151   5.076   2.108   2.559
   84SOL    HW2 1152   5.178   2.156   2.677
   85SOL     OW 1153   2.548   5.307   3.639
   85SOL    HW1 1154   2.604   5.360   3.575
   85SOL    HW2 1155   2.501   5.368   3.702
   86SOL     OW 1156   4.820   0.904   0.302
   86SOL    HW1 1157   4.887   0.849   0.251
   86SOL    HW2 1158   4.855   0.996   0.315
   87SOL     OW 1159   2.781   2.799   6.970
   87SOL    HW1 1160   2.713   2.870   6.949
   87SOL    HW2 1161   2.873   2.837   6.959
   88SOL     OW 1162   1.676   2.174   1.232
   88SOL    HW1 1163   1.665   2.083   1.273
   88SOL    HW2 1164   1.587   2.218   1.224
   89SOL     OW 1165   3.903   3.469   4.841
   89SOL    HW1 1166   3.845   3.417   4.903
   89SOL    HW2 1167   3.996   3.474   4.879
   90SOL     OW 1168   6.724   3.686   2.364
   90SOL    HW1 1169   6.713   3.588   2.350
   90SOL    HW2 1170   6.681   3.712   2.450
   91SOL     OW 1171   4.791   5.163   0.614
   91SOL    HW1 1172   4.873   5.170   0.672
   91SOL    HW2 1173   4.711   5.191   0.667
   92SOL     OW 1174   6.007   5.916   6.518
   92SOL    HW1 1175   6.053   5.915   6.429
   92SOL    HW2 1176   5.966   6.006   6.534
   93SOL     OW 1177   3.098   3.894   1.593
   93SOL    HW1 1178   3.029   3.838   1.639
   93SOL    HW2 1179   3.098   3.872   1.495
   94SOL     OW 1180   3.254   1.140   4.262
   94SOL    HW1 1181   3.183   1.101   4.205
   94SOL    HW2 1182   3.254   1.240   4.252
   95SOL     OW 1183   1.123   6.355   4.894
   95SOL    HW1 1184   1.205   6.407   4.870
   95SOL    HW2 1185   1.108   6.284   4.826
   96SOL     OW 1186   6.854   6.436   6.929
   96SOL    HW1 1187   6.857   6.451   6.831
   96SOL    HW2 1188   6.938   6.391   6.959
   97SOL     OW 1189   4.003   5.238   4.808
   97SOL    HW1 1190   4.094   5.271   4.784
   97SOL    HW2 1191   3.952   5.216   4.725
   98SOL     OW 1192   0.556   2.685   4.876
   98SOL    HW1 1193   0.477   2.639   4.918
   98SOL    HW2 1194   0.543   2.784   4.881
   99SOL     OW 1195   4.419   4.632   4.601
   99SOL    HW1 1196   4.414   4.629   4.501
   99SOL    HW2 1197   4.362   4.707   4.635
  100SOL     OW 1198   1.373   1.730   5.088
  100SOL    HW1 1199   1.340   1.735   4.994
  100SOL    HW2 1200   1.456   1.785   5.097
  101SOL     OW 1201   5.371   2.978   2.446
  101SOL    HW1 1202   5.440   3.011   2.381
  101SOL    HW2 1203   5.397   2.888   2.479
  102SOL     OW 1204   4.278   6.235   0.629
  102SOL    HW1 1205   4.240   6.324   0.652
  102SOL    HW2 1206   4.336   6.203   0.704
  103SOL     OW 1207   2.028   2.203   1.246
  103SOL    HW1 1208   2.003   2.265   1.172
  103SOL    HW2 1209   1.954   2.200   1.313
  104SOL     OW 1210   0.511   4.305   1.524
  104SOL    HW1 1211   0.549   4.332   1.613
  104SOL    HW2 1212   0.581   4.316   1.454
  105SOL     OW 1213   6.698   2.025   4.870
  105SOL    HW1 1214   6.790   2.026   4.831
  105SOL    HW2 1215   6.686   2.105   4.929
  106SOL     OW 1216   4.667   3.605   1.704
  106SOL    HW1 1217   4.593   3.623   1.638
  106SOL    HW2 1218   4.702   3.692   1.739
  107SOL     OW 1219   4.424   6.972   2.111
  107SOL    HW1 1220   4.462   6.991   2.020
  107SOL    HW2 1221   4.466   0.005   2.177
  108SOL     OW 1222   3.184   1.241   4.710
  108SOL    HW1 1223   3.088   1.216   4.723
  108SOL    HW2 1224   3.204   1.324   4.763
  109SOL     OW 1225   2.401   1.837   5.461
  109SOL    HW1 1226   2.475   1.895   5.496
  109SOL    HW2 1227   2.367   1.779   5.535
  110SOL     OW 1228   4.233   4.646   5.438
  110SOL    HW1 1229   4.195   4.563   5.478
  110SOL    HW2 1230   4.161   4.715   5.429
  111SOL     OW 1231   6.651   3.435   1.082
  111SOL    HW1 1232   6.714   3.370   1.126
  111SOL    HW2 1233   6.588   3.471   1.150
  112SOL     OW 1234   4.136   6.763   4.950
  112SOL    HW1 1235   4.123   6.860   4.930
  112SOL    HW2 1236   4.048   6.721   4.972
  113SOL     OW 1237   1.141   5.282   2.263
  113SOL    HW1 1238   1.148   5.382   2.259
  113SOL    HW2 1239   1.180   5.250   2.349
  114SOL     OW 1240   0.179   1.992   1.428
  114SOL    HW1 1241   0.146   2.024   1.517
  114SOL    HW2 1242   0.251   1.924   1.443
  115SOL     OW 1243   4.443   1.480   3.011
  115SOL    HW1 1244   4.460   1.390   2.970
  115SOL    HW2 1245   4.525   1.511   3.058
  116SOL     OW 1246   5.723   5.926   0.216
  116SOL    HW1 1247   5.791   5.922   0.143
  116SOL    HW2 1248   5.632   5.911   0.178
  117SOL     OW 1249   2.468   1.245   0.864
  117SOL    HW1 1250   2.552   1.259   0.916
  117SOL    HW2 1251   2.491   1.207   0.774
  118SOL     OW 1252   1.102   2.035   2.211
  118SOL    HW1 1253   1.132   2.006   2.120
  118SOL    HW2 1254   1.133   2.128   2.228
  119SOL     OW 1255   5.380   5.293   5.250
  119SOL    HW1 1256   5.387   5.375   5.193
  119SOL    HW2 1257   5.399   5.318   5.345
  120SOL     OW 1258   4.632   1.572   4.713
  120SOL    HW1 1259   4.634   1.573   4.813
  120SOL    HW2 1260   4.702   1.633   4.677
  121SOL     OW 1261   0.174   5.233   6.038
  121SOL    HW1 1262   0.180   5.329   6.011
  121SOL    HW2 1263   0.206   5.175   5.963
  122SOL     OW 1264   0.523   4.714   5.694
  122SOL    HW1 1265   0.560   4.651   5.763
  122SOL    HW2 1266   0.428   4.691   5.675
  123SOL     OW 1267   0.809   2.782   0.920
  123SOL    HW1 1268   0.860   2.769   1.005
  123SOL    HW2 1269   0.716   2.747   0.931
  124SOL     OW 1270   2.175   3.769   6.973
  124SOL    HW1 1271   2.156   3.714   0.026
  124SOL    HW2 1272   2.125   3.855   6.978
  125SOL     OW 1273   4.453   2.591   0.080
  125SOL    HW1 1274   4.501   2.670   0.118
  125SOL    HW2 1275   4.428   2.529   0.154
  126SOL     OW 1276   3.535   3.179   4.797
  126SOL    HW1 1277   3.533   3.151   4.702
  126SOL    HW2 1278   3.619   3.147   4.841
  127SOL     OW 1279   7.016   4.807   5.846
  127SOL    HW1 1280   6.990   4.835   5.754
  127SOL    HW2 1281   6.940   4.826   5.909
  128SOL     OW 1282   4.786   4.322   5.876
  128SOL    HW1 1283   4.837   4.359   5.953
  128SOL    HW2 1284   4.818   4.230   5.855
  129SOL     OW 1285   0.982   5.639   1.850
  129SOL    HW1 1286   0.932   5.576   1.909
  129SOL    HW2 1287   1.076   5.606   1.838
  130SOL     OW 1288   6.630   3.477   4.915
  130SOL    HW1 1289   6.691   3.499   4.838
  130SOL    HW2 1290   6.575   3.557   4.938
  131SOL     OW 1291   0.640   3.650   2.696
  131SOL    HW1 1292   0.624   3.600   2.611
  131SOL    HW2 1293   0.705   3.599   2.753
  132SOL     OW 1294   4.131   3.275   1.987
  132SOL    HW1 1295   4.060   3.274   2.057
  132SOL    HW2 1296   4.126   3.191   1.933
  133SOL     OW 1297   4.190   4.410   5.597
  133SOL    HW1 1298   4.097   4.379   5.619
  133SOL    HW2 1299   4.252   4.382   5.671
  134SOL     OW 1300   6.515   1.777   6.742
  134SOL    HW1 1301   6.427   1.818   6.765
  134SOL    HW2 1302   6.571   1.768   6.824
  135SOL     OW 1303   4.880   5.307   3.619
  135SOL    HW1 1304   4.969   5.352   3.609
  135SOL    HW2 1305   4.862   5.250   3.539
  136SOL     OW 1306   4.119   6.345   5.897
  136SOL    HW1 1307   4.084   6.399   5.973
  136SOL    HW2 1308   4.048   6.335   5.827
  137SOL     OW 1309   2.235   4.725   0.559
  137SOL    HW1 1310   2.289   4.668   0.497
  137SOL    HW2 1311   2.199   4.669   0.633
  138SOL     OW 1312   0.676   5.381   0.952
  138SOL    HW1 1313   0.715   5.299   0.994
  138SOL    HW2 1314   0.580   5.363   0.926
  139SOL     OW 1315   1.064   0.528   1.356
  139SOL    HW1 1316   1.098   0.486   1.271
  139SOL    HW2 1317   1.126   0.602   1.383
  140SOL     OW 1318   2.775   7.009   2.120
  140SOL    HW1 1319   2.727   0.040   2.056
  140SOL    HW2 1320   2.869   0.012   2.132
  141SOL     OW 1321   2.005   1.987   0.010
  141SOL    HW1 1322   1.940   1.996   6.962
  141SOL    HW2 1323   2.075   2.057   0.003
  142SOL     OW 1324   1.956   3.797   6.405
  142SOL    HW1 1325   1.981   3.849   6.487
  142SOL    HW2 1326   1.974   3.700   6.421
  143SOL     OW 1327   5.572   6.041   2.055
  143SOL    HW1 1328   5.666   6.026   2.022
  143SOL    HW2 1329   5.529   5.953   2.074
  144SOL     OW 1330   1.965   5.404   3.211
  144SOL    HW1 1331   2.016   5.452   3.283
  144SOL    HW2 1332   1.947   5.311   3.241
  145SOL     OW 1333   0.011   5.973   3.109
  145SOL    HW1 1334   6.972   5.899   3.119
  145SOL    HW2 1335   7.000   6.058   3.144
  146SOL     OW 1336   7.021   0.550   5.184
  146SOL    HW1 1337   0.084   0.580   5.211
  146SOL    HW2 1338   7.022   0.452   5.166
  147SOL     OW 1339   5.971   0.229   4.677
  147SOL    HW1 1340   6.000   0.139   4.646
  147SOL    HW2 1341   5.919   0.220   4.762
  148SOL     OW 1342   1.439   6.651   2.622
  148SOL    HW1 1343   1.434   6.720   2.550
  148SOL    HW2 1344   1.383   6.680   2.700
  149SOL     OW 1345   1.990   2.158   5.086
  149SOL    HW1 1346   2.064   2.156   5.019
  149SOL    HW2 1347   2.000   2.239   5.144
  150SOL     OW 1348   5.532   3.062   5.356
  150SOL    HW1 1349   5.585   3.112   5.288
  150SOL    HW2 1350   5.462   3.122   5.394
  151SOL     OW 1351   6.058   2.846   2.109
  151SOL    HW1 1352   6.057   2.811   2.015
  151SOL    HW2 1353   6.084   2.943   2.108
  152SOL     OW 1354   6.643   2.681   0.648
  152SOL    HW1 1355   6.602   2.729   0.570
  152SOL    HW2 1356   6.742   2.678   0.636
  153SOL     OW 1357   2.120   1.742   4.097
  153SOL    HW1 1358   2.116   1.770   4.001
  153SOL    HW2 1359   2.039   1.689   4.120
  154SOL     OW 1360   0.016   0.942   4.286
  154SOL    HW1 1361   6.946   0.960   4.288
  154SOL    HW2 1362   0.035   0.854   4.331
  155SOL     OW 1363   5.882   5.058   3.274
  155SOL    HW1 1364   5.936   4.996   3.217
  155SOL    HW2 1365   5.787   5.056   3.245
  156SOL     OW 1366   4.205   0.354   1.419
  156SOL    HW1 1367   4.232   0.275   1.474
  156SOL    HW2 1368   4.156   0.419   1.476
  157SOL     OW 1369   5.631   7.024   0.749
  157SOL    HW1 1370   5.570   6.958   0.705
  157SOL    HW2 1371   5.616   0.087   0.709
  158SOL     OW 1372   1.112   2.857   5.640
  158SOL    HW1 1373   1.182   2.863   5.712
  158SOL    HW2 1374   1.044   2.788   5.666
  159SOL     OW 1375   6.814   4.537   6.659
  159SOL    HW1 1376   6.777   4.444   6.650
  159SOL    HW2 1377   6.889   4.550   6.594
  160SOL     OW 1378   3.921   0.114   1.590
  160SOL    HW1 1379   3.869   0.142   1.509
  160SOL    HW2 1380   4.005   0.167   1.596
  161SOL     OW 1381   6.352   0.052   0.934
  161SOL    HW1 1382   6.321   7.004   0.991
  161SOL    HW2 1383   6.374   0.019   0.842
  162SOL     OW 1384   4.652   0.141   5.200
  162SOL    HW1 1385   4.571   0.145   5.142
  162SOL    HW2 1386   4.630   0.181   5.289
  163SOL     OW 1387   0.988   3.982   2.644
  163SOL    HW1 1388   1.086   3.962   2.655
  163SOL    HW2 1389   0.964   3.979   2.547
  164SOL     OW 1390   2.001   2.451   3.001
  164SOL    HW1 1391   2.041   2.492   3.083
  164SOL    HW2 1392   2.038   2.358   2.989
  165SOL     OW 1393   0.338   6.218   4.767
  165SOL    HW1 1394   0.376   6.300   4.811
  165SOL    HW2 1395   0.309   6.154   4.838
  166SOL     OW 1396   0.872   5.057   4.301
  166SOL    HW1 1397   0.856   5.155   4.313
  166SOL    HW2 1398   0.811   5.005   4.360
  167SOL     OW 1399   6.933   1.294   3.098
  167SOL    HW1 1400   6.907   1.217   3.040
  167SOL    HW2 1401   6.997   1.262   3.168
  168SOL     OW 1402   3.478   3.907   3.930
  168SOL    HW1 1403   3.560   3.852   3.912
  168SOL    HW2 1404   3.504   4.003   3.935
  169SOL     OW 1405   4.545   2.660   6.336
  169SOL    HW1 1406   4.566   2.613   6.421
  169SOL    HW2 1407   4.460   2.626   6.298
  170SOL     OW 1408   0.300   5.205   2.478
  170SOL    HW1 1409   0.249   5.120   2.465
  170SOL    HW2 1410   0.249   5.265   2.539
  171SOL     OW 1411   3.565   2.859   0.844
  171SOL    HW1 1412   3.656   2.854   0.887
  171SOL    HW2 1413   3.509   2.784   0.879
  172SOL     OW 1414   1.489   1.110   7.025
  172SOL    HW1 1415   1.520   1.160   0.077
  172SOL    HW2 1416   1.391   1.095   0.003
  173SOL     OW 1417   5.767   0.691   4.914
  173SOL    HW1 1418   5.696   0.710   4.982
  173SOL    HW2 1419   5.727   0.638   4.839
  174SOL     OW 1420   6.802   3.795   4.769
  174SOL    HW1 1421   6.722   3.811   4.826
  174SOL    HW2 1422   6.834   3.701   4.780
  175SOL     OW 1423   0.753   5.380   2.739
  175SOL    HW1 1424   0.692   5.453   2.771
  175SOL    HW2 1425   0.827   5.420   2.684
  176SOL     OW 1426   5.969   4.380   0.965
  176SOL    HW1 1427   5.923   4.338   1.043
  176SOL    HW2 1428   5.958   4.479   0.968
  177SOL     OW 1429   5.787   2.827   3.620
  177SOL    HW1 1430   5.747   2.878   3.696
  177SOL    HW2 1431   5.734   2.744   3.604
  178SOL     OW 1432   1.588   5.618   4.831
  178SOL    HW1 1433   1.685   5.605   4.850
  178SOL    HW2 1434   1.552   5.536   4.787
  179SOL     OW 1435   3.563   4.137   1.978
  179SOL    HW1 1436   3.533   4.219   1.929
  179SOL    HW2 1437   3.522   4.135   2.069
  180SOL     OW 1438   4.602   0.892   6.398
  180SOL    HW1 1439   4.596   0.947   6.482
  180SOL    HW2 1440   4.558   0.942   6.323
  181SOL     OW 1441   3.605   0.248   5.484
  181SOL    HW1 1442   3.520   0.295   5.460
  181SOL    HW2 1443   3.646   0.292   5.564
  182SOL     OW 1444   3.058   2.914   5.737
  182SOL    HW1 1445   3.131   2.856   5.700
  182SOL    HW2 1446   2.973   2.862   5.741
  183SOL     OW 1447   2.626   0.938   3.344
  183SOL    HW1 1448   2.647   0.884   3.262
  183SOL    HW2 1449   2.611   0.876   3.421
  184SOL     OW 1450   5.074   6.320   3.500
  184SOL    HW1 1451   5.035   6.239   3.456
  184SOL    HW2 1452   5.037   6.402   3.457
  185SOL     OW 1453   0.468   6.277   5.436
  185SOL    HW1 1454   0.418   6.249   5.518
  185SOL    HW2 1455   0.408   6.328   5.375
  186SOL     OW 1456   3.257   5.580   6.605
  186SOL    HW1 1457   3.299   5.493   6.579
  186SOL    HW2 1458   3.264   5.593   6.704
  187SOL     OW 1459   3.484   5.194   0.446
  187SOL    HW1 1460   3.481   5.104   0.403
  187SOL    HW2 1461   3.509   5.263   0.378
  188SOL     OW 1462   1.803   4.173   4.040
  188SOL    HW1 1463   1.887   4.227   4.028
  188SOL    HW2 1464   1.730   4.231   4.075
  189SOL     OW 1465   6.466   4.426   6.198
  189SOL    HW1 1466   6.392   4.431   6.266
  189SOL    HW2 1467   6.514   4.339   6.208
  190SOL     OW 1468   6.014   6.424   7.007
  190SOL    HW1 1469   6.084   6.464   6.947
  190SOL    HW2 1470   6.058   6.371   0.051
  191SOL     OW 1471   2.163   3.389   5.939
  191SOL    HW1 1472   2.209   3.300   5.944
  191SOL    HW2 1473   2.209   3.447   5.871
  192SOL     OW 1474   0.869   0.161   1.199
  192SOL    HW1 1475   0.864   0.250   1.153
  192SOL    HW2 1476   0.847   0.173   1.296
  193SOL     OW 1477   3.227   6.948   1.714
  193SOL    HW1 1478   3.196   6.927   1.621
  193SOL    HW2 1479   3.302   7.014   1.711
  194SOL     OW 1480   4.109   6.167   3.468
  194SOL    HW1 1481   4.102   6.252   3.416
  194SOL    HW2 1482   4.017   6.132   3.487
  195SOL     OW 1483   3.313   0.943   1.351
  195SOL    HW1 1484   3.344   0.886   1.276
  195SOL    HW2 1485   3.388   1.002   1.381
  196SOL     OW 1486   3.765   2.841   1.064
  196SOL    HW1 1487   3.838   2.906   1.085
  196SOL    HW2 1488   3.750   2.781   1.142
  197SOL     OW 1489   1.518   5.748   1.328
  197SOL    HW1 1490   1.473   5.811   1.265
  197SOL    HW2 1491   1.617   5.753   1.315
  198SOL     OW 1492   6.187   7.009   6.006
  198SOL    HW1 1493   6.179   6.909   6.004
  198SOL    HW2 1494   6.272   0.009   5.961
  199SOL     OW 1495   1.857   0.872   3.328
  199SOL    HW1 1496   1.866   0.810   3.250
  199SOL    HW2 1497   1.830   0.962   3.296
  200SOL     OW 1498   1.633   3.761   3.912
  200SOL    HW1 1499   1.715   3.707   3.889
  200SOL    HW2 1500   1.551   3.709   3.888
  201SOL     OW 1501   5.068   0.935   0.032
  201SOL    HW1 1502   5.039   1.027   0.006
  201SOL    HW2 1503   5.069   0.876   6.980
  202SOL     OW 1504   4.355   0.741   2.633
  202SOL    HW1 1505   4.422   0.739   2.707
  202SOL    HW2 1506   4.339   0.648   2.600
  203SOL     OW 1507   5.939   3.135   0.435
  203SOL    HW1 1508   5.913   3.041   0.460
  203SOL    HW2 1509   6.038   3.140   0.421
  204SOL     OW 1510   2.468   5.815   0.496
  204SOL    HW1 1511   2.387   5.852   0.541
  204SOL    HW2 1512   2.537   5.791   0.564
  205SOL     OW 1513   5.427   0.699   1.455
  205SOL    HW1 1514   5.471   0.768   1.398
  205SOL    HW2 1515   5.408   0.617   1.401
  206SOL     OW 1516   0.041   6.012   0.768
  206SOL    HW1 1517   0.035   5.993   0.866
  206SOL    HW2 1518   7.001   5.957   0.720
  207SOL     OW 1519   6.316   2.492   5.869
  207SOL    HW1 1520   6.282   2.544   5.948
  207SOL    HW2 1521   6.409   2.461   5.888
  208SOL     OW 1522   4.483   3.750   0.332
  208SOL    HW1 1523   4.434   3.665   0.350
  208SOL    HW2 1524   4.436   3.802   0.261
  209SOL     OW 1525   6.851   0.017   4.157
  209SOL    HW1 1526   6.941   7.002   4.157
  209SOL    HW2 1527   6.780   6.975   4.170
  210SOL     OW 1528   4.227   1.705   0.643
  210SOL    HW1 1529   4.225   1.661   0.732
  210SOL    HW2 1530   4.175   1.791   0.647
  211SOL     OW 1531   0.225   3.678   2.680
  211SOL    HW1 1532   0.323   3.671   2.697
  211SOL    HW2 1533   0.194   3.770   2.702
  212SOL     OW 1534   1.587   4.982   5.355
  212SOL    HW1 1535   1.596   5.030   5.268
  212SOL    HW2 1536   1.604   4.884   5.341
  213SOL     OW 1537   4.271   2.766   1.212
  213SOL    HW1 1538   4.179   2.793   1.239
  213SOL    HW2 1539   4.304   2.827   1.141
  214SOL     OW 1540   0.481   5.815   4.082
  214SOL    HW1 1541   0.444   5.778   3.997
  214SOL    HW2 1542   0.568   5.769   4.104
  215SOL     OW 1543   3.678   4.044   3.614
  215SOL    HW1 1544   3.770   4.026   3.578
  215SOL    HW2 1545   3.686   4.088   3.703
  216SOL     OW 1546   3.113   7.009   5.851
  216SOL    HW1 1547   3.103   0.016   5.758
  216SOL    HW2 1548   3.158   0.050   5.907
  217SOL     OW 1549   6.617   2.188   5.092
  217SOL    HW1 1550   6.550   2.246   5.045
  217SOL    HW2 1551   6.640   2.230   5.180
  218SOL     OW 1552   3.324   4.311   5.890
  218SOL    HW1 1553   3.232   4.346   5.872
  218SOL    HW2 1554   3.326   4.212   5.877
  219SOL     OW 1555   3.159   5.824   6.522
  219SOL    HW1 1556   3.195   5.749   6.576
  219SOL    HW2 1557   3.060   5.832   6.537
  220SOL     OW 1558   1.547   4.971   0.159
  220SOL    HW1 1559   1.589   4.895   0.110
  220SOL    HW2 1560   1.448   4.969   0.145
  221SOL     OW 1561   6.301   3.414   4.295
  221SOL    HW1 1562   6.243   3.443   4.371
  221SOL    HW2 1563   6.319   3.316   4.303
  222SOL     OW 1564   1.840   6.927   4.186
  222SOL    HW1 1565   1.900   6.982   4.128
  222SOL    HW2 1566   1.807   6.848   4.134
  223SOL     OW 1567   5.718   5.076   2.495
  223SOL    HW1 1568   5.678   4.996   2.542
  223SOL    HW2 1569   5.644   5.136   2.466
  224SOL     OW 1570   5.147   3.329   2.944
  224SOL    HW1 1571   5.056   3.289   2.952
  224SOL    HW2 1572   5.216   3.261   2.970
  225SOL     OW 1573   4.770   5.983   1.710
  225SOL    HW1 1574   4.825   6.035   1.776
  225SOL    HW2 1575   4.679   6.025   1.704
  226SOL     OW 1576   1.331   5.704   2.575
  226SOL    HW1 1577   1.397   5.758   2.628
  226SOL    HW2 1578   1.336   5.730   2.479
  227SOL     OW 1579   1.125   3.933   3.409
  227SOL    HW1 1580   1.148   3.906   3.315
  227SOL    HW2 1581   1.195   3.996   3.443
  228SOL     OW 1582   4.020   5.990   2.979
  228SOL    HW1 1583   3.938   6.035   2.944
  228SOL    HW2 1584   4.013   5.980   3.078
  229SOL     OW 1585   6.076   6.055   2.705
  229SOL    HW1 1586   6.023   5.976   2.737
  229SOL    HW2 1587   6.126   6.095   2.782
  230SOL     OW 1588   0.901   4.866   5.777
  230SOL    HW1 1589   0.959   4.794   5.817
  230SOL    HW2 1590   0.813   4.867   5.824
  231SOL     OW 1591   0.206   1.640   6.327
  231SOL    HW1 1592   0.128   1.579   6.314
  231SOL    HW2 1593   0.279   1.592   6.375
  232SOL     OW 1594   1.690   3.857   6.010
  232SOL    HW1 1595   1.650   3.948   6.025
  232SOL    HW2 1596   1.709   3.814   6.098
  233SOL     OW 1597   3.379   0.080   6.786
  233SOL    HW1 1598   3.359   0.085   6.884
  233SOL    HW2 1599   3.454   0.016   6.770
  234SOL     OW 1600   1.463   4.893   6.823
  234SOL    HW1 1601   1.445   4.800   6.790
  234SOL    HW2 1602   1.446   4.897   6.922
  235SOL     OW 1603   3.883   3.338   6.124
  235SOL    HW1 1604   3.866   3.351   6.026
  235SOL    HW2 1605   3.961   3.276   6.136
  236SOL     OW 1606   6.748   1.119   6.122
  236SOL    HW1 1607   6.808   1.093   6.047
  236SOL    HW2 1608   6.793   1.189   6.178
  237SOL     OW 1609   7.001   6.743   2.244
  237SOL    HW1 1610   7.019   6.809   2.318
  237SOL    HW2 1611   6.949   6.788   2.171
  238SOL     OW 1612   0.716   2.382   2.975
  238SOL    HW1 1613   0.679   2.360   2.885
  238SOL    HW2 1614   0.814   2.365   2.976
  239SOL     OW 1615   6.205   4.841   0.476
  239SOL    HW1 1616   6.194   4.804   0.384
  239SOL    HW2 1617   6.290   4.894   0.481
  240SOL     OW 1618   0.323   1.936   4.510
  240SOL    HW1 1619   0.245   1.994   4.489
  240SOL    HW2 1620   0.388   1.986   4.567
  241SOL     OW 1621   6.036   2.054   4.861
  241SOL    HW1 1622   6.093   2.018   4.787
  241SOL    HW2 1623   5.982   2.131   4.827
  242SOL     OW 1624   2.899   2.066   3.765
  242SOL    HW1 1625   2.865   1.979   3.800
  242SOL    HW2 1626   2.964   2.105   3.829
  243SOL     OW 1627   4.742   1.275   6.648
  243SOL    HW1 1628   4.659   1.292   6.594
  243SOL    HW2 1629   4.797   1.205   6.602
  244SOL     OW 1630   0.613   1.566   6.371
  244SOL    HW1 1631   0.652   1.474   6.363
  244SOL    HW2 1632   0.591   1.601   6.281
  245SOL     OW 1633   5.315   1.820   3.834
  245SOL    HW1 1634   5.240   1.757   3.855
  245SOL    HW2 1635   5.299   1.861   3.744
  246SOL     OW 1636   5.274   3.455   4.387
  246SOL    HW1 1637   5.242   3.549   4.403
  246SOL    HW2 1638   5.328   3.424   4.465
  247SOL     OW 1639   2.660   0.712   2.704
  247SOL    HW1 1640   2.696   0.639   2.646
  247SOL    HW2 1641   2.729   0.783   2.716
  248SOL     OW 1642   0.337   2.545   3.597
  248SOL    HW1 1643   0.249   2.590   3.581
  248SOL    HW2 1644   0.411   2.603   3.564
  249SOL     OW 1645   2.476   5.735   5.228
  249SOL    HW1 1646   2.403   5.786   5.183
  249SOL    HW2 1647   2.453   5.723   5.325
  250SOL     OW 1648   5.165   2.353   6.844
  250SOL    HW1 1649   5.192   2.407   6.764
  250SOL    HW2 1650   5.168   2.411   6.925
  251SOL     OW 1651   1.847   0.463   1.360
  251SOL    HW1 1652   1.870   0.470   1.263
  251SOL    HW2 1653   1.927   0.434   1.412
  252SOL     OW 1654   6.756   2.497   0.405
  252SOL    HW1 1655   6.800   2.562   0.466
  252SOL    HW2 1656   6.667   2.533   0.377
  253SOL     OW 1657   2.095   4.477   5.807
  253SOL    HW1 1658   2.093   4.415   5.729
  253SOL    HW2 1659   2.109   4.571   5.774
  254SOL     OW 1660   4.852   3.446   6.376
  254SOL    HW1 1661   4.790   3.374   6.345
  254SOL    HW2 1662   4.821   3.534   6.339
  255SOL     OW 1663   4.330   2.355   2.612
  255SOL    HW1 1664   4.264   2.354   2.538
  255SOL    HW2 1665   4.284   2.339   2.699
  256SOL     OW 1666   0.303   6.167   1.174
  256SOL    HW1 1667   0.369   6.193   1.103
  256SOL    HW2 1668   0.350   6.157   1.262
  257SOL     OW 1669   3.220   5.976   6.309
  257SOL    HW1 1670   3.201   5.928   6.395
  257SOL    HW2 1671   3.235   5.909   6.236
  258SOL     OW 1672   4.695   5.179   4.374
  258SOL    HW1 1673   4.769   5.117   4.346
  258SOL    HW2 1674   4.610   5.151   4.329
  259SOL     OW 1675   0.591   1.496   1.965
  259SOL    HW1 1676   0.545   1.518   2.051
  259SOL    HW2 1677   0.620   1.400   1.967
  260SOL     OW 1678   6.777   6.793   5.640
  260SOL    HW1 1679   6.783   6.703   5.685
  260SOL    HW2 1680   6.714   6.788   5.563
  261SOL     OW 1681   0.621   0.865   4.172
  261SOL    HW1 1682   0.664   0.830   4.089
  261SOL    HW2 1683   0.691   0.885   4.240
  262SOL     OW 1684   1.833   5.231   1.091
  262SOL    HW1 1685   1.830   5.318   1.042
  262SOL    HW2 1686   1.923   5.219   1.133
  263SOL     OW 1687   0.666   4.486   4.534
  263SOL    HW1 1688   0.596   4.549   4.565
  263SOL    HW2 1689   0.722   4.457   4.612
  264SOL     OW 1690   3.421   3.506   0.911
  264SOL    HW1 1691   3.434   3.533   0.816
  264SOL    HW2 1692   3.510   3.489   0.953
  265SOL     OW 1693   4.501   5.727   3.874
  265SOL    HW1 1694   4.503   5.793   3.798
  265SOL    HW2 1695   4.586   5.675   3.875
  266SOL     OW 1696   4.422   3.705   6.910
  266SOL    HW1 1697   4.465   3.623   6.872
  266SOL    HW2 1698   4.366   3.749   6.840
  267SOL     OW 1699   2.530   2.348   6.435
  267SOL    HW1 1700   2.607   2.305   6.387
  267SOL    HW2 1701   2.564   2.408   6.507
  268SOL     OW 1702   1.567   4.022   3.724
  268SOL    HW1 1703   1.658   4.059   3.740
  268SOL    HW2 1704   1.562   3.928   3.760
  269SOL     OW 1705   3.416   1.491   5.744
  269SOL    HW1 1706   3.514   1.503   5.731
  269SOL    HW2 1707   3.378   1.573   5.788
  270SOL     OW 1708   5.501   5.538   4.773
  270SOL    HW1 1709   5.431   5.475   4.809
  270SOL    HW2 1710   5.484   5.630   4.809
  271SOL     OW 1711   2.552   1.685   0.358
  271SOL    HW1 1712   2.561   1.751   0.284
  271SOL    HW2 1713   2.532   1.595   0.321
  272SOL     OW 1714   5.476   4.832   6.754
  272SOL    HW1 1715   5.496   4.919   6.798
  272SOL    HW2 1716   5.488   4.842   6.655
  273SOL     OW 1717   0.887   6.216   3.966
  273SOL    HW1 1718   0.832   6.292   4.001
  273SOL    HW2 1719   0.828   6.140   3.942
  274SOL     OW 1720   5.405   2.845   2.723
  274SOL    HW1 1721   5.346   2.775   2.763
  274SOL    HW2 1722   5.496   2.839   2.764
  275SOL     OW 1723   5.771   5.253   5.506
  275SOL    HW1 1724   5.800   5.159   5.525
  275SOL    HW2 1725   5.762   5.265   5.407
  276SOL     OW 1726   0.911   0.289   4.601
  276SOL    HW1 1727   0.947   0.302   4.508
  276SOL    HW2 1728   0.937   0.368   4.658
  277SOL     OW 1729   4.024   3.255   5.455
  277SOL    HW1 1730   4.061   3.195   5.526
  277SOL    HW2 1731   3.928   3.275   5.476
  278SOL     OW 1732   6.031   4.449   2.125
  278SOL    HW1 1733   6.000   4.394   2.202
  278SOL    HW2 1734   6.119   4.415   2.093
  279SOL     OW 1735   0.447   3.761   4.376
  279SOL    HW1 1736   0.432   3.839   4.437
  279SOL    HW2 1737   0.476   3.794   4.286
  280SOL     OW 1738   4.726   1.817   2.877
  280SOL    HW1 1739   4.720   1.894   2.814
  280SOL    HW2 1740   4.661   1.829   2.952
  281SOL     OW 1741   4.821   5.248   5.215
  281SOL    HW1 1742   4.754   5.232   5.287
  281SOL    HW2 1743   4.913   5.244   5.253
  282SOL     OW 1744   0.255   2.322   0.145
  282SOL    HW1 1745   0.197   2.272   0.081
  282SOL    HW2 1746   0.214   2.320   0.236
  283SOL     OW 1747   6.020   3.754   2.246
  283SOL    HW1 1748   6.092   3.796   2.191
  283SOL    HW2 1749   6.003   3.810   2.326
  284SOL     OW 1750   5.739   6.801   3.469
  284SOL    HW1 1751   5.673   6.728   3.445
  284SOL    HW2 1752   5.702   6.856   3.543
  285SOL     OW 1753   4.284   5.920   6.597
  285SOL    HW1 1754   4.360   5.977   6.566
  285SOL    HW2 1755   4.252   5.863   6.521
  286SOL     OW 1756   3.510   4.991   5.027
  286SOL    HW1 1757   3.509   5.090   5.012
  286SOL    HW2 1758   3.594   4.966   5.076
  287SOL     OW 1759   3.915   6.238   0.640
  287SOL    HW1 1760   3.929   6.282   0.728
  287SOL    HW2 1761   3.949   6.144   0.643
  288SOL     OW 1762   4.548   0.846   0.221
  288SOL    HW1 1763   4.559   0.883   0.128
  288SOL    HW2 1764   4.633   0.860   0.272
  289SOL     OW 1765   5.194   4.919   4.875
  289SOL    HW1 1766   5.266   4.938   4.807
  289SOL    HW2 1767   5.114   4.975   4.854
  290SOL     OW 1768   3.018   0.521   5.199
  290SOL    HW1 1769   3.012   0.593   5.268
  290SOL    HW2 1770   3.098   0.464   5.217
  291SOL     OW 1771   5.791   0.974   4.855
  291SOL    HW1 1772   5.842   1.008   4.776
  291SOL    HW2 1773   5.795   0.874   4.857
  292SOL     OW 1774   2.957   0.654   3.570
  292SOL    HW1 1775   2.863   0.677   3.544
  292SOL    HW2 1776   3.019   0.681   3.496
  293SOL     OW 1777   5.169   1.147   2.779
  293SOL    HW1 1778   5.182   1.229   2.723
  293SOL    HW2 1779   5.217   1.158   2.866
  294SOL     OW 1780   6.568   1.529   6.946
  294SOL    HW1 1781   6.471   1.551   6.941
  294SOL    HW2 1782   6.609   1.540   6.855
  295SOL     OW 1783   0.011   0.278   4.939
  295SOL    HW1 1784   6.942   0.255   4.950
  295SOL    HW2 1785   0.054   0.283   5.028
  296SOL     OW 1786   0.129   2.008   0.744
  296SOL    HW1 1787   0.029   2.013   0.748
  296SOL    HW2 1788   0.162   1.943   0.813
  297SOL     OW 1789   5.014   3.309   3.540
  297SOL    HW1 1790   4.940   3.299   3.606
  297SOL    HW2 1791   5.069   3.390   3.563
  298SOL     OW 1792   4.344   0.015   5.290
  298SOL    HW1 1793   4.333   0.021   5.389
  298SOL    HW2 1794   4.434   7.004   5.268
  299SOL     OW 1795   0.661   1.100   6.202
  299SOL    HW1 1796   0.588   1.060   6.258
  299SOL    HW2 1797   0.626   1.120   6.111
  300SOL     OW 1798   4.523   6.281   4.264
  300SOL    HW1 1799   4.445   6.249   4.211
  300SOL    HW2 1800   4.491   6.336   4.341
  301SOL     OW 1801   6.758   6.393   5.128
  301SOL    HW1 1802   6.782   6.463   5.196
  301SOL    HW2 1803   6.818   6.401   5.049
  302SOL     OW 1804   0.371   6.678   1.758
  302SOL    HW1 1805   0.321   6.671   1.844
  302SOL    HW2 1806   0.307   6.674   1.682
  303SOL     OW 1807   5.486   5.232   2.542
  303SOL    HW1 1808   5.512   5.187   2.628
  303SOL    HW2 1809   5.394   5.272   2.552
  304SOL     OW 1810   1.127   0.869   3.690
  304SOL    HW1 1811   1.119   0.887   3.788
  304SOL    HW2 1812   1.048   0.817   3.660
  305SOL     OW 1813   2.667   2.015   1.336
  305SOL    HW1 1814   2.663   1.939   1.272
  305SOL    HW2 1815   2.746   2.073   1.313
  306SOL     OW 1816   0.423   6.760   2.488
  306SOL    HW1 1817   0.425   6.842   2.431
  306SOL    HW2 1818   0.481   6.774   2.569
  307SOL     OW 1819   4.053   3.860   4.438
  307SOL    HW1 1820   4.070   3.840   4.535
  307SOL    HW2 1821   4.114   3.804   4.382
  308SOL     OW 1822   6.428   2.298   1.742
  308SOL    HW1 1823   6.511   2.253   1.776
  308SOL    HW2 1824   6.397   2.365   1.809
  309SOL     OW 1825   1.870   4.754   0.248
  309SOL    HW1 1826   1.896   4.815   0.323
  309SOL    HW2 1827   1.950   4.705   0.216
  310SOL     OW 1828   4.833   6.413   4.895
  310SOL    HW1 1829   4.909   6.402   4.958
  310SOL    HW2 1830   4.864   6.462   4.813
  311SOL     OW 1831   2.041   6.343   2.236
  311SOL    HW1 1832   1.947   6.378   2.244
  311SOL    HW2 1833   2.095   6.406   2.180
  312SOL     OW 1834   3.468   0.719   4.635
  312SOL    HW1 1835   3.436   0.757   4.549
  312SOL    HW2 1836   3.525   0.787   4.683
  313SOL     OW 1837   3.385   3.439   3.040
  313SOL    HW1 1838   3.286   3.434   3.033
  313SOL    HW2 1839   3.412   3.525   3.083
  314SOL     OW 1840   2.336   4.609   6.108
  314SOL    HW1 1841   2.279   4.531   6.083
  314SOL    HW2 1842   2.414   4.578   6.163
  315SOL     OW 1843   5.953   6.908   4.837
  315SOL    HW1 1844   6.026   6.846   4.865
  315SOL    HW2 1845   5.883   6.912   4.908
  316SOL     OW 1846   3.925   0.711   4.780
  316SOL    HW1 1847   3.829   0.692   4.801
  316SOL    HW2 1848   3.978   0.717   4.864
  317SOL     OW 1849   1.001   2.089   1.552
  317SOL    HW1 1850   1.056   2.015   1.514
  317SOL    HW2 1851   1.060   2.166   1.576
  318SOL     OW 1852   0.795   1.006   3.592
  318SOL    HW1 1853   0.880   1.053   3.566
  318SOL    HW2 1854   0.725   1.075   3.614
  319SOL     OW 1855   0.875   1.514   2.256
  319SOL    HW1 1856   0.929   1.574   2.198
  319SOL    HW2 1857   0.864   1.425   2.212
  320SOL     OW 1858   5.270   1.042   0.199
  320SOL    HW1 1859   5.250   1.122   0.255
  320SOL    HW2 1860   5.189   1.021   0.143
  321SOL     OW 1861   4.126   3.088   1.265
  321SOL    HW1 1862   4.057   3.159   1.248
  321SOL    HW2 1863   4.214   3.132   1.285
  322SOL     OW 1864   3.050   1.811   6.784
  322SOL    HW1 1865   3.034   1.830   6.881
  322SOL    HW2 1866   3.103   1.727   6.776
  323SOL     OW 1867   1.168   4.143   2.344
  323SOL    HW1 1868   1.194   4.166   2.437
  323SOL    HW2 1869   1.250   4.128   2.289
  324SOL     OW 1870   6.291   0.220   4.070
  324SOL    HW1 1871   6.283   0.286   3.995
  324SOL    HW2 1872   6.202   0.177   4.087
  325SOL     OW 1873   6.345   3.830   0.913
  325SOL    HW1 1874   6.426   3.859   0.964
  325SOL    HW2 1875   6.373   3.782   0.830
  326SOL     OW 1876   6.604   5.759   6.717
  326SOL    HW1 1877   6.577   5.851   6.689
  326SOL    HW2 1878   6.621   5.757   6.815
  327SOL     OW 1879   4.391   6.482   6.325
  327SOL    HW1 1880   4.396   6.384   6.340
  327SOL    HW2 1881   4.296   6.512   6.331
  328SOL     OW 1882   2.145   4.363   3.686
  328SOL    HW1 1883   2.092   4.440   3.722
  328SOL    HW2 1884   2.211   4.333   3.755
  329SOL     OW 1885   3.100   3.376   2.573
  329SOL    HW1 1886   3.143   3.429   2.646
  329SOL    HW2 1887   3.169   3.349   2.506
  330SOL     OW 1888   2.494   3.703   6.608
  330SOL    HW1 1889   2.429   3.697   6.532
  330SOL    HW2 1890   2.471   3.782   6.665
  331SOL     OW 1891   5.102   5.449   3.526
  331SOL    HW1 1892   5.067   5.469   3.435
  331SOL    HW2 1893   5.198   5.479   3.532
  332SOL     OW 1894   5.989   1.890   2.748
  332SOL    HW1 1895   5.969   1.984   2.720
  332SOL    HW2 1896   6.070   1.888   2.806
  333SOL     OW 1897   3.622   6.709   3.357
  333SOL    HW1 1898   3.562   6.774   3.312
  333SOL    HW2 1899   3.673   6.755   3.430
  334SOL     OW 1900   3.927   3.237   4.170
  334SOL    HW1 1901   4.011   3.291   4.163
  334SOL    HW2 1902   3.932   3.178   4.251
  335SOL     OW 1903   4.849   1.474   1.063
  335SOL    HW1 1904   4.784   1.528   1.117
  335SOL    HW2 1905   4.813   1.464   0.970
  336SOL     OW 1906   3.935   1.987   4.914
  336SOL    HW1 1907   3.885   2.018   4.995
  336SOL    HW2 1908   3.996   1.912   4.939
  337SOL     OW 1909   0.249   1.666   5.315
  337SOL    HW1 1910   0.167   1.658   5.258
  337SOL    HW2 1911   0.327   1.624   5.269
  338SOL     OW 1912   4.757   1.184   1.683
  338SOL    HW1 1913   4.813   1.262   1.655
  338SOL    HW2 1914   4.665   1.216   1.705
  339SOL     OW 1915   3.455   5.019   5.899
  339SOL    HW1 1916   3.451   4.958   5.978
  339SOL    HW2 1917   3.425   4.970   5.817
  340SOL     OW 1918   4.879   3.192   4.900
  340SOL    HW1 1919   4.964   3.244   4.901
  340SOL    HW2 1920   4.833   3.204   4.812
  341SOL     OW 1921   6.635   0.385   1.840
  341SOL    HW1 1922   6.690   0.467   1.824
  341SOL    HW2 1923   6.547   0.412   1.878
  342SOL     OW 1924   4.521   1.054   2.065
  342SOL    HW1 1925   4.616   1.024   2.061
  342SOL    HW2 1926   4.499   1.084   2.159
  343SOL     OW 1927   6.117   0.183   1.697
  343SOL    HW1 1928   6.108   0.088   1.669
  343SOL    HW2 1929   6.026   0.223   1.709
  344SOL     OW 1930   0.000   2.427   1.532
  344SOL    HW1 1931   0.086   2.405   1.578
  344SOL    HW2 1932   6.953   2.422   1.598
  345SOL     OW 1933   6.841   2.705   4.432
  345SOL    HW1 1934   6.795   2.703   4.343
  345SOL    HW2 1935   6.935   2.673   4.422
  346SOL     OW 1936   1.620   6.132   2.400
  346SOL    HW1 1937   1.524   6.158   2.391
  346SOL    HW2 1938   1.662   6.184   2.475
  347SOL     OW 1939   1.612   4.287   1.402
  347SOL    HW1 1940   1.580   4.278   1.497
  347SOL    HW2 1941   1.551   4.237   1.341
  348SOL     OW 1942   5.589   4.300   1.542
  348SOL    HW1 1943   5.664   4.360   1.515
  348SOL    HW2 1944   5.524   4.292   1.466
  349SOL     OW 1945   5.965   5.182   0.550
  349SOL    HW1 1946   5.872   5.195   0.585
  349SOL    HW2 1947   5.983   5.084   0.539
  350SOL     OW 1948   2.786   1.042   0.900
  350SOL    HW1 1949   2.854   0.969   0.896
  350SOL    HW2 1950   2.793   1.098   0.818
  351SOL     OW 1951   3.638   4.392   1.184
  351SOL    HW1 1952   3.696   4.337   1.244
  351SOL    HW2 1953   3.646   4.358   1.090
  352SOL     OW 1954   4.293   0.278   2.074
  352SOL    HW1 1955   4.225   0.303   2.144
  352SOL    HW2 1956   4.380   0.256   2.118
  353SOL     OW 1957   2.722   5.872   0.305
  353SOL    HW1 1958   2.655   5.852   0.375
  353SOL    HW2 1959   2.676   5.899   0.220
  354SOL     OW 1960   1.474   2.169   0.562
  354SOL    HW1 1961   1.540   2.105   0.601
  354SOL    HW2 1962   1.448   2.138   0.470
  355SOL     OW 1963   0.266   2.983   3.341
  355SOL    HW1 1964   0.326   2.964   3.418
  355SOL    HW2 1965   0.318   2.974   3.256
  356SOL     OW 1966   2.566   0.213   5.814
  356SOL    HW1 1967   2.528   0.238   5.903
  356SOL    HW2 1968   2.639   0.145   5.826
  357SOL     OW 1969   5.381   5.628   4.537
  357SOL    HW1 1970   5.424   5.597   4.623
  357SOL    HW2 1971   5.329   5.554   4.497
  358SOL     OW 1972   3.221   6.145   0.030
  358SOL    HW1 1973   3.195   6.212   6.989
  358SOL    HW2 1974   3.269   6.069   7.014
  359SOL     OW 1975   1.859   2.876   1.787
  359SOL    HW1 1976   1.794   2.804   1.760
  359SOL    HW2 1977   1.950   2.835   1.798
  360SOL     OW 1978   2.249   4.041   3.254
  360SOL    HW1 1979   2.254   4.076   3.348
  360SOL    HW2 1980   2.304   4.099   3.194
  361SOL     OW 1981   6.978   2.582   2.938
  361SOL    HW1 1982   6.934   2.497   2.969
  361SOL    HW2 1983   6.943   2.659   2.992
  362SOL     OW 1984   3.939   3.322   2.571
  362SOL    HW1 1985   3.972   3.245   2.516
  362SOL    HW2 1986   3.848   3.348   2.540
  363SOL     OW 1987   4.655   4.557   0.353
  363SOL    HW1 1988   4.721   4.599   0.416
  363SOL    HW2 1989   4.703   4.497   0.289
  364SOL     OW 1990   1.156   0.480   7.006
  364SOL    HW1 1991   1.236   0.523   6.965
  364SOL    HW2 1992   1.163   0.380   6.997
  365SOL     OW 1993   4.805   0.405   3.564
  365SOL    HW1 1994   4.889   0.351   3.552
  365SOL    HW2 1995   4.789   0.420   3.661
  366SOL     OW 1996   5.230   1.993   0.517
  366SOL    HW1 1997   5.218   2.093   0.512
  366SOL    HW2 1998   5.306   1.972   0.579
  367SOL     OW 1999   5.368   0.795   0.162
  367SOL    HW1 2000   5.420   0.802   0.078
  367SOL    HW2 2001   5.305   0.873   0.169
  368SOL     OW 2002   3.215   1.496   5.559
  368SOL    HW1 2003   3.273   1.473   5.637
  368SOL    HW2 2004   3.122   1.462   5.576
  369SOL     OW 2005   5.078   3.855   0.358
  369SOL    HW1 2006   5.153   3.802   0.318
  369SOL    HW2 2007   5.000   3.795   0.373
  370SOL     OW 2008   1.759   2.463   3.696
  370SOL    HW1 2009   1.797   2.553   3.715
  370SOL    HW2 2010   1.750   2.451   3.597
  371SOL     OW 2011   2.584   5.263   0.141
  371SOL    HW1 2012   2.547   5.356   0.147
  371SOL    HW2 2013   2.590   5.235   0.046
  372SOL     OW 2014   2.634   5.858   6.259
  372SOL    HW1 2015   2.662   5.776   6.209
  372SOL    HW2 2016   2.534   5.862   6.262
  373SOL     OW 2017   5.989   5.038   2.587
  373SOL    HW1 2018   6.081   5.069   2.564
  373SOL    HW2 2019   5.925   5.065   2.515
  374SOL     OW 2020   2.660   2.281   2.007
  374SOL    HW1 2021   2.605   2.275   1.924
  374SOL    HW2 2022   2.756   2.291   1.984
  375SOL     OW 2023   6.959   5.955   4.156
  375SOL    HW1 2024   6.863   5.979   4.170
  375SOL    HW2 2025   7.016   6.036   4.165
  376SOL     OW 2026   4.097   0.270   3.646
  376SOL    HW1 2027   4.032   0.251   3.572
  376SOL    HW2 2028   4.149   0.353   3.625
  377SOL     OW 2029   2.729   2.981   6.301
  377SOL    HW1 2030   2.798   3.050   6.282
  377SOL    HW2 2031   2.709   2.929   6.218
  378SOL     OW 2032   4.183   1.181   1.825
  378SOL    HW1 2033   4.154   1.276   1.812
  378SOL    HW2 2034   4.185   1.160   1.923
  379SOL     OW 2035   3.937   2.952   6.698
  379SOL    HW1 2036   3.955   3.044   6.732
  379SOL    HW2 2037   3.897   2.897   6.771
  380SOL     OW 2038   4.817   1.986   0.594
  380SOL    HW1 2039   4.807   2.081   0.565
  380SOL    HW2 2040   4.860   1.983   0.684
  381SOL     OW 2041   1.569   3.666   2.735
  381SOL    HW1 2042   1.516   3.585   2.760
  381SOL    HW2 2043   1.664   3.640   2.721
  382SOL     OW 2044   5.992   6.980   0.278
  382SOL    HW1 2045   5.992   6.881   0.293
  382SOL    HW2 2046   5.959   7.026   0.360
  383SOL     OW 2047   5.076   3.190   0.793
  383SOL    HW1 2048   5.044   3.146   0.709
  383SOL    HW2 2049   5.074   3.124   0.868
  384SOL     OW 2050   1.097   2.992   5.376
  384SOL    HW1 2051   1.033   2.934   5.325
  384SOL    HW2 2052   1.115   2.951   5.465
  385SOL     OW 2053   4.899   2.448   6.340
  385SOL    HW1 2054   4.873   2.392   6.261
  385SOL    HW2 2055   4.844   2.421   6.419
  386SOL     OW 2056   3.934   6.396   5.154
  386SOL    HW1 2057   3.885   6.380   5.240
  386SOL    HW2 2058   3.901   6.480   5.112
  387SOL     OW 2059   2.415   6.556   3.674
  387SOL    HW1 2060   2.425   6.510   3.762
  387SOL    HW2 2061   2.318   6.573   3.657
  388SOL     OW 2062   1.473   5.045   5.932
  388SOL    HW1 2063   1.434   5.036   6.024
  388SOL    HW2 2064   1.404   5.020   5.864
  389SOL     OW 2065   2.674   2.762   0.658
  389SOL    HW1 2066   2.633   2.839   0.609
  389SOL    HW2 2067   2.733   2.797   0.732
  390SOL     OW 2068   2.562   1.771   4.091
  390SOL    HW1 2069   2.544   1.689   4.036
  390SOL    HW2 2070   2.526   1.756   4.184
  391SOL     OW 2071   0.471   2.385   0.428
  391SOL    HW1 2072   0.456   2.324   0.350
  391SOL    HW2 2073   0.569   2.396   0.443
  392SOL     OW 2074   3.527   5.199   4.651
  392SOL    HW1 2075   3.594   5.250   4.597
  392SOL    HW2 2076   3.576   5.147   4.722
  393SOL     OW 2077   6.202   3.494   5.166
  393SOL    HW1 2078   6.110   3.526   5.191
  393SOL    HW2 2079   6.269   3.565   5.188
  394SOL     OW 2080   2.150   1.249   6.263
  394SOL    HW1 2081   2.108   1.181   6.204
  394SOL    HW2 2082   2.080   1.309   6.302
  395SOL     OW 2083   7.005   3.129   1.131
  395SOL    HW1 2084   7.000   3.068   1.210
  395SOL    HW2 2085   0.042   3.092   1.065
  396SOL     OW 2086   3.446   2.409   5.822
  396SOL    HW1 2087   3.442   2.310   5.836
  396SOL    HW2 2088   3.484   2.428   5.732
  397SOL     OW 2089   4.396   0.565   6.603
  397SOL    HW1 2090   4.359   0.496   6.665
  397SOL    HW2 2091   4.483   0.600   6.639
  398SOL     OW 2092   7.025   4.671   2.796
  398SOL    HW1 2093   6.958   4.658   2.723
  398SOL    HW2 2094   6.987   4.733   2.865
  399SOL     OW 2095   4.608   5.461   1.904
  399SOL    HW1 2096   4.523   5.428   1.862
  399SOL    HW2 2097   4.593   5.553   1.941
  400SOL     OW 2098   2.259   4.738   4.942
  400SOL    HW1 2099   2.326   4.724   5.015
  400SOL    HW2 2100   2.185   4.797   4.974
  401SOL     OW 2101   6.211   1.543   1.325
  401SOL    HW1 2102   6.309   1.526   1.314
  401SOL    HW2 2103   6.194   1.577   1.418
  402SOL     OW 2104   0.171   5.002   0.623
  402SOL    HW1 2105   0.185   5.024   0.526
  402SOL    HW2 2106   0.153   5.086   0.674
  403SOL     OW 2107   4.989   4.573   0.911
  403SOL    HW1 2108   5.072   4.618   0.942
  403SOL    HW2 2109   4.962   4.504   0.979
  404SOL     OW 2110   0.100   5.764   4.970
  404SOL    HW1 2111   0.054   5.715   4.896
  404SOL    HW2 2112   0.032   5.806   5.030
  405SOL     OW 2113   1.341   2.084   1.466
  405SOL    HW1 2114   1.338   1.985   1.451
  405SOL    HW2 2115   1.273   2.128   1.408
  406SOL     OW 2116   0.606   2.750   3.717
  406SOL    HW1 2117   0.655   2.695   3.649
  406SOL    HW2 2118   0.574   2.691   3.791
  407SOL     OW 2119   3.561   2.110   3.989
  407SOL    HW1 2120   3.590   2.041   3.923
  407SOL    HW2 2121   3.641   2.155   4.029
  408SOL     OW 2122   2.850   0.412   3.833
  408SOL    HW1 2123   2.931   0.359   3.808
  408SOL    HW2 2124   2.769   0.372   3.790
  409SOL     OW 2125   6.975   4.085   4.075
  409SOL    HW1 2126   6.888   4.041   4.052
  409SOL    HW2 2127   6.966   4.134   4.162
  410SOL     OW 2128   2.919   6.592   6.215
  410SOL    HW1 2129   2.885   6.506   6.178
  410SOL    HW2 2130   2.988   6.630   6.153
  411SOL     OW 2131   0.225   4.362   5.290
  411SOL    HW1 2132   0.208   4.263   5.292
  411SOL    HW2 2133   0.173   4.403   5.215
  412SOL     OW 2134   3.610   6.623   2.474
  412SOL    HW1 2135   3.681   6.692   2.468
  412SOL    HW2 2136   3.614   6.563   2.394
  413SOL     OW 2137   2.358   1.031   2.273
  413SOL    HW1 2138   2.367   1.124   2.308
  413SOL    HW2 2139   2.264   1.016   2.241
  414SOL     OW 2140   4.981   4.984   0.817
  414SOL    HW1 2141   4.950   4.919   0.748
  414SOL    HW2 2142   4.978   4.942   0.908
  415SOL     OW 2143   4.034   0.182   2.204
  415SOL    HW1 2144   4.100   0.243   2.249
  415SOL    HW2 2145   4.078   0.138   2.125
  416SOL     OW 2146   4.147   5.824   7.000
  416SOL    HW1 2147   4.106   5.742   0.012
  416SOL    HW2 2148   4.124   5.903   0.029
  417SOL     OW 2149   5.412   5.130   0.994
  417SOL    HW1 2150   5.402   5.039   0.954
  417SOL    HW2 2151   5.400   5.123   1.093
  418SOL     OW 2152   6.676   4.984   6.547
  418SOL    HW1 2153   6.705   4.934   6.629
  418SOL    HW2 2154   6.630   5.068   6.574
  419SOL     OW 2155   5.308   5.271   6.733
  419SOL    HW1 2156   5.224   5.325   6.728
  419SOL    HW2 2157   5.349   5.266   6.642
  420SOL     OW 2158   4.763   4.188   6.402
  420SOL    HW1 2159   4.677   4.175   6.452
  420SOL    HW2 2160   4.761   4.135   6.317
  421SOL     OW 2161   1.832   6.462   6.554
  421SOL    HW1 2162   1.753   6.404   6.534
  421SOL    HW2 2163   1.807   6.531   6.621
  422SOL     OW 2164   6.585   3.939   6.927
  422SOL    HW1 2165   6.598   4.020   6.984
  422SOL    HW2 2166   6.556   3.862   6.984
  423SOL     OW 2167   1.045   3.636   6.133
  423SOL    HW1 2168   1.064   3.658   6.229
  423SOL    HW2 2169   0.947   3.643   6.116
  424SOL     OW 2170   1.454   4.316   6.291
  424SOL    HW1 2171   1.486   4.248   6.225
  424SOL    HW2 2172   1.517   4.320   6.368
  425SOL     OW 2173   3.551   0.028   0.193
  425SOL    HW1 2174   3.595   0.023   0.103
  425SOL    HW2 2175   3.598   0.095   0.250
  426SOL     OW 2176   0.192   4.011   6.674
  426SOL    HW1 2177   0.111   3.994   6.617
  426SOL    HW2 2178   0.273   4.014   6.617
  427SOL     OW 2179   3.884   3.571   0.139
  427SOL    HW1 2180   3.981   3.559   0.162
  427SOL    HW2 2181   3.862   3.517   0.057
  428SOL     OW 2182   4.208   1.354   5.117
  428SOL    HW1 2183   4.288   1.384   5.169
  428SOL    HW2 2184   4.237   1.303   5.037
  429SOL     OW 2185   3.052   6.497   0.342
  429SOL    HW1 2186   3.008   6.579   0.380
  429SOL    HW2 2187   3.094   6.444   0.416
  430SOL     OW 2188   3.123   0.404   4.504
  430SOL    HW1 2189   3.048   0.339   4.492
  430SOL    HW2 2190   3.183   0.401   4.424
  431SOL     OW 2191   3.745   1.067   0.138
  431SOL    HW1 2192   3.796   1.119   0.206
  431SOL    HW2 2193   3.809   1.013   0.083
  432SOL     OW 2194   6.887   1.227   0.740
  432SOL    HW1 2195   6.803   1.233   0.685
  432SOL    HW2 2196   6.958   1.180   0.687
  433SOL     OW 2197   3.341   6.250   4.965
  433SOL    HW1 2198   3.401   6.284   4.892
  433SOL    HW2 2199   3.374   6.162   4.997
  434SOL     OW 2200   6.257   3.799   1.172
  434SOL    HW1 2201   6.221   3.708   1.196
  434SOL    HW2 2202   6.291   3.797   1.078
  435SOL     OW 2203   3.811   3.675   0.929
  435SOL    HW1 2204   3.879   3.730   0.979
  435SOL    HW2 2205   3.747   3.736   0.882
  436SOL     OW 2206   3.344   1.032   0.758
  436SOL    HW1 2207   3.435   1.072   0.768
  436SOL    HW2 2208   3.325   1.015   0.661
  437SOL     OW 2209   6.940   6.663   5.967
  437SOL    HW1 2210   6.861   6.602   5.956
  437SOL    HW2 2211   6.971   6.660   6.062
  438SOL     OW 2212   1.185   3.138   1.240
  438SOL    HW1 2213   1.136   3.213   1.194
  438SOL    HW2 2214   1.274   3.172   1.273
  439SOL     OW 2215   6.323   5.451   1.648
  439SOL    HW1 2216   6.365   5.530   1.693
  439SOL    HW2 2217   6.391   5.405   1.591
  440SOL     OW 2218   1.667   2.904   2.996
  440SOL    HW1 2219   1.764   2.882   2.993
  440SOL    HW2 2220   1.655   3.003   3.008
  441SOL     OW 2221   0.371   1.164   3.046
  441SOL    HW1 2222   0.302   1.095   3.026
  441SOL    HW2 2223   0.377   1.229   2.970
  442SOL     OW 2224   0.503   5.081   6.178
  442SOL    HW1 2225   0.534   5.166   6.138
  442SOL    HW2 2226   0.470   5.019   6.106
  443SOL     OW 2227   0.599   4.598   5.444
  443SOL    HW1 2228   0.564   4.651   5.522
  443SOL    HW2 2229   0.652   4.659   5.385
  444SOL     OW 2230   5.070   2.709   6.670
  444SOL    HW1 2231   5.097   2.780   6.735
  444SOL    HW2 2232   5.061   2.748   6.579
  445SOL     OW 2233   1.059   3.883   3.704
  445SOL    HW1 2234   1.074   3.940   3.623
  445SOL    HW2 2235   1.004   3.934   3.770
  446SOL     OW 2236   2.538   5.270   4.020
  446SOL    HW1 2237   2.619   5.228   3.979
  446SOL    HW2 2238   2.549   5.273   4.119
  447SOL     OW 2239   6.656   6.211   0.831
  447SOL    HW1 2240   6.694   6.218   0.923
  447SOL    HW2 2241   6.610   6.123   0.821
  448SOL     OW 2242   4.363   0.311   5.803
  448SOL    HW1 2243   4.385   0.404   5.774
  448SOL    HW2 2244   4.431   0.248   5.766
  449SOL     OW 2245   5.103   0.289   4.254
  449SOL    HW1 2246   5.070   0.222   4.187
  449SOL    HW2 2247   5.035   0.300   4.326
  450SOL     OW 2248   6.690   6.847   3.020
  450SOL    HW1 2249   6.613   6.847   3.084
  450SOL    HW2 2250   6.699   6.757   2.978
  451SOL     OW 2251   6.675   3.369   4.106
  451SOL    HW1 2252   6.767   3.407   4.120
  451SOL    HW2 2253   6.609   3.444   4.098
  452SOL     OW 2254   6.731   5.256   6.024
  452SOL    HW1 2255   6.655   5.240   6.087
  452SOL    HW2 2256   6.814   5.216   6.062
  453SOL     OW 2257   3.521   1.834   6.109
  453SOL    HW1 2258   3.450   1.877   6.052
  453SOL    HW2 2259   3.485   1.751   6.150
  454SOL     OW 2260   0.714   6.486   0.262
  454SOL    HW1 2261   0.765   6.477   0.176
  454SOL    HW2 2262   0.758   6.554   0.320
  455SOL     OW 2263   5.348   1.126   4.894
  455SOL    HW1 2264   5.385   1.037   4.867
  455SOL    HW2 2265   5.257   1.114   4.932
  456SOL     OW 2266   4.003   4.787   6.960
  456SOL    HW1 2267   4.101   4.773   6.945
  456SOL    HW2 2268   3.953   4.759   6.878
  457SOL     OW 2269   0.701   4.686   1.677
  457SOL    HW1 2270   0.797   4.674   1.653
  457SOL    HW2 2271   0.649   4.605   1.649
  458SOL     OW 2272   0.844   5.719   5.276
  458SOL    HW1 2273   0.919   5.782   5.260
  458SOL    HW2 2274   0.781   5.757   5.344
  459SOL     OW 2275   1.513   0.702   3.142
  459SOL    HW1 2276   1.547   0.642   3.069
  459SOL    HW2 2277   1.518   0.654   3.229
  460SOL     OW 2278   6.356   2.199   3.722
  460SOL    HW1 2279   6.423   2.212   3.795
  460SOL    HW2 2280   6.338   2.287   3.677
  461SOL     OW 2281   5.765   4.622   5.283
  461SOL    HW1 2282   5.708   4.566   5.223
  461SOL    HW2 2283   5.854   4.636   5.240
  462SOL     OW 2284   2.862   1.834   0.202
  462SOL    HW1 2285   2.831   1.739   0.210
  462SOL    HW2 2286   2.933   1.840   0.131
  463SOL     OW 2287   6.849   5.884   2.276
  463SOL    HW1 2288   6.765   5.934   2.291
  463SOL    HW2 2289   6.828   5.787   2.259
  464SOL     OW 2290   2.094   1.402   5.834
  464SOL    HW1 2291   2.023   1.466   5.863
  464SOL    HW2 2292   2.088   1.387   5.735
  465SOL     OW 2293   0.360   3.464   6.230
  465SOL    HW1 2294   0.270   3.422   6.222
  465SOL    HW2 2295   0.362   3.525   6.309
  466SOL     OW 2296   2.400   0.785   2.950
  466SOL    HW1 2297   2.382   0.857   3.016
  466SOL    HW2 2298   2.488   0.803   2.905
  467SOL     OW 2299   1.913   1.861   5.511
  467SOL    HW1 2300   1.976   1.801   5.560
  467SOL    HW2 2301   1.942   1.869   5.416
  468SOL     OW 2302   3.172   3.815   2.619
  468SOL    HW1 2303   3.231   3.809   2.538
  468SOL    HW2 2304   3.077   3.796   2.593
  469SOL     OW 2305   3.361   6.225   0.275
  469SOL    HW1 2306   3.308   6.188   0.198
  469SOL    HW2 2307   3.452   6.184   0.277
  470SOL     OW 2308   4.651   6.937   3.142
  470SOL    HW1 2309   4.683   6.842   3.143
  470SOL    HW2 2310   4.644   6.969   3.048
  471SOL     OW 2311   2.780   2.302   4.606
  471SOL    HW1 2312   2.758   2.335   4.698
  471SOL    HW2 2313   2.737   2.212   4.593
  472SOL     OW 2314   3.995   4.483   5.302
  472SOL    HW1 2315   3.979   4.391   5.265
  472SOL    HW2 2316   4.035   4.541   5.232
  473SOL     OW 2317   0.858   4.488   4.051
  473SOL    HW1 2318   0.859   4.464   4.148
  473SOL    HW2 2319   0.901   4.578   4.039
  474SOL     OW 2320   4.944   4.311   5.270
  474SOL    HW1 2321   5.034   4.338   5.302
  474SOL    HW2 2322   4.948   4.291   5.172
  475SOL     OW 2323   2.056   6.288   6.554
  475SOL    HW1 2324   2.060   6.228   6.634
  475SOL    HW2 2325   1.978   6.350   6.562
  476SOL     OW 2326   0.253   5.678   2.598
  476SOL    HW1 2327   0.326   5.694   2.531
  476SOL    HW2 2328   0.239   5.762   2.651
  477SOL     OW 2329   2.088   5.161   3.994
  477SOL    HW1 2330   2.016   5.092   3.990
  477SOL    HW2 2331   2.047   5.252   4.002
  478SOL     OW 2332   1.205   5.352   3.110
  478SOL    HW1 2333   1.229   5.377   3.016
  478SOL    HW2 2334   1.108   5.328   3.114
  479SOL     OW 2335   3.692   1.570   1.086
  479SOL    HW1 2336   3.616   1.630   1.110
  479SOL    HW2 2337   3.773   1.626   1.068
  480SOL     OW 2338   1.540   6.783   3.460
  480SOL    HW1 2339   1.555   6.808   3.556
  480SOL    HW2 2340   1.627   6.755   3.419
  481SOL     OW 2341   2.328   6.802   0.981
  481SOL    HW1 2342   2.234   6.806   0.948
  481SOL    HW2 2343   2.390   6.828   0.907
  482SOL     OW 2344   5.820   5.439   0.675
  482SOL    HW1 2345   5.781   5.355   0.713
  482SOL    HW2 2346   5.902   5.463   0.728
  483SOL     OW 2347   6.341   1.896   2.452
  483SOL    HW1 2348   6.307   1.810   2.491
  483SOL    HW2 2349   6.277   1.969   2.474
  484SOL     OW 2350   6.797   2.156   4.341
  484SOL    HW1 2351   6.855   2.237   4.339
  484SOL    HW2 2352   6.761   2.144   4.434
  485SOL     OW 2353   3.643   6.107   1.611
  485SOL    HW1 2354   3.675   6.198   1.583
  485SOL    HW2 2355   3.614   6.056   1.530
  486SOL     OW 2356   0.202   0.998   5.871
  486SOL    HW1 2357   0.237   1.086   5.839
  486SOL    HW2 2358   0.270   0.926   5.853
  487SOL     OW 2359   6.369   2.625   6.520
  487SOL    HW1 2360   6.280   2.614   6.477
  487SOL    HW2 2361   6.394   2.722   6.520
  488SOL     OW 2362   0.908   4.713   2.037
  488SOL    HW1 2363   0.910   4.774   1.958
  488SOL    HW2 2364   0.998   4.669   2.047
  489SOL     OW 2365   3.467   5.782   6.523
  489SOL    HW1 2366   3.369   5.764   6.516
  489SOL    HW2 2367   3.508   5.716   6.587
  490SOL     OW 2368   4.959   0.093   4.091
  490SOL    HW1 2369   4.938   0.004   4.050
  490SOL    HW2 2370   4.889   0.116   4.158
  491SOL     OW 2371   0.298   2.252   3.481
  491SOL    HW1 2372   0.325   2.331   3.535
  491SOL    HW2 2373   0.248   2.282   3.400
  492SOL     OW 2374   1.387   1.143   4.794
  492SOL    HW1 2375   1.394   1.201   4.875
  492SOL    HW2 2376   1.467   1.158   4.735
  493SOL     OW 2377   6.707   3.970   4.368
  493SOL    HW1 2378   6.640   3.909   4.327
  493SOL    HW2 2379   6.776   3.917   4.417
  494SOL     OW 2380   6.310   1.293   6.488
  494SOL    HW1 2381   6.403   1.262   6.503
  494SOL    HW2 2382   6.276   1.339   6.571
  495SOL     OW 2383   4.966   4.199   0.562
  495SOL    HW1 2384   5.025   4.263   0.611
  495SOL    HW2 2385   4.997   4.191   0.467
  496SOL     OW 2386   5.507   3.371   3.116
  496SOL    HW1 2387   5.453   3.288   3.116
  496SOL    HW2 2388   5.535   3.394   3.023
  497SOL     OW 2389   3.897   6.731   4.113
  497SOL    HW1 2390   3.898   6.668   4.036
  497SOL    HW2 2391   3.856   6.818   4.084
  498SOL     OW 2392   1.598   2.757   2.108
  498SOL    HW1 2393   1.665   2.696   2.148
  498SOL    HW2 2394   1.552   2.809   2.180
  499SOL     OW 2395   3.081   1.053   5.081
  499SOL    HW1 2396   3.062   0.992   5.004
  499SOL    HW2 2397   2.996   1.073   5.129
  500SOL     OW 2398   1.940   4.348   2.073
  500SOL    HW1 2399   1.900   4.439   2.061
  500SOL    HW2 2400   1.931   4.297   1.988
  501SOL     OW 2401   0.885   5.164   0.029
  501SOL    HW1 2402   0.814   5.101   0.061
  501SOL    HW2 2403   0.939   5.196   0.107
  502SOL     OW 2404   3.133   5.029   6.189
  502SOL    HW1 2405   3.071   5.099   6.156
  502SOL    HW2 2406   3.091   4.939   6.177
  503SOL     OW 2407   6.053   5.353   4.638
  503SOL    HW1 2408   6.132   5.347   4.577
  503SOL    HW2 2409   5.983   5.410   4.596
  504SOL     OW 2410   1.750   5.876   4.532
  504SOL    HW1 2411   1.778   5.972   4.523
  504SOL    HW2 2412   1.828   5.821   4.564
  505SOL     OW 2413   3.860   6.634   4.981
  505SOL    HW1 2414   3.830   6.593   4.895
  505SOL    HW2 2415   3.784   6.685   5.022
  506SOL     OW 2416   1.777   3.223   0.509
  506SOL    HW1 2417   1.843   3.148   0.503
  506SOL    HW2 2418   1.714   3.218   0.431
  507SOL     OW 2419   3.821   2.151   4.127
  507SOL    HW1 2420   3.854   2.075   4.183
  507SOL    HW2 2421   3.898   2.200   4.088
  508SOL     OW 2422   6.172   4.730   4.179
  508SOL    HW1 2423   6.270   4.719   4.196
  508SOL    HW2 2424   6.158   4.757   4.084
  509SOL     OW 2425   4.075   2.957   1.001
  509SOL    HW1 2426   4.066   3.017   0.921
  509SOL    HW2 2427   4.104   3.010   1.080
  510SOL     OW 2428   0.989   4.133   4.728
  510SOL    HW1 2429   1.050   4.184   4.789
  510SOL    HW2 2430   0.953   4.195   4.658
  511SOL     OW 2431   0.374   6.468   1.268
  511SOL    HW1 2432   0.425   6.383   1.281
  511SOL    HW2 2433   0.277   6.447   1.251
  512SOL     OW 2434   1.145   3.707   5.888
  512SOL    HW1 2435   1.098   3.677   5.971
  512SOL    HW2 2436   1.238   3.737   5.911
  513SOL     OW 2437   1.450   5.124   4.382
  513SOL    HW1 2438   1.498   5.197   4.332
  513SOL    HW2 2439   1.477   5.126   4.478
  514SOL     OW 2440   5.919   1.618   2.999
  514SOL    HW1 2441   5.987   1.685   2.968
  514SOL    HW2 2442   5.955   1.526   2.983
  515SOL     OW 2443   2.369   5.446   0.345
  515SOL    HW1 2444   2.328   5.534   0.323
  515SOL    HW2 2445   2.457   5.461   0.391
  516SOL     OW 2446   1.293   5.127   3.522
  516SOL    HW1 2447   1.376   5.117   3.577
  516SOL    HW2 2448   1.318   5.146   3.427
  517SOL     OW 2449   4.599   0.718   6.738
  517SOL    HW1 2450   4.633   0.701   6.830
  517SOL    HW2 2451   4.670   0.697   6.671
  518SOL     OW 2452   2.397   1.786   0.787
  518SOL    HW1 2453   2.330   1.792   0.861
  518SOL    HW2 2454   2.386   1.864   0.726
  519SOL     OW 2455   0.752   6.871   0.199
  519SOL    HW1 2456   0.758   6.791   0.259
  519SOL    HW2 2457   0.658   6.882   0.168
  520SOL     OW 2458   5.936   4.367   4.361
  520SOL    HW1 2459   5.885   4.299   4.308
  520SOL    HW2 2460   5.933   4.455   4.315
  521SOL     OW 2461   6.278   0.606   0.384
  521SOL    HW1 2462   6.190   0.653   0.385
  521SOL    HW2 2463   6.278   0.534   0.453
  522SOL     OW 2464   3.526   4.040   5.997
  522SOL    HW1 2465   3.484   3.990   6.073
  522SOL    HW2 2466   3.466   4.032   5.917
  523SOL     OW 2467   6.384   6.663   3.889
  523SOL    HW1 2468   6.315   6.682   3.819
  523SOL    HW2 2469   6.348   6.689   3.979
  524SOL     OW 2470   4.294   0.649   5.537
  524SOL    HW1 2471   4.233   0.592   5.482
  524SOL    HW2 2472   4.262   0.652   5.632
  525SOL     OW 2473   2.437   2.383   0.020
  525SOL    HW1 2474   2.383   2.450   0.071
  525SOL    HW2 2475   2.526   2.373   0.063
  526SOL     OW 2476   4.619   5.551   4.226
  526SOL    HW1 2477   4.643   5.643   4.257
  526SOL    HW2 2478   4.700   5.506   4.188
  527SOL     OW 2479   0.124   1.972   0.213
  527SOL    HW1 2480   0.217   1.979   0.251
  527SOL    HW2 2481   0.060   2.015   0.277
  528SOL     OW 2482   2.035   1.373   5.557
  528SOL    HW1 2483   2.106   1.359   5.488
  528SOL    HW2 2484   1.961   1.307   5.543
  529SOL     OW 2485   6.637   4.901   4.267
  529SOL    HW1 2486   6.720   4.957   4.269
  529SOL    HW2 2487   6.556   4.959   4.272
  530SOL     OW 2488   0.260   2.789   5.393
  530SOL    HW1 2489   0.339   2.729   5.380
  530SOL    HW2 2490   0.227   2.781   5.487
  531SOL     OW 2491   6.849   0.976   0.042
  531SOL    HW1 2492   6.783   0.906   0.016
  531SOL    HW2 2493   6.918   0.984   6.998
  532SOL     OW 2494   2.174   0.771   5.642
  532SOL    HW1 2495   2.144   0.866   5.635
  532SOL    HW2 2496   2.095   0.712   5.658
  533SOL     OW 2497   5.083   0.378   4.702
  533SOL    HW1 2498   5.131   0.319   4.766
  533SOL    HW2 2499   5.079   0.471   4.739
  534SOL     OW 2500   3.271   5.808   2.951
  534SOL    HW1 2501   3.224   5.720   2.953
  534SOL    HW2 2502   3.361   5.798   2.909
  535SOL     OW 2503   6.158   4.201   2.245
  535SOL    HW1 2504   6.061   4.188   2.226
  535SOL    HW2 2505   6.177   4.179   2.340
  536SOL     OW 2506   1.137   6.992   0.914
  536SOL    HW1 2507   1.183   6.993   0.825
  536SOL    HW2 2508   1.046   0.004   0.906
  537SOL     OW 2509   2.028   0.231   3.446
  537SOL    HW1 2510   2.102   0.183   3.399
  537SOL    HW2 2511   1.941   0.185   3.429
  538SOL     OW 2512   1.832   5.080   4.410
  538SOL    HW1 2513   1.887   4.998   4.392
  538SOL    HW2 2514   1.879   5.160   4.374
  539SOL     OW 2515   0.965   6.060   0.927
  539SOL    HW1 2516   0.996   6.150   0.958
  539SOL    HW2 2517   0.870   6.046   0.954
  540SOL     OW 2518   1.658   3.254   1.184
  540SOL    HW1 2519   1.703   3.342   1.175
  540SOL    HW2 2520   1.689   3.193   1.111
  541SOL     OW 2521   4.204   5.292   5.118
  541SOL    HW1 2522   4.302   5.312   5.115
  541SOL    HW2 2523   4.190   5.193   5.117
  542SOL     OW 2524   5.730   6.338   6.374
  542SOL    HW1 2525   5.740   6.322   6.276
  542SOL    HW2 2526   5.739   6.436   6.393
  543SOL     OW 2527   6.019   6.788   0.865
  543SOL    HW1 2528   6.065   6.819   0.782
  543SOL    HW2 2529   5.941   6.847   0.884
  544SOL     OW 2530   0.834   5.652   0.354
  544SOL    HW1 2531   0.932   5.662   0.372
  544SOL    HW2 2532   0.799   5.572   0.401
  545SOL     OW 2533   3.955   1.762   3.747
  545SOL    HW1 2534   3.919   1.671   3.730
  545SOL    HW2 2535   4.053   1.764   3.725
  546SOL     OW 2536   1.734   2.120   0.426
  546SOL    HW1 2537   1.766   2.116   0.520
  546SOL    HW2 2538   1.743   2.030   0.383
  547SOL     OW 2539   2.997   1.313   0.266
  547SOL    HW1 2540   3.001   1.400   0.315
  547SOL    HW2 2541   2.902   1.286   0.253
  548SOL     OW 2542   3.110   3.273   5.102
  548SOL    HW1 2543   3.112   3.306   5.008
  548SOL    HW2 2544   3.016   3.263   5.132
  549SOL     OW 2545   0.170   4.273   0.861
  549SOL    HW1 2546   0.091   4.221   0.829
  549SOL    HW2 2547   0.172   4.273   0.961
  550SOL     OW 2548   6.717   3.774   0.553
  550SOL    HW1 2549   6.758   3.858   0.520
  550SOL    HW2 2550   6.774   3.735   0.626
  551SOL     OW 2551   0.061   1.370   0.424
  551SOL    HW1 2552   0.114   1.354   0.341
  551SOL    HW2 2553   7.010   1.310   0.425
  552SOL     OW 2554   4.759   4.664   0.812
  552SOL    HW1 2555   4.833   4.608   0.850
  552SOL    HW2 2556   4.678   4.655   0.868
  553SOL     OW 2557   1.191   2.267   1.665
  553SOL    HW1 2558   1.147   2.275   1.755
  553SOL    HW2 2559   1.280   2.223   1.676
  554SOL     OW 2560   4.587   5.132   4.745
  554SOL    HW1 2561   4.540   5.205   4.795
  554SOL    HW2 2562   4.675   5.114   4.789
  555SOL     OW 2563   1.361   4.676   5.322
  555SOL    HW1 2564   1.291   4.714   5.262
  555SOL    HW2 2565   1.408   4.601   5.276
  556SOL     OW 2566   5.939   3.906   2.966
  556SOL    HW1 2567   5.985   3.984   3.008
  556SOL    HW2 2568   5.923   3.925   2.868
  557SOL     OW 2569   6.759   5.539   6.026
  557SOL    HW1 2570   6.738   5.447   6.058
  557SOL    HW2 2571   6.691   5.567   5.958
  558SOL     OW 2572   4.260   3.317   5.565
  558SOL    HW1 2573   4.194   3.328   5.490
  558SOL    HW2 2574   4.267   3.221   5.589
  559SOL     OW 2575   5.739   5.120   6.180
  559SOL    HW1 2576   5.823   5.114   6.233
  559SOL    HW2 2577   5.711   5.216   6.173
  560SOL     OW 2578   4.216   6.616   0.060
  560SOL    HW1 2579   4.293   6.641   0.002
  560SOL    HW2 2580   4.205   6.684   0.132
  561SOL     OW 2581   5.677   6.795   1.985
  561SOL    HW1 2582   5.581   6.816   2.005
  561SOL    HW2 2583   5.724   6.770   2.070
  562SOL     OW 2584   6.442   0.932   0.214
  562SOL    HW1 2585   6.529   0.982   0.207
  562SOL    HW2 2586   6.433   0.894   0.306
  563SOL     OW 2587   2.818   0.622   5.027
  563SOL    HW1 2588   2.904   0.608   5.076
  563SOL    HW2 2589   2.831   0.605   4.930
  564SOL     OW 2590   0.823   1.713   5.750
  564SOL    HW1 2591   0.817   1.691   5.653
  564SOL    HW2 2592   0.736   1.753   5.781
  565SOL     OW 2593   4.344   3.813   6.180
  565SOL    HW1 2594   4.403   3.830   6.259
  565SOL    HW2 2595   4.386   3.745   6.121
  566SOL     OW 2596   6.681   5.025   2.324
  566SOL    HW1 2597   6.654   4.937   2.362
  566SOL    HW2 2598   6.778   5.023   2.300
  567SOL     OW 2599   3.727   4.116   5.321
  567SOL    HW1 2600   3.710   4.031   5.271
  567SOL    HW2 2601   3.681   4.113   5.410
  568SOL     OW 2602   1.776   0.962   6.360
  568SOL    HW1 2603   1.797   0.955   6.263
  568SOL    HW2 2604   1.678   0.976   6.373
  569SOL     OW 2605   1.805   3.790   6.710
  569SOL    HW1 2606   1.801   3.781   6.809
  569SOL    HW2 2607   1.884   3.740   6.675
  570SOL     OW 2608   6.959   6.270   0.223
  570SOL    HW1 2609   6.884   6.326   0.258
  570SOL    HW2 2610   6.951   6.177   0.259
  571SOL     OW 2611   3.871   6.284   1.954
  571SOL    HW1 2612   3.777   6.307   1.979
  571SOL    HW2 2613   3.896   6.197   1.996
  572SOL     OW 2614   1.708   4.558   4.209
  572SOL    HW1 2615   1.625   4.592   4.254
  572SOL    HW2 2616   1.718   4.461   4.227
  573SOL     OW 2617   3.008   2.661   0.126
  573SOL    HW1 2618   3.030   2.757   0.109
  573SOL    HW2 2619   2.912   2.644   0.104
  574SOL     OW 2620   2.759   2.410   3.850
  574SOL    HW1 2621   2.699   2.353   3.795
  574SOL    HW2 2622   2.844   2.361   3.869
  575SOL     OW 2623   5.158   2.370   6.391
  575SOL    HW1 2624   5.195   2.407   6.476
  575SOL    HW2 2625   5.065   2.404   6.378
  576SOL     OW 2626   1.234   3.080   2.714
  576SOL    HW1 2627   1.285   3.164   2.733
  576SOL    HW2 2628   1.149   3.103   2.666
  577SOL     OW 2629   3.913   1.938   4.318
  577SOL    HW1 2630   3.876   1.845   4.318
  577SOL    HW2 2631   3.885   1.984   4.402
  578SOL     OW 2632   0.034   3.797   4.004
  578SOL    HW1 2633   6.979   3.768   4.052
  578SOL    HW2 2634   0.075   3.874   4.052
  579SOL     OW 2635   3.635   3.588   0.285
  579SOL    HW1 2636   3.715   3.536   0.253
  579SOL    HW2 2637   3.664   3.665   0.341
  580SOL     OW 2638   0.143   6.950   0.228
  580SOL    HW1 2639   0.050   6.932   0.198
  580SOL    HW2 2640   0.169   6.883   0.297
  581SOL     OW 2641   4.121   3.353   2.757
  581SOL    HW1 2642   4.202   3.363   2.700
  581SOL    HW2 2643   4.039   3.354   2.700
  582SOL     OW 2644   6.617   4.372   0.681
  582SOL    HW1 2645   6.622   4.433   0.759
  582SOL    HW2 2646   6.522   4.344   0.667
  583SOL     OW 2647   2.413   6.633   6.530
  583SOL    HW1 2648   2.472   6.552   6.536
  583SOL    HW2 2649   2.453   6.699   6.468
  584SOL     OW 2650   1.654   4.955   4.553
  584SOL    HW1 2651   1.715   4.893   4.603
  584SOL    HW2 2652   1.707   5.011   4.490
  585SOL     OW 2653   5.552   0.778   5.384
  585SOL    HW1 2654   5.537   0.877   5.376
  585SOL    HW2 2655   5.647   0.757   5.357
  586SOL     OW 2656   2.980   5.859   1.400
  586SOL    HW1 2657   2.884   5.864   1.374
  586SOL    HW2 2658   3.035   5.834   1.320
  587SOL     OW 2659   1.886   2.992   6.460
  587SOL    HW1 2660   1.860   2.914   6.516
  587SOL    HW2 2661   1.812   3.060   6.460
  588SOL     OW 2662   1.931   0.117   1.528
  588SOL    HW1 2663   2.017   0.167   1.523
  588SOL    HW2 2664   1.938   0.033   1.474
  589SOL     OW 2665   4.724   4.832   1.543
  589SOL    HW1 2666   4.739   4.779   1.626
  589SOL    HW2 2667   4.667   4.911   1.564
  590SOL     OW 2668   6.595   3.363   1.779
  590SOL    HW1 2669   6.581   3.462   1.787
  590SOL    HW2 2670   6.507   3.318   1.767
  591SOL     OW 2671   2.880   0.342   2.844
  591SOL    HW1 2672   2.974   0.343   2.808
  591SOL    HW2 2673   2.817   0.319   2.770
  592SOL     OW 2674   5.595   7.008   5.693
  592SOL    HW1 2675   5.582   0.020   5.783
  592SOL    HW2 2676   5.660   6.932   5.699
  593SOL     OW 2677   0.112   0.788   4.783
  593SOL    HW1 2678   0.109   0.813   4.880
  593SOL    HW2 2679   0.031   0.734   4.760
  594SOL     OW 2680   5.853   2.001   1.714
  594SOL    HW1 2681   5.825   2.094   1.692
  594SOL    HW2 2682   5.865   1.993   1.813
  595SOL     OW 2683   3.869   6.966   3.357
  595SOL    HW1 2684   3.841   6.938   3.264
  595SOL    HW2 2685   3.816   6.914   3.424
  596SOL     OW 2686   0.843   4.524   1.205
  596SOL    HW1 2687   0.822   4.598   1.268
  596SOL    HW2 2688   0.762   4.502   1.151
  597SOL     OW 2689   4.365   2.335   6.046
  597SOL    HW1 2690   4.419   2.308   6.126
  597SOL    HW2 2691   4.269   2.313   6.062
  598SOL     OW 2692   3.073   3.829   1.323
  598SOL    HW1 2693   2.994   3.883   1.294
  598SOL    HW2 2694   3.143   3.832   1.251
  599SOL     OW 2695   5.995   5.851   3.940
  599SOL    HW1 2696   6.018   5.947   3.951
  599SOL    HW2 2697   5.983   5.830   3.843
  600SOL     OW 2698   2.897   1.174   1.496
  600SOL    HW1 2699   2.929   1.090   1.451
  600SOL    HW2 2700   2.965   1.204   1.563
  601SOL     OW 2701   1.861   4.862   3.172
  601SOL    HW1 2702   1.851   4.769   3.206
  601SOL    HW2 2703   1.770   4.901   3.155
  602SOL     OW 2704   6.767   0.459   2.463
  602SOL    HW1 2705   6.803   0.415   2.381
  602SOL    HW2 2706   6.739   0.553   2.440
  603SOL     OW 2707   4.372   1.866   3.144
  603SOL    HW1 2708   4.306   1.791   3.147
  603SOL    HW2 2709   4.336   1.940   3.089
  604SOL     OW 2710   1.493   3.418   5.904
  604SOL    HW1 2711   1.511   3.321   5.920
  604SOL    HW2 2712   1.509   3.440   5.808
  605SOL     OW 2713   5.569   0.190   4.204
  605SOL    HW1 2714   5.588   0.147   4.115
  605SOL    HW2 2715   5.478   0.161   4.235
  606SOL     OW 2716   2.889   6.473   2.097
  606SOL    HW1 2717   2.838   6.553   2.064
  606SOL    HW2 2718   2.983   6.478   2.065
  607SOL     OW 2719   3.552   0.465   4.265
  607SOL    HW1 2720   3.527   0.561   4.279
  607SOL    HW2 2721   3.560   0.446   4.168
  608SOL     OW 2722   5.615   3.159   1.190
  608SOL    HW1 2723   5.531   3.190   1.146
  608SOL    HW2 2724   5.594   3.126   1.282
  609SOL     OW 2725   3.464   4.114   4.977
  609SOL    HW1 2726   3.529   4.135   4.904
  609SOL    HW2 2727   3.488   4.026   5.018
  610SOL     OW 2728   6.236   1.935   4.380
  610SOL    HW1 2729   6.232   1.835   4.383
  610SOL    HW2 2730   6.194   1.973   4.461
  611SOL     OW 2731   5.587   7.014   0.357
  611SOL    HW1 2732   5.638   6.930   0.373
  611SOL    HW2 2733   5.610   0.022   0.266
  612SOL     OW 2734   2.030   4.671   6.622
  612SOL    HW1 2735   1.939   4.709   6.604
  612SOL    HW2 2736   2.059   4.617   6.542
  613SOL     OW 2737   4.114   1.192   6.712
  613SOL    HW1 2738   4.145   1.144   6.630
  613SOL    HW2 2739   4.014   1.186   6.717
  614SOL     OW 2740   5.028   3.042   1.008
  614SOL    HW1 2741   4.965   3.063   1.083
  614SOL    HW2 2742   5.088   2.967   1.035
  615SOL     OW 2743   5.764   6.349   0.500
  615SOL    HW1 2744   5.802   6.296   0.424
  615SOL    HW2 2745   5.819   6.432   0.514
  616SOL     OW 2746   4.839   1.363   4.323
  616SOL    HW1 2747   4.765   1.305   4.358
  616SOL    HW2 2748   4.892   1.400   4.399
  617SOL     OW 2749   6.529   6.247   4.851
  617SOL    HW1 2750   6.515   6.301   4.767
  617SOL    HW2 2751   6.538   6.309   4.929
  618SOL     OW 2752   5.499   5.217   0.341
  618SOL    HW1 2753   5.582   5.262   0.374
  618SOL    HW2 2754   5.474   5.254   0.251
  619SOL     OW 2755   2.011   0.042   6.874
  619SOL    HW1 2756   2.099   7.022   6.875
  619SOL    HW2 2757   1.961   0.022   6.958
  620SOL     OW 2758   4.562   2.271   2.084
  620SOL    HW1 2759   4.557   2.177   2.050
  620SOL    HW2 2760   4.470   2.306   2.100
  621SOL     OW 2761   2.734   0.106   6.391
  621SOL    HW1 2762   2.793   0.143   6.318
  621SOL    HW2 2763   2.641   0.139   6.378
  622SOL     OW 2764   0.305   3.631   5.999
  622SOL    HW1 2765   0.222   3.678   6.030
  622SOL    HW2 2766   0.343   3.578   6.075
  623SOL     OW 2767   6.506   1.399   2.657
  623SOL    HW1 2768   6.590   1.411   2.711
  623SOL    HW2 2769   6.460   1.315   2.685
  624SOL     OW 2770   6.756   1.006   6.586
  624SOL    HW1 2771   6.684   0.990   6.519
  624SOL    HW2 2772   6.786   1.101   6.580
  625SOL     OW 2773   3.377   1.208   1.531
  625SOL    HW1 2774   3.437   1.286   1.516
  625SOL    HW2 2775   3.285   1.240   1.550
  626SOL     OW 2776   0.603   5.915   3.680
  626SOL    HW1 2777   0.535   5.857   3.635
  626SOL    HW2 2778   0.690   5.866   3.686
  627SOL     OW 2779   6.848   5.379   6.530
  627SOL    HW1 2780   6.932   5.343   6.571
  627SOL    HW2 2781   6.819   5.461   6.580
  628SOL     OW 2782   3.946   4.523   6.434
  628SOL    HW1 2783   4.015   4.584   6.475
  628SOL    HW2 2784   3.941   4.439   6.488
  629SOL     OW 2785   1.485   0.118   6.925
  629SOL    HW1 2786   1.541   0.049   6.880
  629SOL    HW2 2787   1.480   0.098   7.023
  630SOL     OW 2788   6.366   2.192   1.032
  630SOL    HW1 2789   6.460   2.163   1.011
  630SOL    HW2 2790   6.307   2.173   0.954
  631SOL     OW 2791   1.824   3.571   3.035
  631SOL    HW1 2792   1.855   3.666   3.043
  631SOL    HW2 2793   1.863   3.517   3.110
  632SOL     OW 2794   3.274   4.590   1.433
  632SOL    HW1 2795   3.310   4.637   1.514
  632SOL    HW2 2796   3.223   4.509   1.461
  633SOL     OW 2797   0.608   6.052   0.394
  633SOL    HW1 2798   0.537   5.982   0.403
  633SOL    HW2 2799   0.694   6.018   0.433
  634SOL     OW 2800   3.489   3.385   5.590
  634SOL    HW1 2801   3.471   3.290   5.564
  634SOL    HW2 2802   3.504   3.391   5.688
  635SOL     OW 2803   6.016   6.478   6.366
  635SOL    HW1 2804   6.067   6.523   6.440
  635SOL    HW2 2805   6.069   6.400   6.333
  636SOL     OW 2806   2.162   1.406   4.399
  636SOL    HW1 2807   2.249   1.430   4.442
  636SOL    HW2 2808   2.103   1.362   4.467
  637SOL     OW 2809   6.878   1.770   2.100
  637SOL    HW1 2810   6.786   1.808   2.103
  637SOL    HW2 2811   6.927   1.808   2.021
  638SOL     OW 2812   0.119   3.217   5.232
  638SOL    HW1 2813   0.158   3.308   5.226
  638SOL    HW2 2814   0.068   3.197   5.148
  639SOL     OW 2815   6.126   3.126   2.152
  639SOL    HW1 2816   6.186   3.204   2.136
  639SOL    HW2 2817   6.061   3.148   2.225
  640SOL     OW 2818   6.293   3.494   2.835
  640SOL    HW1 2819   6.312   3.448   2.922
  640SOL    HW2 2820   6.258   3.427   2.769
  641SOL     OW 2821   2.269   5.593   4.433
  641SOL    HW1 2822   2.178   5.632   4.443
  641SOL    HW2 2823   2.276   5.547   4.344
  642SOL     OW 2824   0.577   5.374   4.739
  642SOL    HW1 2825   0.667   5.370   4.782
  642SOL    HW2 2826   0.571   5.303   4.669
  643SOL     OW 2827   4.331   4.936   0.415
  643SOL    HW1 2828   4.402   4.870   0.438
  643SOL    HW2 2829   4.369   5.006   0.355
  644SOL     OW 2830   6.037   0.542   4.898
  644SOL    HW1 2831   5.985   0.623   4.924
  644SOL    HW2 2832   6.017   0.519   4.803
  645SOL     OW 2833   4.177   6.445   1.752
  645SOL    HW1 2834   4.160   6.458   1.849
  645SOL    HW2 2835   4.276   6.448   1.735
  646SOL     OW 2836   3.630   1.852   5.062
  646SOL    HW1 2837   3.641   1.950   5.045
  646SOL    HW2 2838   3.689   1.801   5.000
  647SOL     OW 2839   2.756   1.670   0.550
  647SOL    HW1 2840   2.683   1.677   0.482
  647SOL    HW2 2841   2.759   1.753   0.604
  648SOL     OW 2842   5.630   1.408   4.241
  648SOL    HW1 2843   5.684   1.490   4.262
  648SOL    HW2 2844   5.564   1.392   4.315
  649SOL     OW 2845   3.250   5.717   0.573
  649SOL    HW1 2846   3.333   5.713   0.518
  649SOL    HW2 2847   3.263   5.664   0.657
  650SOL     OW 2848   2.292   3.385   1.319
  650SOL    HW1 2849   2.332   3.354   1.233
  650SOL    HW2 2850   2.351   3.454   1.360
  651SOL     OW 2851   0.158   1.649   3.522
  651SOL    HW1 2852   0.148   1.696   3.434
  651SOL    HW2 2853   0.246   1.602   3.525
  652SOL     OW 2854   3.918   5.932   0.645
  652SOL    HW1 2855   3.969   5.979   0.572
  652SOL    HW2 2856   3.826   5.912   0.613
  653SOL     OW 2857   1.405   0.149   2.602
  653SOL    HW1 2858   1.488   0.100   2.628
  653SOL    HW2 2859   1.412   0.179   2.507
  654SOL     OW 2860   1.215   6.812   5.903
  654SOL    HW1 2861   1.153   6.754   5.850
  654SOL    HW2 2862   1.188   6.908   5.891
  655SOL     OW 2863   1.527   3.895   0.809
  655SOL    HW1 2864   1.610   3.885   0.755
  655SOL    HW2 2865   1.454   3.841   0.767
  656SOL     OW 2866   2.452   0.441   6.941
  656SOL    HW1 2867   2.501   0.356   6.924
  656SOL    HW2 2868   2.476   0.508   6.871
  657SOL     OW 2869   3.890   3.673   4.140
  657SOL    HW1 2870   3.851   3.733   4.210
  657SOL    HW2 2871   3.857   3.580   4.154
  658SOL     OW 2872   1.848   0.788   4.392
  658SOL    HW1 2873   1.824   0.829   4.480
  658SOL    HW2 2874   1.907   0.708   4.407
  659SOL     OW 2875   2.007   5.737   7.025
  659SOL    HW1 2876   1.964   5.822   6.994
  659SOL    HW2 2877   1.950   5.659   7.000
  660SOL     OW 2878   5.572   3.850   2.465
  660SOL    HW1 2879   5.558   3.839   2.564
  660SOL    HW2 2880   5.496   3.809   2.416
  661SOL     OW 2881   4.756   5.623   3.913
  661SOL    HW1 2882   4.750   5.577   3.824
  661SOL    HW2 2883   4.780   5.555   3.983
  662SOL     OW 2884   6.405   3.637   6.876
  662SOL    HW1 2885   6.467   3.710   6.906
  662SOL    HW2 2886   6.329   3.630   6.941
  663SOL     OW 2887   0.695   4.575   5.864
  663SOL    HW1 2888   0.727   4.542   5.952
  663SOL    HW2 2889   0.683   4.499   5.801
  664SOL     OW 2890   1.740   0.247   5.710
  664SOL    HW1 2891   1.743   0.175   5.640
  664SOL    HW2 2892   1.694   0.327   5.671
  665SOL     OW 2893   2.460   4.439   3.426
  665SOL    HW1 2894   2.464   4.477   3.519
  665SOL    HW2 2895   2.490   4.508   3.360
  666SOL     OW 2896   3.388   0.468   6.933
  666SOL    HW1 2897   3.314   0.428   6.878
  666SOL    HW2 2898   3.434   0.396   6.985
  667SOL     OW 2899   1.378   2.833   2.291
  667SOL    HW1 2900   1.360   2.739   2.317
  667SOL    HW2 2901   1.295   2.888   2.301
  668SOL     OW 2902   5.320   7.022   0.226
  668SOL    HW1 2903   5.372   0.079   0.227
  668SOL    HW2 2904   5.384   6.945   0.233
  669SOL     OW 2905   6.934   5.155   2.590
  669SOL    HW1 2906   6.891   5.218   2.525
  669SOL    HW2 2907   6.948   5.201   2.677
  670SOL     OW 2908   3.985   3.926   3.045
  670SOL    HW1 2909   4.022   4.015   3.072
  670SOL    HW2 2910   4.038   3.854   3.089
  671SOL     OW 2911   1.882   0.368   6.503
  671SOL    HW1 2912   1.839   0.379   6.413
  671SOL    HW2 2913   1.839   0.292   6.552
  672SOL     OW 2914   1.007   2.689   3.257
  672SOL    HW1 2915   1.087   2.730   3.214
  672SOL    HW2 2916   1.002   2.718   3.352
  673SOL     OW 2917   5.284   0.155   6.702
  673SOL    HW1 2918   5.194   0.193   6.684
  673SOL    HW2 2919   5.354   0.223   6.680
  674SOL     OW 2920   0.078   2.397   4.558
  674SOL    HW1 2921   0.124   2.484   4.576
  674SOL    HW2 2922   0.007   2.382   4.627
  675SOL     OW 2923   5.541   6.177   3.703
  675SOL    HW1 2924   5.615   6.151   3.641
  675SOL    HW2 2925   5.566   6.261   3.751
  676SOL     OW 2926   3.074   4.872   4.315
  676SOL    HW1 2927   3.137   4.882   4.393
  676SOL    HW2 2928   2.984   4.907   4.341
  677SOL     OW 2929   4.747   6.269   0.376
  677SOL    HW1 2930   4.703   6.308   0.457
  677SOL    HW2 2931   4.678   6.219   0.322
  678SOL     OW 2932   2.452   1.236   6.112
  678SOL    HW1 2933   2.376   1.294   6.140
  678SOL    HW2 2934   2.418   1.143   6.095
  679SOL     OW 2935   6.286   0.438   2.301
  679SOL    HW1 2936   6.344   0.408   2.377
  679SOL    HW2 2937   6.192   0.407   2.317
  680SOL     OW 2938   6.104   4.095   4.405
  680SOL    HW1 2939   6.172   4.048   4.349
  680SOL    HW2 2940   6.050   4.156   4.348
  681SOL     OW 2941   1.333   5.821   2.317
  681SOL    HW1 2942   1.377   5.884   2.253
  681SOL    HW2 2943   1.245   5.860   2.346
  682SOL     OW 2944   0.372   0.416   6.069
  682SOL    HW1 2945   0.324   0.385   5.986
  682SOL    HW2 2946   0.306   0.460   6.130
  683SOL     OW 2947   5.302   1.478   1.554
  683SOL    HW1 2948   5.298   1.425   1.469
  683SOL    HW2 2949   5.367   1.554   1.543
  684SOL     OW 2950   0.093   5.827   6.761
  684SOL    HW1 2951   0.072   5.864   6.670
  684SOL    HW2 2952   0.052   5.886   6.830
  685SOL     OW 2953   6.239   0.371   5.883
  685SOL    HW1 2954   6.250   0.322   5.797
  685SOL    HW2 2955   6.141   0.378   5.906
  686SOL     OW 2956   5.702   4.802   1.754
  686SOL    HW1 2957   5.640   4.727   1.776
  686SOL    HW2 2958   5.756   4.777   1.673
  687SOL     OW 2959   5.854   2.252   6.413
  687SOL    HW1 2960   5.849   2.275   6.316
  687SOL    HW2 2961   5.790   2.177   6.433
  688SOL     OW 2962   6.380   3.245   5.162
  688SOL    HW1 2963   6.357   3.237   5.259
  688SOL    HW2 2964   6.325   3.318   5.121
  689SOL     OW 2965   5.228   4.388   4.449
  689SOL    HW1 2966   5.319   4.372   4.487
  689SOL    HW2 2967   5.170   4.431   4.518
  690SOL     OW 2968   0.063   3.005   4.740
  690SOL    HW1 2969   0.124   3.059   4.681
  690SOL    HW2 2970   0.037   2.921   4.693
  691SOL     OW 2971   0.135   2.936   7.018
  691SOL    HW1 2972   0.095   2.844   7.013
  691SOL    HW2 2973   0.225   2.935   6.974
  692SOL     OW 2974   2.905   0.149   3.437
  692SOL    HW1 2975   2.827   0.195   3.394
  692SOL    HW2 2976   2.965   0.217   3.479
  693SOL     OW 2977   6.461   1.616   3.874
  693SOL    HW1 2978   6.497   1.575   3.958
  693SOL    HW2 2979   6.433   1.543   3.811
  694SOL     OW 2980   1.455   0.463   2.655
  694SOL    HW1 2981   1.441   0.364   2.655
  694SOL    HW2 2982   1.381   0.508   2.605
  695SOL     OW 2983   4.444   5.209   6.744
  695SOL    HW1 2984   4.458   5.143   6.670
  695SOL    HW2 2985   4.443   5.301   6.707
  696SOL     OW 2986   5.284   5.923   2.237
  696SOL    HW1 2987   5.187   5.943   2.247
  696SOL    HW2 2988   5.324   5.905   2.328
  697SOL     OW 2989   1.178   3.634   3.283
  697SOL    HW1 2990   1.176   3.726   3.244
  697SOL    HW2 2991   1.143   3.637   3.377
  698SOL     OW 2992   5.062   6.044   3.858
  698SOL    HW1 2993   5.010   6.123   3.826
  698SOL    HW2 2994   5.044   6.029   3.955
  699SOL     OW 2995   1.181   4.652   6.318
  699SOL    HW1 2996   1.110   4.719   6.297
  699SOL    HW2 2997   1.245   4.647   6.242
  700SOL     OW 2998   1.624   1.873   5.137
  700SOL    HW1 2999   1.668   1.950   5.090
  700SOL    HW2 3000   1.694   1.812   5.175
  701SOL     OW 3001   1.181   4.778   4.705
  701SOL    HW1 3002   1.239   4.816   4.634
  701SOL    HW2 3003   1.212   4.809   4.795
  702SOL     OW 3004   6.214   6.149   5.161
  702SOL    HW1 3005   6.286   6.083   5.138
  702SOL    HW2 3006   6.153   6.161   5.082
  703SOL     OW 3007   5.795   4.014   6.206
  703SOL    HW1 3008   5.773   3.989   6.300
  703SOL    HW2 3009   5.775   3.937   6.145
  704SOL     OW 3010   2.313   6.846   1.625
  704SOL    HW1 3011   2.372   6.782   1.577
  704SOL    HW2 3012   2.248   6.795   1.682
  705SOL     OW 3013   0.886   1.849   3.956
  705SOL    HW1 3014   0.817   1.777   3.961
  705SOL    HW2 3015   0.974   1.809   3.930
  706SOL     OW 3016   5.372   3.545   4.151
  706SOL    HW1 3017   5.465   3.508   4.154
  706SOL    HW2 3018   5.326   3.526   4.237
  707SOL     OW 3019   5.208   2.676   2.856
  707SOL    HW1 3020   5.236   2.615   2.781
  707SOL    HW2 3021   5.234   2.636   2.943
  708SOL     OW 3022   4.970   1.615   2.237
  708SOL    HW1 3023   4.958   1.713   2.227
  708SOL    HW2 3024   4.929   1.568   2.159
  709SOL     OW 3025   1.036   5.085   6.583
  709SOL    HW1 3026   0.983   5.170   6.583
  709SOL    HW2 3027   1.123   5.100   6.628
  710SOL     OW 3028   3.061   3.960   3.161
  710SOL    HW1 3029   3.110   4.024   3.219
  710SOL    HW2 3030   3.001   3.903   3.216
  711SOL     OW 3031   0.262   1.034   4.676
  711SOL    HW1 3032   0.188   0.987   4.723
  711SOL    HW2 3033   0.332   0.967   4.651
  712SOL     OW 3034   0.130   4.006   3.384
  712SOL    HW1 3035   0.076   4.081   3.421
  712SOL    HW2 3036   0.094   3.919   3.417
  713SOL     OW 3037   3.234   3.661   5.192
  713SOL    HW1 3038   3.136   3.681   5.193
  713SOL    HW2 3039   3.285   3.738   5.230
  714SOL     OW 3040   4.435   4.945   5.331
  714SOL    HW1 3041   4.438   4.923   5.234
  714SOL    HW2 3042   4.481   4.872   5.383
  715SOL     OW 3043   6.457   0.103   6.461
  715SOL    HW1 3044   6.387   0.074   6.526
  715SOL    HW2 3045   6.464   0.036   6.387
  716SOL     OW 3046   6.007   5.534   0.200
  716SOL    HW1 3047   5.908   5.525   0.199
  716SOL    HW2 3048   6.048   5.459   0.146
  717SOL     OW 3049   6.206   3.290   6.145
  717SOL    HW1 3050   6.128   3.340   6.106
  717SOL    HW2 3051   6.252   3.348   6.212
  718SOL     OW 3052   3.228   2.443   0.052
  718SOL    HW1 3053   3.328   2.448   0.060
  718SOL    HW2 3054   3.190   2.536   0.049
  719SOL     OW 3055   5.574   4.626   6.929
  719SOL    HW1 3056   5.543   4.537   6.896
  719SOL    HW2 3057   5.525   4.699   6.882
  720SOL     OW 3058   3.989   1.244   5.561
  720SOL    HW1 3059   4.013   1.233   5.464
  720SOL    HW2 3060   3.903   1.197   5.579
  721SOL     OW 3061   0.999   0.058   5.541
  721SOL    HW1 3062   0.910   0.023   5.572
  721SOL    HW2 3063   1.065   0.051   5.615
  722SOL     OW 3064   4.811   0.340   5.105
  722SOL    HW1 3065   4.789   0.352   5.008
  722SOL    HW2 3066   4.758   0.263   5.141
  723SOL     OW 3067   1.161   3.322   2.090
  723SOL    HW1 3068   1.240   3.262   2.097
  723SOL    HW2 3069   1.097   3.302   2.165
  724SOL     OW 3070   0.083   1.542   4.852
  724SOL    HW1 3071   0.164   1.507   4.804
  724SOL    HW2 3072   0.041   1.614   4.798
  725SOL     OW 3073   2.630   5.073   2.936
  725SOL    HW1 3074   2.561   5.053   3.005
  725SOL    HW2 3075   2.585   5.101   2.851
  726SOL     OW 3076   5.243   6.012   5.499
  726SOL    HW1 3077   5.189   5.934   5.467
  726SOL    HW2 3078   5.340   5.988   5.497
  727SOL     OW 3079   2.489   4.854   4.460
  727SOL    HW1 3080   2.401   4.900   4.465
  727SOL    HW2 3081   2.508   4.808   4.546
  728SOL     OW 3082   6.336   3.042   5.759
  728SOL    HW1 3083   6.331   3.137   5.790
  728SOL    HW2 3084   6.301   2.982   5.830
  729SOL     OW 3085   4.806   1.509   0.635
  729SOL    HW1 3086   4.897   1.522   0.674
  729SOL    HW2 3087   4.776   1.594   0.590
  730SOL     OW 3088   6.029   1.328   4.644
  730SOL    HW1 3089   6.059   1.270   4.720
  730SOL    HW2 3090   5.999   1.271   4.568
  731SOL     OW 3091   6.767   2.150   4.009
  731SOL    HW1 3092   6.764   2.201   4.095
  731SOL    HW2 3093   6.859   2.114   3.995
  732SOL     OW 3094   0.637   3.404   3.306
  732SOL    HW1 3095   0.686   3.487   3.332
  732SOL    HW2 3096   0.633   3.342   3.384
  733SOL     OW 3097   4.744   4.865   4.184
  733SOL    HW1 3098   4.764   4.911   4.097
  733SOL    HW2 3099   4.824   4.813   4.212
  734SOL     OW 3100   0.868   6.155   0.145
  734SOL    HW1 3101   0.774   6.131   0.118
  734SOL    HW2 3102   0.890   6.245   0.110
  735SOL     OW 3103   2.901   4.715   6.626
  735SOL    HW1 3104   2.901   4.618   6.603
  735SOL    HW2 3105   2.872   4.768   6.547
  736SOL     OW 3106   5.728   1.172   2.715
  736SOL    HW1 3107   5.772   1.201   2.630
  736SOL    HW2 3108   5.768   1.086   2.746
  737SOL     OW 3109   5.506   3.971   6.829
  737SOL    HW1 3110   5.531   4.041   6.896
  737SOL    HW2 3111   5.410   3.947   6.839
  738SOL     OW 3112   0.871   4.002   3.371
  738SOL    HW1 3113   0.969   3.985   3.360
  738SOL    HW2 3114   0.839   4.058   3.295
  739SOL     OW 3115   4.658   6.372   6.234
  739SOL    HW1 3116   4.645   6.276   6.209
  739SOL    HW2 3117   4.737   6.409   6.185
  740SOL     OW 3118   5.432   6.773   0.245
  740SOL    HW1 3119   5.411   6.701   0.311
  740SOL    HW2 3120   5.515   6.750   0.195
  741SOL     OW 3121   2.535   0.185   3.709
  741SOL    HW1 3122   2.471   0.262   3.701
  741SOL    HW2 3123   2.568   0.179   3.803
  742SOL     OW 3124   1.613   6.490   2.759
  742SOL    HW1 3125   1.669   6.546   2.819
  742SOL    HW2 3126   1.548   6.547   2.710
  743SOL     OW 3127   1.655   3.603   3.599
  743SOL    HW1 3128   1.729   3.599   3.667
  743SOL    HW2 3129   1.666   3.685   3.543
  744SOL     OW 3130   6.510   5.099   0.772
  744SOL    HW1 3131   6.412   5.104   0.794
  744SOL    HW2 3132   6.542   5.005   0.785
  745SOL     OW 3133   2.132   6.026   2.399
  745SOL    HW1 3134   2.201   5.991   2.335
  745SOL    HW2 3135   2.177   6.082   2.469
  746SOL     OW 3136   3.011   7.022   3.106
  746SOL    HW1 3137   2.987   6.932   3.144
  746SOL    HW2 3138   2.929   0.039   3.073
  747SOL     OW 3139   6.708   3.704   0.938
  747SOL    HW1 3140   6.674   3.624   0.987
  747SOL    HW2 3141   6.650   3.783   0.959
  748SOL     OW 3142   3.302   2.913   2.775
  748SOL    HW1 3143   3.382   2.854   2.768
  748SOL    HW2 3144   3.276   2.944   2.683
  749SOL     OW 3145   5.477   2.363   4.859
  749SOL    HW1 3146   5.504   2.306   4.781
  749SOL    HW2 3147   5.380   2.386   4.852
  750SOL     OW 3148   3.212   3.678   1.796
  750SOL    HW1 3149   3.217   3.630   1.708
  750SOL    HW2 3150   3.116   3.691   1.821
  751SOL     OW 3151   5.514   1.692   0.152
  751SOL    HW1 3152   5.476   1.640   0.229
  751SOL    HW2 3153   5.456   1.771   0.134
  752SOL     OW 3154   4.473   0.822   1.814
  752SOL    HW1 3155   4.565   0.856   1.796
  752SOL    HW2 3156   4.451   0.749   1.748
  753SOL     OW 3157   4.002   1.784   2.487
  753SOL    HW1 3158   3.994   1.862   2.426
  753SOL    HW2 3159   3.990   1.814   2.581
  754SOL     OW 3160   5.598   5.678   6.948
  754SOL    HW1 3161   5.582   5.763   6.998
  754SOL    HW2 3162   5.516   5.654   6.895
  755SOL     OW 3163   6.399   6.068   2.299
  755SOL    HW1 3164   6.484   6.099   2.341
  755SOL    HW2 3165   6.415   5.983   2.250
  756SOL     OW 3166   2.600   6.720   3.572
  756SOL    HW1 3167   2.692   6.707   3.609
  756SOL    HW2 3168   2.538   6.652   3.612
  757SOL     OW 3169   6.892   0.742   3.976
  757SOL    HW1 3170   6.951   0.807   3.929
  757SOL    HW2 3171   6.940   0.704   4.055
  758SOL     OW 3172   4.292   1.953   1.140
  758SOL    HW1 3173   4.246   2.014   1.205
  758SOL    HW2 3174   4.266   1.978   1.047
  759SOL     OW 3175   2.070   0.721   1.680
  759SOL    HW1 3176   2.158   0.769   1.668
  759SOL    HW2 3177   2.055   0.704   1.778
  760SOL     OW 3178   4.496   1.736   6.024
  760SOL    HW1 3179   4.572   1.713   5.964
  760SOL    HW2 3180   4.444   1.812   5.985
  761SOL     OW 3181   5.318   0.863   6.921
  761SOL    HW1 3182   5.299   0.778   6.971
  761SOL    HW2 3183   5.259   0.868   6.841
  762SOL     OW 3184   2.439   4.831   4.751
  762SOL    HW1 3185   2.379   4.803   4.826
  762SOL    HW2 3186   2.440   4.931   4.745
  763SOL     OW 3187   6.242   4.998   0.008
  763SOL    HW1 3188   6.181   4.966   0.081
  763SOL    HW2 3189   6.242   4.931   6.961
  764SOL     OW 3190   5.954   1.403   2.763
  764SOL    HW1 3191   5.867   1.439   2.730
  764SOL    HW2 3192   5.941   1.363   2.854
  765SOL     OW 3193   0.955   6.551   3.403
  765SOL    HW1 3194   0.963   6.581   3.308
  765SOL    HW2 3195   0.990   6.623   3.464
  766SOL     OW 3196   6.536   6.184   0.308
  766SOL    HW1 3197   6.611   6.241   0.341
  766SOL    HW2 3198   6.467   6.242   0.264
  767SOL     OW 3199   6.245   6.144   1.435
  767SOL    HW1 3200   6.188   6.222   1.461
  767SOL    HW2 3201   6.191   6.060   1.439
  768SOL     OW 3202   3.051   6.501   4.095
  768SOL    HW1 3203   3.115   6.534   4.025
  768SOL    HW2 3204   2.980   6.445   4.051
  769SOL     OW 3205   4.336   0.537   0.205
  769SOL    HW1 3206   4.434   0.519   0.194
  769SOL    HW2 3207   4.306   0.503   0.294
  770SOL     OW 3208   3.216   4.898   4.557
  770SOL    HW1 3209   3.313   4.898   4.535
  770SOL    HW2 3210   3.204   4.896   4.656
  771SOL     OW 3211   0.703   6.248   4.378
  771SOL    HW1 3212   0.654   6.206   4.454
  771SOL    HW2 3213   0.728   6.342   4.401
  772SOL     OW 3214   0.409   4.397   5.922
  772SOL    HW1 3215   0.331   4.362   5.871
  772SOL    HW2 3216   0.490   4.341   5.900
  773SOL     OW 3217   6.931   3.135   2.390
  773SOL    HW1 3218   6.913   3.212   2.450
  773SOL    HW2 3219   6.978   3.063   2.441
  774SOL     OW 3220   1.491   1.003   1.808
  774SOL    HW1 3221   1.567   0.959   1.856
  774SOL    HW2 3222   1.511   1.100   1.796
  775SOL     OW 3223   1.724   2.731   4.136
  775SOL    HW1 3224   1.663   2.720   4.214
  775SOL    HW2 3225   1.761   2.641   4.110
  776SOL     OW 3226   1.763   0.457   4.996
  776SOL    HW1 3227   1.835   0.454   5.065
  776SOL    HW2 3228   1.779   0.533   4.934
  777SOL     OW 3229   4.316   6.759   6.527
  777SOL    HW1 3230   4.267   6.798   6.605
  777SOL    HW2 3231   4.412   6.785   6.531
  778SOL     OW 3232   4.423   5.395   4.711
  778SOL    HW1 3233   4.403   5.486   4.748
  778SOL    HW2 3234   4.488   5.403   4.636
  779SOL     OW 3235   0.543   0.224   2.247
  779SOL    HW1 3236   0.443   0.214   2.253
  779SOL    HW2 3237   0.578   0.259   2.333
  780SOL     OW 3238   5.774   2.232   4.710
  780SOL    HW1 3239   5.777   2.221   4.611
  780SOL    HW2 3240   5.710   2.166   4.750
  781SOL     OW 3241   0.327   2.833   6.296
  781SOL    HW1 3242   0.339   2.873   6.205
  781SOL    HW2 3243   0.282   2.744   6.287
  782SOL     OW 3244   6.922   5.051   0.745
  782SOL    HW1 3245   6.967   4.963   0.727
  782SOL    HW2 3246   6.961   5.121   0.685
  783SOL     OW 3247   1.530   5.476   0.185
  783SOL    HW1 3248   1.521   5.384   0.225
  783SOL    HW2 3249   1.620   5.512   0.206
  784SOL     OW 3250   5.355   5.180   3.248
  784SOL    HW1 3251   5.273   5.135   3.282
  784SOL    HW2 3252   5.385   5.249   3.314
  785SOL     OW 3253   6.449   2.456   3.726
  785SOL    HW1 3254   6.511   2.505   3.787
  785SOL    HW2 3255   6.470   2.480   3.631
  786SOL     OW 3256   5.898   6.593   0.564
  786SOL    HW1 3257   5.933   6.541   0.641
  786SOL    HW2 3258   5.974   6.638   0.517
  787SOL     OW 3259   4.789   1.378   6.914
  787SOL    HW1 3260   4.787   1.346   6.819
  787SOL    HW2 3261   4.696   1.401   6.943
  788SOL     OW 3262   0.420   4.008   3.438
  788SOL    HW1 3263   0.326   4.037   3.417
  788SOL    HW2 3264   0.462   4.073   3.501
  789SOL     OW 3265   5.439   2.898   0.905
  789SOL    HW1 3266   5.455   2.920   0.808
  789SOL    HW2 3267   5.492   2.817   0.929
  790SOL     OW 3268   3.071   0.371   4.029
  790SOL    HW1 3269   3.135   0.435   3.986
  790SOL    HW2 3270   3.030   0.313   3.959
  791SOL     OW 3271   4.281   1.274   4.871
  791SOL    HW1 3272   4.231   1.321   4.798
  791SOL    HW2 3273   4.271   1.175   4.860
  792SOL     OW 3274   5.471   0.811   3.502
  792SOL    HW1 3275   5.464   0.894   3.557
  792SOL    HW2 3276   5.391   0.803   3.443
  793SOL     OW 3277   6.916   0.389   6.611
  793SOL    HW1 3278   6.849   0.381   6.537
  793SOL    HW2 3279   6.936   0.486   6.627
  794SOL     OW 3280   3.508   4.780   5.271
  794SOL    HW1 3281   3.578   4.845   5.241
  794SOL    HW2 3282   3.549   4.689   5.281
  795SOL     OW 3283   5.075   5.484   0.227
  795SOL    HW1 3284   4.981   5.518   0.236
  795SOL    HW2 3285   5.124   5.501   0.312
  796SOL     OW 3286   0.407   1.765   5.531
  796SOL    HW1 3287   0.345   1.719   5.468
  796SOL    HW2 3288   0.420   1.860   5.503
  797SOL     OW 3289   5.928   3.229   5.194
  797SOL    HW1 3290   5.927   3.259   5.289
  797SOL    HW2 3291   5.942   3.130   5.190
  798SOL     OW 3292   6.855   0.863   4.973
  798SOL    HW1 3293   6.949   0.852   5.006
  798SOL    HW2 3294   6.839   0.799   4.898
  799SOL     OW 3295   6.435   3.866   3.294
  799SOL    HW1 3296   6.473   3.798   3.231
  799SOL    HW2 3297   6.494   3.873   3.374
  800SOL     OW 3298   0.241   1.601   2.352
  800SOL    HW1 3299   0.152   1.594   2.306
  800SOL    HW2 3300   0.229   1.578   2.449
  801SOL     OW 3301   0.421   2.860   4.113
  801SOL    HW1 3302   0.457   2.773   4.145
  801SOL    HW2 3303   0.478   2.894   4.038
  802SOL     OW 3304   6.364   1.113   1.429
  802SOL    HW1 3305   6.433   1.040   1.423
  802SOL    HW2 3306   6.364   1.151   1.522
  803SOL     OW 3307   1.578   0.316   4.607
  803SOL    HW1 3308   1.627   0.368   4.537
  803SOL    HW2 3309   1.508   0.373   4.649
  804SOL     OW 3310   6.152   6.853   0.624
  804SOL    HW1 3311   6.238   6.833   0.577
  804SOL    HW2 3312   6.147   6.951   0.644
  805SOL     OW 3313   2.160   2.958   6.135
  805SOL    HW1 3314   2.220   3.034   6.109
  805SOL    HW2 3315   2.086   2.949   6.068
  806SOL     OW 3316   4.312   6.649   0.442
  806SOL    HW1 3317   4.282   6.718   0.376
  806SOL    HW2 3318   4.411   6.641   0.438
  807SOL     OW 3319   0.728   6.893   3.229
  807SOL    HW1 3320   0.649   6.835   3.253
  807SOL    HW2 3321   0.799   6.837   3.187
  808SOL     OW 3322   5.693   4.045   4.571
  808SOL    HW1 3323   5.639   3.999   4.642
  808SOL    HW2 3324   5.782   4.072   4.608
  809SOL     OW 3325   0.893   6.239   6.068
  809SOL    HW1 3326   0.981   6.231   6.020
  809SOL    HW2 3327   0.905   6.293   6.151
  810SOL     OW 3328   6.437   5.518   6.328
  810SOL    HW1 3329   6.373   5.494   6.255
  810SOL    HW2 3330   6.493   5.596   6.299
  811SOL     OW 3331   3.293   4.906   3.126
  811SOL    HW1 3332   3.362   4.924   3.056
  811SOL    HW2 3333   3.231   4.834   3.095
  812SOL     OW 3334   6.965   0.481   2.840
  812SOL    HW1 3335   6.938   0.426   2.920
  812SOL    HW2 3336   6.883   0.520   2.798
  813SOL     OW 3337   5.531   5.571   1.907
  813SOL    HW1 3338   5.629   5.574   1.892
  813SOL    HW2 3339   5.489   5.507   1.843
  814SOL     OW 3340   4.974   5.456   1.296
  814SOL    HW1 3341   4.962   5.369   1.248
  814SOL    HW2 3342   4.884   5.500   1.307
  815SOL     OW 3343   1.192   1.251   0.645
  815SOL    HW1 3344   1.191   1.162   0.690
  815SOL    HW2 3345   1.179   1.323   0.713
  816SOL     OW 3346   5.713   0.768   1.843
  816SOL    HW1 3347   5.813   0.768   1.845
  816SOL    HW2 3348   5.679   0.677   1.868
  817SOL     OW 3349   0.825   1.999   2.239
  817SOL    HW1 3350   0.878   1.922   2.275
  817SOL    HW2 3351   0.873   2.085   2.260
  818SOL     OW 3352   5.482   1.469   2.618
  818SOL    HW1 3353   5.451   1.376   2.600
  818SOL    HW2 3354   5.441   1.502   2.703
  819SOL     OW 3355   0.448   5.451   2.064
  819SOL    HW1 3356   0.527   5.504   2.095
  819SOL    HW2 3357   0.438   5.370   2.122
  820SOL     OW 3358   2.016   2.905   5.473
  820SOL    HW1 3359   2.032   2.971   5.399
  820SOL    HW2 3360   2.025   2.950   5.561
  821SOL     OW 3361   0.965   4.585   0.376
  821SOL    HW1 3362   1.024   4.660   0.407
  821SOL    HW2 3363   0.976   4.507   0.437
  822SOL     OW 3364   1.189   2.938   4.975
  822SOL    HW1 3365   1.144   3.020   4.939
  822SOL    HW2 3366   1.285   2.958   4.993
  823SOL     OW 3367   3.818   3.992   1.738
  823SOL    HW1 3368   3.868   3.918   1.694
  823SOL    HW2 3369   3.804   3.971   1.835
  824SOL     OW 3370   6.305   2.625   6.167
  824SOL    HW1 3371   6.253   2.702   6.204
  824SOL    HW2 3372   6.388   2.613   6.222
  825SOL     OW 3373   1.356   3.699   1.874
  825SOL    HW1 3374   1.266   3.657   1.886
  825SOL    HW2 3375   1.360   3.784   1.926
  826SOL     OW 3376   1.281   3.207   6.194
  826SOL    HW1 3377   1.380   3.191   6.202
  826SOL    HW2 3378   1.251   3.266   6.268
  827SOL     OW 3379   3.437   4.599   1.126
  827SOL    HW1 3380   3.357   4.641   1.083
  827SOL    HW2 3381   3.502   4.571   1.055
  828SOL     OW 3382   6.239   0.614   5.355
  828SOL    HW1 3383   6.317   0.554   5.332
  828SOL    HW2 3384   6.236   0.627   5.454
  829SOL     OW 3385   3.639   3.787   5.767
  829SOL    HW1 3386   3.685   3.710   5.723
  829SOL    HW2 3387   3.677   3.800   5.859
  830SOL     OW 3388   4.520   3.453   6.037
  830SOL    HW1 3389   4.584   3.524   6.008
  830SOL    HW2 3390   4.433   3.465   5.989
  831SOL     OW 3391   5.545   0.276   4.999
  831SOL    HW1 3392   5.450   0.260   4.969
  831SOL    HW2 3393   5.545   0.306   5.095
  832SOL     OW 3394   2.701   1.743   5.794
  832SOL    HW1 3395   2.752   1.675   5.848
  832SOL    HW2 3396   2.760   1.820   5.774
  833SOL     OW 3397   1.146   0.461   5.475
  833SOL    HW1 3398   1.061   0.509   5.454
  833SOL    HW2 3399   1.219   0.527   5.492
  834SOL     OW 3400   3.441   4.537   5.786
  834SOL    HW1 3401   3.413   4.447   5.821
  834SOL    HW2 3402   3.451   4.532   5.686
  835SOL     OW 3403   4.114   1.531   2.435
  835SOL    HW1 3404   4.080   1.494   2.348
  835SOL    HW2 3405   4.074   1.620   2.452
  836SOL     OW 3406   2.507   0.992   6.516
  836SOL    HW1 3407   2.458   0.952   6.593
  836SOL    HW2 3408   2.457   1.072   6.484
  837SOL     OW 3409   4.144   1.549   4.757
  837SOL    HW1 3410   4.078   1.528   4.829
  837SOL    HW2 3411   4.105   1.617   4.695
  838SOL     OW 3412   1.348   6.205   2.373
  838SOL    HW1 3413   1.325   6.281   2.433
  838SOL    HW2 3414   1.287   6.206   2.293
  839SOL     OW 3415   2.884   1.507   1.794
  839SOL    HW1 3416   2.944   1.499   1.714
  839SOL    HW2 3417   2.883   1.420   1.843
  840SOL     OW 3418   1.163   0.714   5.614
  840SOL    HW1 3419   1.202   0.765   5.537
  840SOL    HW2 3420   1.178   0.765   5.698
  841SOL     OW 3421   0.314   3.722   1.303
  841SOL    HW1 3422   0.224   3.732   1.346
  841SOL    HW2 3423   0.306   3.660   1.225
  842SOL     OW 3424   3.856   4.961   4.077
  842SOL    HW1 3425   3.922   5.029   4.042
  842SOL    HW2 3426   3.769   4.971   4.029
  843SOL     OW 3427   0.248   3.826   1.716
  843SOL    HW1 3428   0.173   3.764   1.690
  843SOL    HW2 3429   0.323   3.816   1.651
  844SOL     OW 3430   6.004   4.886   6.316
  844SOL    HW1 3431   6.076   4.855   6.378
  844SOL    HW2 3432   5.920   4.904   6.367
  845SOL     OW 3433   1.990   4.919   5.784
  845SOL    HW1 3434   1.891   4.905   5.782
  845SOL    HW2 3435   2.028   4.883   5.869
  846SOL     OW 3436   4.298   2.273   0.029
  846SOL    HW1 3437   4.382   2.223   0.047
  846SOL    HW2 3438   4.252   2.294   0.116
  847SOL     OW 3439   5.192   4.447   2.175
  847SOL    HW1 3440   5.278   4.443   2.124
  847SOL    HW2 3441   5.121   4.485   2.116
  848SOL     OW 3442   5.973   0.007   5.441
  848SOL    HW1 3443   6.024   0.057   5.370
  848SOL    HW2 3444   5.885   0.051   5.456
  849SOL     OW 3445   0.749   5.814   4.175
  849SOL    HW1 3446   0.805   5.896   4.173
  849SOL    HW2 3447   0.744   5.778   4.268
  850SOL     OW 3448   3.253   0.569   3.306
  850SOL    HW1 3449   3.223   0.663   3.291
  850SOL    HW2 3450   3.287   0.559   3.399
  851SOL     OW 3451   6.832   0.889   5.604
  851SOL    HW1 3452   6.821   0.860   5.699
  851SOL    HW2 3453   6.929   0.892   5.580
  852SOL     OW 3454   2.791   4.789   5.412
  852SOL    HW1 3455   2.883   4.752   5.403
  852SOL    HW2 3456   2.757   4.816   5.322
  853SOL     OW 3457   0.760   4.716   0.613
  853SOL    HW1 3458   0.816   4.684   0.537
  853SOL    HW2 3459   0.770   4.654   0.691
  854SOL     OW 3460   6.060   5.214   1.227
  854SOL    HW1 3461   6.158   5.230   1.219
  854SOL    HW2 3462   6.024   5.266   1.305
  855SOL     OW 3463   5.225   0.392   0.679
  855SOL    HW1 3464   5.219   0.489   0.655
  855SOL    HW2 3465   5.136   0.360   0.709
  856SOL     OW 3466   1.453   0.440   4.892
  856SOL    HW1 3467   1.373   0.429   4.951
  856SOL    HW2 3468   1.524   0.375   4.920
  857SOL     OW 3469   5.266   3.690   1.680
  857SOL    HW1 3470   5.187   3.716   1.624
  857SOL    HW2 3471   5.267   3.591   1.692
  858SOL     OW 3472   3.875   3.940   2.306
  858SOL    HW1 3473   3.805   3.987   2.359
  858SOL    HW2 3474   3.944   3.902   2.368
  859SOL     OW 3475   0.351   4.192   0.518
  859SOL    HW1 3476   0.448   4.213   0.533
  859SOL    HW2 3477   0.301   4.206   0.603
  860SOL     OW 3478   1.614   3.607   6.555
  860SOL    HW1 3479   1.679   3.563   6.617
  860SOL    HW2 3480   1.605   3.703   6.578
  861SOL     OW 3481   4.083   4.464   6.149
  861SOL    HW1 3482   4.127   4.433   6.233
  861SOL    HW2 3483   4.017   4.536   6.170
  862SOL     OW 3484   4.561   4.421   3.199
  862SOL    HW1 3485   4.588   4.381   3.287
  862SOL    HW2 3486   4.592   4.361   3.125
  863SOL     OW 3487   5.653   2.508   1.540
  863SOL    HW1 3488   5.568   2.550   1.573
  863SOL    HW2 3489   5.688   2.445   1.610
  864SOL     OW 3490   0.410   5.268   2.802
  864SOL    HW1 3491   0.358   5.335   2.749
  864SOL    HW2 3492   0.392   5.176   2.768
  865SOL     OW 3493   2.022   0.837   3.860
  865SOL    HW1 3494   2.068   0.836   3.948
  865SOL    HW2 3495   2.030   0.928   3.819
  866SOL     OW 3496   4.465   0.899   1.145
  866SOL    HW1 3497   4.467   0.961   1.224
  866SOL    HW2 3498   4.504   0.945   1.066
  867SOL     OW 3499   2.509   1.581   6.587
  867SOL    HW1 3500   2.555   1.651   6.642
  867SOL    HW2 3501   2.411   1.597   6.587
  868SOL     OW 3502   5.487   1.888   3.414
  868SOL    HW1 3503   5.392   1.916   3.401
  868SOL    HW2 3504   5.526   1.937   3.492
  869SOL     OW 3505   6.574   3.914   1.062
  869SOL    HW1 3506   6.611   3.854   1.134
  869SOL    HW2 3507   6.529   3.992   1.105
  870SOL     OW 3508   5.876   1.642   0.361
  870SOL    HW1 3509   5.894   1.694   0.277
  870SOL    HW2 3510   5.955   1.647   0.421
  871SOL     OW 3511   6.934   4.565   0.737
  871SOL    HW1 3512   6.876   4.621   0.678
  871SOL    HW2 3513   6.944   4.474   0.697
  872SOL     OW 3514   0.067   2.081   1.696
  872SOL    HW1 3515   7.001   2.063   1.669
  872SOL    HW2 3516   0.074   2.175   1.731
  873SOL     OW 3517   3.909   6.827   4.687
  873SOL    HW1 3518   3.955   6.758   4.631
  873SOL    HW2 3519   3.977   6.885   4.732
  874SOL     OW 3520   0.754   4.316   6.616
  874SOL    HW1 3521   0.768   4.411   6.646
  874SOL    HW2 3522   0.701   4.316   6.532
  875SOL     OW 3523   6.330   5.937   6.366
  875SOL    HW1 3524   6.321   5.843   6.400
  875SOL    HW2 3525   6.323   6.001   6.443
  876SOL     OW 3526   2.461   2.200   1.419
  876SOL    HW1 3527   2.507   2.129   1.365
  876SOL    HW2 3528   2.529   2.255   1.467
  877SOL     OW 3529   5.593   5.547   6.111
  877SOL    HW1 3530   5.559   5.498   6.031
  877SOL    HW2 3531   5.586   5.646   6.095
  878SOL     OW 3532   3.656   3.127   0.744
  878SOL    HW1 3533   3.565   3.159   0.717
  878SOL    HW2 3534   3.651   3.029   0.767
  879SOL     OW 3535   4.940   2.945   3.884
  879SOL    HW1 3536   4.985   2.975   3.800
  879SOL    HW2 3537   4.905   2.852   3.872
  880SOL     OW 3538   4.407   5.740   1.315
  880SOL    HW1 3539   4.470   5.807   1.354
  880SOL    HW2 3540   4.410   5.744   1.215
  881SOL     OW 3541   5.143   4.904   3.095
  881SOL    HW1 3542   5.196   4.928   3.013
  881SOL    HW2 3543   5.054   4.868   3.068
  882SOL     OW 3544   0.745   2.360   5.214
  882SOL    HW1 3545   0.819   2.337   5.151
  882SOL    HW2 3546   0.662   2.378   5.162
  883SOL     OW 3547   3.224   4.669   6.856
  883SOL    HW1 3548   3.179   4.600   6.913
  883SOL    HW2 3549   3.296   4.626   6.803
  884SOL     OW 3550   4.099   4.209   1.573
  884SOL    HW1 3551   4.005   4.241   1.563
  884SOL    HW2 3552   4.107   4.155   1.656
  885SOL     OW 3553   4.604   6.151   5.635
  885SOL    HW1 3554   4.625   6.242   5.672
  885SOL    HW2 3555   4.682   6.118   5.582
  886SOL     OW 3556   3.479   2.598   6.237
  886SOL    HW1 3557   3.529   2.572   6.155
  886SOL    HW2 3558   3.532   2.666   6.289
  887SOL     OW 3559   6.179   5.778   4.682
  887SOL    HW1 3560   6.086   5.802   4.654
  887SOL    HW2 3561   6.215   5.705   4.623
  888SOL     OW 3562   6.393   0.997   3.403
  888SOL    HW1 3563   6.486   1.008   3.366
  888SOL    HW2 3564   6.392   1.023   3.499
  889SOL     OW 3565   0.601   0.291   4.872
  889SOL    HW1 3566   0.586   0.386   4.846
  889SOL    HW2 3567   0.625   0.238   4.790
  890SOL     OW 3568   1.389   3.536   1.600
  890SOL    HW1 3569   1.371   3.605   1.670
  890SOL    HW2 3570   1.363   3.446   1.633
  891SOL     OW 3571   6.128   3.727   6.246
  891SOL    HW1 3572   6.086   3.801   6.299
  891SOL    HW2 3573   6.096   3.639   6.280
  892SOL     OW 3574   2.299   5.031   1.937
  892SOL    HW1 3575   2.288   5.114   1.991
  892SOL    HW2 3576   2.330   5.054   1.845
  893SOL     OW 3577   1.902   0.021   2.055
  893SOL    HW1 3578   1.832   6.978   2.054
  893SOL    HW2 3579   1.902   0.069   1.967
  894SOL     OW 3580   1.832   5.556   4.631
  894SOL    HW1 3581   1.749   5.511   4.598
  894SOL    HW2 3582   1.891   5.488   4.675
  895SOL     OW 3583   2.483   0.619   4.632
  895SOL    HW1 3584   2.428   0.677   4.572
  895SOL    HW2 3585   2.488   0.660   4.723
  896SOL     OW 3586   5.047   6.826   3.219
  896SOL    HW1 3587   4.976   6.892   3.245
  896SOL    HW2 3588   5.134   6.873   3.211
  897SOL     OW 3589   6.029   1.095   6.230
  897SOL    HW1 3590   6.029   1.021   6.298
  897SOL    HW2 3591   6.116   1.096   6.182
  898SOL     OW 3592   5.336   6.565   3.667
  898SOL    HW1 3593   5.251   6.617   3.662
  898SOL    HW2 3594   5.316   6.469   3.684
  899SOL     OW 3595   1.351   5.270   0.296
  899SOL    HW1 3596   1.284   5.294   0.367
  899SOL    HW2 3597   1.307   5.271   0.207
  900SOL     OW 3598   0.559   5.076   3.556
  900SOL    HW1 3599   0.498   5.052   3.632
  900SOL    HW2 3600   0.646   5.028   3.566
  901SOL     OW 3601   6.479   1.948   3.449
  901SOL    HW1 3602   6.409   1.886   3.413
  901SOL    HW2 3603   6.535   1.899   3.516
  902SOL     OW 3604   1.372   6.234   0.015
  902SOL    HW1 3605   1.390   6.296   6.968
  902SOL    HW2 3606   1.335   6.148   7.008
  903SOL     OW 3607   0.570   5.008   6.430
  903SOL    HW1 3608   0.660   5.051   6.424
  903SOL    HW2 3609   0.515   5.035   6.351
  904SOL     OW 3610   2.253   1.493   3.959
  904SOL    HW1 3611   2.230   1.576   4.009
  904SOL    HW2 3612   2.299   1.518   3.873
  905SOL     OW 3613   5.938   3.263   3.801
  905SOL    HW1 3614   6.028   3.301   3.822
  905SOL    HW2 3615   5.880   3.334   3.761
  906SOL     OW 3616   6.677   3.315   5.159
  906SOL    HW1 3617   6.591   3.266   5.169
  906SOL    HW2 3618   6.673   3.373   5.077
  907SOL     OW 3619   6.942   3.783   2.605
  907SOL    HW1 3620   6.847   3.804   2.625
  907SOL    HW2 3621   6.992   3.867   2.588
  908SOL     OW 3622   2.677   1.283   3.536
  908SOL    HW1 3623   2.596   1.260   3.482
  908SOL    HW2 3624   2.740   1.205   3.537
  909SOL     OW 3625   3.894   6.654   1.729
  909SOL    HW1 3626   3.802   6.619   1.711
  909SOL    HW2 3627   3.913   6.732   1.669
  910SOL     OW 3628   1.436   0.585   1.932
  910SOL    HW1 3629   1.525   0.594   1.976
  910SOL    HW2 3630   1.438   0.631   1.843
  911SOL     OW 3631   1.166   3.132   0.914
  911SOL    HW1 3632   1.205   3.179   0.993
  911SOL    HW2 3633   1.078   3.173   0.890
  912SOL     OW 3634   1.917   1.285   6.910
  912SOL    HW1 3635   1.863   1.245   6.837
  912SOL    HW2 3636   1.863   1.353   6.959
  913SOL     OW 3637   2.062   1.580   2.450
  913SOL    HW1 3638   2.104   1.543   2.367
  913SOL    HW2 3639   2.074   1.680   2.451
  914SOL     OW 3640   2.737   4.840   2.318
  914SOL    HW1 3641   2.720   4.858   2.221
  914SOL    HW2 3642   2.685   4.760   2.346
  915SOL     OW 3643   2.346   2.046   0.690
  915SOL    HW1 3644   2.403   2.021   0.612
  915SOL    HW2 3645   2.403   2.055   0.771
  916SOL     OW 3646   1.179   3.463   2.493
  916SOL    HW1 3647   1.245   3.515   2.439
  916SOL    HW2 3648   1.118   3.526   2.542
  917SOL     OW 3649   3.537   0.503   6.049
  917SOL    HW1 3650   3.542   0.553   6.135
  917SOL    HW2 3651   3.441   0.490   6.024
  918SOL     OW 3652   0.345   2.524   4.917
  918SOL    HW1 3653   0.264   2.567   4.956
  918SOL    HW2 3654   0.326   2.427   4.899
  919SOL     OW 3655   1.107   0.945   0.958
  919SOL    HW1 3656   1.149   0.878   1.019
  919SOL    HW2 3657   1.100   0.907   0.866
  920SOL     OW 3658   1.595   1.463   2.975
  920SOL    HW1 3659   1.661   1.525   3.018
  920SOL    HW2 3660   1.502   1.490   3.000
  921SOL     OW 3661   4.142   4.389   0.280
  921SOL    HW1 3662   4.110   4.436   0.363
  921SOL    HW2 3663   4.242   4.388   0.279
  922SOL     OW 3664   2.236   5.872   0.114
  922SOL    HW1 3665   2.175   5.938   0.158
  922SOL    HW2 3666   2.181   5.799   0.073
  923SOL     OW 3667   4.226   1.333   0.118
  923SOL    HW1 3668   4.242   1.329   0.020
  923SOL    HW2 3669   4.288   1.270   0.165
  924SOL     OW 3670   6.296   4.811   1.939
  924SOL    HW1 3671   6.289   4.871   1.859
  924SOL    HW2 3672   6.224   4.742   1.935
  925SOL     OW 3673   6.347   2.438   1.970
  925SOL    HW1 3674   6.260   2.486   1.964
  925SOL    HW2 3675   6.420   2.505   1.985
  926SOL     OW 3676   4.165   5.696   1.409
  926SOL    HW1 3677   4.246   5.720   1.355
  926SOL    HW2 3678   4.126   5.778   1.449
  927SOL     OW 3679   4.663   5.430   5.369
  927SOL    HW1 3680   4.606   5.350   5.351
  927SOL    HW2 3681   4.731   5.440   5.296
  928SOL     OW 3682   0.375   1.810   1.463
  928SOL    HW1 3683   0.464   1.812   1.417
  928SOL    HW2 3684   0.389   1.793   1.560
  929SOL     OW 3685   0.378   2.326   2.364
  929SOL    HW1 3686   0.357   2.420   2.336
  929SOL    HW2 3687   0.313   2.264   2.320
  930SOL     OW 3688   6.179   5.325   2.125
  930SOL    HW1 3689   6.250   5.257   2.144
  930SOL    HW2 3690   6.218   5.398   2.068
  931SOL     OW 3691   1.379   2.454   1.928
  931SOL    HW1 3692   1.318   2.375   1.929
  931SOL    HW2 3693   1.337   2.530   1.979
  932SOL     OW 3694   4.611   5.940   1.193
  932SOL    HW1 3695   4.596   6.036   1.172
  932SOL    HW2 3696   4.628   5.930   1.291
  933SOL     OW 3697   1.233   6.548   3.953
  933SOL    HW1 3698   1.224   6.549   3.854
  933SOL    HW2 3699   1.143   6.532   3.995
  934SOL     OW 3700   3.336   1.445   5.330
  934SOL    HW1 3701   3.293   1.476   5.415
  934SOL    HW2 3702   3.427   1.410   5.350
  935SOL     OW 3703   1.422   3.690   4.316
  935SOL    HW1 3704   1.329   3.704   4.350
  935SOL    HW2 3705   1.467   3.779   4.305
  936SOL     OW 3706   1.082   1.634   1.759
  936SOL    HW1 3707   1.040   1.723   1.740
  936SOL    HW2 3708   1.011   1.569   1.785
  937SOL     OW 3709   4.873   2.011   3.387
  937SOL    HW1 3710   4.895   1.949   3.312
  937SOL    HW2 3711   4.908   2.102   3.366
  938SOL     OW 3712   0.623   0.908   6.581
  938SOL    HW1 3713   0.670   0.982   6.629
  938SOL    HW2 3714   0.645   0.821   6.625
  939SOL     OW 3715   6.187   0.900   4.731
  939SOL    HW1 3716   6.156   0.855   4.647
  939SOL    HW2 3717   6.272   0.858   4.761
  940SOL     OW 3718   6.224   0.311   3.782
  940SOL    HW1 3719   6.136   0.318   3.735
  940SOL    HW2 3720   6.258   0.402   3.803
  941SOL     OW 3721   5.898   2.897   5.202
  941SOL    HW1 3722   5.872   2.897   5.299
  941SOL    HW2 3723   5.820   2.922   5.146
  942SOL     OW 3724   4.546   6.891   5.238
  942SOL    HW1 3725   4.536   6.801   5.280
  942SOL    HW2 3726   4.643   6.911   5.225
  943SOL     OW 3727   5.496   2.810   0.187
  943SOL    HW1 3728   5.419   2.763   0.231
  943SOL    HW2 3729   5.572   2.819   0.251
  944SOL     OW 3730   5.093   4.365   3.691
  944SOL    HW1 3731   5.065   4.414   3.608
  944SOL    HW2 3732   5.012   4.336   3.742
  945SOL     OW 3733   5.593   3.114   6.745
  945SOL    HW1 3734   5.501   3.082   6.720
  945SOL    HW2 3735   5.630   3.055   6.817
  946SOL     OW 3736   6.246   3.748   6.587
  946SOL    HW1 3737   6.162   3.711   6.626
  946SOL    HW2 3738   6.264   3.706   6.499
  947SOL     OW 3739   1.007   2.939   6.053
  947SOL    HW1 3740   1.092   2.957   6.004
  947SOL    HW2 3741   0.956   2.866   6.007
  948SOL     OW 3742   3.577   2.315   0.363
  948SOL    HW1 3743   3.630   2.303   0.447
  948SOL    HW2 3744   3.480   2.308   0.383
  949SOL     OW 3745   4.855   5.987   6.309
  949SOL    HW1 3746   4.924   5.975   6.239
  949SOL    HW2 3747   4.841   6.085   6.325
  950SOL     OW 3748   3.331   5.379   0.618
  950SOL    HW1 3749   3.244   5.401   0.574
  950SOL    HW2 3750   3.380   5.310   0.565
  951SOL     OW 3751   1.429   2.729   4.060
  951SOL    HW1 3752   1.502   2.668   4.031
  951SOL    HW2 3753   1.468   2.810   4.105
  952SOL     OW 3754   4.785   0.792   1.269
  952SOL    HW1 3755   4.871   0.795   1.219
  952SOL    HW2 3756   4.755   0.886   1.288
  953SOL     OW 3757   4.504   6.868   5.887
  953SOL    HW1 3758   4.419   6.901   5.845
  953SOL    HW2 3759   4.482   6.797   5.954
  954SOL     OW 3760   6.194   6.946   1.604
  954SOL    HW1 3761   6.285   6.986   1.617
  954SOL    HW2 3762   6.201   6.869   1.541
  955SOL     OW 3763   1.286   5.904   3.044
  955SOL    HW1 3764   1.246   5.878   3.132
  955SOL    HW2 3765   1.316   5.999   3.048
  956SOL     OW 3766   1.915   2.723   0.891
  956SOL    HW1 3767   1.819   2.733   0.917
  956SOL    HW2 3768   1.930   2.632   0.853
  957SOL     OW 3769   2.104   6.150   4.773
  957SOL    HW1 3770   2.203   6.135   4.772
  957SOL    HW2 3771   2.073   6.174   4.681
  958SOL     OW 3772   4.818   2.637   6.940
  958SOL    HW1 3773   4.886   2.624   6.868
  958SOL    HW2 3774   4.757   2.557   6.942
  959SOL     OW 3775   1.286   3.788   0.733
  959SOL    HW1 3776   1.204   3.839   0.706
  959SOL    HW2 3777   1.262   3.693   0.754
  960SOL     OW 3778   1.523   4.074   5.908
  960SOL    HW1 3779   1.546   4.115   5.997
  960SOL    HW2 3780   1.496   4.146   5.845
  961SOL     OW 3781   3.244   6.614   6.715
  961SOL    HW1 3782   3.201   6.686   6.770
  961SOL    HW2 3783   3.203   6.612   6.624
  962SOL     OW 3784   0.627   0.226   3.404
  962SOL    HW1 3785   0.530   0.209   3.383
  962SOL    HW2 3786   0.679   0.229   3.319
  963SOL     OW 3787   5.992   0.050   2.347
  963SOL    HW1 3788   5.898   0.048   2.312
  963SOL    HW2 3789   6.023   6.985   2.365
  964SOL     OW 3790   5.836   3.985   1.516
  964SOL    HW1 3791   5.768   3.924   1.475
  964SOL    HW2 3792   5.822   4.078   1.482
  965SOL     OW 3793   2.107   1.469   0.214
  965SOL    HW1 3794   2.087   1.567   0.210
  965SOL    HW2 3795   2.169   1.445   0.140
  966SOL     OW 3796   5.859   2.521   1.921
  966SOL    HW1 3797   5.804   2.601   1.896
  966SOL    HW2 3798   5.804   2.460   1.978
  967SOL     OW 3799   0.916   5.271   3.086
  967SOL    HW1 3800   0.917   5.371   3.085
  967SOL    HW2 3801   0.866   5.239   3.166
  968SOL     OW 3802   0.262   4.513   0.174
  968SOL    HW1 3803   0.291   4.586   0.112
  968SOL    HW2 3804   0.334   4.444   0.181
  969SOL     OW 3805   3.788   6.592   6.683
  969SOL    HW1 3806   3.874   6.553   6.717
  969SOL    HW2 3807   3.757   6.664   6.746
  970SOL     OW 3808   5.103   3.481   6.243
  970SOL    HW1 3809   5.186   3.465   6.295
  970SOL    HW2 3810   5.023   3.465   6.301
  971SOL     OW 3811   0.152   2.660   6.912
  971SOL    HW1 3812   0.240   2.629   6.946
  971SOL    HW2 3813   0.079   2.610   6.958
  972SOL     OW 3814   5.177   6.643   0.107
  972SOL    HW1 3815   5.250   6.576   0.098
  972SOL    HW2 3816   5.188   6.692   0.194
  973SOL     OW 3817   6.459   3.364   5.629
  973SOL    HW1 3818   6.517   3.444   5.645
  973SOL    HW2 3819   6.515   3.282   5.621
  974SOL     OW 3820   1.964   0.266   4.469
  974SOL    HW1 3821   1.893   0.210   4.512
  974SOL    HW2 3822   1.976   0.237   4.374
  975SOL     OW 3823   2.685   6.882   5.306
  975SOL    HW1 3824   2.725   6.792   5.287
  975SOL    HW2 3825   2.662   6.887   5.403
  976SOL     OW 3826   0.115   4.812   3.965
  976SOL    HW1 3827   0.110   4.890   3.903
  976SOL    HW2 3828   0.173   4.835   4.043
  977SOL     OW 3829   1.236   1.994   2.466
  977SOL    HW1 3830   1.168   1.996   2.393
  977SOL    HW2 3831   1.204   1.936   2.541
  978SOL     OW 3832   5.774   2.928   4.240
  978SOL    HW1 3833   5.807   2.842   4.201
  978SOL    HW2 3834   5.696   2.910   4.300
  979SOL     OW 3835   6.434   2.194   2.961
  979SOL    HW1 3836   6.477   2.140   2.888
  979SOL    HW2 3837   6.347   2.152   2.987
  980SOL     OW 3838   6.531   6.806   5.913
  980SOL    HW1 3839   6.484   6.893   5.925
  980SOL    HW2 3840   6.629   6.819   5.921
  981SOL     OW 3841   6.466   3.219   6.335
  981SOL    HW1 3842   6.405   3.281   6.384
  981SOL    HW2 3843   6.485   3.255   6.244
  982SOL     OW 3844   1.557   4.718   0.742
  982SOL    HW1 3845   1.646   4.741   0.702
  982SOL    HW2 3846   1.546   4.619   0.744
  983SOL     OW 3847   5.590   1.184   3.416
  983SOL    HW1 3848   5.509   1.126   3.413
  983SOL    HW2 3849   5.572   1.266   3.470
  984SOL     OW 3850   4.786   3.049   5.414
  984SOL    HW1 3851   4.805   3.126   5.352
  984SOL    HW2 3852   4.792   2.963   5.363
  985SOL     OW 3853   2.004   4.502   0.479
  985SOL    HW1 3854   2.054   4.518   0.394
  985SOL    HW2 3855   1.970   4.408   0.480
  986SOL     OW 3856   4.906   4.088   5.427
  986SOL    HW1 3857   4.949   4.017   5.371
  986SOL    HW2 3858   4.901   4.173   5.375
  987SOL     OW 3859   3.344   0.412   2.554
  987SOL    HW1 3860   3.434   0.369   2.541
  987SOL    HW2 3861   3.274   0.342   2.560
  988SOL     OW 3862   3.566   2.733   1.473
  988SOL    HW1 3863   3.569   2.817   1.528
  988SOL    HW2 3864   3.609   2.659   1.523
  989SOL     OW 3865   0.608   1.277   4.399
  989SOL    HW1 3866   0.673   1.272   4.324
  989SOL    HW2 3867   0.520   1.309   4.365
  990SOL     OW 3868   5.377   6.498   1.982
  990SOL    HW1 3869   5.392   6.403   2.012
  990SOL    HW2 3870   5.464   6.546   1.976
  991SOL     OW 3871   5.959   1.853   5.817
  991SOL    HW1 3872   5.990   1.760   5.835
  991SOL    HW2 3873   5.863   1.862   5.843
  992SOL     OW 3874   0.059   2.831   1.170
  992SOL    HW1 3875   0.052   2.748   1.227
  992SOL    HW2 3876   0.072   2.805   1.075
  993SOL     OW 3877   4.293   7.007   4.688
  993SOL    HW1 3878   4.320   0.073   4.706
  993SOL    HW2 3879   4.349   6.945   4.742
  994SOL     OW 3880   2.917   3.581   3.133
  994SOL    HW1 3881   2.904   3.490   3.172
  994SOL    HW2 3882   2.891   3.650   3.201
  995SOL     OW 3883   0.559   2.094   5.135
  995SOL    HW1 3884   0.593   2.109   5.228
  995SOL    HW2 3885   0.474   2.042   5.139
  996SOL     OW 3886   1.017   3.380   0.157
  996SOL    HW1 3887   0.954   3.302   0.160
  996SOL    HW2 3888   1.110   3.348   0.172
  997SOL     OW 3889   6.626   1.624   0.645
  997SOL    HW1 3890   6.680   1.634   0.728
  997SOL    HW2 3891   6.681   1.582   0.574
  998SOL     OW 3892   5.121   0.006   2.913
  998SOL    HW1 3893   5.218   0.026   2.922
  998SOL    HW2 3894   5.076   0.079   2.861
  999SOL     OW 3895   6.741   5.677   1.088
  999SOL    HW1 3896   6.723   5.593   1.037
  999SOL    HW2 3897   6.805   5.734   1.035
 1000SOL     OW 3898   4.260   2.033   4.829
 1000SOL    HW1 3899   4.162   2.020   4.815
 1000SOL    HW2 3900   4.303   1.945   4.849
 1001SOL     OW 3901   4.635   1.223   5.475
 1001SOL    HW1 3902   4.538   1.199   5.477
 1001SOL    HW2 3903   4.688   1.146   5.439
 1002SOL     OW 3904   0.513   1.547   0.387
 1002SOL    HW1 3905   0.459   1.492   0.324
 1002SOL    HW2 3906   0.594   1.496   0.416
 1003SOL     OW 3907   4.020   5.124   2.575
 1003SOL    HW1 3908   4.045   5.193   2.642
 1003SOL    HW2 3909   4.038   5.033   2.612
 1004SOL     OW 3910   5.844   6.151   0.321
 1004SOL    HW1 3911   5.940   6.122   0.318
 1004SOL    HW2 3912   5.788   6.082   0.275
 1005SOL     OW 3913   6.311   6.392   3.466
 1005SOL    HW1 3914   6.391   6.452   3.470
 1005SOL    HW2 3915   6.292   6.355   3.557
 1006SOL     OW 3916   1.723   5.206   0.219
 1006SOL    HW1 3917   1.777   5.177   0.298
 1006SOL    HW2 3918   1.672   5.128   0.183
 1007SOL     OW 3919   6.502   1.591   2.952
 1007SOL    HW1 3920   6.533   1.621   3.042
 1007SOL    HW2 3921   6.439   1.514   2.962
 1008SOL     OW 3922   3.170   2.036   5.028
 1008SOL    HW1 3923   3.252   2.012   4.976
 1008SOL    HW2 3924   3.163   2.135   5.035
 1009SOL     OW 3925   3.271   6.238   6.024
 1009SOL    HW1 3926   3.280   6.201   5.931
 1009SOL    HW2 3927   3.321   6.179   6.088
 1010SOL     OW 3928   5.577   0.057   5.234
 1010SOL    HW1 3929   5.501   0.076   5.173
 1010SOL    HW2 3930   5.626   7.004   5.202
 1011SOL     OW 3931   2.715   5.596   3.948
 1011SOL    HW1 3932   2.654   5.589   4.027
 1011SOL    HW2 3933   2.805   5.625   3.979
 1012SOL     OW 3934   3.930   6.321   0.903
 1012SOL    HW1 3935   3.983   6.272   0.972
 1012SOL    HW2 3936   3.926   6.418   0.925
 1013SOL     OW 3937   0.657   0.372   0.046
 1013SOL    HW1 3938   0.725   0.356   0.118
 1013SOL    HW2 3939   0.666   0.301   7.004
 1014SOL     OW 3940   6.046   6.537   5.680
 1014SOL    HW1 3941   6.142   6.546   5.706
 1014SOL    HW2 3942   5.988   6.559   5.759
 1015SOL     OW 3943   2.586   0.416   4.930
 1015SOL    HW1 3944   2.678   0.395   4.895
 1015SOL    HW2 3945   2.519   0.397   4.858
 1016SOL     OW 3946   4.317   2.950   1.518
 1016SOL    HW1 3947   4.389   2.972   1.453
 1016SOL    HW2 3948   4.234   2.923   1.469
 1017SOL     OW 3949   4.964   0.066   6.154
 1017SOL    HW1 3950   4.883   0.013   6.181
 1017SOL    HW2 3951   4.936   0.159   6.130
 1018SOL     OW 3952   1.653   2.649   1.654
 1018SOL    HW1 3953   1.632   2.561   1.698
 1018SOL    HW2 3954   1.609   2.723   1.705
 1019SOL     OW 3955   5.867   1.432   0.930
 1019SOL    HW1 3956   5.872   1.365   1.004
 1019SOL    HW2 3957   5.773   1.460   0.917
 1020SOL     OW 3958   3.697   2.145   1.704
 1020SOL    HW1 3959   3.719   2.206   1.780
 1020SOL    HW2 3960   3.782   2.105   1.668
 1021SOL     OW 3961   6.771   1.538   0.872
 1021SOL    HW1 3962   6.791   1.624   0.919
 1021SOL    HW2 3963   6.771   1.463   0.938
 1022SOL     OW 3964   3.482   3.139   0.218
 1022SOL    HW1 3965   3.530   3.136   0.305
 1022SOL    HW2 3966   3.541   3.103   0.146
 1023SOL     OW 3967   6.905   0.655   4.748
 1023SOL    HW1 3968   6.958   0.571   4.742
 1023SOL    HW2 3969   6.808   0.634   4.729
 1024SOL     OW 3970   6.160   2.448   3.837
 1024SOL    HW1 3971   6.258   2.459   3.823
 1024SOL    HW2 3972   6.140   2.354   3.865
 1025SOL     OW 3973   2.905   4.865   1.129
 1025SOL    HW1 3974   2.872   4.959   1.124
 1025SOL    HW2 3975   2.847   4.806   1.073
 1026SOL     OW 3976   0.428   2.234   6.300
 1026SOL    HW1 3977   0.445   2.310   6.238
 1026SOL    HW2 3978   0.500   2.165   6.289
 1027SOL     OW 3979   2.334   4.855   1.331
 1027SOL    HW1 3980   2.316   4.858   1.232
 1027SOL    HW2 3981   2.401   4.784   1.350
 1028SOL     OW 3982   0.298   5.693   6.928
 1028SOL    HW1 3983   0.376   5.751   6.952
 1028SOL    HW2 3984   0.242   5.740   6.860
 1029SOL     OW 3985   3.545   0.278   4.864
 1029SOL    HW1 3986   3.574   0.339   4.790
 1029SOL    HW2 3987   3.624   0.249   4.916
 1030SOL     OW 3988   4.073   4.928   4.935
 1030SOL    HW1 3989   3.978   4.956   4.927
 1030SOL    HW2 3990   4.133   5.006   4.916
 1031SOL     OW 3991   2.587   6.259   0.862
 1031SOL    HW1 3992   2.544   6.299   0.781
 1031SOL    HW2 3993   2.517   6.216   0.919
 1032SOL     OW 3994   1.247   1.550   5.479
 1032SOL    HW1 3995   1.341   1.542   5.444
 1032SOL    HW2 3996   1.214   1.644   5.464
 1033SOL     OW 3997   2.739   6.890   1.613
 1033SOL    HW1 3998   2.776   6.974   1.654
 1033SOL    HW2 3999   2.649   6.871   1.651
 1034SOL     OW 4000   0.571   6.566   2.168
 1034SOL    HW1 4001   0.519   6.520   2.239
 1034SOL    HW2 4002   0.598   6.500   2.097
 1035SOL     OW 4003   3.148   1.853   2.967
 1035SOL    HW1 4004   3.144   1.772   3.024
 1035SOL    HW2 4005   3.061   1.863   2.917
 1036SOL     OW 4006   4.843   6.587   6.790
 1036SOL    HW1 4007   4.876   6.654   6.723
 1036SOL    HW2 4008   4.878   6.611   6.880
 1037SOL     OW 4009   3.732   1.462   6.357
 1037SOL    HW1 4010   3.806   1.403   6.392
 1037SOL    HW2 4011   3.771   1.535   6.301
 1038SOL     OW 4012   2.510   2.119   5.443
 1038SOL    HW1 4013   2.444   2.084   5.508
 1038SOL    HW2 4014   2.509   2.219   5.444
 1039SOL     OW 4015   5.225   1.683   3.238
 1039SOL    HW1 4016   5.189   1.749   3.305
 1039SOL    HW2 4017   5.273   1.732   3.166
 1040SOL     OW 4018   6.183   4.410   3.998
 1040SOL    HW1 4019   6.120   4.464   4.054
 1040SOL    HW2 4020   6.263   4.384   4.053
 1041SOL     OW 4021   1.774   6.651   4.540
 1041SOL    HW1 4022   1.779   6.744   4.504
 1041SOL    HW2 4023   1.704   6.646   4.611
 1042SOL     OW 4024   4.521   4.001   0.428
 1042SOL    HW1 4025   4.584   3.992   0.505
 1042SOL    HW2 4026   4.517   3.915   0.378
 1043SOL     OW 4027   4.202   0.080   6.604
 1043SOL    HW1 4028   4.233   0.155   6.662
 1043SOL    HW2 4029   4.206   7.022   6.655
 1044SOL     OW 4030   3.808   3.799   3.298
 1044SOL    HW1 4031   3.897   3.779   3.258
 1044SOL    HW2 4032   3.748   3.838   3.228
 1045SOL     OW 4033   3.397   0.935   3.241
 1045SOL    HW1 4034   3.376   0.932   3.338
 1045SOL    HW2 4035   3.313   0.948   3.189
 1046SOL     OW 4036   3.166   0.825   2.403
 1046SOL    HW1 4037   3.103   0.867   2.338
 1046SOL    HW2 4038   3.250   0.798   2.356
 1047SOL     OW 4039   0.446   6.261   1.856
 1047SOL    HW1 4040   0.521   6.274   1.921
 1047SOL    HW2 4041   0.367   6.221   1.904
 1048SOL     OW 4042   6.478   4.206   5.008
 1048SOL    HW1 4043   6.497   4.171   4.917
 1048SOL    HW2 4044   6.423   4.290   5.001
 1049SOL     OW 4045   0.772   3.621   5.244
 1049SOL    HW1 4046   0.751   3.559   5.320
 1049SOL    HW2 4047   0.719   3.594   5.164
 1050SOL     OW 4048   2.867   0.335   1.321
 1050SOL    HW1 4049   2.836   0.243   1.345
 1050SOL    HW2 4050   2.966   0.341   1.331
 1051SOL     OW 4051   4.897   4.886   1.935
 1051SOL    HW1 4052   4.838   4.938   1.996
 1051SOL    HW2 4053   4.993   4.913   1.950
 1052SOL     OW 4054   3.449   0.204   3.787
 1052SOL    HW1 4055   3.455   0.287   3.843
 1052SOL    HW2 4056   3.387   0.139   3.830
 1053SOL     OW 4057   3.959   4.802   3.806
 1053SOL    HW1 4058   3.915   4.854   3.733
 1053SOL    HW2 4059   3.896   4.791   3.882
 1054SOL     OW 4060   3.976   5.943   4.591
 1054SOL    HW1 4061   3.910   5.900   4.530
 1054SOL    HW2 4062   4.050   5.983   4.536
 1055SOL     OW 4063   4.207   4.831   4.515
 1055SOL    HW1 4064   4.264   4.775   4.456
 1055SOL    HW2 4065   4.253   4.917   4.534
 1056SOL     OW 4066   2.704   5.803   6.922
 1056SOL    HW1 4067   2.699   5.902   6.935
 1056SOL    HW2 4068   2.797   5.778   6.896
 1057SOL     OW 4069   3.766   4.195   1.318
 1057SOL    HW1 4070   3.679   4.147   1.314
 1057SOL    HW2 4071   3.806   4.186   1.409
 1058SOL     OW 4072   3.150   6.391   1.958
 1058SOL    HW1 4073   3.199   6.354   1.880
 1058SOL    HW2 4074   3.215   6.423   2.027
 1059SOL     OW 4075   4.296   0.590   0.853
 1059SOL    HW1 4076   4.255   0.612   0.942
 1059SOL    HW2 4077   4.288   0.492   0.835
 1060SOL     OW 4078   3.551   1.441   4.343
 1060SOL    HW1 4079   3.578   1.536   4.359
 1060SOL    HW2 4080   3.452   1.434   4.340
 1061SOL     OW 4081   2.462   5.823   1.036
 1061SOL    HW1 4082   2.375   5.774   1.024
 1061SOL    HW2 4083   2.532   5.760   1.068
 1062SOL     OW 4084   4.806   4.535   4.451
 1062SOL    HW1 4085   4.892   4.514   4.498
 1062SOL    HW2 4086   4.741   4.460   4.465
 1063SOL     OW 4087   3.824   1.901   6.440
 1063SOL    HW1 4088   3.754   1.941   6.381
 1063SOL    HW2 4089   3.780   1.855   6.517
 1064SOL     OW 4090   0.489   3.362   2.737
 1064SOL    HW1 4091   0.476   3.454   2.774
 1064SOL    HW2 4092   0.561   3.315   2.788
 1065SOL     OW 4093   4.585   5.071   5.860
 1065SOL    HW1 4094   4.623   4.979   5.871
 1065SOL    HW2 4095   4.512   5.085   5.927
 1066SOL     OW 4096   4.504   0.459   3.476
 1066SOL    HW1 4097   4.558   0.378   3.497
 1066SOL    HW2 4098   4.541   0.502   3.393
 1067SOL     OW 4099   3.189   3.575   0.139
 1067SOL    HW1 4100   3.089   3.582   0.135
 1067SOL    HW2 4101   3.216   3.494   0.191
 1068SOL     OW 4102   0.551   5.077   1.559
 1068SOL    HW1 4103   0.594   5.106   1.474
 1068SOL    HW2 4104   0.467   5.026   1.539
 1069SOL     OW 4105   2.958   3.156   2.577
 1069SOL    HW1 4106   2.998   3.248   2.575
 1069SOL    HW2 4107   3.030   3.089   2.596
 1070SOL     OW 4108   1.846   6.099   0.495
 1070SOL    HW1 4109   1.905   6.025   0.463
 1070SOL    HW2 4110   1.890   6.187   0.479
 1071SOL     OW 4111   5.129   5.822   3.337
 1071SOL    HW1 4112   5.062   5.860   3.274
 1071SOL    HW2 4113   5.084   5.760   3.402
 1072SOL     OW 4114   3.864   5.750   3.193
 1072SOL    HW1 4115   3.896   5.829   3.245
 1072SOL    HW2 4116   3.941   5.705   3.148
 1073SOL     OW 4117   2.878   5.391   3.296
 1073SOL    HW1 4118   2.902   5.313   3.239
 1073SOL    HW2 4119   2.961   5.437   3.329
 1074SOL     OW 4120   1.974   4.869   3.648
 1074SOL    HW1 4121   2.021   4.928   3.582
 1074SOL    HW2 4122   1.996   4.773   3.629
 1075SOL     OW 4123   0.629   4.190   2.622
 1075SOL    HW1 4124   0.667   4.259   2.560
 1075SOL    HW2 4125   0.529   4.194   2.619
 1076SOL     OW 4126   5.891   3.628   3.255
 1076SOL    HW1 4127   5.829   3.549   3.254
 1076SOL    HW2 4128   5.909   3.657   3.161
 1077SOL     OW 4129   4.686   0.169   2.079
 1077SOL    HW1 4130   4.692   0.189   1.981
 1077SOL    HW2 4131   4.736   0.085   2.099
 1078SOL     OW 4132   0.010   2.902   2.524
 1078SOL    HW1 4133   0.037   2.829   2.461
 1078SOL    HW2 4134   0.092   2.944   2.563
 1079SOL     OW 4135   1.512   4.809   3.268
 1079SOL    HW1 4136   1.504   4.757   3.183
 1079SOL    HW2 4137   1.531   4.905   3.246
 1080SOL     OW 4138   1.940   5.656   3.763
 1080SOL    HW1 4139   1.895   5.735   3.724
 1080SOL    HW2 4140   1.952   5.669   3.862
 1081SOL     OW 4141   1.658   0.441   7.010
 1081SOL    HW1 4142   1.654   0.398   6.920
 1081SOL    HW2 4143   1.580   0.502   7.022
 1082SOL     OW 4144   2.283   0.281   1.210
 1082SOL    HW1 4145   2.323   0.371   1.231
 1082SOL    HW2 4146   2.214   0.291   1.138
 1083SOL     OW 4147   3.838   2.862   1.844
 1083SOL    HW1 4148   3.857   2.954   1.810
 1083SOL    HW2 4149   3.740   2.851   1.857
 1084SOL     OW 4150   6.456   3.996   1.599
 1084SOL    HW1 4151   6.417   3.966   1.511
 1084SOL    HW2 4152   6.471   4.095   1.597
 1085SOL     OW 4153   1.478   5.586   4.231
 1085SOL    HW1 4154   1.427   5.646   4.170
 1085SOL    HW2 4155   1.506   5.638   4.312
 1086SOL     OW 4156   3.032   5.861   2.793
 1086SOL    HW1 4157   3.079   5.874   2.706
 1086SOL    HW2 4158   3.099   5.842   2.865
 1087SOL     OW 4159   3.787   2.890   5.055
 1087SOL    HW1 4160   3.800   2.813   4.992
 1087SOL    HW2 4161   3.843   2.877   5.136
 1088SOL     OW 4162   0.281   4.345   2.835
 1088SOL    HW1 4163   0.304   4.442   2.840
 1088SOL    HW2 4164   0.228   4.320   2.916
 1089SOL     OW 4165   6.429   0.179   3.123
 1089SOL    HW1 4166   6.427   0.266   3.075
 1089SOL    HW2 4167   6.459   0.107   3.061
 1090SOL     OW 4168   1.771   2.324   6.341
 1090SOL    HW1 4169   1.805   2.403   6.391
 1090SOL    HW2 4170   1.804   2.328   6.247
 1091SOL     OW 4171   0.777   2.119   5.982
 1091SOL    HW1 4172   0.756   2.023   5.998
 1091SOL    HW2 4173   0.852   2.127   5.917
 1092SOL     OW 4174   2.949   5.007   1.431
 1092SOL    HW1 4175   2.949   5.033   1.334
 1092SOL    HW2 4176   2.987   4.915   1.441
 1093SOL     OW 4177   0.407   2.517   1.437
 1093SOL    HW1 4178   0.387   2.504   1.534
 1093SOL    HW2 4179   0.390   2.431   1.388
 1094SOL     OW 4180   1.094   6.069   2.617
 1094SOL    HW1 4181   1.124   5.991   2.673
 1094SOL    HW2 4182   1.105   6.047   2.520
 1095SOL     OW 4183   0.843   3.390   6.343
 1095SOL    HW1 4184   0.849   3.412   6.441
 1095SOL    HW2 4185   0.747   3.382   6.316
 1096SOL     OW 4186   3.400   2.889   2.315
 1096SOL    HW1 4187   3.483   2.862   2.266
 1096SOL    HW2 4188   3.323   2.889   2.251
 1097SOL     OW 4189   2.707   4.827   5.678
 1097SOL    HW1 4190   2.729   4.807   5.582
 1097SOL    HW2 4191   2.673   4.921   5.685
 1098SOL     OW 4192   3.362   0.607   2.336
 1098SOL    HW1 4193   3.327   0.542   2.404
 1098SOL    HW2 4194   3.304   0.604   2.254
 1099SOL     OW 4195   3.041   0.162   2.123
 1099SOL    HW1 4196   3.064   0.244   2.177
 1099SOL    HW2 4197   3.122   0.104   2.115
 1100SOL     OW 4198   6.659   1.073   0.246
 1100SOL    HW1 4199   6.742   1.039   0.202
 1100SOL    HW2 4200   6.637   1.164   0.210
 1101SOL     OW 4201   5.397   3.204   0.986
 1101SOL    HW1 4202   5.386   3.134   0.915
 1101SOL    HW2 4203   5.399   3.294   0.943
 1102SOL     OW 4204   6.954   3.382   4.109
 1102SOL    HW1 4205   6.966   3.372   4.011
 1102SOL    HW2 4206   7.019   3.324   4.158
 1103SOL     OW 4207   0.380   3.004   0.186
 1103SOL    HW1 4208   0.454   3.064   0.216
 1103SOL    HW2 4209   0.311   3.058   0.137
 1104SOL     OW 4210   2.479   5.583   5.708
 1104SOL    HW1 4211   2.392   5.557   5.750
 1104SOL    HW2 4212   2.551   5.580   5.778
 1105SOL     OW 4213   3.903   5.468   0.917
 1105SOL    HW1 4214   3.835   5.506   0.980
 1105SOL    HW2 4215   3.935   5.539   0.855
 1106SOL     OW 4216   0.546   1.754   0.129
 1106SOL    HW1 4217   0.601   1.781   0.208
 1106SOL    HW2 4218   0.496   1.670   0.150
 1107SOL     OW 4219   6.712   0.137   1.772
 1107SOL    HW1 4220   6.668   0.222   1.802
 1107SOL    HW2 4221   6.663   0.058   1.809
 1108SOL     OW 4222   1.585   1.215   0.261
 1108SOL    HW1 4223   1.650   1.225   0.337
 1108SOL    HW2 4224   1.497   1.182   0.296
 1109SOL     OW 4225   4.020   0.880   3.233
 1109SOL    HW1 4226   4.095   0.878   3.299
 1109SOL    HW2 4227   3.969   0.795   3.237
 1110SOL     OW 4228   3.293   3.116   2.958
 1110SOL    HW1 4229   3.229   3.113   3.035
 1110SOL    HW2 4230   3.280   3.034   2.902
 1111SOL     OW 4231   4.523   6.442   6.900
 1111SOL    HW1 4232   4.514   6.539   6.918
 1111SOL    HW2 4233   4.434   6.397   6.907
 1112SOL     OW 4234   1.004   1.527   2.496
 1112SOL    HW1 4235   0.921   1.532   2.440
 1112SOL    HW2 4236   1.068   1.463   2.454
 1113SOL     OW 4237   6.514   3.655   1.436
 1113SOL    HW1 4238   6.429   3.707   1.429
 1113SOL    HW2 4239   6.497   3.559   1.417
 1114SOL     OW 4240   5.886   1.232   5.736
 1114SOL    HW1 4241   5.950   1.285   5.792
 1114SOL    HW2 4242   5.867   1.145   5.781
 1115SOL     OW 4243   2.268   5.242   0.528
 1115SOL    HW1 4244   2.168   5.239   0.525
 1115SOL    HW2 4245   2.302   5.307   0.460
 1116SOL     OW 4246   3.834   6.395   6.351
 1116SOL    HW1 4247   3.758   6.332   6.369
 1116SOL    HW2 4248   3.803   6.489   6.364
 1117SOL     OW 4249   2.586   3.256   1.294
 1117SOL    HW1 4250   2.559   3.323   1.225
 1117SOL    HW2 4251   2.620   3.173   1.248
 1118SOL     OW 4252   1.277   2.551   1.599
 1118SOL    HW1 4253   1.340   2.563   1.675
 1118SOL    HW2 4254   1.240   2.458   1.600
 1119SOL     OW 4255   2.919   3.776   3.337
 1119SOL    HW1 4256   2.872   3.853   3.380
 1119SOL    HW2 4257   2.954   3.714   3.407
 1120SOL     OW 4258   3.440   1.073   3.878
 1120SOL    HW1 4259   3.388   1.153   3.848
 1120SOL    HW2 4260   3.532   1.077   3.839
 1121SOL     OW 4261   4.851   3.816   3.129
 1121SOL    HW1 4262   4.850   3.915   3.114
 1121SOL    HW2 4263   4.835   3.769   3.043
 1122SOL     OW 4264   4.341   5.119   6.048
 1122SOL    HW1 4265   4.362   5.111   6.145
 1122SOL    HW2 4266   4.243   5.103   6.034
 1123SOL     OW 4267   3.581   0.715   2.203
 1123SOL    HW1 4268   3.523   0.691   2.281
 1123SOL    HW2 4269   3.676   0.724   2.233
 1124SOL     OW 4270   1.900   5.367   4.057
 1124SOL    HW1 4271   1.924   5.437   3.989
 1124SOL    HW2 4272   1.819   5.318   4.027
 1125SOL     OW 4273   3.253   4.034   5.321
 1125SOL    HW1 4274   3.171   4.013   5.267
 1125SOL    HW2 4275   3.227   4.086   5.402
 1126SOL     OW 4276   6.373   0.702   2.260
 1126SOL    HW1 4277   6.300   0.759   2.298
 1126SOL    HW2 4278   6.340   0.608   2.250
 1127SOL     OW 4279   2.079   5.227   6.291
 1127SOL    HW1 4280   2.016   5.296   6.253
 1127SOL    HW2 4281   2.114   5.170   6.217
 1128SOL     OW 4282   2.445   2.492   4.937
 1128SOL    HW1 4283   2.472   2.451   4.850
 1128SOL    HW2 4284   2.508   2.461   5.009
 1129SOL     OW 4285   4.139   5.825   6.356
 1129SOL    HW1 4286   4.151   5.754   6.286
 1129SOL    HW2 4287   4.170   5.913   6.320
 1130SOL     OW 4288   0.515   5.302   5.560
 1130SOL    HW1 4289   0.416   5.287   5.560
 1130SOL    HW2 4290   0.562   5.214   5.558
 1131SOL     OW 4291   6.951   4.574   6.241
 1131SOL    HW1 4292   6.971   4.670   6.220
 1131SOL    HW2 4293   6.866   4.547   6.195
 1132SOL     OW 4294   5.548   6.708   4.718
 1132SOL    HW1 4295   5.612   6.767   4.670
 1132SOL    HW2 4296   5.597   6.632   4.760
 1133SOL     OW 4297   6.639   2.334   6.943
 1133SOL    HW1 4298   6.674   2.310   6.853
 1133SOL    HW2 4299   6.642   2.434   6.954
 1134SOL     OW 4300   0.207   2.901   5.867
 1134SOL    HW1 4301   0.216   2.814   5.819
 1134SOL    HW2 4302   0.276   2.906   5.939
 1135SOL     OW 4303   6.680   1.473   4.388
 1135SOL    HW1 4304   6.712   1.551   4.442
 1135SOL    HW2 4305   6.747   1.399   4.394
 1136SOL     OW 4306   3.687   5.390   4.162
 1136SOL    HW1 4307   3.718   5.458   4.229
 1136SOL    HW2 4308   3.756   5.317   4.154
 1137SOL     OW 4309   0.799   0.793   0.001
 1137SOL    HW1 4310   0.874   0.745   0.047
 1137SOL    HW2 4311   0.714   0.777   0.052
 1138SOL     OW 4312   0.985   3.367   5.821
 1138SOL    HW1 4313   1.042   3.370   5.739
 1138SOL    HW2 4314   1.039   3.393   5.900
 1139SOL     OW 4315   0.676   0.333   2.446
 1139SOL    HW1 4316   0.774   0.340   2.430
 1139SOL    HW2 4317   0.635   0.425   2.444
 1140SOL     OW 4318   3.860   1.736   3.072
 1140SOL    HW1 4319   3.951   1.704   3.097
 1140SOL    HW2 4320   3.864   1.831   3.044
 1141SOL     OW 4321   6.963   6.146   6.073
 1141SOL    HW1 4322   0.001   6.172   6.002
 1141SOL    HW2 4323   6.966   6.048   6.087
 1142SOL     OW 4324   6.512   0.045   5.128
 1142SOL    HW1 4325   6.479   0.121   5.072
 1142SOL    HW2 4326   6.612   0.047   5.132
 1143SOL     OW 4327   4.904   2.693   1.024
 1143SOL    HW1 4328   4.945   2.740   1.102
 1143SOL    HW2 4329   4.930   2.597   1.026
 1144SOL     OW 4330   0.985   6.179   5.335
 1144SOL    HW1 4331   0.994   6.278   5.327
 1144SOL    HW2 4332   0.901   6.157   5.384
 1145SOL     OW 4333   2.162   4.918   4.724
 1145SOL    HW1 4334   2.220   4.998   4.736
 1145SOL    HW2 4335   2.212   4.836   4.754
 1146SOL     OW 4336   5.932   1.720   1.844
 1146SOL    HW1 4337   5.900   1.801   1.796
 1146SOL    HW2 4338   5.935   1.737   1.942
 1147SOL     OW 4339   6.401   3.651   2.274
 1147SOL    HW1 4340   6.314   3.607   2.253
 1147SOL    HW2 4341   6.431   3.623   2.365
 1148SOL     OW 4342   5.819   0.640   6.333
 1148SOL    HW1 4343   5.919   0.654   6.332
 1148SOL    HW2 4344   5.776   0.705   6.270
 1149SOL     OW 4345   4.884   2.985   3.198
 1149SOL    HW1 4346   4.829   2.944   3.271
 1149SOL    HW2 4347   4.867   2.936   3.112
 1150SOL     OW 4348   1.764   5.771   5.159
 1150SOL    HW1 4349   1.715   5.779   5.071
 1150SOL    HW2 4350   1.711   5.713   5.221
 1151SOL     OW 4351   2.599   5.159   6.869
 1151SOL    HW1 4352   2.499   5.165   6.859
 1151SOL    HW2 4353   2.642   5.229   6.813
 1152SOL     OW 4354   0.054   0.779   3.406
 1152SOL    HW1 4355   0.148   0.753   3.426
 1152SOL    HW2 4356   0.002   0.785   3.492
 1153SOL     OW 4357   2.466   4.765   2.603
 1153SOL    HW1 4358   2.535   4.780   2.532
 1153SOL    HW2 4359   2.391   4.830   2.590
 1154SOL     OW 4360   1.677   4.231   2.216
 1154SOL    HW1 4361   1.759   4.212   2.162
 1154SOL    HW2 4362   1.701   4.290   2.293
 1155SOL     OW 4363   4.567   0.517   2.026
 1155SOL    HW1 4364   4.641   0.452   2.043
 1155SOL    HW2 4365   4.509   0.482   1.953
 1156SOL     OW 4366   2.328   0.803   4.496
 1156SOL    HW1 4367   2.264   0.878   4.485
 1156SOL    HW2 4368   2.366   0.778   4.407
 1157SOL     OW 4369   1.482   3.535   3.814
 1157SOL    HW1 4370   1.546   3.553   3.739
 1157SOL    HW2 4371   1.498   3.443   3.850
 1158SOL     OW 4372   4.627   6.097   6.163
 1158SOL    HW1 4373   4.682   6.016   6.183
 1158SOL    HW2 4374   4.602   6.097   6.066
 1159SOL     OW 4375   6.060   4.423   2.753
 1159SOL    HW1 4376   6.122   4.444   2.676
 1159SOL    HW2 4377   6.112   4.380   2.827
 1160SOL     OW 4378   2.682   2.576   0.993
 1160SOL    HW1 4379   2.758   2.541   1.047
 1160SOL    HW2 4380   2.691   2.545   0.898
 1161SOL     OW 4381   4.135   0.535   3.676
 1161SOL    HW1 4382   4.046   0.579   3.687
 1161SOL    HW2 4383   4.199   0.570   3.744
 1162SOL     OW 4384   3.414   5.160   1.573
 1162SOL    HW1 4385   3.327   5.209   1.564
 1162SOL    HW2 4386   3.489   5.222   1.550
 1163SOL     OW 4387   4.984   6.815   2.193
 1163SOL    HW1 4388   4.905   6.821   2.132
 1163SOL    HW2 4389   4.957   6.768   2.277
 1164SOL     OW 4390   6.620   4.155   4.756
 1164SOL    HW1 4391   6.714   4.127   4.734
 1164SOL    HW2 4392   6.572   4.178   4.671
 1165SOL     OW 4393   0.655   4.643   2.054
 1165SOL    HW1 4394   0.754   4.652   2.061
 1165SOL    HW2 4395   0.616   4.728   2.019
 1166SOL     OW 4396   3.385   0.844   6.672
 1166SOL    HW1 4397   3.349   0.763   6.627
 1166SOL    HW2 4398   3.426   0.818   6.760
 1167SOL     OW 4399   4.226   1.565   5.664
 1167SOL    HW1 4400   4.306   1.542   5.609
 1167SOL    HW2 4401   4.200   1.660   5.648
 1168SOL     OW 4402   5.663   1.031   3.647
 1168SOL    HW1 4403   5.727   0.958   3.621
 1168SOL    HW2 4404   5.634   1.080   3.565
 1169SOL     OW 4405   1.594   2.811   1.237
 1169SOL    HW1 4406   1.555   2.745   1.301
 1169SOL    HW2 4407   1.562   2.790   1.144
 1170SOL     OW 4408   2.345   0.784   1.682
 1170SOL    HW1 4409   2.399   0.700   1.687
 1170SOL    HW2 4410   2.359   0.837   1.766
 1171SOL     OW 4411   4.281   0.502   0.475
 1171SOL    HW1 4412   4.194   0.518   0.522
 1171SOL    HW2 4413   4.336   0.586   0.477
 1172SOL     OW 4414   3.251   3.085   5.836
 1172SOL    HW1 4415   3.326   3.110   5.775
 1172SOL    HW2 4416   3.183   3.032   5.786
 1173SOL     OW 4417   5.252   6.546   5.506
 1173SOL    HW1 4418   5.340   6.517   5.467
 1173SOL    HW2 4419   5.269   6.604   5.586
 1174SOL     OW 4420   3.668   5.892   6.855
 1174SOL    HW1 4421   3.668   5.796   6.882
 1174SOL    HW2 4422   3.728   5.905   6.776
 1175SOL     OW 4423   0.132   5.123   4.413
 1175SOL    HW1 4424   0.079   5.139   4.497
 1175SOL    HW2 4425   0.200   5.052   4.431
 1176SOL     OW 4426   5.848   2.711   1.515
 1176SOL    HW1 4427   5.818   2.792   1.465
 1176SOL    HW2 4428   5.774   2.644   1.518
 1177SOL     OW 4429   6.551   3.275   6.072
 1177SOL    HW1 4430   6.523   3.217   5.995
 1177SOL    HW2 4431   6.650   3.290   6.068
 1178SOL     OW 4432   5.027   5.099   2.424
 1178SOL    HW1 4433   5.091   5.117   2.499
 1178SOL    HW2 4434   4.933   5.111   2.457
 1179SOL     OW 4435   1.379   5.745   6.170
 1179SOL    HW1 4436   1.350   5.655   6.204
 1179SOL    HW2 4437   1.329   5.816   6.218
 1180SOL     OW 4438   2.195   0.170   4.297
 1180SOL    HW1 4439   2.219   0.167   4.394
 1180SOL    HW2 4440   2.279   0.167   4.242
 1181SOL     OW 4441   1.451   4.885   2.351
 1181SOL    HW1 4442   1.415   4.934   2.430
 1181SOL    HW2 4443   1.376   4.848   2.297
 1182SOL     OW 4444   1.314   3.747   4.032
 1182SOL    HW1 4445   1.306   3.776   3.936
 1182SOL    HW2 4446   1.284   3.652   4.040
 1183SOL     OW 4447   4.119   5.385   1.071
 1183SOL    HW1 4448   4.041   5.423   1.022
 1183SOL    HW2 4449   4.091   5.302   1.120
 1184SOL     OW 4450   3.352   3.007   6.409
 1184SOL    HW1 4451   3.338   3.043   6.316
 1184SOL    HW2 4452   3.434   2.950   6.411
 1185SOL     OW 4453   3.298   1.163   6.376
 1185SOL    HW1 4454   3.330   1.106   6.301
 1185SOL    HW2 4455   3.200   1.183   6.363
 1186SOL     OW 4456   3.919   0.256   5.096
 1186SOL    HW1 4457   3.836   0.241   5.149
 1186SOL    HW2 4458   3.903   0.229   5.001
 1187SOL     OW 4459   1.045   1.837   4.789
 1187SOL    HW1 4460   0.987   1.791   4.723
 1187SOL    HW2 4461   1.085   1.769   4.851
 1188SOL     OW 4462   1.573   0.661   5.056
 1188SOL    HW1 4463   1.546   0.599   4.982
 1188SOL    HW2 4464   1.606   0.608   5.134
 1189SOL     OW 4465   1.327   0.848   1.150
 1189SOL    HW1 4466   1.363   0.883   1.237
 1189SOL    HW2 4467   1.389   0.872   1.076
 1190SOL     OW 4468   3.877   5.697   2.122
 1190SOL    HW1 4469   3.836   5.759   2.056
 1190SOL    HW2 4470   3.911   5.749   2.200
 1191SOL     OW 4471   2.205   4.507   1.898
 1191SOL    HW1 4472   2.221   4.586   1.839
 1191SOL    HW2 4473   2.131   4.527   1.962
 1192SOL     OW 4474   3.647   5.395   2.727
 1192SOL    HW1 4475   3.553   5.361   2.719
 1192SOL    HW2 4476   3.667   5.456   2.650
 1193SOL     OW 4477   2.902   0.578   4.146
 1193SOL    HW1 4478   2.972   0.644   4.117
 1193SOL    HW2 4479   2.930   0.486   4.118
 1194SOL     OW 4480   6.823   1.998   2.785
 1194SOL    HW1 4481   6.726   2.013   2.766
 1194SOL    HW2 4482   6.833   1.919   2.846
 1195SOL     OW 4483   3.333   0.078   0.024
 1195SOL    HW1 4484   3.415   0.045   0.071
 1195SOL    HW2 4485   3.280   0.136   0.086
 1196SOL     OW 4486   1.831   5.863   3.552
 1196SOL    HW1 4487   1.919   5.859   3.503
 1196SOL    HW2 4488   1.806   5.959   3.567
 1197SOL     OW 4489   3.775   4.606   6.915
 1197SOL    HW1 4490   3.730   4.543   6.980
 1197SOL    HW2 4491   3.705   4.656   6.864
 1198SOL     OW 4492   3.572   0.678   3.271
 1198SOL    HW1 4493   3.525   0.591   3.285
 1198SOL    HW2 4494   3.510   0.753   3.291
 1199SOL     OW 4495   3.700   3.750   3.926
 1199SOL    HW1 4496   3.749   3.709   3.849
 1199SOL    HW2 4497   3.765   3.773   3.999
 1200SOL     OW 4498   4.650   3.336   1.394
 1200SOL    HW1 4499   4.681   3.375   1.307
 1200SOL    HW2 4500   4.717   3.270   1.426
 1201SOL     OW 4501   1.512   2.254   5.099
 1201SOL    HW1 4502   1.463   2.223   5.017
 1201SOL    HW2 4503   1.601   2.210   5.103
 1202SOL     OW 4504   6.446   6.749   4.451
 1202SOL    HW1 4505   6.496   6.692   4.385
 1202SOL    HW2 4506   6.389   6.690   4.508
 1203SOL     OW 4507   6.584   6.939   2.423
 1203SOL    HW1 4508   6.494   6.982   2.414
 1203SOL    HW2 4509   6.654   7.001   2.386
 1204SOL     OW 4510   2.165   0.271   0.102
 1204SOL    HW1 4511   2.167   0.197   0.169
 1204SOL    HW2 4512   2.071   0.297   0.082
 1205SOL     OW 4513   0.717   3.071   6.166
 1205SOL    HW1 4514   0.777   3.141   6.203
 1205SOL    HW2 4515   0.691   3.096   6.072
 1206SOL     OW 4516   6.519   0.961   5.002
 1206SOL    HW1 4517   6.452   1.022   5.043
 1206SOL    HW2 4518   6.588   0.935   5.070
 1207SOL     OW 4519   6.702   6.228   6.083
 1207SOL    HW1 4520   6.702   6.240   6.182
 1207SOL    HW2 4521   6.796   6.215   6.051
 1208SOL     OW 4522   3.750   3.512   2.493
 1208SOL    HW1 4523   3.695   3.595   2.497
 1208SOL    HW2 4524   3.735   3.467   2.405
 1209SOL     OW 4525   6.939   4.002   4.926
 1209SOL    HW1 4526   6.857   4.031   4.975
 1209SOL    HW2 4527   6.931   3.906   4.901
 1210SOL     OW 4528   2.330   0.246   2.836
 1210SOL    HW1 4529   2.280   0.332   2.828
 1210SOL    HW2 4530   2.363   0.235   2.930
 1211SOL     OW 4531   0.372   3.491   3.487
 1211SOL    HW1 4532   0.344   3.582   3.518
 1211SOL    HW2 4533   0.425   3.499   3.403
 1212SOL     OW 4534   0.976   4.535   3.671
 1212SOL    HW1 4535   1.023   4.590   3.603
 1212SOL    HW2 4536   1.043   4.493   3.732
 1213SOL     OW 4537   5.946   3.589   5.243
 1213SOL    HW1 4538   5.899   3.600   5.156
 1213SOL    HW2 4539   5.977   3.678   5.276
 1214SOL     OW 4540   1.261   1.710   1.310
 1214SOL    HW1 4541   1.299   1.620   1.293
 1214SOL    HW2 4542   1.295   1.746   1.397
 1215SOL     OW 4543   0.957   5.720   2.402
 1215SOL    HW1 4544   0.885   5.745   2.337
 1215SOL    HW2 4545   0.915   5.695   2.489
 1216SOL     OW 4546   2.094   0.344   1.417
 1216SOL    HW1 4547   2.155   0.320   1.342
 1216SOL    HW2 4548   2.144   0.339   1.504
 1217SOL     OW 4549   1.869   2.749   3.255
 1217SOL    HW1 4550   1.917   2.772   3.171
 1217SOL    HW2 4551   1.888   2.654   3.279
 1218SOL     OW 4552   0.871   3.777   3.025
 1218SOL    HW1 4553   0.903   3.867   2.994
 1218SOL    HW2 4554   0.771   3.779   3.035
 1219SOL     OW 4555   2.503   6.007   2.665
 1219SOL    HW1 4556   2.565   6.042   2.735
 1219SOL    HW2 4557   2.535   6.035   2.575
 1220SOL     OW 4558   6.436   5.405   2.679
 1220SOL    HW1 4559   6.476   5.361   2.598
 1220SOL    HW2 4560   6.337   5.408   2.670
 1221SOL     OW 4561   4.771   4.677   5.697
 1221SOL    HW1 4562   4.713   4.758   5.700
 1221SOL    HW2 4563   4.721   4.598   5.731
 1222SOL     OW 4564   6.967   3.949   2.064
 1222SOL    HW1 4565   6.961   3.882   2.138
 1222SOL    HW2 4566   6.904   3.923   1.991
 1223SOL     OW 4567   0.194   4.725   4.624
 1223SOL    HW1 4568   0.111   4.757   4.579
 1223SOL    HW2 4569   0.184   4.628   4.648
 1224SOL     OW 4570   4.457   4.049   1.199
 1224SOL    HW1 4571   4.376   4.099   1.228
 1224SOL    HW2 4572   4.524   4.047   1.274
 1225SOL     OW 4573   4.841   1.780   6.272
 1225SOL    HW1 4574   4.834   1.681   6.285
 1225SOL    HW2 4575   4.929   1.811   6.307
 1226SOL     OW 4576   5.995   5.715   0.785
 1226SOL    HW1 4577   5.933   5.676   0.853
 1226SOL    HW2 4578   6.036   5.799   0.821
 1227SOL     OW 4579   4.852   4.130   6.834
 1227SOL    HW1 4580   4.893   4.218   6.811
 1227SOL    HW2 4581   4.858   4.068   6.755
 1228SOL     OW 4582   4.078   3.754   4.686
 1228SOL    HW1 4583   4.141   3.678   4.697
 1228SOL    HW2 4584   3.993   3.734   4.734
 1229SOL     OW 4585   2.025   5.556   2.547
 1229SOL    HW1 4586   2.088   5.483   2.521
 1229SOL    HW2 4587   2.065   5.644   2.524
 1230SOL     OW 4588   5.110   4.120   0.322
 1230SOL    HW1 4589   5.085   4.024   0.339
 1230SOL    HW2 4590   5.124   4.134   0.224
 1231SOL     OW 4591   2.148   1.103   0.170
 1231SOL    HW1 4592   2.228   1.043   0.166
 1231SOL    HW2 4593   2.132   1.144   0.080
 1232SOL     OW 4594   2.642   2.136   6.053
 1232SOL    HW1 4595   2.636   2.206   6.124
 1232SOL    HW2 4596   2.733   2.095   6.055
 1233SOL     OW 4597   0.314   5.495   4.571
 1233SOL    HW1 4598   0.362   5.457   4.491
 1233SOL    HW2 4599   0.218   5.510   4.548
 1234SOL     OW 4600   6.563   4.151   5.934
 1234SOL    HW1 4601   6.575   4.114   6.026
 1234SOL    HW2 4602   6.590   4.248   5.933
 1235SOL     OW 4603   6.212   5.255   0.876
 1235SOL    HW1 4604   6.244   5.265   0.782
 1235SOL    HW2 4605   6.117   5.285   0.882
 1236SOL     OW 4606   0.489   1.324   2.821
 1236SOL    HW1 4607   0.499   1.423   2.808
 1236SOL    HW2 4608   0.553   1.276   2.762
 1237SOL     OW 4609   0.700   0.431   4.131
 1237SOL    HW1 4610   0.683   0.460   4.037
 1237SOL    HW2 4611   0.738   0.507   4.184
 1238SOL     OW 4612   0.169   0.724   4.421
 1238SOL    HW1 4613   0.222   0.745   4.503
 1238SOL    HW2 4614   0.101   0.654   4.443
 1239SOL     OW 4615   5.485   4.504   3.428
 1239SOL    HW1 4616   5.432   4.509   3.344
 1239SOL    HW2 4617   5.423   4.512   3.507
 1240SOL     OW 4618   0.615   4.448   1.087
 1240SOL    HW1 4619   0.572   4.361   1.110
 1240SOL    HW2 4620   0.559   4.496   1.019
 1241SOL     OW 4621   3.355   5.313   5.985
 1241SOL    HW1 4622   3.404   5.385   5.934
 1241SOL    HW2 4623   3.405   5.227   5.976
 1242SOL     OW 4624   1.985   5.812   0.988
 1242SOL    HW1 4625   1.885   5.816   0.975
 1242SOL    HW2 4626   2.028   5.792   0.900
 1243SOL     OW 4627   6.956   3.742   3.594
 1243SOL    HW1 4628   7.017   3.801   3.648
 1243SOL    HW2 4629   6.964   3.766   3.497
 1244SOL     OW 4630   0.165   6.685   4.928
 1244SOL    HW1 4631   0.153   6.647   4.837
 1244SOL    HW2 4632   0.258   6.666   4.961
 1245SOL     OW 4633   4.972   0.220   1.111
 1245SOL    HW1 4634   4.941   0.132   1.148
 1245SOL    HW2 4635   4.905   0.254   1.046
 1246SOL     OW 4636   5.190   2.670   1.828
 1246SOL    HW1 4637   5.192   2.758   1.780
 1246SOL    HW2 4638   5.096   2.648   1.854
 1247SOL     OW 4639   4.904   6.652   1.895
 1247SOL    HW1 4640   4.832   6.637   1.827
 1247SOL    HW2 4641   4.867   6.708   1.969
 1248SOL     OW 4642   0.690   6.929   4.890
 1248SOL    HW1 4643   0.774   6.893   4.931
 1248SOL    HW2 4644   0.656   7.005   4.946
 1249SOL     OW 4645   6.558   6.410   6.541
 1249SOL    HW1 4646   6.493   6.413   6.466
 1249SOL    HW2 4647   6.645   6.451   6.513
 1250SOL     OW 4648   0.336   4.582   5.087
 1250SOL    HW1 4649   0.245   4.561   5.053
 1250SOL    HW2 4650   0.328   4.632   5.174
 1251SOL     OW 4651   2.704   0.573   2.935
 1251SOL    HW1 4652   2.780   0.509   2.924
 1251SOL    HW2 4653   2.687   0.620   2.848
 1252SOL     OW 4654   2.453   5.185   6.282
 1252SOL    HW1 4655   2.458   5.105   6.223
 1252SOL    HW2 4656   2.382   5.171   6.351
 1253SOL     OW 4657   2.802   5.596   0.294
 1253SOL    HW1 4658   2.764   5.685   0.316
 1253SOL    HW2 4659   2.892   5.586   0.338
 1254SOL     OW 4660   6.436   1.112   3.653
 1254SOL    HW1 4661   6.532   1.108   3.679
 1254SOL    HW2 4662   6.388   1.033   3.693
 1255SOL     OW 4663   6.009   2.360   5.923
 1255SOL    HW1 4664   6.032   2.267   5.951
 1255SOL    HW2 4665   5.968   2.358   5.831
 1256SOL     OW 4666   6.956   5.469   5.816
 1256SOL    HW1 4667   6.966   5.376   5.781
 1256SOL    HW2 4668   6.903   5.467   5.901
 1257SOL     OW 4669   0.214   6.278   3.425
 1257SOL    HW1 4670   0.306   6.288   3.387
 1257SOL    HW2 4671   0.150   6.253   3.353
 1258SOL     OW 4672   4.842   5.227   6.847
 1258SOL    HW1 4673   4.938   5.249   6.827
 1258SOL    HW2 4674   4.783   5.275   6.782
 1259SOL     OW 4675   5.747   6.613   4.983
 1259SOL    HW1 4676   5.805   6.576   4.910
 1259SOL    HW2 4677   5.663   6.560   4.990
 1260SOL     OW 4678   3.316   0.774   0.323
 1260SOL    HW1 4679   3.264   0.854   0.354
 1260SOL    HW2 4680   3.401   0.768   0.376
 1261SOL     OW 4681   0.148   4.472   4.684
 1261SOL    HW1 4682   0.146   4.389   4.739
 1261SOL    HW2 4683   0.196   4.455   4.599
 1262SOL     OW 4684   4.118   5.930   1.557
 1262SOL    HW1 4685   4.033   5.890   1.592
 1262SOL    HW2 4686   4.195   5.895   1.611
 1263SOL     OW 4687   0.017   1.296   1.154
 1263SOL    HW1 4688   6.951   1.330   1.146
 1263SOL    HW2 4689   0.020   1.223   1.223
 1264SOL     OW 4690   6.227   2.679   4.670
 1264SOL    HW1 4691   6.286   2.617   4.721
 1264SOL    HW2 4692   6.278   2.718   4.593
 1265SOL     OW 4693   6.040   5.479   4.926
 1265SOL    HW1 4694   5.971   5.461   4.996
 1265SOL    HW2 4695   6.004   5.453   4.836
 1266SOL     OW 4696   2.747   0.873   3.671
 1266SOL    HW1 4697   2.817   0.944   3.681
 1266SOL    HW2 4698   2.762   0.801   3.738
 1267SOL     OW 4699   0.625   4.361   2.097
 1267SOL    HW1 4700   0.534   4.322   2.107
 1267SOL    HW2 4701   0.618   4.460   2.086
 1268SOL     OW 4702   6.042   4.764   0.015
 1268SOL    HW1 4703   6.112   4.748   0.085
 1268SOL    HW2 4704   5.962   4.807   0.058
 1269SOL     OW 4705   0.330   4.588   6.422
 1269SOL    HW1 4706   0.376   4.569   6.335
 1269SOL    HW2 4707   0.328   4.687   6.437
 1270SOL     OW 4708   1.747   1.565   4.294
 1270SOL    HW1 4709   1.765   1.616   4.378
 1270SOL    HW2 4710   1.750   1.628   4.216
 1271SOL     OW 4711   5.544   3.016   2.979
 1271SOL    HW1 4712   5.598   3.050   2.902
 1271SOL    HW2 4713   5.471   3.082   3.000
 1272SOL     OW 4714   6.305   6.553   0.029
 1272SOL    HW1 4715   6.288   6.493   6.979
 1272SOL    HW2 4716   6.290   6.648   0.001
 1273SOL     OW 4717   2.561   0.038   5.073
 1273SOL    HW1 4718   2.605   7.018   4.998
 1273SOL    HW2 4719   2.629   0.063   5.142
 1274SOL     OW 4720   5.522   2.532   1.930
 1274SOL    HW1 4721   5.567   2.622   1.930
 1274SOL    HW2 4722   5.447   2.533   1.997
 1275SOL     OW 4723   3.625   1.561   3.653
 1275SOL    HW1 4724   3.576   1.523   3.732
 1275SOL    HW2 4725   3.615   1.499   3.575
 1276SOL     OW 4726   5.453   6.851   2.515
 1276SOL    HW1 4727   5.498   6.821   2.599
 1276SOL    HW2 4728   5.446   6.775   2.452
 1277SOL     OW 4729   0.886   1.657   4.572
 1277SOL    HW1 4730   0.803   1.710   4.589
 1277SOL    HW2 4731   0.876   1.604   4.488
 1278SOL     OW 4732   3.362   1.889   4.823
 1278SOL    HW1 4733   3.343   1.837   4.740
 1278SOL    HW2 4734   3.428   1.839   4.880
 1279SOL     OW 4735   1.929   5.139   0.436
 1279SOL    HW1 4736   1.949   5.041   0.445
 1279SOL    HW2 4737   1.993   5.181   0.371
 1280SOL     OW 4738   1.535   5.865   2.663
 1280SOL    HW1 4739   1.476   5.946   2.660
 1280SOL    HW2 4740   1.606   5.872   2.593
 1281SOL     OW 4741   0.729   6.643   3.792
 1281SOL    HW1 4742   0.746   6.596   3.705
 1281SOL    HW2 4743   0.632   6.662   3.802
 1282SOL     OW 4744   1.732   6.274   2.616
 1282SOL    HW1 4745   1.700   6.344   2.681
 1282SOL    HW2 4746   1.758   6.192   2.666
 1283SOL     OW 4747   5.146   4.054   5.191
 1283SOL    HW1 4748   5.127   3.965   5.149
 1283SOL    HW2 4749   5.245   4.063   5.205
 1284SOL     OW 4750   2.932   1.588   3.036
 1284SOL    HW1 4751   2.853   1.637   3.000
 1284SOL    HW2 4752   2.933   1.595   3.136
 1285SOL     OW 4753   5.612   2.668   5.897
 1285SOL    HW1 4754   5.677   2.737   5.930
 1285SOL    HW2 4755   5.605   2.594   5.964
 1286SOL     OW 4756   5.750   6.010   0.963
 1286SOL    HW1 4757   5.830   6.029   0.906
 1286SOL    HW2 4758   5.780   5.982   1.054
 1287SOL     OW 4759   6.651   3.572   5.796
 1287SOL    HW1 4760   6.733   3.616   5.760
 1287SOL    HW2 4761   6.595   3.639   5.844
 1288SOL     OW 4762   6.413   3.565   3.476
 1288SOL    HW1 4763   6.320   3.581   3.443
 1288SOL    HW2 4764   6.410   3.549   3.575
 1289SOL     OW 4765   0.105   5.044   2.868
 1289SOL    HW1 4766   0.171   5.078   2.935
 1289SOL    HW2 4767   0.042   5.118   2.845
 1290SOL     OW 4768   0.150   6.987   1.931
 1290SOL    HW1 4769   0.221   6.925   1.897
 1290SOL    HW2 4770   0.086   7.008   1.857
 1291SOL     OW 4771   1.410   6.582   1.431
 1291SOL    HW1 4772   1.405   6.603   1.529
 1291SOL    HW2 4773   1.345   6.508   1.409
 1292SOL     OW 4774   1.573   5.808   6.944
 1292SOL    HW1 4775   1.637   5.819   7.020
 1292SOL    HW2 4776   1.535   5.897   6.919
 1293SOL     OW 4777   6.287   2.282   6.499
 1293SOL    HW1 4778   6.307   2.304   6.403
 1293SOL    HW2 4779   6.363   2.312   6.556
 1294SOL     OW 4780   0.526   1.810   3.793
 1294SOL    HW1 4781   0.560   1.874   3.724
 1294SOL    HW2 4782   0.426   1.810   3.792
 1295SOL     OW 4783   5.119   3.858   1.500
 1295SOL    HW1 4784   5.071   3.848   1.413
 1295SOL    HW2 4785   5.176   3.941   1.497
 1296SOL     OW 4786   3.696   1.640   0.185
 1296SOL    HW1 4787   3.681   1.608   0.091
 1296SOL    HW2 4788   3.639   1.588   0.248
 1297SOL     OW 4789   6.583   0.917   5.908
 1297SOL    HW1 4790   6.515   0.877   5.846
 1297SOL    HW2 4791   6.674   0.886   5.882
 1298SOL     OW 4792   6.307   2.745   3.606
 1298SOL    HW1 4793   6.275   2.670   3.548
 1298SOL    HW2 4794   6.403   2.728   3.631
 1299SOL     OW 4795   1.634   3.147   4.608
 1299SOL    HW1 4796   1.621   3.174   4.512
 1299SOL    HW2 4797   1.627   3.228   4.666
 1300SOL     OW 4798   3.612   2.855   2.776
 1300SOL    HW1 4799   3.609   2.784   2.706
 1300SOL    HW2 4800   3.588   2.943   2.735
 1301SOL     OW 4801   1.231   1.557   2.064
 1301SOL    HW1 4802   1.282   1.627   2.013
 1301SOL    HW2 4803   1.204   1.594   2.153
 1302SOL     OW 4804   2.799   5.823   5.988
 1302SOL    HW1 4805   2.867   5.849   6.057
 1302SOL    HW2 4806   2.719   5.882   5.997
 1303SOL     OW 4807   3.002   7.027   1.230
 1303SOL    HW1 4808   2.977   6.933   1.207
 1303SOL    HW2 4809   3.101   0.006   1.236
 1304SOL     OW 4810   3.758   0.687   6.157
 1304SOL    HW1 4811   3.791   0.754   6.091
 1304SOL    HW2 4812   3.834   0.628   6.185
 1305SOL     OW 4813   6.058   6.549   3.729
 1305SOL    HW1 4814   6.079   6.646   3.742
 1305SOL    HW2 4815   5.960   6.534   3.741
 1306SOL     OW 4816   1.892   5.330   4.321
 1306SOL    HW1 4817   1.972   5.358   4.374
 1306SOL    HW2 4818   1.909   5.347   4.224
 1307SOL     OW 4819   0.795   1.235   4.212
 1307SOL    HW1 4820   0.815   1.332   4.206
 1307SOL    HW2 4821   0.877   1.182   4.188
 1308SOL     OW 4822   4.820   6.119   3.025
 1308SOL    HW1 4823   4.747   6.084   2.966
 1308SOL    HW2 4824   4.779   6.171   3.100
 1309SOL     OW 4825   5.181   2.785   4.390
 1309SOL    HW1 4826   5.233   2.849   4.334
 1309SOL    HW2 4827   5.242   2.717   4.429
 1310SOL     OW 4828   5.180   3.640   5.606
 1310SOL    HW1 4829   5.189   3.609   5.512
 1310SOL    HW2 4830   5.270   3.649   5.648
 1311SOL     OW 4831   4.728   5.103   6.233
 1311SOL    HW1 4832   4.797   5.110   6.161
 1311SOL    HW2 4833   4.683   5.014   6.228
 1312SOL     OW 4834   6.639   0.433   1.461
 1312SOL    HW1 4835   6.586   0.480   1.531
 1312SOL    HW2 4836   6.590   0.437   1.373
 1313SOL     OW 4837   3.233   4.967   4.895
 1313SOL    HW1 4838   3.144   4.927   4.915
 1313SOL    HW2 4839   3.305   4.904   4.923
 1314SOL     OW 4840   6.874   1.348   5.865
 1314SOL    HW1 4841   6.801   1.312   5.806
 1314SOL    HW2 4842   6.842   1.351   5.959
 1315SOL     OW 4843   1.812   0.050   3.491
 1315SOL    HW1 4844   1.716   0.024   3.480
 1315SOL    HW2 4845   1.870   7.001   3.468
 1316SOL     OW 4846   3.070   6.376   3.375
 1316SOL    HW1 4847   2.979   6.419   3.374
 1316SOL    HW2 4848   3.060   6.277   3.384
 1317SOL     OW 4849   0.443   3.300   4.475
 1317SOL    HW1 4850   0.478   3.233   4.410
 1317SOL    HW2 4851   0.502   3.380   4.475
 1318SOL     OW 4852   0.936   6.481   1.431
 1318SOL    HW1 4853   0.852   6.509   1.386
 1318SOL    HW2 4854   0.916   6.409   1.498
 1319SOL     OW 4855   6.650   0.187   0.682
 1319SOL    HW1 4856   6.605   0.276   0.674
 1319SOL    HW2 4857   6.582   0.114   0.675
 1320SOL     OW 4858   4.908   5.639   4.954
 1320SOL    HW1 4859   4.975   5.617   5.024
 1320SOL    HW2 4860   4.824   5.586   4.970
 1321SOL     OW 4861   4.010   1.001   0.717
 1321SOL    HW1 4862   4.015   1.056   0.633
 1321SOL    HW2 4863   3.935   0.936   0.709
 1322SOL     OW 4864   5.239   0.865   6.335
 1322SOL    HW1 4865   5.145   0.890   6.358
 1322SOL    HW2 4866   5.302   0.933   6.373
 1323SOL     OW 4867   6.549   0.469   3.936
 1323SOL    HW1 4868   6.580   0.564   3.942
 1323SOL    HW2 4869   6.450   0.465   3.951
 1324SOL     OW 4870   1.060   2.439   0.584
 1324SOL    HW1 4871   1.126   2.503   0.544
 1324SOL    HW2 4872   1.067   2.351   0.538
 1325SOL     OW 4873   4.464   5.826   4.170
 1325SOL    HW1 4874   4.371   5.845   4.139
 1325SOL    HW2 4875   4.529   5.862   4.102
 1326SOL     OW 4876   5.182   4.014   4.707
 1326SOL    HW1 4877   5.134   4.101   4.701
 1326SOL    HW2 4878   5.197   3.978   4.615
 1327SOL     OW 4879   2.789   6.388   4.089
 1327SOL    HW1 4880   2.769   6.477   4.049
 1327SOL    HW2 4881   2.829   6.400   4.180
 1328SOL     OW 4882   2.537   1.018   1.267
 1328SOL    HW1 4883   2.582   1.054   1.349
 1328SOL    HW2 4884   2.519   0.920   1.279
 1329SOL     OW 4885   1.717   6.261   2.049
 1329SOL    HW1 4886   1.731   6.200   2.127
 1329SOL    HW2 4887   1.619   6.280   2.039
 1330SOL     OW 4888   5.031   6.868   1.132
 1330SOL    HW1 4889   4.984   6.929   1.196
 1330SOL    HW2 4890   5.018   6.901   1.039
 1331SOL     OW 4891   0.875   1.943   1.954
 1331SOL    HW1 4892   0.873   1.975   2.048
 1331SOL    HW2 4893   0.848   2.017   1.892
 1332SOL     OW 4894   4.597   2.022   1.177
 1332SOL    HW1 4895   4.640   1.931   1.183
 1332SOL    HW2 4896   4.499   2.011   1.161
 1333SOL     OW 4897   4.098   3.229   5.181
 1333SOL    HW1 4898   4.161   3.305   5.164
 1333SOL    HW2 4899   4.012   3.265   5.218
 1334SOL     OW 4900   1.185   3.414   3.815
 1334SOL    HW1 4901   1.131   3.494   3.785
 1334SOL    HW2 4902   1.255   3.394   3.746
 1335SOL     OW 4903   2.046   5.488   3.483
 1335SOL    HW1 4904   2.071   5.584   3.469
 1335SOL    HW2 4905   1.947   5.481   3.499
 1336SOL     OW 4906   0.097   6.779   5.192
 1336SOL    HW1 4907   0.004   6.815   5.198
 1336SOL    HW2 4908   0.109   6.730   5.106
 1337SOL     OW 4909   3.668   6.366   6.898
 1337SOL    HW1 4910   3.724   6.359   6.816
 1337SOL    HW2 4911   3.607   6.445   6.890
 1338SOL     OW 4912   3.351   5.046   1.041
 1338SOL    HW1 4913   3.265   5.041   0.992
 1338SOL    HW2 4914   3.334   5.060   1.138
 1339SOL     OW 4915   0.166   3.911   6.936
 1339SOL    HW1 4916   0.197   3.924   6.842
 1339SOL    HW2 4917   0.184   3.816   6.964
 1340SOL     OW 4918   3.212   1.276   6.014
 1340SOL    HW1 4919   3.205   1.236   5.923
 1340SOL    HW2 4920   3.306   1.306   6.031
 1341SOL     OW 4921   5.356   2.273   4.409
 1341SOL    HW1 4922   5.272   2.321   4.382
 1341SOL    HW2 4923   5.336   2.210   4.485
 1342SOL     OW 4924   0.622   0.406   1.530
 1342SOL    HW1 4925   0.695   0.347   1.495
 1342SOL    HW2 4926   0.583   0.365   1.613
 1343SOL     OW 4927   2.773   5.998   3.844
 1343SOL    HW1 4928   2.697   5.939   3.817
 1343SOL    HW2 4929   2.764   6.023   3.941
 1344SOL     OW 4930   5.588   1.919   2.501
 1344SOL    HW1 4931   5.647   1.961   2.431
 1344SOL    HW2 4932   5.645   1.875   2.570
 1345SOL     OW 4933   7.010   5.883   2.496
 1345SOL    HW1 4934   0.039   5.812   2.455
 1345SOL    HW2 4935   6.950   5.921   2.426
 1346SOL     OW 4936   0.024   1.566   3.102
 1346SOL    HW1 4937   6.983   1.497   3.085
 1346SOL    HW2 4938   0.113   1.532   3.072
 1347SOL     OW 4939   4.701   1.059   3.060
 1347SOL    HW1 4940   4.712   0.965   3.093
 1347SOL    HW2 4941   4.765   1.075   2.985
 1348SOL     OW 4942   4.880   5.527   4.532
 1348SOL    HW1 4943   4.937   5.589   4.585
 1348SOL    HW2 4944   4.789   5.567   4.519
 1349SOL     OW 4945   4.774   2.268   0.553
 1349SOL    HW1 4946   4.740   2.278   0.459
 1349SOL    HW2 4947   4.808   2.357   0.585
 1350SOL     OW 4948   2.461   0.817   4.869
 1350SOL    HW1 4949   2.537   0.823   4.933
 1350SOL    HW2 4950   2.455   0.903   4.817
 1351SOL     OW 4951   1.781   1.577   3.189
 1351SOL    HW1 4952   1.834   1.493   3.183
 1351SOL    HW2 4953   1.753   1.593   3.284
 1352SOL     OW 4954   1.306   6.580   4.717
 1352SOL    HW1 4955   1.393   6.535   4.735
 1352SOL    HW2 4956   1.298   6.662   4.773
 1353SOL     OW 4957   2.496   3.360   5.548
 1353SOL    HW1 4958   2.557   3.359   5.469
 1353SOL    HW2 4959   2.420   3.423   5.530
 1354SOL     OW 4960   0.517   6.871   0.088
 1354SOL    HW1 4961   0.417   6.861   0.081
 1354SOL    HW2 4962   0.561   6.815   0.018
 1355SOL     OW 4963   4.227   3.428   6.997
 1355SOL    HW1 4964   4.267   3.339   6.974
 1355SOL    HW2 4965   4.152   3.415   0.033
 1356SOL     OW 4966   3.286   2.710   1.816
 1356SOL    HW1 4967   3.304   2.613   1.800
 1356SOL    HW2 4968   3.215   2.742   1.753
 1357SOL     OW 4969   3.598   2.437   5.590
 1357SOL    HW1 4970   3.627   2.358   5.536
 1357SOL    HW2 4971   3.582   2.515   5.530
 1358SOL     OW 4972   1.855   3.372   5.954
 1358SOL    HW1 4973   1.928   3.321   5.908
 1358SOL    HW2 4974   1.814   3.438   5.891
 1359SOL     OW 4975   0.047   1.794   6.484
 1359SOL    HW1 4976   0.098   1.880   6.495
 1359SOL    HW2 4977   0.101   1.731   6.428
 1360SOL     OW 4978   3.433   3.559   3.907
 1360SOL    HW1 4979   3.421   3.603   3.996
 1360SOL    HW2 4980   3.470   3.625   3.842
 1361SOL     OW 4981   1.133   6.720   0.954
 1361SOL    HW1 4982   1.141   6.816   0.930
 1361SOL    HW2 4983   1.222   6.675   0.943
 1362SOL     OW 4984   3.162   1.568   6.830
 1362SOL    HW1 4985   3.250   1.614   6.816
 1362SOL    HW2 4986   3.177   1.469   6.838
 1363SOL     OW 4987   6.881   6.676   0.953
 1363SOL    HW1 4988   6.803   6.715   1.004
 1363SOL    HW2 4989   6.904   6.737   0.877
 1364SOL     OW 4990   1.322   3.865   1.025
 1364SOL    HW1 4991   1.412   3.884   0.986
 1364SOL    HW2 4992   1.303   3.767   1.018
 1365SOL     OW 4993   0.958   3.214   6.190
 1365SOL    HW1 4994   1.045   3.252   6.157
 1365SOL    HW2 4995   0.915   3.280   6.251
 1366SOL     OW 4996   3.766   0.683   0.961
 1366SOL    HW1 4997   3.819   0.612   0.916
 1366SOL    HW2 4998   3.670   0.655   0.968
 1367SOL     OW 4999   1.231   0.061   4.596
 1367SOL    HW1 5000   1.176   7.007   4.585
 1367SOL    HW2 5001   1.178   0.130   4.646
 1368SOL     OW 5002   1.352   6.124   4.637
 1368SOL    HW1 5003   1.417   6.052   4.661
 1368SOL    HW2 5004   1.361   6.200   4.701
 1369SOL     OW 5005   2.271   6.060   3.659
 1369SOL    HW1 5006   2.190   6.081   3.714
 1369SOL    HW2 5007   2.243   6.045   3.564
 1370SOL     OW 5008   0.219   2.621   3.011
 1370SOL    HW1 5009   0.255   2.565   3.086
 1370SOL    HW2 5010   0.119   2.616   3.011
 1371SOL     OW 5011   6.045   2.099   5.969
 1371SOL    HW1 5012   6.015   2.047   6.049
 1371SOL    HW2 5013   5.993   2.070   5.888
 1372SOL     OW 5014   5.351   2.238   1.576
 1372SOL    HW1 5015   5.275   2.301   1.593
 1372SOL    HW2 5016   5.421   2.251   1.647
 1373SOL     OW 5017   5.408   2.624   1.582
 1373SOL    HW1 5018   5.431   2.697   1.647
 1373SOL    HW2 5019   5.353   2.555   1.628
 1374SOL     OW 5020   4.022   3.562   2.447
 1374SOL    HW1 5021   3.945   3.504   2.474
 1374SOL    HW2 5022   4.089   3.507   2.398
 1375SOL     OW 5023   5.102   4.638   4.846
 1375SOL    HW1 5024   5.042   4.638   4.926
 1375SOL    HW2 5025   5.142   4.729   4.835
 1376SOL     OW 5026   2.894   4.421   5.604
 1376SOL    HW1 5027   2.912   4.467   5.517
 1376SOL    HW2 5028   2.957   4.456   5.674
 1377SOL     OW 5029   1.106   1.817   3.447
 1377SOL    HW1 5030   1.114   1.736   3.506
 1377SOL    HW2 5031   1.120   1.900   3.502
 1378SOL     OW 5032   4.602   2.020   4.475
 1378SOL    HW1 5033   4.551   1.966   4.408
 1378SOL    HW2 5034   4.540   2.053   4.546
 1379SOL     OW 5035   4.475   5.368   0.076
 1379SOL    HW1 5036   4.385   5.330   0.055
 1379SOL    HW2 5037   4.502   5.432   0.005
 1380SOL     OW 5038   0.160   5.808   4.089
 1380SOL    HW1 5039   0.071   5.839   4.057
 1380SOL    HW2 5040   0.219   5.790   4.010
 1381SOL     OW 5041   6.391   3.023   6.087
 1381SOL    HW1 5042   6.437   3.066   6.165
 1381SOL    HW2 5043   6.348   3.095   6.031
 1382SOL     OW 5044   3.947   2.006   6.155
 1382SOL    HW1 5045   3.991   1.929   6.109
 1382SOL    HW2 5046   3.903   1.974   6.239
 1383SOL     OW 5047   6.194   0.565   1.023
 1383SOL    HW1 5048   6.255   0.643   1.030
 1383SOL    HW2 5049   6.247   0.484   0.997
 1384SOL     OW 5050   6.109   2.543   2.006
 1384SOL    HW1 5051   6.019   2.515   1.971
 1384SOL    HW2 5052   6.101   2.574   2.100
 1385SOL     OW 5053   6.972   6.311   1.865
 1385SOL    HW1 5054   6.959   6.228   1.919
 1385SOL    HW2 5055   0.033   6.351   1.885
 1386SOL     OW 5056   2.088   0.036   3.748
 1386SOL    HW1 5057   2.094   6.990   3.681
 1386SOL    HW2 5058   2.148   0.111   3.721
 1387SOL     OW 5059   1.525   6.061   1.412
 1387SOL    HW1 5060   1.514   6.026   1.319
 1387SOL    HW2 5061   1.620   6.086   1.427
 1388SOL     OW 5062   6.367   0.241   1.690
 1388SOL    HW1 5063   6.387   0.339   1.694
 1388SOL    HW2 5064   6.270   0.226   1.706
 1389SOL     OW 5065   6.200   1.147   2.009
 1389SOL    HW1 5066   6.259   1.225   1.990
 1389SOL    HW2 5067   6.207   1.122   2.106
 1390SOL     OW 5068   1.523   1.898   4.457
 1390SOL    HW1 5069   1.486   1.882   4.366
 1390SOL    HW2 5070   1.493   1.988   4.489
 1391SOL     OW 5071   0.886   3.026   3.701
 1391SOL    HW1 5072   0.892   2.949   3.764
 1391SOL    HW2 5073   0.867   2.992   3.609
 1392SOL     OW 5074   5.389   4.573   4.261
 1392SOL    HW1 5075   5.331   4.505   4.304
 1392SOL    HW2 5076   5.467   4.528   4.217
 1393SOL     OW 5077   3.573   4.758   6.778
 1393SOL    HW1 5078   3.591   4.819   6.702
 1393SOL    HW2 5079   3.517   4.805   6.847
 1394SOL     OW 5080   1.174   6.503   7.025
 1394SOL    HW1 5081   1.139   6.490   0.089
 1394SOL    HW2 5082   1.133   6.436   6.963
 1395SOL     OW 5083   3.684   4.683   5.766
 1395SOL    HW1 5084   3.592   4.649   5.783
 1395SOL    HW2 5085   3.695   4.703   5.669
 1396SOL     OW 5086   5.697   6.062   3.473
 1396SOL    HW1 5087   5.701   6.120   3.391
 1396SOL    HW2 5088   5.615   6.005   3.469
 1397SOL     OW 5089   4.978   6.152   4.964
 1397SOL    HW1 5090   4.889   6.187   4.995
 1397SOL    HW2 5091   5.051   6.191   5.020
 1398SOL     OW 5092   1.843   0.666   4.827
 1398SOL    HW1 5093   1.933   0.624   4.816
 1398SOL    HW2 5094   1.851   0.749   4.882
 1399SOL     OW 5095   3.204   5.456   2.251
 1399SOL    HW1 5096   3.108   5.434   2.238
 1399SOL    HW2 5097   3.245   5.480   2.163
 1400SOL     OW 5098   1.159   0.087   2.665
 1400SOL    HW1 5099   1.115   0.092   2.575
 1400SOL    HW2 5100   1.241   0.144   2.666
 1401SOL     OW 5101   6.552   1.801   4.247
 1401SOL    HW1 5102   6.508   1.715   4.270
 1401SOL    HW2 5103   6.484   1.864   4.209
 1402SOL     OW 5104   6.136   2.989   6.751
 1402SOL    HW1 5105   6.152   2.893   6.776
 1402SOL    HW2 5106   6.053   3.022   6.795
 1403SOL     OW 5107   3.705   0.200   2.004
 1403SOL    HW1 5108   3.718   0.195   2.103
 1403SOL    HW2 5109   3.704   0.296   1.975
 1404SOL     OW 5110   5.488   2.037   0.761
 1404SOL    HW1 5111   5.487   2.027   0.860
 1404SOL    HW2 5112   5.482   2.133   0.737
 1405SOL     OW 5113   3.342   2.816   1.308
 1405SOL    HW1 5114   3.259   2.775   1.345
 1405SOL    HW2 5115   3.417   2.804   1.374
 1406SOL     OW 5116   1.123   3.874   1.921
 1406SOL    HW1 5117   1.173   3.959   1.935
 1406SOL    HW2 5118   1.105   3.831   2.010
 1407SOL     OW 5119   0.065   2.223   2.484
 1407SOL    HW1 5120   7.005   2.239   2.528
 1407SOL    HW2 5121   0.138   2.225   2.552
 1408SOL     OW 5122   6.071   5.914   6.252
 1408SOL    HW1 5123   6.039   5.962   6.170
 1408SOL    HW2 5124   6.170   5.928   6.262
 1409SOL     OW 5125   0.095   1.502   3.926
 1409SOL    HW1 5126   0.089   1.464   3.834
 1409SOL    HW2 5127   0.127   1.432   3.990
 1410SOL     OW 5128   6.295   1.876   7.016
 1410SOL    HW1 5129   6.382   1.922   6.995
 1410SOL    HW2 5130   6.229   1.943   0.020
 1411SOL     OW 5131   1.740   0.925   1.918
 1411SOL    HW1 5132   1.758   0.876   2.004
 1411SOL    HW2 5133   1.784   1.014   1.921
 1412SOL     OW 5134   1.291   2.744   0.057
 1412SOL    HW1 5135   1.194   2.759   0.072
 1412SOL    HW2 5136   1.340   2.753   0.143
 1413SOL     OW 5137   2.455   6.767   2.909
 1413SOL    HW1 5138   2.483   6.859   2.936
 1413SOL    HW2 5139   2.523   6.730   2.846
 1414SOL     OW 5140   2.449   0.626   2.010
 1414SOL    HW1 5141   2.465   0.556   1.940
 1414SOL    HW2 5142   2.373   0.598   2.068
 1415SOL     OW 5143   5.298   6.061   4.854
 1415SOL    HW1 5144   5.338   6.007   4.780
 1415SOL    HW2 5145   5.259   6.145   4.817
 1416SOL     OW 5146   4.464   5.372   3.627
 1416SOL    HW1 5147   4.549   5.425   3.627
 1416SOL    HW2 5148   4.456   5.321   3.542
 1417SOL     OW 5149   3.276   3.050   6.113
 1417SOL    HW1 5150   3.206   2.992   6.155
 1417SOL    HW2 5151   3.269   3.044   6.014
 1418SOL     OW 5152   3.352   3.802   3.339
 1418SOL    HW1 5153   3.298   3.841   3.413
 1418SOL    HW2 5154   3.302   3.809   3.253
 1419SOL     OW 5155   3.845   6.406   3.900
 1419SOL    HW1 5156   3.837   6.321   3.847
 1419SOL    HW2 5157   3.914   6.393   3.972
 1420SOL     OW 5158   0.515   6.204   2.354
 1420SOL    HW1 5159   0.563   6.143   2.290
 1420SOL    HW2 5160   0.457   6.267   2.302
 1421SOL     OW 5161   4.084   0.620   2.430
 1421SOL    HW1 5162   4.083   0.598   2.527
 1421SOL    HW2 5163   3.991   0.639   2.398
 1422SOL     OW 5164   2.627   6.979   0.561
 1422SOL    HW1 5165   2.536   6.982   0.521
 1422SOL    HW2 5166   2.624   7.015   0.654
 1423SOL     OW 5167   5.086   0.775   1.993
 1423SOL    HW1 5168   5.088   0.865   1.951
 1423SOL    HW2 5169   5.173   0.729   1.977
 1424SOL     OW 5170   6.720   5.469   2.663
 1424SOL    HW1 5171   6.673   5.546   2.620
 1424SOL    HW2 5172   6.654   5.411   2.710
 1425SOL     OW 5173   1.598   0.694   4.412
 1425SOL    HW1 5174   1.551   0.736   4.489
 1425SOL    HW2 5175   1.690   0.731   4.403
 1426SOL     OW 5176   1.798   1.332   5.205
 1426SOL    HW1 5177   1.837   1.398   5.270
 1426SOL    HW2 5178   1.755   1.257   5.255
 1427SOL     OW 5179   5.513   1.030   5.204
 1427SOL    HW1 5180   5.459   1.072   5.131
 1427SOL    HW2 5181   5.537   1.098   5.272
 1428SOL     OW 5182   5.569   1.080   0.112
 1428SOL    HW1 5183   5.472   1.070   0.134
 1428SOL    HW2 5184   5.617   1.120   0.189
 1429SOL     OW 5185   5.861   6.614   6.862
 1429SOL    HW1 5186   5.912   6.541   6.906
 1429SOL    HW2 5187   5.764   6.590   6.859
 1430SOL     OW 5188   2.530   4.482   3.131
 1430SOL    HW1 5189   2.470   4.490   3.052
 1430SOL    HW2 5190   2.495   4.410   3.191
 1431SOL     OW 5191   1.822   0.323   0.714
 1431SOL    HW1 5192   1.872   0.279   0.640
 1431SOL    HW2 5193   1.732   0.351   0.681
 1432SOL     OW 5194   3.093   0.357   1.029
 1432SOL    HW1 5195   3.122   0.265   1.057
 1432SOL    HW2 5196   3.157   0.424   1.066
 1433SOL     OW 5197   4.414   0.490   4.055
 1433SOL    HW1 5198   4.375   0.422   3.993
 1433SOL    HW2 5199   4.420   0.451   4.147
 1434SOL     OW 5200   1.225   0.885   5.153
 1434SOL    HW1 5201   1.136   0.850   5.181
 1434SOL    HW2 5202   1.238   0.977   5.191
 1435SOL     OW 5203   6.996   2.311   3.695
 1435SOL    HW1 5204   7.008   2.392   3.637
 1435SOL    HW2 5205   6.964   2.235   3.638
 1436SOL     OW 5206   4.720   3.925   0.584
 1436SOL    HW1 5207   4.724   3.922   0.684
 1436SOL    HW2 5208   4.774   3.851   0.545
 1437SOL     OW 5209   4.681   1.635   2.104
 1437SOL    HW1 5210   4.748   1.590   2.045
 1437SOL    HW2 5211   4.614   1.568   2.136
 1438SOL     OW 5212   2.215   0.436   1.638
 1438SOL    HW1 5213   2.161   0.518   1.656
 1438SOL    HW2 5214   2.272   0.450   1.557
 1439SOL     OW 5215   0.473   5.862   2.243
 1439SOL    HW1 5216   0.494   5.887   2.149
 1439SOL    HW2 5217   0.378   5.832   2.249
 1440SOL     OW 5218   2.143   2.783   1.827
 1440SOL    HW1 5219   2.242   2.777   1.822
 1440SOL    HW2 5220   2.117   2.853   1.894
 1441SOL     OW 5221   5.377   5.605   6.811
 1441SOL    HW1 5222   5.416   5.516   6.834
 1441SOL    HW2 5223   5.278   5.603   6.823
 1442SOL     OW 5224   5.485   5.455   0.565
 1442SOL    HW1 5225   5.547   5.408   0.502
 1442SOL    HW2 5226   5.529   5.536   0.602
 1443SOL     OW 5227   0.529   2.663   1.957
 1443SOL    HW1 5228   0.433   2.656   1.984
 1443SOL    HW2 5229   0.577   2.579   1.982
 1444SOL     OW 5230   0.818   5.541   6.186
 1444SOL    HW1 5231   0.849   5.613   6.248
 1444SOL    HW2 5232   0.740   5.493   6.226
 1445SOL     OW 5233   0.381   2.908   1.009
 1445SOL    HW1 5234   0.433   2.833   0.967
 1445SOL    HW2 5235   0.406   2.916   1.105
 1446SOL     OW 5236   6.878   5.453   0.768
 1446SOL    HW1 5237   6.866   5.509   0.686
 1446SOL    HW2 5238   6.868   5.356   0.744
 1447SOL     OW 5239   6.360   5.912   3.862
 1447SOL    HW1 5240   6.314   5.824   3.851
 1447SOL    HW2 5241   6.306   5.970   3.923
 1448SOL     OW 5242   0.729   1.337   6.274
 1448SOL    HW1 5243   0.704   1.385   6.190
 1448SOL    HW2 5244   0.695   1.243   6.270
 1449SOL     OW 5245   2.175   3.307   3.231
 1449SOL    HW1 5246   2.161   3.271   3.139
 1449SOL    HW2 5247   2.242   3.250   3.279
 1450SOL     OW 5248   3.369   2.043   3.610
 1450SOL    HW1 5249   3.340   2.073   3.519
 1450SOL    HW2 5250   3.466   2.018   3.607
 1451SOL     OW 5251   3.202   1.330   2.595
 1451SOL    HW1 5252   3.122   1.311   2.652
 1451SOL    HW2 5253   3.173   1.342   2.500
 1452SOL     OW 5254   4.314   2.765   6.492
 1452SOL    HW1 5255   4.343   2.861   6.495
 1452SOL    HW2 5256   4.393   2.705   6.505
 1453SOL     OW 5257   1.185   3.465   4.988
 1453SOL    HW1 5258   1.250   3.392   5.008
 1453SOL    HW2 5259   1.095   3.440   5.025
 1454SOL     OW 5260   3.290   2.058   2.806
 1454SOL    HW1 5261   3.370   2.090   2.856
 1454SOL    HW2 5262   3.243   1.989   2.861
 1455SOL     OW 5263   0.111   4.997   2.448
 1455SOL    HW1 5264   0.100   4.898   2.448
 1455SOL    HW2 5265   0.051   5.037   2.518
 1456SOL     OW 5266   6.366   5.969   4.210
 1456SOL    HW1 5267   6.271   5.988   4.187
 1456SOL    HW2 5268   6.385   5.872   4.197
 1457SOL     OW 5269   0.870   5.065   6.129
 1457SOL    HW1 5270   0.935   4.994   6.104
 1457SOL    HW2 5271   0.815   5.089   6.049
 1458SOL     OW 5272   6.022   4.995   5.085
 1458SOL    HW1 5273   6.095   5.016   5.150
 1458SOL    HW2 5274   5.995   4.899   5.095
 1459SOL     OW 5275   6.288   6.521   4.850
 1459SOL    HW1 5276   6.242   6.603   4.885
 1459SOL    HW2 5277   6.375   6.509   4.898
 1460SOL     OW 5278   1.895   6.023   5.218
 1460SOL    HW1 5279   1.870   5.926   5.220
 1460SOL    HW2 5280   1.963   6.040   5.290
 1461SOL     OW 5281   6.138   3.524   4.091
 1461SOL    HW1 5282   6.156   3.503   3.995
 1461SOL    HW2 5283   6.196   3.467   4.149
 1462SOL     OW 5284   0.334   1.415   1.857
 1462SOL    HW1 5285   0.271   1.485   1.889
 1462SOL    HW2 5286   0.426   1.435   1.891
 1463SOL     OW 5287   1.287   5.141   6.688
 1463SOL    HW1 5288   1.344   5.217   6.720
 1463SOL    HW2 5289   1.338   5.056   6.696
 1464SOL     OW 5290   1.075   4.508   4.743
 1464SOL    HW1 5291   1.126   4.588   4.713
 1464SOL    HW2 5292   1.133   4.426   4.733
 1465SOL     OW 5293   1.445   2.794   5.440
 1465SOL    HW1 5294   1.418   2.707   5.481
 1465SOL    HW2 5295   1.537   2.819   5.472
 1466SOL     OW 5296   5.462   1.179   2.529
 1466SOL    HW1 5297   5.550   1.171   2.575
 1466SOL    HW2 5298   5.461   1.120   2.449
 1467SOL     OW 5299   0.559   6.775   3.527
 1467SOL    HW1 5300   0.602   6.863   3.548
 1467SOL    HW2 5301   0.586   6.708   3.596
 1468SOL     OW 5302   3.865   6.575   3.266
 1468SOL    HW1 5303   3.848   6.585   3.168
 1468SOL    HW2 5304   3.777   6.565   3.314
 1469SOL     OW 5305   5.795   4.177   2.970
 1469SOL    HW1 5306   5.882   4.158   3.015
 1469SOL    HW2 5307   5.720   4.140   3.026
 1470SOL     OW 5308   6.484   2.199   2.306
 1470SOL    HW1 5309   6.456   2.232   2.396
 1470SOL    HW2 5310   6.413   2.221   2.239
 1471SOL     OW 5311   4.971   6.938   0.026
 1471SOL    HW1 5312   5.012   6.975   0.109
 1471SOL    HW2 5313   4.874   6.917   0.043
 1472SOL     OW 5314   1.982   1.075   6.498
 1472SOL    HW1 5315   2.073   1.042   6.473
 1472SOL    HW2 5316   1.913   1.017   6.454
 1473SOL     OW 5317   1.627   5.997   3.264
 1473SOL    HW1 5318   1.703   6.010   3.327
 1473SOL    HW2 5319   1.542   6.030   3.306
 1474SOL     OW 5320   2.062   4.958   2.148
 1474SOL    HW1 5321   2.029   5.049   2.123
 1474SOL    HW2 5322   2.146   4.967   2.202
 1475SOL     OW 5323   6.220   0.046   6.598
 1475SOL    HW1 5324   6.184   0.109   6.530
 1475SOL    HW2 5325   6.146   7.018   6.635
 1476SOL     OW 5326   5.458   0.053   6.205
 1476SOL    HW1 5327   5.365   0.063   6.170
 1476SOL    HW2 5328   5.468   0.103   6.291
 1477SOL     OW 5329   3.400   4.247   1.707
 1477SOL    HW1 5330   3.310   4.291   1.715
 1477SOL    HW2 5331   3.388   4.150   1.684
 1478SOL     OW 5332   4.646   4.838   6.228
 1478SOL    HW1 5333   4.555   4.807   6.200
 1478SOL    HW2 5334   4.679   4.782   6.304
 1479SOL     OW 5335   4.835   4.379   1.061
 1479SOL    HW1 5336   4.850   4.444   1.135
 1479SOL    HW2 5337   4.742   4.387   1.027
 1480SOL     OW 5338   2.727   0.955   4.457
 1480SOL    HW1 5339   2.752   0.868   4.500
 1480SOL    HW2 5340   2.629   0.956   4.440
 1481SOL     OW 5341   4.392   2.172   5.775
 1481SOL    HW1 5342   4.440   2.228   5.842
 1481SOL    HW2 5343   4.350   2.093   5.821
 1482SOL     OW 5344   6.353   1.217   1.670
 1482SOL    HW1 5345   6.303   1.301   1.650
 1482SOL    HW2 5346   6.402   1.228   1.756
 1483SOL     OW 5347   6.352   0.240   6.779
 1483SOL    HW1 5348   6.450   0.261   6.783
 1483SOL    HW2 5349   6.338   0.153   6.732
 1484SOL     OW 5350   3.413   5.997   5.049
 1484SOL    HW1 5351   3.498   5.949   5.071
 1484SOL    HW2 5352   3.364   5.947   4.977
 1485SOL     OW 5353   4.850   3.812   3.804
 1485SOL    HW1 5354   4.783   3.841   3.873
 1485SOL    HW2 5355   4.908   3.889   3.780
 1486SOL     OW 5356   4.982   6.232   4.126
 1486SOL    HW1 5357   5.062   6.176   4.151
 1486SOL    HW2 5358   5.000   6.281   4.041
 1487SOL     OW 5359   6.007   1.098   0.326
 1487SOL    HW1 5360   5.941   1.164   0.290
 1487SOL    HW2 5361   6.063   1.063   0.251
 1488SOL     OW 5362   6.624   2.444   2.797
 1488SOL    HW1 5363   6.680   2.402   2.726
 1488SOL    HW2 5364   6.625   2.388   2.879
 1489SOL     OW 5365   3.201   5.002   0.049
 1489SOL    HW1 5366   3.241   4.977   6.989
 1489SOL    HW2 5367   3.221   5.098   0.068
 1490SOL     OW 5368   6.807   3.089   2.140
 1490SOL    HW1 5369   6.854   3.113   2.225
 1490SOL    HW2 5370   6.855   3.014   2.095
 1491SOL     OW 5371   5.118   2.744   3.639
 1491SOL    HW1 5372   5.037   2.774   3.590
 1491SOL    HW2 5373   5.187   2.817   3.638
 1492SOL     OW 5374   0.896   2.262   2.291
 1492SOL    HW1 5375   0.908   2.265   2.191
 1492SOL    HW2 5376   0.799   2.257   2.313
 1493SOL     OW 5377   6.054   2.406   6.524
 1493SOL    HW1 5378   5.971   2.354   6.504
 1493SOL    HW2 5379   6.134   2.345   6.521
 1494SOL     OW 5380   0.562   4.354   6.378
 1494SOL    HW1 5381   0.485   4.360   6.441
 1494SOL    HW2 5382   0.553   4.272   6.322
 1495SOL     OW 5383   6.694   4.069   3.876
 1495SOL    HW1 5384   6.670   4.152   3.925
 1495SOL    HW2 5385   6.773   4.086   3.817
 1496SOL     OW 5386   6.861   6.284   5.791
 1496SOL    HW1 5387   6.870   6.339   5.708
 1496SOL    HW2 5388   6.946   6.233   5.806
 1497SOL     OW 5389   5.577   2.599   2.386
 1497SOL    HW1 5390   5.615   2.652   2.310
 1497SOL    HW2 5391   5.640   2.600   2.463
 1498SOL     OW 5392   3.880   4.565   0.587
 1498SOL    HW1 5393   3.978   4.568   0.567
 1498SOL    HW2 5394   3.829   4.564   0.501
 1499SOL     OW 5395   0.486   4.585   4.137
 1499SOL    HW1 5396   0.495   4.509   4.202
 1499SOL    HW2 5397   0.424   4.653   4.175
 1500SOL     OW 5398   2.077   5.530   2.052
 1500SOL    HW1 5399   2.141   5.503   1.980
 1500SOL    HW2 5400   2.073   5.459   2.122
 1501SOL     OW 5401   6.227   1.951   0.899
 1501SOL    HW1 5402   6.159   1.975   0.969
 1501SOL    HW2 5403   6.288   1.881   0.934
 1502SOL     OW 5404   0.172   6.341   6.621
 1502SOL    HW1 5405   0.137   6.408   6.686
 1502SOL    HW2 5406   0.131   6.251   6.641
 1503SOL     OW 5407   0.086   5.095   1.664
 1503SOL    HW1 5408   0.133   5.090   1.752
 1503SOL    HW2 5409   7.025   5.050   1.671
 1504SOL     OW 5410   1.544   0.118   3.365
 1504SOL    HW1 5411   1.591   0.066   3.294
 1504SOL    HW2 5412   1.447   0.128   3.341
 1505SOL     OW 5413   6.435   4.910   5.062
 1505SOL    HW1 5414   6.375   4.840   5.101
 1505SOL    HW2 5415   6.442   4.898   4.963
 1506SOL     OW 5416   1.479   0.886   0.861
 1506SOL    HW1 5417   1.515   0.812   0.917
 1506SOL    HW2 5418   1.432   0.848   0.781
 1507SOL     OW 5419   2.941   2.269   3.183
 1507SOL    HW1 5420   2.931   2.228   3.092
 1507SOL    HW2 5421   2.863   2.329   3.202
 1508SOL     OW 5422   1.723   0.558   1.898
 1508SOL    HW1 5423   1.785   0.595   1.968
 1508SOL    HW2 5424   1.738   0.606   1.812
 1509SOL     OW 5425   4.866   1.375   4.050
 1509SOL    HW1 5426   4.865   1.383   4.150
 1509SOL    HW2 5427   4.960   1.387   4.017
 1510SOL     OW 5428   3.639   6.363   5.121
 1510SOL    HW1 5429   3.630   6.437   5.187
 1510SOL    HW2 5430   3.588   6.386   5.038
 1511SOL     OW 5431   3.556   4.283   5.199
 1511SOL    HW1 5432   3.512   4.231   5.126
 1511SOL    HW2 5433   3.636   4.233   5.232
 1512SOL     OW 5434   5.159   6.401   0.611
 1512SOL    HW1 5435   5.243   6.355   0.640
 1512SOL    HW2 5436   5.137   6.375   0.517
 1513SOL     OW 5437   2.997   0.830   5.825
 1513SOL    HW1 5438   2.952   0.787   5.747
 1513SOL    HW2 5439   2.945   0.911   5.853
 1514SOL     OW 5440   3.002   2.289   0.109
 1514SOL    HW1 5441   3.042   2.223   0.172
 1514SOL    HW2 5442   3.071   2.357   0.083
 1515SOL     OW 5443   3.577   0.728   2.487
 1515SOL    HW1 5444   3.536   0.819   2.489
 1515SOL    HW2 5445   3.511   0.660   2.519
 1516SOL     OW 5446   6.466   6.614   6.171
 1516SOL    HW1 5447   6.456   6.579   6.077
 1516SOL    HW2 5448   6.448   6.540   6.236
 1517SOL     OW 5449   2.643   6.377   2.911
 1517SOL    HW1 5450   2.555   6.410   2.944
 1517SOL    HW2 5451   2.714   6.394   2.980
 1518SOL     OW 5452   0.873   3.110   0.084
 1518SOL    HW1 5453   0.924   3.128   7.027
 1518SOL    HW2 5454   0.810   3.035   0.069
 1519SOL     OW 5455   0.230   4.267   6.773
 1519SOL    HW1 5456   0.210   4.171   6.755
 1519SOL    HW2 5457   0.155   4.307   6.826
 1520SOL     OW 5458   0.073   6.796   3.427
 1520SOL    HW1 5459   0.095   6.893   3.438
 1520SOL    HW2 5460   0.133   6.742   3.486
 1521SOL     OW 5461   1.754   4.910   6.362
 1521SOL    HW1 5462   1.820   4.940   6.293
 1521SOL    HW2 5463   1.683   4.979   6.372
 1522SOL     OW 5464   5.310   6.687   4.313
 1522SOL    HW1 5465   5.399   6.642   4.322
 1522SOL    HW2 5466   5.263   6.651   4.233
 1523SOL     OW 5467   2.476   6.507   0.711
 1523SOL    HW1 5468   2.387   6.480   0.748
 1523SOL    HW2 5469   2.532   6.545   0.784
 1524SOL     OW 5470   1.707   2.409   4.137
 1524SOL    HW1 5471   1.607   2.403   4.146
 1524SOL    HW2 5472   1.747   2.422   4.228
 1525SOL     OW 5473   5.364   4.208   6.168
 1525SOL    HW1 5474   5.284   4.202   6.228
 1525SOL    HW2 5475   5.446   4.219   6.223
 1526SOL     OW 5476   0.987   1.422   1.300
 1526SOL    HW1 5477   0.948   1.331   1.304
 1526SOL    HW2 5478   0.929   1.487   1.350
 1527SOL     OW 5479   4.730   1.362   4.967
 1527SOL    HW1 5480   4.692   1.339   4.878
 1527SOL    HW2 5481   4.797   1.436   4.956
 1528SOL     OW 5482   3.515   3.131   2.308
 1528SOL    HW1 5483   3.510   3.177   2.219
 1528SOL    HW2 5484   3.476   3.040   2.301
 1529SOL     OW 5485   4.246   1.254   5.673
 1529SOL    HW1 5486   4.256   1.352   5.688
 1529SOL    HW2 5487   4.155   1.234   5.638
 1530SOL     OW 5488   2.255   0.016   1.300
 1530SOL    HW1 5489   2.259   0.112   1.272
 1530SOL    HW2 5490   2.334   6.995   1.263
 1531SOL     OW 5491   5.128   6.199   4.478
 1531SOL    HW1 5492   5.156   6.269   4.412
 1531SOL    HW2 5493   5.088   6.121   4.430
 1532SOL     OW 5494   2.372   5.875   1.579
 1532SOL    HW1 5495   2.386   5.872   1.480
 1532SOL    HW2 5496   2.317   5.955   1.602
 1533SOL     OW 5497   5.992   6.195   1.049
 1533SOL    HW1 5498   6.051   6.116   1.065
 1533SOL    HW2 5499   5.965   6.198   0.953
 1534SOL     OW 5500   2.282   4.748   6.743
 1534SOL    HW1 5501   2.361   4.690   6.725
 1534SOL    HW2 5502   2.202   4.711   6.696
 1535SOL     OW 5503   5.018   3.982   3.676
 1535SOL    HW1 5504   5.109   3.942   3.670
 1535SOL    HW2 5505   4.959   3.939   3.607
 1536SOL     OW 5506   4.299   4.208   6.676
 1536SOL    HW1 5507   4.234   4.271   6.632
 1536SOL    HW2 5508   4.392   4.240   6.660
 1537SOL     OW 5509   2.966   5.399   2.558
 1537SOL    HW1 5510   3.056   5.443   2.553
 1537SOL    HW2 5511   2.922   5.402   2.468
 1538SOL     OW 5512   2.861   0.874   0.590
 1538SOL    HW1 5513   2.848   0.972   0.606
 1538SOL    HW2 5514   2.786   0.838   0.536
 1539SOL     OW 5515   6.956   3.339   0.861
 1539SOL    HW1 5516   0.021   3.363   0.836
 1539SOL    HW2 5517   6.946   3.343   0.960
 1540SOL     OW 5518   3.398   6.565   3.482
 1540SOL    HW1 5519   3.490   6.600   3.465
 1540SOL    HW2 5520   3.344   6.571   3.398
 1541SOL     OW 5521   4.480   2.813   5.624
 1541SOL    HW1 5522   4.393   2.764   5.629
 1541SOL    HW2 5523   4.527   2.806   5.712
 1542SOL     OW 5524   6.725   5.555   3.018
 1542SOL    HW1 5525   6.780   5.472   3.005
 1542SOL    HW2 5526   6.657   5.561   2.944
 1543SOL     OW 5527   2.917   5.427   0.686
 1543SOL    HW1 5528   2.947   5.452   0.778
 1543SOL    HW2 5529   2.903   5.328   0.681
 1544SOL     OW 5530   4.120   3.649   3.999
 1544SOL    HW1 5531   4.125   3.620   3.903
 1544SOL    HW2 5532   4.026   3.671   4.023
 1545SOL     OW 5533   5.939   5.441   1.431
 1545SOL    HW1 5534   5.998   5.478   1.358
 1545SOL    HW2 5535   5.961   5.487   1.517
 1546SOL     OW 5536   6.321   6.390   5.262
 1546SOL    HW1 5537   6.254   6.444   5.313
 1546SOL    HW2 5538   6.276   6.308   5.225
 1547SOL     OW 5539   1.916   3.359   6.239
 1547SOL    HW1 5540   1.986   3.291   6.260
 1547SOL    HW2 5541   1.889   3.349   6.143
 1548SOL     OW 5542   6.394   2.301   0.627
 1548SOL    HW1 5543   6.344   2.342   0.551
 1548SOL    HW2 5544   6.389   2.202   0.620
 1549SOL     OW 5545   4.620   1.071   4.913
 1549SOL    HW1 5546   4.676   0.999   4.872
 1549SOL    HW2 5547   4.661   1.101   4.999
 1550SOL     OW 5548   3.035   3.287   4.177
 1550SOL    HW1 5549   3.033   3.235   4.091
 1550SOL    HW2 5550   2.942   3.295   4.213
 1551SOL     OW 5551   6.811   5.219   5.730
 1551SOL    HW1 5552   6.760   5.284   5.673
 1551SOL    HW2 5553   6.763   5.205   5.816
 1552SOL     OW 5554   2.053   4.473   1.625
 1552SOL    HW1 5555   2.124   4.529   1.666
 1552SOL    HW2 5556   1.965   4.521   1.632
 1553SOL     OW 5557   1.771   2.095   5.584
 1553SOL    HW1 5558   1.811   2.006   5.564
 1553SOL    HW2 5559   1.763   2.148   5.499
 1554SOL     OW 5560   4.633   1.842   3.148
 1554SOL    HW1 5561   4.536   1.863   3.138
 1554SOL    HW2 5562   4.653   1.815   3.242
 1555SOL     OW 5563   5.861   5.003   5.529
 1555SOL    HW1 5564   5.791   4.933   5.517
 1555SOL    HW2 5565   5.942   4.963   5.572
 1556SOL     OW 5566   1.765   0.889   6.067
 1556SOL    HW1 5567   1.719   0.930   5.988
 1556SOL    HW2 5568   1.847   0.841   6.037
 1557SOL     OW 5569   0.886   1.900   5.364
 1557SOL    HW1 5570   0.984   1.918   5.352
 1557SOL    HW2 5571   0.873   1.804   5.388
 1558SOL     OW 5572   0.071   6.609   4.691
 1558SOL    HW1 5573   0.118   6.526   4.658
 1558SOL    HW2 5574   7.002   6.591   4.700
 1559SOL     OW 5575   1.392   1.243   5.977
 1559SOL    HW1 5576   1.461   1.316   5.977
 1559SOL    HW2 5577   1.302   1.283   5.963
 1560SOL     OW 5578   6.938   0.318   0.210
 1560SOL    HW1 5579   6.989   0.289   0.291
 1560SOL    HW2 5580   6.982   0.280   0.128
 1561SOL     OW 5581   6.147   6.399   1.826
 1561SOL    HW1 5582   6.071   6.443   1.874
 1561SOL    HW2 5583   6.138   6.300   1.834
 1562SOL     OW 5584   5.333   0.528   4.145
 1562SOL    HW1 5585   5.398   0.495   4.078
 1562SOL    HW2 5586   5.272   0.454   4.172
 1563SOL     OW 5587   2.958   6.780   5.953
 1563SOL    HW1 5588   2.908   6.729   5.883
 1563SOL    HW2 5589   3.021   6.844   5.909
 1564SOL     OW 5590   1.801   2.131   3.522
 1564SOL    HW1 5591   1.800   2.162   3.617
 1564SOL    HW2 5592   1.728   2.177   3.471
 1565SOL     OW 5593   6.357   4.714   1.164
 1565SOL    HW1 5594   6.267   4.700   1.122
 1565SOL    HW2 5595   6.350   4.787   1.233
 1566SOL     OW 5596   6.445   4.693   2.156
 1566SOL    HW1 5597   6.408   4.751   2.084
 1566SOL    HW2 5598   6.394   4.708   2.241
 1567SOL     OW 5599   6.491   5.798   5.399
 1567SOL    HW1 5600   6.460   5.892   5.414
 1567SOL    HW2 5601   6.412   5.736   5.402
 1568SOL     OW 5602   6.794   6.835   0.489
 1568SOL    HW1 5603   6.695   6.825   0.495
 1568SOL    HW2 5604   6.824   6.812   0.397
 1569SOL     OW 5605   3.128   6.383   5.525
 1569SOL    HW1 5606   3.104   6.461   5.467
 1569SOL    HW2 5607   3.045   6.337   5.557
 1570SOL     OW 5608   2.883   2.167   1.773
 1570SOL    HW1 5609   2.910   2.229   1.847
 1570SOL    HW2 5610   2.848   2.082   1.812
 1571SOL     OW 5611   0.281   3.530   1.111
 1571SOL    HW1 5612   0.306   3.511   1.015
 1571SOL    HW2 5613   0.341   3.478   1.171
 1572SOL     OW 5614   0.239   5.562   3.219
 1572SOL    HW1 5615   0.168   5.567   3.148
 1572SOL    HW2 5616   0.327   5.541   3.176
 1573SOL     OW 5617   4.566   6.617   0.436
 1573SOL    HW1 5618   4.595   6.683   0.366
 1573SOL    HW2 5619   4.641   6.553   0.454
 1574SOL     OW 5620   5.437   3.319   2.261
 1574SOL    HW1 5621   5.358   3.282   2.311
 1574SOL    HW2 5622   5.412   3.407   2.220
 1575SOL     OW 5623   3.558   2.033   0.756
 1575SOL    HW1 5624   3.463   2.063   0.751
 1575SOL    HW2 5625   3.563   1.934   0.742
 1576SOL     OW 5626   6.229   5.255   3.185
 1576SOL    HW1 5627   6.258   5.308   3.264
 1576SOL    HW2 5628   6.305   5.199   3.153
 1577SOL     OW 5629   1.527   0.325   0.214
 1577SOL    HW1 5630   1.545   0.386   0.291
 1577SOL    HW2 5631   1.547   0.373   0.128
 1578SOL     OW 5632   5.916   5.880   4.571
 1578SOL    HW1 5633   5.847   5.820   4.530
 1578SOL    HW2 5634   5.916   5.968   4.524
 1579SOL     OW 5635   0.180   0.191   3.107
 1579SOL    HW1 5636   0.248   0.134   3.153
 1579SOL    HW2 5637   0.157   0.151   3.018
 1580SOL     OW 5638   3.125   3.747   5.739
 1580SOL    HW1 5639   3.118   3.774   5.835
 1580SOL    HW2 5640   3.215   3.708   5.721
 1581SOL     OW 5641   6.117   3.120   4.486
 1581SOL    HW1 5642   6.038   3.182   4.479
 1581SOL    HW2 5643   6.118   3.077   4.576
 1582SOL     OW 5644   6.190   6.248   4.406
 1582SOL    HW1 5645   6.241   6.162   4.412
 1582SOL    HW2 5646   6.238   6.310   4.343
 1583SOL     OW 5647   2.110   2.284   1.956
 1583SOL    HW1 5648   2.052   2.343   2.010
 1583SOL    HW2 5649   2.165   2.226   2.017
 1584SOL     OW 5650   2.420   0.039   6.480
 1584SOL    HW1 5651   2.408   0.123   6.428
 1584SOL    HW2 5652   2.436   0.061   6.576
 1585SOL     OW 5653   5.896   1.069   5.951
 1585SOL    HW1 5654   5.892   1.100   6.046
 1585SOL    HW2 5655   5.983   1.022   5.935
 1586SOL     OW 5656   3.694   3.358   2.916
 1586SOL    HW1 5657   3.706   3.376   3.014
 1586SOL    HW2 5658   3.729   3.435   2.864
 1587SOL     OW 5659   2.184   6.682   6.135
 1587SOL    HW1 5660   2.155   6.707   6.228
 1587SOL    HW2 5661   2.106   6.644   6.085
 1588SOL     OW 5662   6.138   3.622   0.697
 1588SOL    HW1 5663   6.051   3.604   0.652
 1588SOL    HW2 5664   6.194   3.681   0.640
 1589SOL     OW 5665   4.787   5.064   2.863
 1589SOL    HW1 5666   4.788   5.009   2.946
 1589SOL    HW2 5667   4.835   5.016   2.790
 1590SOL     OW 5668   2.178   6.569   4.896
 1590SOL    HW1 5669   2.078   6.567   4.896
 1590SOL    HW2 5670   2.213   6.497   4.956
 1591SOL     OW 5671   1.965   3.484   0.296
 1591SOL    HW1 5672   2.003   3.406   0.346
 1591SOL    HW2 5673   1.896   3.453   0.231
 1592SOL     OW 5674   3.907   3.925   3.989
 1592SOL    HW1 5675   3.975   3.878   4.045
 1592SOL    HW2 5676   3.923   3.904   3.893
 1593SOL     OW 5677   1.446   4.627   4.332
 1593SOL    HW1 5678   1.493   4.714   4.315
 1593SOL    HW2 5679   1.350   4.645   4.353
 1594SOL     OW 5680   0.802   5.139   2.874
 1594SOL    HW1 5681   0.815   5.185   2.961
 1594SOL    HW2 5682   0.770   5.204   2.806
 1595SOL     OW 5683   0.092   3.779   4.847
 1595SOL    HW1 5684   0.165   3.711   4.840
 1595SOL    HW2 5685   0.014   3.739   4.896
 1596SOL     OW 5686   2.871   5.134   0.052
 1596SOL    HW1 5687   2.938   5.082   7.026
 1596SOL    HW2 5688   2.880   5.232   0.030
 1597SOL     OW 5689   2.499   0.544   0.587
 1597SOL    HW1 5690   2.574   0.583   0.534
 1597SOL    HW2 5691   2.414   0.593   0.566
 1598SOL     OW 5692   0.218   5.604   1.453
 1598SOL    HW1 5693   0.131   5.556   1.444
 1598SOL    HW2 5694   0.288   5.556   1.402
 1599SOL     OW 5695   3.133   5.375   0.336
 1599SOL    HW1 5696   3.093   5.455   0.381
 1599SOL    HW2 5697   3.069   5.298   0.342
 1600SOL     OW 5698   3.393   1.526   5.054
 1600SOL    HW1 5699   3.409   1.622   5.028
 1600SOL    HW2 5700   3.374   1.521   5.151
 1601SOL     OW 5701   1.609   5.362   4.989
 1601SOL    HW1 5702   1.600   5.267   5.019
 1601SOL    HW2 5703   1.570   5.422   5.059
 1602SOL     OW 5704   0.627   3.606   2.165
 1602SOL    HW1 5705   0.650   3.510   2.180
 1602SOL    HW2 5706   0.603   3.649   2.252
 1603SOL     OW 5707   5.677   6.655   0.394
 1603SOL    HW1 5708   5.667   6.559   0.367
 1603SOL    HW2 5709   5.735   6.661   0.474
 1604SOL     OW 5710   0.901   5.635   4.910
 1604SOL    HW1 5711   0.927   5.671   4.820
 1604SOL    HW2 5712   0.957   5.678   4.980
 1605SOL     OW 5713   5.474   5.427   2.341
 1605SOL    HW1 5714   5.501   5.505   2.398
 1605SOL    HW2 5715   5.492   5.342   2.390
 1606SOL     OW 5716   5.694   5.752   4.435
 1606SOL    HW1 5717   5.696   5.717   4.341
 1606SOL    HW2 5718   5.676   5.850   4.433
 1607SOL     OW 5719   4.936   3.171   1.537
 1607SOL    HW1 5720   4.977   3.112   1.468
 1607SOL    HW2 5721   4.879   3.116   1.598
 1608SOL     OW 5722   2.814   0.625   0.724
 1608SOL    HW1 5723   2.818   0.613   0.624
 1608SOL    HW2 5724   2.832   0.538   0.769
 1609SOL     OW 5725   5.291   1.055   5.703
 1609SOL    HW1 5726   5.344   1.071   5.619
 1609SOL    HW2 5727   5.233   0.974   5.690
 1610SOL     OW 5728   4.913   6.626   2.723
 1610SOL    HW1 5729   4.893   6.718   2.689
 1610SOL    HW2 5730   4.856   6.607   2.803
 1611SOL     OW 5731   4.505   3.564   1.456
 1611SOL    HW1 5732   4.467   3.594   1.369
 1611SOL    HW2 5733   4.561   3.483   1.442
 1612SOL     OW 5734   3.219   0.607   5.015
 1612SOL    HW1 5735   3.233   0.560   4.928
 1612SOL    HW2 5736   3.147   0.561   5.067
 1613SOL     OW 5737   1.864   0.603   1.120
 1613SOL    HW1 5738   1.835   0.529   1.059
 1613SOL    HW2 5739   1.943   0.650   1.079
 1614SOL     OW 5740   0.152   2.547   5.319
 1614SOL    HW1 5741   0.236   2.514   5.275
 1614SOL    HW2 5742   0.168   2.638   5.358
 1615SOL     OW 5743   6.608   4.979   5.449
 1615SOL    HW1 5744   6.641   4.901   5.502
 1615SOL    HW2 5745   6.645   4.974   5.356
 1616SOL     OW 5746   2.319   2.178   6.429
 1616SOL    HW1 5747   2.388   2.250   6.417
 1616SOL    HW2 5748   2.253   2.183   6.355
 1617SOL     OW 5749   3.641   0.786   3.703
 1617SOL    HW1 5750   3.618   0.881   3.680
 1617SOL    HW2 5751   3.630   0.772   3.802
 1618SOL     OW 5752   5.412   2.832   2.100
 1618SOL    HW1 5753   5.400   2.909   2.037
 1618SOL    HW2 5754   5.374   2.856   2.189
 1619SOL     OW 5755   1.543   2.744   4.769
 1619SOL    HW1 5756   1.498   2.831   4.752
 1619SOL    HW2 5757   1.552   2.729   4.867
 1620SOL     OW 5758   3.487   6.175   1.863
 1620SOL    HW1 5759   3.485   6.097   1.925
 1620SOL    HW2 5760   3.531   6.148   1.777
 1621SOL     OW 5761   1.986   1.785   1.850
 1621SOL    HW1 5762   1.973   1.870   1.799
 1621SOL    HW2 5763   2.081   1.754   1.839
 1622SOL     OW 5764   2.183   2.412   5.093
 1622SOL    HW1 5765   2.139   2.402   5.182
 1622SOL    HW2 5766   2.267   2.466   5.104
 1623SOL     OW 5767   2.087   2.177   4.644
 1623SOL    HW1 5768   2.102   2.257   4.586
 1623SOL    HW2 5769   2.116   2.198   4.737
 1624SOL     OW 5770   2.410   0.885   0.655
 1624SOL    HW1 5771   2.484   0.867   0.721
 1624SOL    HW2 5772   2.403   0.809   0.591
 1625SOL     OW 5773   0.919   6.593   1.072
 1625SOL    HW1 5774   0.990   6.648   1.029
 1625SOL    HW2 5775   0.883   6.642   1.152
 1626SOL     OW 5776   2.385   3.018   6.315
 1626SOL    HW1 5777   2.435   2.964   6.383
 1626SOL    HW2 5778   2.320   2.959   6.267
 1627SOL     OW 5779   4.869   3.895   3.458
 1627SOL    HW1 5780   4.822   3.817   3.417
 1627SOL    HW2 5781   4.843   3.978   3.411
 1628SOL     OW 5782   2.995   3.112   0.160
 1628SOL    HW1 5783   2.903   3.129   0.126
 1628SOL    HW2 5784   3.025   3.190   0.215
 1629SOL     OW 5785   3.066   2.184   2.696
 1629SOL    HW1 5786   3.067   2.184   2.596
 1629SOL    HW2 5787   3.144   2.132   2.730
 1630SOL     OW 5788   5.679   5.137   4.190
 1630SOL    HW1 5789   5.638   5.136   4.098
 1630SOL    HW2 5790   5.757   5.075   4.192
 1631SOL     OW 5791   1.059   6.955   6.349
 1631SOL    HW1 5792   1.087   0.015   6.310
 1631SOL    HW2 5793   1.061   6.885   6.278
 1632SOL     OW 5794   4.665   6.724   0.140
 1632SOL    HW1 5795   4.748   6.699   0.090
 1632SOL    HW2 5796   4.658   6.823   0.144
 1633SOL     OW 5797   6.232   3.894   3.132
 1633SOL    HW1 5798   6.281   3.894   3.218
 1633SOL    HW2 5799   6.281   3.838   3.065
 1634SOL     OW 5800   3.833   1.170   0.944
 1634SOL    HW1 5801   3.899   1.113   0.896
 1634SOL    HW2 5802   3.820   1.256   0.895
 1635SOL     OW 5803   1.243   4.633   3.561
 1635SOL    HW1 5804   1.339   4.649   3.538
 1635SOL    HW2 5805   1.237   4.566   3.635
 1636SOL     OW 5806   2.594   6.603   0.164
 1636SOL    HW1 5807   2.617   6.579   0.259
 1636SOL    HW2 5808   2.659   6.560   0.102
 1637SOL     OW 5809   1.071   2.614   2.595
 1637SOL    HW1 5810   1.117   2.698   2.565
 1637SOL    HW2 5811   1.097   2.595   2.690
 1638SOL     OW 5812   1.173   2.412   5.896
 1638SOL    HW1 5813   1.203   2.506   5.910
 1638SOL    HW2 5814   1.183   2.361   5.982
 1639SOL     OW 5815   4.114   4.726   2.345
 1639SOL    HW1 5816   4.051   4.757   2.415
 1639SOL    HW2 5817   4.206   4.761   2.365
 1640SOL     OW 5818   5.426   6.644   1.438
 1640SOL    HW1 5819   5.499   6.705   1.470
 1640SOL    HW2 5820   5.359   6.698   1.387
 1641SOL     OW 5821   0.119   2.623   5.046
 1641SOL    HW1 5822   0.099   2.589   5.138
 1641SOL    HW2 5823   0.127   2.723   5.049
 1642SOL     OW 5824   0.908   2.403   2.001
 1642SOL    HW1 5825   0.893   2.493   2.043
 1642SOL    HW2 5826   0.850   2.394   1.920
 1643SOL     OW 5827   3.571   0.575   5.786
 1643SOL    HW1 5828   3.573   0.565   5.885
 1643SOL    HW2 5829   3.664   0.585   5.751
 1644SOL     OW 5830   4.296   0.841   0.342
 1644SOL    HW1 5831   4.385   0.848   0.297
 1644SOL    HW2 5832   4.309   0.811   0.437
 1645SOL     OW 5833   2.389   5.991   6.463
 1645SOL    HW1 5834   2.394   5.901   6.419
 1645SOL    HW2 5835   2.309   6.041   6.430
 1646SOL     OW 5836   2.297   4.014   0.157
 1646SOL    HW1 5837   2.396   4.025   0.160
 1646SOL    HW2 5838   2.271   3.957   0.079
 1647SOL     OW 5839   5.584   3.316   2.857
 1647SOL    HW1 5840   5.524   3.241   2.829
 1647SOL    HW2 5841   5.629   3.355   2.777
 1648SOL     OW 5842   3.378   0.240   2.932
 1648SOL    HW1 5843   3.364   0.273   3.025
 1648SOL    HW2 5844   3.295   0.192   2.901
 1649SOL     OW 5845   2.468   0.372   3.346
 1649SOL    HW1 5846   2.475   0.275   3.372
 1649SOL    HW2 5847   2.553   0.401   3.303
 1650SOL     OW 5848   3.042   6.979   4.196
 1650SOL    HW1 5849   2.986   7.001   4.116
 1650SOL    HW2 5850   3.014   6.891   4.234
 1651SOL     OW 5851   1.202   6.747   1.925
 1651SOL    HW1 5852   1.124   6.711   1.976
 1651SOL    HW2 5853   1.177   6.835   1.884
 1652SOL     OW 5854   3.235   3.205   1.748
 1652SOL    HW1 5855   3.313   3.259   1.779
 1652SOL    HW2 5856   3.150   3.244   1.784
 1653SOL     OW 5857   1.452   4.724   1.189
 1653SOL    HW1 5858   1.425   4.820   1.193
 1653SOL    HW2 5859   1.430   4.687   1.099
 1654SOL     OW 5860   0.438   2.200   4.025
 1654SOL    HW1 5861   0.486   2.114   4.043
 1654SOL    HW2 5862   0.483   2.249   3.950
 1655SOL     OW 5863   4.391   4.045   5.554
 1655SOL    HW1 5864   4.367   4.130   5.602
 1655SOL    HW2 5865   4.329   4.033   5.476
 1656SOL     OW 5866   0.401   4.232   2.143
 1656SOL    HW1 5867   0.429   4.139   2.169
 1656SOL    HW2 5868   0.318   4.227   2.088
 1657SOL     OW 5869   0.933   0.594   5.372
 1657SOL    HW1 5870   0.953   0.692   5.374
 1657SOL    HW2 5871   0.916   0.565   5.278
 1658SOL     OW 5872   5.763   6.751   2.483
 1658SOL    HW1 5873   5.713   6.830   2.520
 1658SOL    HW2 5874   5.781   6.686   2.556
 1659SOL     OW 5875   5.318   2.262   6.187
 1659SOL    HW1 5876   5.396   2.320   6.163
 1659SOL    HW2 5877   5.271   2.301   6.266
 1660SOL     OW 5878   2.192   6.313   3.389
 1660SOL    HW1 5879   2.273   6.371   3.388
 1660SOL    HW2 5880   2.220   6.218   3.401
 1661SOL     OW 5881   2.972   0.600   3.089
 1661SOL    HW1 5882   2.978   0.659   3.008
 1661SOL    HW2 5883   3.040   0.527   3.081
 1662SOL     OW 5884   6.227   0.810   3.095
 1662SOL    HW1 5885   6.315   0.820   3.050
 1662SOL    HW2 5886   6.204   0.894   3.143
 1663SOL     OW 5887   1.740   0.526   3.498
 1663SOL    HW1 5888   1.799   0.484   3.567
 1663SOL    HW2 5889   1.735   0.624   3.515
 1664SOL     OW 5890   2.372   5.491   4.894
 1664SOL    HW1 5891   2.286   5.538   4.873
 1664SOL    HW2 5892   2.362   5.438   4.978
 1665SOL     OW 5893   0.306   1.113   3.682
 1665SOL    HW1 5894   0.306   1.060   3.767
 1665SOL    HW2 5895   0.371   1.072   3.617
 1666SOL     OW 5896   5.326   2.756   5.943
 1666SOL    HW1 5897   5.419   2.733   5.915
 1666SOL    HW2 5898   5.324   2.776   6.041
 1667SOL     OW 5899   6.909   0.789   0.675
 1667SOL    HW1 5900   6.829   0.813   0.619
 1667SOL    HW2 5901   6.909   0.690   0.691
 1668SOL     OW 5902   1.364   0.501   4.634
 1668SOL    HW1 5903   1.386   0.469   4.727
 1668SOL    HW2 5904   1.411   0.587   4.616
 1669SOL     OW 5905   5.364   6.134   6.026
 1669SOL    HW1 5906   5.409   6.160   5.940
 1669SOL    HW2 5907   5.423   6.073   6.078
 1670SOL     OW 5908   6.715   3.244   6.472
 1670SOL    HW1 5909   6.774   3.223   6.394
 1670SOL    HW2 5910   6.619   3.240   6.442
 1671SOL     OW 5911   5.465   5.365   6.935
 1671SOL    HW1 5912   5.452   5.358   0.006
 1671SOL    HW2 5913   5.405   5.301   6.888
 1672SOL     OW 5914   1.762   5.194   2.600
 1672SOL    HW1 5915   1.767   5.203   2.699
 1672SOL    HW2 5916   1.854   5.203   2.561
 1673SOL     OW 5917   6.137   3.126   3.574
 1673SOL    HW1 5918   6.158   3.046   3.631
 1673SOL    HW2 5919   6.049   3.163   3.600
 1674SOL     OW 5920   2.310   5.719   0.314
 1674SOL    HW1 5921   2.368   5.762   0.384
 1674SOL    HW2 5922   2.297   5.783   0.238
 1675SOL     OW 5923   4.529   2.027   0.267
 1675SOL    HW1 5924   4.467   1.961   0.308
 1675SOL    HW2 5925   4.590   1.981   0.203
 1676SOL     OW 5926   3.055   1.225   4.093
 1676SOL    HW1 5927   3.085   1.320   4.085
 1676SOL    HW2 5928   2.959   1.222   4.121
 1677SOL     OW 5929   6.113   0.347   5.623
 1677SOL    HW1 5930   6.026   0.394   5.607
 1677SOL    HW2 5931   6.095   0.257   5.662
 1678SOL     OW 5932   5.086   6.696   1.576
 1678SOL    HW1 5933   5.148   6.772   1.559
 1678SOL    HW2 5934   5.109   6.653   1.663
 1679SOL     OW 5935   5.557   4.262   0.226
 1679SOL    HW1 5936   5.632   4.323   0.198
 1679SOL    HW2 5937   5.504   4.306   0.298
 1680SOL     OW 5938   0.817   2.383   5.762
 1680SOL    HW1 5939   0.752   2.414   5.831
 1680SOL    HW2 5940   0.848   2.290   5.785
 1681SOL     OW 5941   4.437   5.158   0.275
 1681SOL    HW1 5942   4.410   5.202   0.189
 1681SOL    HW2 5943   4.524   5.196   0.306
 1682SOL     OW 5944   6.771   2.515   5.569
 1682SOL    HW1 5945   6.858   2.482   5.531
 1682SOL    HW2 5946   6.707   2.439   5.576
 1683SOL     OW 5947   5.365   5.365   5.497
 1683SOL    HW1 5948   5.370   5.453   5.544
 1683SOL    HW2 5949   5.351   5.292   5.564
 1684SOL     OW 5950   0.530   6.637   4.229
 1684SOL    HW1 5951   0.517   6.736   4.231
 1684SOL    HW2 5952   0.528   6.604   4.135
 1685SOL     OW 5953   0.867   1.921   0.609
 1685SOL    HW1 5954   0.801   1.936   0.683
 1685SOL    HW2 5955   0.872   1.824   0.588
 1686SOL     OW 5956   2.081   6.782   6.606
 1686SOL    HW1 5957   2.144   6.779   6.684
 1686SOL    HW2 5958   2.093   6.700   6.551
 1687SOL     OW 5959   3.286   6.309   1.749
 1687SOL    HW1 5960   3.227   6.239   1.709
 1687SOL    HW2 5961   3.357   6.265   1.804
 1688SOL     OW 5962   0.300   1.325   4.011
 1688SOL    HW1 5963   0.245   1.242   4.022
 1688SOL    HW2 5964   0.299   1.354   3.915
 1689SOL     OW 5965   3.595   1.410   1.549
 1689SOL    HW1 5966   3.563   1.485   1.491
 1689SOL    HW2 5967   3.677   1.370   1.510
 1690SOL     OW 5968   0.721   2.366   0.523
 1690SOL    HW1 5969   0.764   2.438   0.576
 1690SOL    HW2 5970   0.784   2.289   0.514
 1691SOL     OW 5971   4.372   4.592   3.099
 1691SOL    HW1 5972   4.385   4.601   3.000
 1691SOL    HW2 5973   4.439   4.528   3.136
 1692SOL     OW 5974   0.931   0.352   3.661
 1692SOL    HW1 5975   0.911   0.424   3.728
 1692SOL    HW2 5976   0.846   0.312   3.627
 1693SOL     OW 5977   3.613   1.881   3.868
 1693SOL    HW1 5978   3.606   1.818   3.945
 1693SOL    HW2 5979   3.568   1.842   3.787
 1694SOL     OW 5980   6.246   5.720   5.235
 1694SOL    HW1 5981   6.270   5.715   5.138
 1694SOL    HW2 5982   6.217   5.630   5.267
 1695SOL     OW 5983   3.759   1.034   6.266
 1695SOL    HW1 5984   3.836   0.971   6.256
 1695SOL    HW2 5985   3.790   1.128   6.251
 1696SOL     OW 5986   3.393   5.692   2.073
 1696SOL    HW1 5987   3.442   5.690   1.986
 1696SOL    HW2 5988   3.350   5.782   2.085
 1697SOL     OW 5989   1.096   1.751   2.202
 1697SOL    HW1 5990   1.071   1.845   2.226
 1697SOL    HW2 5991   1.020   1.707   2.156
 1698SOL     OW 5992   4.725   1.839   0.899
 1698SOL    HW1 5993   4.708   1.772   0.971
 1698SOL    HW2 5994   4.824   1.853   0.889
 1699SOL     OW 5995   2.615   4.693   0.558
 1699SOL    HW1 5996   2.626   4.756   0.481
 1699SOL    HW2 5997   2.556   4.734   0.627
 1700SOL     OW 5998   5.831   2.433   4.139
 1700SOL    HW1 5999   5.820   2.394   4.231
 1700SOL    HW2 6000   5.884   2.518   4.145
 1701SOL     OW 6001   6.435   2.965   5.090
 1701SOL    HW1 6002   6.387   2.888   5.132
 1701SOL    HW2 6003   6.399   3.051   5.126
 1702SOL     OW 6004   4.494   2.841   1.712
 1702SOL    HW1 6005   4.424   2.886   1.658
 1702SOL    HW2 6006   4.533   2.905   1.778
 1703SOL     OW 6007   1.772   3.469   0.902
 1703SOL    HW1 6008   1.779   3.476   1.001
 1703SOL    HW2 6009   1.770   3.372   0.875
 1704SOL     OW 6010   0.278   1.415   2.567
 1704SOL    HW1 6011   0.228   1.331   2.591
 1704SOL    HW2 6012   0.359   1.391   2.514
 1705SOL     OW 6013   3.713   3.044   2.465
 1705SOL    HW1 6014   3.795   3.010   2.418
 1705SOL    HW2 6015   3.645   3.070   2.397
 1706SOL     OW 6016   1.953   0.596   6.279
 1706SOL    HW1 6017   1.903   0.512   6.259
 1706SOL    HW2 6018   1.922   0.634   6.366
 1707SOL     OW 6019   5.350   1.685   2.809
 1707SOL    HW1 6020   5.343   1.609   2.873
 1707SOL    HW2 6021   5.281   1.754   2.833
 1708SOL     OW 6022   6.982   4.168   1.715
 1708SOL    HW1 6023   0.054   4.175   1.724
 1708SOL    HW2 6024   6.956   4.071   1.712
 1709SOL     OW 6025   3.105   5.490   4.015
 1709SOL    HW1 6026   3.041   5.443   4.076
 1709SOL    HW2 6027   3.196   5.450   4.024
 1710SOL     OW 6028   6.661   4.998   4.570
 1710SOL    HW1 6029   6.615   4.947   4.498
 1710SOL    HW2 6030   6.756   4.968   4.576
 1711SOL     OW 6031   1.487   4.477   5.695
 1711SOL    HW1 6032   1.584   4.498   5.711
 1711SOL    HW2 6033   1.431   4.539   5.751
 1712SOL     OW 6034   2.110   4.867   1.841
 1712SOL    HW1 6035   2.178   4.919   1.892
 1712SOL    HW2 6036   2.036   4.928   1.812
 1713SOL     OW 6037   2.191   3.242   0.898
 1713SOL    HW1 6038   2.169   3.156   0.852
 1713SOL    HW2 6039   2.289   3.245   0.918
 1714SOL     OW 6040   4.209   1.049   1.510
 1714SOL    HW1 6041   4.134   1.076   1.570
 1714SOL    HW2 6042   4.173   0.995   1.434
 1715SOL     OW 6043   0.573   2.974   3.906
 1715SOL    HW1 6044   0.507   3.040   3.869
 1715SOL    HW2 6045   0.582   2.897   3.843
 1716SOL     OW 6046   0.352   0.438   6.767
 1716SOL    HW1 6047   0.402   0.360   6.729
 1716SOL    HW2 6048   0.303   0.485   6.694
 1717SOL     OW 6049   2.999   0.189   6.503
 1717SOL    HW1 6050   3.046   0.262   6.453
 1717SOL    HW2 6051   2.901   0.194   6.485
 1718SOL     OW 6052   1.750   4.114   5.585
 1718SOL    HW1 6053   1.730   4.022   5.619
 1718SOL    HW2 6054   1.795   4.108   5.496
 1719SOL     OW 6055   1.811   3.466   1.185
 1719SOL    HW1 6056   1.812   3.566   1.179
 1719SOL    HW2 6057   1.904   3.431   1.183
 1720SOL     OW 6058   0.045   1.884   2.268
 1720SOL    HW1 6059   7.022   1.908   2.350
 1720SOL    HW2 6060   7.010   1.851   2.198
 1721SOL     OW 6061   1.135   6.298   4.239
 1721SOL    HW1 6062   1.098   6.372   4.295
 1721SOL    HW2 6063   1.069   6.274   4.167
 1722SOL     OW 6064   5.723   0.077   1.954
 1722SOL    HW1 6065   5.682   0.167   1.945
 1722SOL    HW2 6066   5.726   0.032   1.865
 1723SOL     OW 6067   5.344   1.161   3.016
 1723SOL    HW1 6068   5.420   1.212   2.974
 1723SOL    HW2 6069   5.380   1.079   3.060
 1724SOL     OW 6070   5.080   0.385   0.312
 1724SOL    HW1 6071   5.094   0.400   0.215
 1724SOL    HW2 6072   5.030   0.462   0.351
 1725SOL     OW 6073   3.493   5.737   1.792
 1725SOL    HW1 6074   3.573   5.784   1.753
 1725SOL    HW2 6075   3.514   5.641   1.806
 1726SOL     OW 6076   6.878   4.109   4.656
 1726SOL    HW1 6077   6.891   4.028   4.599
 1726SOL    HW2 6078   6.933   4.100   4.739
 1727SOL     OW 6079   2.698   3.612   5.308
 1727SOL    HW1 6080   2.614   3.659   5.335
 1727SOL    HW2 6081   2.769   3.679   5.288
 1728SOL     OW 6082   4.394   5.697   3.377
 1728SOL    HW1 6083   4.428   5.771   3.435
 1728SOL    HW2 6084   4.342   5.632   3.434
 1729SOL     OW 6085   0.637   3.308   2.238
 1729SOL    HW1 6086   0.617   3.255   2.156
 1729SOL    HW2 6087   0.734   3.302   2.259
 1730SOL     OW 6088   4.981   1.971   4.808
 1730SOL    HW1 6089   4.998   2.032   4.730
 1730SOL    HW2 6090   5.061   1.972   4.868
 1731SOL     OW 6091   0.052   0.019   0.506
 1731SOL    HW1 6092   0.075   0.072   0.425
 1731SOL    HW2 6093   6.983   0.032   0.528
 1732SOL     OW 6094   0.799   4.524   6.827
 1732SOL    HW1 6095   0.726   4.592   6.828
 1732SOL    HW2 6096   0.774   4.448   6.887
 1733SOL     OW 6097   1.339   4.468   6.927
 1733SOL    HW1 6098   1.251   4.492   6.887
 1733SOL    HW2 6099   1.371   4.381   6.889
 1734SOL     OW 6100   5.150   4.001   1.104
 1734SOL    HW1 6101   5.129   4.058   1.024
 1734SOL    HW2 6102   5.069   3.990   1.160
 1735SOL     OW 6103   5.089   5.629   6.880
 1735SOL    HW1 6104   5.027   5.575   6.937
 1735SOL    HW2 6105   5.108   5.716   6.924
 1736SOL     OW 6106   2.975   3.322   0.347
 1736SOL    HW1 6107   2.960   3.305   0.444
 1736SOL    HW2 6108   3.014   3.414   0.335
 1737SOL     OW 6109   0.810   5.854   3.219
 1737SOL    HW1 6110   0.790   5.951   3.210
 1737SOL    HW2 6111   0.871   5.839   3.297
 1738SOL     OW 6112   0.634   1.235   1.939
 1738SOL    HW1 6113   0.623   1.172   1.863
 1738SOL    HW2 6114   0.727   1.228   1.975
 1739SOL     OW 6115   4.086   2.264   6.121
 1739SOL    HW1 6116   4.042   2.331   6.180
 1739SOL    HW2 6117   4.064   2.172   6.152
 1740SOL     OW 6118   0.593   2.015   6.228
 1740SOL    HW1 6119   0.593   1.939   6.163
 1740SOL    HW2 6120   0.687   2.036   6.256
 1741SOL     OW 6121   1.467   1.265   2.414
 1741SOL    HW1 6122   1.543   1.235   2.472
 1741SOL    HW2 6123   1.479   1.227   2.322
 1742SOL     OW 6124   5.752   6.033   4.103
 1742SOL    HW1 6125   5.767   5.935   4.092
 1742SOL    HW2 6126   5.663   6.049   4.147
 1743SOL     OW 6127   4.981   1.372   0.249
 1743SOL    HW1 6128   5.079   1.394   0.242
 1743SOL    HW2 6129   4.950   1.386   0.343
 1744SOL     OW 6130   3.471   6.423   1.409
 1744SOL    HW1 6131   3.410   6.347   1.386
 1744SOL    HW2 6132   3.557   6.386   1.446
 1745SOL     OW 6133   0.242   3.221   4.962
 1745SOL    HW1 6134   0.218   3.141   4.907
 1745SOL    HW2 6135   0.174   3.293   4.947
 1746SOL     OW 6136   2.365   1.034   5.953
 1746SOL    HW1 6137   2.356   1.059   5.856
 1746SOL    HW2 6138   2.447   0.979   5.966
 1747SOL     OW 6139   5.113   6.861   5.383
 1747SOL    HW1 6140   5.017   6.848   5.409
 1747SOL    HW2 6141   5.154   6.772   5.363
 1748SOL     OW 6142   5.629   1.032   1.859
 1748SOL    HW1 6143   5.646   0.937   1.835
 1748SOL    HW2 6144   5.716   1.078   1.878
 1749SOL     OW 6145   5.230   0.188   6.130
 1749SOL    HW1 6146   5.146   0.139   6.154
 1749SOL    HW2 6147   5.217   0.286   6.149
 1750SOL     OW 6148   3.987   0.648   4.027
 1750SOL    HW1 6149   3.956   0.647   3.932
 1750SOL    HW2 6150   4.041   0.565   4.045
 1751SOL     OW 6151   1.990   5.761   4.595
 1751SOL    HW1 6152   2.026   5.803   4.678
 1751SOL    HW2 6153   1.922   5.692   4.619
 1752SOL     OW 6154   6.901   2.073   6.380
 1752SOL    HW1 6155   6.861   2.108   6.295
 1752SOL    HW2 6156   7.000   2.079   6.376
 1753SOL     OW 6157   2.489   6.299   2.259
 1753SOL    HW1 6158   2.526   6.348   2.338
 1753SOL    HW2 6159   2.399   6.337   2.236
 1754SOL     OW 6160   2.992   3.142   2.288
 1754SOL    HW1 6161   2.951   3.147   2.379
 1754SOL    HW2 6162   2.949   3.210   2.228
 1755SOL     OW 6163   6.423   4.461   0.406
 1755SOL    HW1 6164   6.515   4.441   0.372
 1755SOL    HW2 6165   6.355   4.423   0.343
 1756SOL     OW 6166   5.873   5.241   4.839
 1756SOL    HW1 6167   5.824   5.228   4.752
 1756SOL    HW2 6168   5.969   5.216   4.827
 1757SOL     OW 6169   3.835   0.413   5.599
 1757SOL    HW1 6170   3.911   0.392   5.539
 1757SOL    HW2 6171   3.840   0.508   5.628
 1758SOL     OW 6172   3.196   1.373   3.394
 1758SOL    HW1 6173   3.128   1.410   3.458
 1758SOL    HW2 6174   3.188   1.420   3.306
 1759SOL     OW 6175   0.308   5.712   6.109
 1759SOL    HW1 6176   0.399   5.708   6.067
 1759SOL    HW2 6177   0.291   5.626   6.157
 1760SOL     OW 6178   4.867   6.536   2.210
 1760SOL    HW1 6179   4.833   6.446   2.182
 1760SOL    HW2 6180   4.958   6.551   2.171
 1761SOL     OW 6181   5.648   3.094   1.624
 1761SOL    HW1 6182   5.703   3.069   1.545
 1761SOL    HW2 6183   5.635   3.193   1.626
 1762SOL     OW 6184   5.621   3.027   0.731
 1762SOL    HW1 6185   5.710   3.067   0.753
 1762SOL    HW2 6186   5.551   3.099   0.730
 1763SOL     OW 6187   2.255   2.967   4.299
 1763SOL    HW1 6188   2.260   3.060   4.264
 1763SOL    HW2 6189   2.229   2.969   4.396
 1764SOL     OW 6190   6.554   3.490   3.244
 1764SOL    HW1 6191   6.532   3.524   3.336
 1764SOL    HW2 6192   6.593   3.399   3.251
 1765SOL     OW 6193   2.116   3.545   6.157
 1765SOL    HW1 6194   2.153   3.506   6.073
 1765SOL    HW2 6195   2.061   3.476   6.205
 1766SOL     OW 6196   6.186   3.732   5.790
 1766SOL    HW1 6197   6.219   3.676   5.866
 1766SOL    HW2 6198   6.177   3.827   5.820
 1767SOL     OW 6199   6.568   4.859   1.346
 1767SOL    HW1 6200   6.536   4.845   1.253
 1767SOL    HW2 6201   6.659   4.900   1.345
 1768SOL     OW 6202   5.911   6.524   3.218
 1768SOL    HW1 6203   5.939   6.565   3.304
 1768SOL    HW2 6204   5.831   6.465   3.233
 1769SOL     OW 6205   5.004   0.887   3.280
 1769SOL    HW1 6206   5.015   0.983   3.305
 1769SOL    HW2 6207   4.925   0.877   3.220
 1770SOL     OW 6208   3.668   5.811   5.380
 1770SOL    HW1 6209   3.728   5.757   5.439
 1770SOL    HW2 6210   3.604   5.863   5.436
 1771SOL     OW 6211   4.572   6.504   6.609
 1771SOL    HW1 6212   4.641   6.517   6.681
 1771SOL    HW2 6213   4.481   6.499   6.651
 1772SOL     OW 6214   2.767   6.368   2.647
 1772SOL    HW1 6215   2.798   6.274   2.667
 1772SOL    HW2 6216   2.740   6.413   2.732
 1773SOL     OW 6217   1.281   0.294   0.558
 1773SOL    HW1 6218   1.195   0.324   0.598
 1773SOL    HW2 6219   1.267   0.271   0.462
 1774SOL     OW 6220   2.820   4.896   2.651
 1774SOL    HW1 6221   2.919   4.901   2.637
 1774SOL    HW2 6222   2.779   4.986   2.635
 1775SOL     OW 6223   1.222   5.050   0.600
 1775SOL    HW1 6224   1.214   4.954   0.626
 1775SOL    HW2 6225   1.134   5.096   0.612
 1776SOL     OW 6226   3.006   6.038   5.251
 1776SOL    HW1 6227   3.104   6.057   5.260
 1776SOL    HW2 6228   2.966   6.026   5.341
 1777SOL     OW 6229   3.261   6.357   0.489
 1777SOL    HW1 6230   3.257   6.292   0.566
 1777SOL    HW2 6231   3.275   6.307   0.404
 1778SOL     OW 6232   6.742   3.062   5.901
 1778SOL    HW1 6233   6.680   3.047   5.824
 1778SOL    HW2 6234   6.727   2.991   5.970
 1779SOL     OW 6235   3.497   0.045   5.668
 1779SOL    HW1 6236   3.461   7.006   5.603
 1779SOL    HW2 6237   3.567   0.101   5.623
 1780SOL     OW 6238   3.189   3.015   7.010
 1780SOL    HW1 6239   3.129   3.033   0.060
 1780SOL    HW2 6240   3.209   3.101   6.963
 1781SOL     OW 6241   2.917   5.679   3.578
 1781SOL    HW1 6242   2.960   5.760   3.538
 1781SOL    HW2 6243   2.988   5.619   3.615
 1782SOL     OW 6244   3.042   1.704   4.449
 1782SOL    HW1 6245   2.960   1.712   4.394
 1782SOL    HW2 6246   3.017   1.686   4.544
 1783SOL     OW 6247   2.488   6.009   0.167
 1783SOL    HW1 6248   2.413   5.944   0.154
 1783SOL    HW2 6249   2.452   6.092   0.210
 1784SOL     OW 6250   2.453   0.000   6.097
 1784SOL    HW1 6251   2.487   6.982   6.179
 1784SOL    HW2 6252   2.392   6.967   6.047
 1785SOL     OW 6253   6.801   5.670   2.044
 1785SOL    HW1 6254   6.823   5.643   1.950
 1785SOL    HW2 6255   6.865   5.624   2.107
 1786SOL     OW 6256   3.978   2.651   1.719
 1786SOL    HW1 6257   3.928   2.722   1.767
 1786SOL    HW2 6258   4.077   2.668   1.726
 1787SOL     OW 6259   3.505   0.856   5.586
 1787SOL    HW1 6260   3.457   0.777   5.624
 1787SOL    HW2 6261   3.464   0.940   5.623
 1788SOL     OW 6262   1.310   4.967   5.456
 1788SOL    HW1 6263   1.392   5.012   5.422
 1788SOL    HW2 6264   1.316   4.869   5.441
 1789SOL     OW 6265   5.757   6.742   6.642
 1789SOL    HW1 6266   5.794   6.702   6.726
 1789SOL    HW2 6267   5.832   6.782   6.589
 1790SOL     OW 6268   2.420   0.034   2.398
 1790SOL    HW1 6269   2.394   7.017   2.483
 1790SOL    HW2 6270   2.516   0.063   2.404
 1791SOL     OW 6271   0.482   6.545   2.832
 1791SOL    HW1 6272   0.548   6.529   2.759
 1791SOL    HW2 6273   0.501   6.633   2.876
 1792SOL     OW 6274   1.013   3.509   4.303
 1792SOL    HW1 6275   1.072   3.506   4.222
 1792SOL    HW2 6276   0.918   3.501   4.275
 1793SOL     OW 6277   0.174   0.482   3.728
 1793SOL    HW1 6278   0.259   0.521   3.693
 1793SOL    HW2 6279   0.102   0.490   3.658
 1794SOL     OW 6280   4.730   5.957   6.581
 1794SOL    HW1 6281   4.730   5.894   6.503
 1794SOL    HW2 6282   4.819   6.002   6.588
 1795SOL     OW 6283   0.991   3.232   6.905
 1795SOL    HW1 6284   0.906   3.234   6.852
 1795SOL    HW2 6285   1.055   3.300   6.868
 1796SOL     OW 6286   3.780   0.340   6.044
 1796SOL    HW1 6287   3.704   0.397   6.012
 1796SOL    HW2 6288   3.760   0.307   6.136
 1797SOL     OW 6289   0.153   1.652   1.904
 1797SOL    HW1 6290   0.152   1.743   1.944
 1797SOL    HW2 6291   0.060   1.615   1.902
 1798SOL     OW 6292   5.673   1.515   2.958
 1798SOL    HW1 6293   5.612   1.594   2.963
 1798SOL    HW2 6294   5.768   1.545   2.971
 1799SOL     OW 6295   2.478   1.397   0.246
 1799SOL    HW1 6296   2.427   1.376   0.330
 1799SOL    HW2 6297   2.415   1.431   0.176
 1800SOL     OW 6298   3.101   4.927   2.535
 1800SOL    HW1 6299   3.060   4.899   2.448
 1800SOL    HW2 6300   3.134   5.021   2.527
 1801SOL     OW 6301   5.648   6.588   0.742
 1801SOL    HW1 6302   5.715   6.590   0.816
 1801SOL    HW2 6303   5.682   6.529   0.669
 1802SOL     OW 6304   6.057   4.869   3.942
 1802SOL    HW1 6305   6.111   4.933   3.889
 1802SOL    HW2 6306   5.972   4.913   3.972
 1803SOL     OW 6307   5.966   4.947   1.163
 1803SOL    HW1 6308   6.030   5.021   1.184
 1803SOL    HW2 6309   6.014   4.873   1.117
 1804SOL     OW 6310   3.080   3.589   6.140
 1804SOL    HW1 6311   3.083   3.560   6.236
 1804SOL    HW2 6312   3.065   3.509   6.082
 1805SOL     OW 6313   5.921   3.142   6.853
 1805SOL    HW1 6314   5.839   3.100   6.893
 1805SOL    HW2 6315   5.974   3.186   6.925
 1806SOL     OW 6316   6.585   0.468   0.627
 1806SOL    HW1 6317   6.659   0.448   0.563
 1806SOL    HW2 6318   6.521   0.532   0.585
 1807SOL     OW 6319   6.533   2.172   5.861
 1807SOL    HW1 6320   6.570   2.080   5.875
 1807SOL    HW2 6321   6.446   2.181   5.908
 1808SOL     OW 6322   2.363   4.700   4.265
 1808SOL    HW1 6323   2.400   4.777   4.317
 1808SOL    HW2 6324   2.348   4.623   4.326
 1809SOL     OW 6325   3.857   0.092   6.482
 1809SOL    HW1 6326   3.899   0.003   6.469
 1809SOL    HW2 6327   3.918   0.150   6.537
 1810SOL     OW 6328   3.062   6.623   2.505
 1810SOL    HW1 6329   3.160   6.605   2.507
 1810SOL    HW2 6330   3.013   6.546   2.545
 1811SOL     OW 6331   5.900   5.949   3.042
 1811SOL    HW1 6332   5.921   5.885   2.968
 1811SOL    HW2 6333   5.801   5.963   3.047
 1812SOL     OW 6334   4.160   5.043   5.757
 1812SOL    HW1 6335   4.167   5.040   5.857
 1812SOL    HW2 6336   4.211   5.122   5.723
 1813SOL     OW 6337   6.728   5.684   5.459
 1813SOL    HW1 6338   6.790   5.729   5.522
 1813SOL    HW2 6339   6.643   5.736   5.452
 1814SOL     OW 6340   4.744   6.160   2.419
 1814SOL    HW1 6341   4.780   6.229   2.481
 1814SOL    HW2 6342   4.649   6.184   2.395
 1815SOL     OW 6343   0.280   1.474   3.011
 1815SOL    HW1 6344   0.364   1.427   2.988
 1815SOL    HW2 6345   0.259   1.542   2.940
 1816SOL     OW 6346   1.203   5.375   0.485
 1816SOL    HW1 6347   1.129   5.330   0.536
 1816SOL    HW2 6348   1.171   5.463   0.451
 1817SOL     OW 6349   1.604   5.402   1.994
 1817SOL    HW1 6350   1.643   5.490   2.021
 1817SOL    HW2 6351   1.669   5.353   1.935
 1818SOL     OW 6352   1.132   1.610   3.635
 1818SOL    HW1 6353   1.163   1.629   3.728
 1818SOL    HW2 6354   1.055   1.547   3.637
 1819SOL     OW 6355   0.811   4.370   2.493
 1819SOL    HW1 6356   0.818   4.348   2.395
 1819SOL    HW2 6357   0.900   4.357   2.536
 1820SOL     OW 6358   5.642   0.010   2.779
 1820SOL    HW1 6359   5.704   0.059   2.840
 1820SOL    HW2 6360   5.667   0.028   2.684
 1821SOL     OW 6361   1.871   1.873   3.477
 1821SOL    HW1 6362   1.831   1.964   3.486
 1821SOL    HW2 6363   1.830   1.811   3.544
 1822SOL     OW 6364   2.990   3.794   2.198
 1822SOL    HW1 6365   2.989   3.803   2.098
 1822SOL    HW2 6366   3.056   3.723   2.224
 1823SOL     OW 6367   4.603   0.075   2.448
 1823SOL    HW1 6368   4.681   0.131   2.475
 1823SOL    HW2 6369   4.635   7.017   2.409
 1824SOL     OW 6370   5.348   2.006   1.468
 1824SOL    HW1 6371   5.444   1.993   1.446
 1824SOL    HW2 6372   5.335   2.096   1.510
 1825SOL     OW 6373   0.484   0.501   1.933
 1825SOL    HW1 6374   0.501   0.530   2.027
 1825SOL    HW2 6375   0.568   0.466   1.893
 1826SOL     OW 6376   3.022   5.943   6.116
 1826SOL    HW1 6377   3.039   5.877   6.189
 1826SOL    HW2 6378   3.041   6.036   6.149
 1827SOL     OW 6379   6.004   7.016   1.372
 1827SOL    HW1 6380   6.070   0.055   1.336
 1827SOL    HW2 6381   5.929   0.036   1.417
 1828SOL     OW 6382   1.661   2.732   0.235
 1828SOL    HW1 6383   1.681   2.824   0.271
 1828SOL    HW2 6384   1.565   2.710   0.252
 1829SOL     OW 6385   5.975   5.433   2.262
 1829SOL    HW1 6386   6.054   5.391   2.218
 1829SOL    HW2 6387   5.959   5.389   2.351
 1830SOL     OW 6388   5.248   6.609   4.039
 1830SOL    HW1 6389   5.298   6.674   3.981
 1830SOL    HW2 6390   5.294   6.520   4.036
 1831SOL     OW 6391   5.389   0.581   3.232
 1831SOL    HW1 6392   5.349   0.654   3.286
 1831SOL    HW2 6393   5.435   0.619   3.153
 1832SOL     OW 6394   4.741   2.198   0.216
 1832SOL    HW1 6395   4.726   2.296   0.235
 1832SOL    HW2 6396   4.660   2.147   0.241
 1833SOL     OW 6397   5.478   1.975   5.499
 1833SOL    HW1 6398   5.515   2.068   5.506
 1833SOL    HW2 6399   5.551   1.912   5.476
 1834SOL     OW 6400   2.973   3.952   0.207
 1834SOL    HW1 6401   2.916   4.031   0.187
 1834SOL    HW2 6402   2.915   3.870   0.212
 1835SOL     OW 6403   1.953   4.436   6.788
 1835SOL    HW1 6404   2.006   4.519   6.775
 1835SOL    HW2 6405   1.856   4.458   6.789
 1836SOL     OW 6406   0.832   6.702   0.693
 1836SOL    HW1 6407   0.825   6.638   0.769
 1836SOL    HW2 6408   0.762   6.773   0.702
 1837SOL     OW 6409   0.715   2.464   4.906
 1837SOL    HW1 6410   0.654   2.542   4.892
 1837SOL    HW2 6411   0.808   2.490   4.880
 1838SOL     OW 6412   0.689   2.937   5.198
 1838SOL    HW1 6413   0.675   2.943   5.297
 1838SOL    HW2 6414   0.784   2.958   5.176
 1839SOL     OW 6415   1.163   1.707   6.871
 1839SOL    HW1 6416   1.212   1.645   6.934
 1839SOL    HW2 6417   1.072   1.670   6.854
 1840SOL     OW 6418   1.033   5.127   1.335
 1840SOL    HW1 6419   1.063   5.136   1.430
 1840SOL    HW2 6420   1.028   5.218   1.293
 1841SOL     OW 6421   1.000   2.766   3.781
 1841SOL    HW1 6422   0.938   2.758   3.859
 1841SOL    HW2 6423   1.088   2.802   3.811
 1842SOL     OW 6424   0.797   5.786   6.337
 1842SOL    HW1 6425   0.877   5.829   6.294
 1842SOL    HW2 6426   0.806   5.791   6.436
 1843SOL     OW 6427   4.516   2.183   5.077
 1843SOL    HW1 6428   4.439   2.233   5.035
 1843SOL    HW2 6429   4.566   2.133   5.006
 1844SOL     OW 6430   5.717   4.607   3.599
 1844SOL    HW1 6431   5.738   4.513   3.625
 1844SOL    HW2 6432   5.629   4.610   3.552
 1845SOL     OW 6433   4.691   6.367   0.906
 1845SOL    HW1 6434   4.684   6.435   0.833
 1845SOL    HW2 6435   4.731   6.409   0.987
 1846SOL     OW 6436   3.685   1.441   5.692
 1846SOL    HW1 6437   3.732   1.433   5.780
 1846SOL    HW2 6438   3.753   1.459   5.620
 1847SOL     OW 6439   1.334   6.459   6.372
 1847SOL    HW1 6440   1.251   6.472   6.427
 1847SOL    HW2 6441   1.334   6.524   6.296
 1848SOL     OW 6442   1.906   0.415   3.113
 1848SOL    HW1 6443   1.970   0.447   3.183
 1848SOL    HW2 6444   1.831   0.365   3.157
 1849SOL     OW 6445   2.812   0.434   6.656
 1849SOL    HW1 6446   2.742   0.372   6.691
 1849SOL    HW2 6447   2.787   0.464   6.564
 1850SOL     OW 6448   5.466   1.719   2.305
 1850SOL    HW1 6449   5.378   1.758   2.277
 1850SOL    HW2 6450   5.500   1.765   2.387
 1851SOL     OW 6451   6.381   4.141   3.045
 1851SOL    HW1 6452   6.423   4.071   2.986
 1851SOL    HW2 6453   6.363   4.102   3.135
 1852SOL     OW 6454   5.225   1.458   5.576
 1852SOL    HW1 6455   5.250   1.363   5.559
 1852SOL    HW2 6456   5.139   1.462   5.626
 1853SOL     OW 6457   1.233   4.796   0.698
 1853SOL    HW1 6458   1.332   4.784   0.707
 1853SOL    HW2 6459   1.186   4.722   0.745
 1854SOL     OW 6460   2.688   5.119   3.773
 1854SOL    HW1 6461   2.644   5.039   3.814
 1854SOL    HW2 6462   2.618   5.180   3.735
 1855SOL     OW 6463   6.466   4.388   2.574
 1855SOL    HW1 6464   6.557   4.369   2.612
 1855SOL    HW2 6465   6.450   4.486   2.576
 1856SOL     OW 6466   5.102   2.923   6.866
 1856SOL    HW1 6467   5.131   2.961   6.954
 1856SOL    HW2 6468   5.015   2.965   6.839
 1857SOL     OW 6469   5.007   1.518   3.130
 1857SOL    HW1 6470   5.077   1.576   3.173
 1857SOL    HW2 6471   4.994   1.547   3.036
 1858SOL     OW 6472   5.638   4.076   3.174
 1858SOL    HW1 6473   5.658   4.058   3.270
 1858SOL    HW2 6474   5.553   4.129   3.168
 1859SOL     OW 6475   6.152   1.762   2.955
 1859SOL    HW1 6476   6.216   1.753   3.032
 1859SOL    HW2 6477   6.178   1.699   2.882
 1860SOL     OW 6478   3.976   2.153   4.689
 1860SOL    HW1 6479   3.968   2.085   4.762
 1860SOL    HW2 6480   3.990   2.243   4.729
 1861SOL     OW 6481   5.001   6.006   2.262
 1861SOL    HW1 6482   4.979   6.101   2.288
 1861SOL    HW2 6483   5.004   5.999   2.162
 1862SOL     OW 6484   2.487   1.137   0.596
 1862SOL    HW1 6485   2.449   1.047   0.573
 1862SOL    HW2 6486   2.441   1.207   0.542
 1863SOL     OW 6487   1.881   2.244   1.462
 1863SOL    HW1 6488   1.930   2.292   1.534
 1863SOL    HW2 6489   1.817   2.306   1.417
 1864SOL     OW 6490   0.632   6.283   3.106
 1864SOL    HW1 6491   0.567   6.248   3.038
 1864SOL    HW2 6492   0.702   6.338   3.060
 1865SOL     OW 6493   4.843   2.599   6.654
 1865SOL    HW1 6494   4.784   2.667   6.612
 1865SOL    HW2 6495   4.939   2.627   6.644
 1866SOL     OW 6496   5.520   5.372   1.704
 1866SOL    HW1 6497   5.484   5.418   1.623
 1866SOL    HW2 6498   5.545   5.278   1.681
 1867SOL     OW 6499   0.551   4.733   6.568
 1867SOL    HW1 6500   0.525   4.648   6.523
 1867SOL    HW2 6501   0.628   4.774   6.519
 1868SOL     OW 6502   6.807   3.805   5.780
 1868SOL    HW1 6503   6.898   3.846   5.786
 1868SOL    HW2 6504   6.765   3.831   5.694
 1869SOL     OW 6505   5.897   1.963   4.334
 1869SOL    HW1 6506   5.958   1.931   4.262
 1869SOL    HW2 6507   5.888   1.893   4.404
 1870SOL     OW 6508   2.247   4.174   4.800
 1870SOL    HW1 6509   2.287   4.257   4.840
 1870SOL    HW2 6510   2.283   4.094   4.848
 1871SOL     OW 6511   1.553   0.377   0.609
 1871SOL    HW1 6512   1.460   0.342   0.602
 1871SOL    HW2 6513   1.555   0.458   0.669
 1872SOL     OW 6514   1.761   4.790   6.668
 1872SOL    HW1 6515   1.683   4.735   6.698
 1872SOL    HW2 6516   1.730   4.858   6.602
 1873SOL     OW 6517   5.098   0.153   6.968
 1873SOL    HW1 6518   5.133   0.143   6.874
 1873SOL    HW2 6519   5.060   0.066   6.998
 1874SOL     OW 6520   0.287   3.958   2.733
 1874SOL    HW1 6521   0.380   3.924   2.724
 1874SOL    HW2 6522   0.263   3.964   2.830
 1875SOL     OW 6523   0.713   6.426   1.953
 1875SOL    HW1 6524   0.721   6.435   1.853
 1875SOL    HW2 6525   0.759   6.342   1.982
 1876SOL     OW 6526   1.973   6.878   3.387
 1876SOL    HW1 6527   2.033   6.852   3.463
 1876SOL    HW2 6528   2.023   6.869   3.301
 1877SOL     OW 6529   0.225   0.009   3.890
 1877SOL    HW1 6530   0.322   0.020   3.870
 1877SOL    HW2 6531   0.172   0.077   3.839
 1878SOL     OW 6532   6.042   2.633   5.719
 1878SOL    HW1 6533   6.005   2.632   5.812
 1878SOL    HW2 6534   6.011   2.716   5.672
 1879SOL     OW 6535   1.412   4.647   6.166
 1879SOL    HW1 6536   1.493   4.676   6.218
 1879SOL    HW2 6537   1.433   4.565   6.114
 1880SOL     OW 6538   6.363   0.199   4.978
 1880SOL    HW1 6539   6.391   0.210   4.883
 1880SOL    HW2 6540   6.289   0.132   4.983
 1881SOL     OW 6541   6.818   2.178   0.062
 1881SOL    HW1 6542   6.749   2.239   0.024
 1881SOL    HW2 6543   6.855   2.219   0.146
 1882SOL     OW 6544   1.404   6.615   0.192
 1882SOL    HW1 6545   1.327   6.632   0.131
 1882SOL    HW2 6546   1.370   6.579   0.279
 1883SOL     OW 6547   0.221   1.742   3.998
 1883SOL    HW1 6548   0.162   1.662   4.001
 1883SOL    HW2 6549   0.232   1.772   3.904
 1884SOL     OW 6550   6.747   2.094   1.189
 1884SOL    HW1 6551   6.708   2.150   1.116
 1884SOL    HW2 6552   6.683   2.091   1.266
 1885SOL     OW 6553   2.733   1.482   4.275
 1885SOL    HW1 6554   2.676   1.494   4.356
 1885SOL    HW2 6555   2.780   1.394   4.280
 1886SOL     OW 6556   0.439   6.077   3.045
 1886SOL    HW1 6557   0.456   6.055   3.141
 1886SOL    HW2 6558   0.431   5.993   2.991
 1887SOL     OW 6559   2.621   6.120   6.178
 1887SOL    HW1 6560   2.603   6.030   6.219
 1887SOL    HW2 6561   2.631   6.110   6.079
 1888SOL     OW 6562   2.312   0.534   2.919
 1888SOL    HW1 6563   2.264   0.508   3.003
 1888SOL    HW2 6564   2.361   0.620   2.935
 1889SOL     OW 6565   0.255   3.189   2.943
 1889SOL    HW1 6566   0.244   3.288   2.952
 1889SOL    HW2 6567   0.229   3.160   2.851
 1890SOL     OW 6568   1.557   5.963   4.727
 1890SOL    HW1 6569   1.480   5.913   4.766
 1890SOL    HW2 6570   1.610   5.903   4.668
 1891SOL     OW 6571   3.728   3.175   3.561
 1891SOL    HW1 6572   3.725   3.217   3.470
 1891SOL    HW2 6573   3.795   3.101   3.561
 1892SOL     OW 6574   0.398   0.439   2.578
 1892SOL    HW1 6575   0.304   0.430   2.612
 1892SOL    HW2 6576   0.444   0.351   2.584
 1893SOL     OW 6577   3.558   3.146   4.526
 1893SOL    HW1 6578   3.570   3.245   4.517
 1893SOL    HW2 6579   3.620   3.099   4.463
 1894SOL     OW 6580   3.008   3.503   3.930
 1894SOL    HW1 6581   3.100   3.492   3.891
 1894SOL    HW2 6582   2.993   3.434   4.001
 1895SOL     OW 6583   1.443   5.957   1.159
 1895SOL    HW1 6584   1.372   6.026   1.144
 1895SOL    HW2 6585   1.511   5.963   1.086
 1896SOL     OW 6586   6.356   2.447   1.150
 1896SOL    HW1 6587   6.386   2.361   1.109
 1896SOL    HW2 6588   6.283   2.428   1.216
 1897SOL     OW 6589   1.191   4.448   3.820
 1897SOL    HW1 6590   1.264   4.391   3.783
 1897SOL    HW2 6591   1.185   4.434   3.919
 1898SOL     OW 6592   1.839   6.069   2.786
 1898SOL    HW1 6593   1.914   6.060   2.851
 1898SOL    HW2 6594   1.759   6.019   2.821
 1899SOL     OW 6595   0.162   1.098   2.323
 1899SOL    HW1 6596   0.168   0.999   2.307
 1899SOL    HW2 6597   0.220   1.145   2.257
 1900SOL     OW 6598   2.675   6.686   6.759
 1900SOL    HW1 6599   2.745   6.728   6.702
 1900SOL    HW2 6600   2.642   6.752   6.826
 1901SOL     OW 6601   2.900   3.406   2.172
 1901SOL    HW1 6602   2.866   3.466   2.244
 1901SOL    HW2 6603   2.885   3.449   2.083
 1902SOL     OW 6604   1.484   6.718   4.927
 1902SOL    HW1 6605   1.452   6.709   5.021
 1902SOL    HW2 6606   1.500   6.627   4.888
 1903SOL     OW 6607   1.538   1.894   4.195
 1903SOL    HW1 6608   1.586   1.981   4.180
 1903SOL    HW2 6609   1.565   1.828   4.125
 1904SOL     OW 6610   6.089   5.848   1.356
 1904SOL    HW1 6611   6.035   5.874   1.276
 1904SOL    HW2 6612   6.034   5.860   1.439
 1905SOL     OW 6613   0.785   2.116   3.994
 1905SOL    HW1 6614   0.705   2.089   4.048
 1905SOL    HW2 6615   0.830   2.034   3.959
 1906SOL     OW 6616   0.443   6.265   4.205
 1906SOL    HW1 6617   0.528   6.268   4.257
 1906SOL    HW2 6618   0.412   6.170   4.197
 1907SOL     OW 6619   5.922   3.283   0.900
 1907SOL    HW1 6620   5.894   3.196   0.941
 1907SOL    HW2 6621   5.870   3.298   0.816
 1908SOL     OW 6622   3.621   0.946   1.569
 1908SOL    HW1 6623   3.716   0.976   1.563
 1908SOL    HW2 6624   3.578   0.985   1.651
 1909SOL     OW 6625   6.263   5.366   5.041
 1909SOL    HW1 6626   6.186   5.401   4.988
 1909SOL    HW2 6627   6.339   5.431   5.037
 1910SOL     OW 6628   0.479   5.941   5.675
 1910SOL    HW1 6629   0.421   5.914   5.598
 1910SOL    HW2 6630   0.488   5.864   5.738
 1911SOL     OW 6631   6.013   6.073   4.244
 1911SOL    HW1 6632   5.916   6.070   4.221
 1911SOL    HW2 6633   6.029   6.144   4.314
 1912SOL     OW 6634   3.619   5.078   2.359
 1912SOL    HW1 6635   3.545   5.018   2.388
 1912SOL    HW2 6636   3.633   5.070   2.260
 1913SOL     OW 6637   2.713   4.397   6.662
 1913SOL    HW1 6638   2.750   4.336   6.592
 1913SOL    HW2 6639   2.649   4.346   6.720
 1914SOL     OW 6640   3.644   4.381   0.563
 1914SOL    HW1 6641   3.695   4.296   0.547
 1914SOL    HW2 6642   3.558   4.361   0.610
 1915SOL     OW 6643   3.673   3.039   0.052
 1915SOL    HW1 6644   3.745   2.986   0.007
 1915SOL    HW2 6645   3.660   3.125   0.004
 1916SOL     OW 6646   4.236   1.196   2.190
 1916SOL    HW1 6647   4.295   1.171   2.267
 1916SOL    HW2 6648   4.209   1.113   2.140
 1917SOL     OW 6649   2.185   3.882   1.309
 1917SOL    HW1 6650   2.153   3.975   1.327
 1917SOL    HW2 6651   2.120   3.816   1.346
 1918SOL     OW 6652   5.250   2.151   3.682
 1918SOL    HW1 6653   5.189   2.120   3.609
 1918SOL    HW2 6654   5.196   2.178   3.762
 1919SOL     OW 6655   6.255   2.324   6.210
 1919SOL    HW1 6656   6.281   2.253   6.145
 1919SOL    HW2 6657   6.273   2.414   6.169
 1920SOL     OW 6658   4.426   3.471   0.392
 1920SOL    HW1 6659   4.395   3.377   0.410
 1920SOL    HW2 6660   4.442   3.482   0.294
 1921SOL     OW 6661   2.606   2.308   0.438
 1921SOL    HW1 6662   2.692   2.358   0.437
 1921SOL    HW2 6663   2.618   2.220   0.390
 1922SOL     OW 6664   3.186   3.632   4.240
 1922SOL    HW1 6665   3.120   3.558   4.251
 1922SOL    HW2 6666   3.139   3.720   4.243
 1923SOL     OW 6667   3.109   0.774   4.085
 1923SOL    HW1 6668   3.204   0.779   4.056
 1923SOL    HW2 6669   3.097   0.822   4.171
 1924SOL     OW 6670   5.452   0.917   0.639
 1924SOL    HW1 6671   5.548   0.944   0.651
 1924SOL    HW2 6672   5.444   0.854   0.562
 1925SOL     OW 6673   1.148   4.313   0.850
 1925SOL    HW1 6674   1.062   4.335   0.897
 1925SOL    HW2 6675   1.190   4.234   0.893
 1926SOL     OW 6676   3.459   0.100   1.627
 1926SOL    HW1 6677   3.541   0.061   1.669
 1926SOL    HW2 6678   3.480   0.190   1.590
 1927SOL     OW 6679   2.234   5.660   0.997
 1927SOL    HW1 6680   2.186   5.681   0.912
 1927SOL    HW2 6681   2.173   5.611   1.058
 1928SOL     OW 6682   0.108   4.240   3.156
 1928SOL    HW1 6683   0.081   4.181   3.232
 1928SOL    HW2 6684   0.026   4.285   3.119
 1929SOL     OW 6685   3.342   6.939   3.411
 1929SOL    HW1 6686   3.350   6.950   3.510
 1929SOL    HW2 6687   3.285   7.013   3.374
 1930SOL     OW 6688   3.494   3.407   0.445
 1930SOL    HW1 6689   3.545   3.476   0.393
 1930SOL    HW2 6690   3.543   3.320   0.441
 1931SOL     OW 6691   6.437   3.508   3.745
 1931SOL    HW1 6692   6.507   3.441   3.719
 1931SOL    HW2 6693   6.472   3.567   3.817
 1932SOL     OW 6694   5.062   0.519   2.180
 1932SOL    HW1 6695   5.131   0.460   2.221
 1932SOL    HW2 6696   5.089   0.615   2.192
 1933SOL     OW 6697   1.548   1.882   1.328
 1933SOL    HW1 6698   1.562   1.791   1.369
 1933SOL    HW2 6699   1.549   1.874   1.229
 1934SOL     OW 6700   6.847   1.251   6.774
 1934SOL    HW1 6701   6.831   1.198   6.857
 1934SOL    HW2 6702   6.773   1.317   6.762
 1935SOL     OW 6703   5.808   5.283   3.820
 1935SOL    HW1 6704   5.759   5.293   3.907
 1935SOL    HW2 6705   5.759   5.333   3.749
 1936SOL     OW 6706   5.126   3.156   6.519
 1936SOL    HW1 6707   5.063   3.224   6.556
 1936SOL    HW2 6708   5.146   3.178   6.424
 1937SOL     OW 6709   0.341   4.674   6.939
 1937SOL    HW1 6710   0.337   4.757   6.994
 1937SOL    HW2 6711   0.265   4.674   6.873
 1938SOL     OW 6712   6.649   2.004   0.213
 1938SOL    HW1 6713   6.669   1.907   0.227
 1938SOL    HW2 6714   6.735   2.055   0.201
 1939SOL     OW 6715   0.325   0.053   4.144
 1939SOL    HW1 6716   0.286   0.034   4.054
 1939SOL    HW2 6717   0.386   0.132   4.139
 1940SOL     OW 6718   1.241   5.153   1.631
 1940SOL    HW1 6719   1.212   5.150   1.727
 1940SOL    HW2 6720   1.235   5.247   1.597
 1941SOL     OW 6721   5.883   1.030   4.602
 1941SOL    HW1 6722   5.942   0.988   4.534
 1941SOL    HW2 6723   5.837   1.109   4.563
 1942SOL     OW 6724   0.601   5.448   1.846
 1942SOL    HW1 6725   0.546   5.449   1.930
 1942SOL    HW2 6726   0.545   5.416   1.770
 1943SOL     OW 6727   0.991   3.075   4.152
 1943SOL    HW1 6728   0.931   3.105   4.079
 1943SOL    HW2 6729   1.082   3.056   4.116
 1944SOL     OW 6730   0.767   3.161   3.986
 1944SOL    HW1 6731   0.699   3.099   3.947
 1944SOL    HW2 6732   0.727   3.211   4.063
 1945SOL     OW 6733   5.220   1.628   2.451
 1945SOL    HW1 6734   5.176   1.553   2.403
 1945SOL    HW2 6735   5.300   1.594   2.500
 1946SOL     OW 6736   5.929   5.832   0.521
 1946SOL    HW1 6737   5.851   5.891   0.538
 1946SOL    HW2 6738   5.951   5.781   0.604
 1947SOL     OW 6739   5.856   5.720   2.652
 1947SOL    HW1 6740   5.904   5.745   2.736
 1947SOL    HW2 6741   5.757   5.725   2.668
 1948SOL     OW 6742   5.399   3.389   3.411
 1948SOL    HW1 6743   5.371   3.428   3.499
 1948SOL    HW2 6744   5.415   3.464   3.346
 1949SOL     OW 6745   3.652   4.524   6.539
 1949SOL    HW1 6746   3.743   4.552   6.509
 1949SOL    HW2 6747   3.660   4.463   6.617
 1950SOL     OW 6748   3.951   3.855   3.752
 1950SOL    HW1 6749   3.975   3.759   3.739
 1950SOL    HW2 6750   3.968   3.906   3.667
 1951SOL     OW 6751   6.638   5.672   6.228
 1951SOL    HW1 6752   6.647   5.608   6.152
 1951SOL    HW2 6753   6.728   5.704   6.257
 1952SOL     OW 6754   5.769   3.893   6.736
 1952SOL    HW1 6755   5.679   3.916   6.772
 1952SOL    HW2 6756   5.839   3.918   6.803
 1953SOL     OW 6757   0.448   0.804   0.090
 1953SOL    HW1 6758   0.466   0.727   0.030
 1953SOL    HW2 6759   0.485   0.785   0.181
 1954SOL     OW 6760   3.759   6.918   2.096
 1954SOL    HW1 6761   3.794   6.991   2.037
 1954SOL    HW2 6762   3.792   6.932   2.189
 1955SOL     OW 6763   6.548   2.527   4.053
 1955SOL    HW1 6764   6.592   2.459   3.995
 1955SOL    HW2 6765   6.471   2.485   4.102
 1956SOL     OW 6766   4.778   1.355   1.320
 1956SOL    HW1 6767   4.797   1.382   1.225
 1956SOL    HW2 6768   4.758   1.257   1.322
 1957SOL     OW 6769   6.362   2.529   4.347
 1957SOL    HW1 6770   6.393   2.450   4.400
 1957SOL    HW2 6771   6.318   2.498   4.263
 1958SOL     OW 6772   4.407   1.809   0.402
 1958SOL    HW1 6773   4.430   1.816   0.499
 1958SOL    HW2 6774   4.307   1.802   0.392
 1959SOL     OW 6775   1.499   1.643   5.893
 1959SOL    HW1 6776   1.415   1.644   5.839
 1959SOL    HW2 6777   1.576   1.616   5.834
 1960SOL     OW 6778   5.368   4.256   2.606
 1960SOL    HW1 6779   5.331   4.168   2.635
 1960SOL    HW2 6780   5.359   4.265   2.507
 1961SOL     OW 6781   0.382   3.979   4.524
 1961SOL    HW1 6782   0.298   3.977   4.579
 1961SOL    HW2 6783   0.449   4.039   4.568
 1962SOL     OW 6784   0.383   0.068   2.012
 1962SOL    HW1 6785   0.299   0.041   1.966
 1962SOL    HW2 6786   0.421   7.017   2.061
 1963SOL     OW 6787   0.837   2.189   0.191
 1963SOL    HW1 6788   0.884   2.215   0.275
 1963SOL    HW2 6789   0.877   2.237   0.114
 1964SOL     OW 6790   5.734   3.516   0.890
 1964SOL    HW1 6791   5.744   3.612   0.864
 1964SOL    HW2 6792   5.761   3.457   0.814
 1965SOL     OW 6793   5.911   4.848   4.591
 1965SOL    HW1 6794   5.879   4.791   4.666
 1965SOL    HW2 6795   6.000   4.887   4.614
 1966SOL     OW 6796   0.881   5.497   6.703
 1966SOL    HW1 6797   0.848   5.407   6.732
 1966SOL    HW2 6798   0.913   5.491   6.608
 1967SOL     OW 6799   6.733   2.631   4.844
 1967SOL    HW1 6800   6.818   2.661   4.801
 1967SOL    HW2 6801   6.656   2.674   4.798
 1968SOL     OW 6802   2.683   1.366   6.172
 1968SOL    HW1 6803   2.686   1.410   6.262
 1968SOL    HW2 6804   2.594   1.323   6.159
 1969SOL     OW 6805   0.711   6.085   1.018
 1969SOL    HW1 6806   0.664   6.025   1.083
 1969SOL    HW2 6807   0.733   6.172   1.062
 1970SOL     OW 6808   5.331   4.190   3.683
 1970SOL    HW1 6809   5.237   4.221   3.669
 1970SOL    HW2 6810   5.388   4.225   3.608
 1971SOL     OW 6811   2.168   5.326   4.464
 1971SOL    HW1 6812   2.237   5.258   4.491
 1971SOL    HW2 6813   2.208   5.418   4.470
 1972SOL     OW 6814   5.688   2.197   2.695
 1972SOL    HW1 6815   5.669   2.245   2.781
 1972SOL    HW2 6816   5.635   2.239   2.621
 1973SOL     OW 6817   3.650   2.268   0.629
 1973SOL    HW1 6818   3.630   2.199   0.698
 1973SOL    HW2 6819   3.599   2.351   0.649
 1974SOL     OW 6820   2.230   6.592   4.625
 1974SOL    HW1 6821   2.306   6.655   4.608
 1974SOL    HW2 6822   2.221   6.578   4.724
 1975SOL     OW 6823   2.105   2.974   2.018
 1975SOL    HW1 6824   2.159   3.057   2.006
 1975SOL    HW2 6825   2.108   2.945   2.113
 1976SOL     OW 6826   1.679   1.114   5.281
 1976SOL    HW1 6827   1.647   1.074   5.195
 1976SOL    HW2 6828   1.690   1.042   5.350
 1977SOL     OW 6829   1.013   3.659   6.680
 1977SOL    HW1 6830   0.932   3.603   6.662
 1977SOL    HW2 6831   0.985   3.746   6.721
 1978SOL     OW 6832   2.657   0.356   1.943
 1978SOL    HW1 6833   2.666   0.347   2.042
 1978SOL    HW2 6834   2.748   0.363   1.902
 1979SOL     OW 6835   5.363   3.731   6.383
 1979SOL    HW1 6836   5.314   3.785   6.314
 1979SOL    HW2 6837   5.362   3.634   6.357
 1980SOL     OW 6838   3.927   0.503   1.300
 1980SOL    HW1 6839   3.912   0.602   1.300
 1980SOL    HW2 6840   4.009   0.481   1.247
 1981SOL     OW 6841   4.353   2.150   1.788
 1981SOL    HW1 6842   4.270   2.118   1.834
 1981SOL    HW2 6843   4.364   2.248   1.803
 1982SOL     OW 6844   1.532   2.696   6.563
 1982SOL    HW1 6845   1.541   2.651   6.652
 1982SOL    HW2 6846   1.493   2.787   6.575
 1983SOL     OW 6847   0.389   1.687   1.731
 1983SOL    HW1 6848   0.310   1.701   1.790
 1983SOL    HW2 6849   0.473   1.710   1.781
 1984SOL     OW 6850   4.619   3.507   5.622
 1984SOL    HW1 6851   4.533   3.558   5.619
 1984SOL    HW2 6852   4.692   3.563   5.584
 1985SOL     OW 6853   5.937   4.594   4.219
 1985SOL    HW1 6854   6.028   4.634   4.211
 1985SOL    HW2 6855   5.869   4.658   4.184
 1986SOL     OW 6856   2.914   3.635   2.877
 1986SOL    HW1 6857   2.947   3.729   2.866
 1986SOL    HW2 6858   2.914   3.611   2.974
 1987SOL     OW 6859   1.888   1.533   1.862
 1987SOL    HW1 6860   1.943   1.483   1.795
 1987SOL    HW2 6861   1.901   1.631   1.848
 1988SOL     OW 6862   1.228   2.245   2.965
 1988SOL    HW1 6863   1.129   2.252   2.950
 1988SOL    HW2 6864   1.273   2.327   2.930
 1989SOL     OW 6865   3.411   5.427   4.248
 1989SOL    HW1 6866   3.494   5.404   4.197
 1989SOL    HW2 6867   3.349   5.478   4.189
 1990SOL     OW 6868   4.596   6.365   0.567
 1990SOL    HW1 6869   4.644   6.432   0.623
 1990SOL    HW2 6870   4.504   6.398   0.545
 1991SOL     OW 6871   3.088   5.912   1.897
 1991SOL    HW1 6872   3.048   6.002   1.914
 1991SOL    HW2 6873   3.020   5.853   1.854
 1992SOL     OW 6874   1.361   6.763   3.271
 1992SOL    HW1 6875   1.411   6.792   3.352
 1992SOL    HW2 6876   1.399   6.677   3.237
 1993SOL     OW 6877   1.941   1.729   2.109
 1993SOL    HW1 6878   1.979   1.749   2.019
 1993SOL    HW2 6879   1.901   1.638   2.110
 1994SOL     OW 6880   3.124   3.539   1.568
 1994SOL    HW1 6881   3.070   3.596   1.506
 1994SOL    HW2 6882   3.199   3.497   1.517
 1995SOL     OW 6883   6.116   1.194   4.151
 1995SOL    HW1 6884   6.145   1.289   4.161
 1995SOL    HW2 6885   6.087   1.177   4.057
 1996SOL     OW 6886   4.420   0.299   0.974
 1996SOL    HW1 6887   4.456   0.358   0.902
 1996SOL    HW2 6888   4.443   0.337   1.063
 1997SOL     OW 6889   3.664   1.566   3.293
 1997SOL    HW1 6890   3.585   1.517   3.330
 1997SOL    HW2 6891   3.744   1.506   3.296
 1998SOL     OW 6892   2.533   3.898   1.218
 1998SOL    HW1 6893   2.511   3.824   1.282
 1998SOL    HW2 6894   2.512   3.868   1.125
 1999SOL     OW 6895   0.780   7.010   6.479
 1999SOL    HW1 6896   0.875   6.996   6.449
 1999SOL    HW2 6897   0.719   6.955   6.421
 2000SOL     OW 6898   4.317   4.491   6.568
 2000SOL    HW1 6899   4.283   4.441   6.489
 2000SOL    HW2 6900   4.246   4.554   6.602
 2001SOL     OW 6901   1.473   2.109   0.904
 2001SOL    HW1 6902   1.427   2.085   0.989
 2001SOL    HW2 6903   1.419   2.075   0.827
 2002SOL     OW 6904   6.105   5.405   0.519
 2002SOL    HW1 6905   6.056   5.318   0.528
 2002SOL    HW2 6906   6.071   5.454   0.438
 2003SOL     OW 6907   6.062   5.545   1.177
 2003SOL    HW1 6908   5.974   5.585   1.152
 2003SOL    HW2 6909   6.130   5.618   1.186
 2004SOL     OW 6910   3.872   0.462   2.658
 2004SOL    HW1 6911   3.935   0.531   2.695
 2004SOL    HW2 6912   3.799   0.446   2.724
 2005SOL     OW 6913   1.880   6.757   0.365
 2005SOL    HW1 6914   1.863   6.767   0.463
 2005SOL    HW2 6915   1.807   6.801   0.314
 2006SOL     OW 6916   6.327   6.966   2.364
 2006SOL    HW1 6917   6.298   6.879   2.322
 2006SOL    HW2 6918   6.253   7.001   2.421
 2007SOL     OW 6919   5.525   5.160   5.639
 2007SOL    HW1 6920   5.598   5.126   5.698
 2007SOL    HW2 6921   5.565   5.199   5.556
 2008SOL     OW 6922   1.778   3.359   2.797
 2008SOL    HW1 6923   1.828   3.421   2.858
 2008SOL    HW2 6924   1.793   3.265   2.826
 2009SOL     OW 6925   6.075   0.069   3.103
 2009SOL    HW1 6926   6.044   0.027   3.189
 2009SOL    HW2 6927   6.138   0.007   3.057
 2010SOL     OW 6928   0.218   1.384   1.600
 2010SOL    HW1 6929   0.266   1.393   1.688
 2010SOL    HW2 6930   0.250   1.455   1.537
 2011SOL     OW 6931   0.900   0.080   5.036
 2011SOL    HW1 6932   0.982   0.037   5.074
 2011SOL    HW2 6933   0.905   0.079   4.936
 2012SOL     OW 6934   0.108   2.560   0.565
 2012SOL    HW1 6935   0.178   2.618   0.524
 2012SOL    HW2 6936   0.137   2.531   0.656
 2013SOL     OW 6937   0.948   3.038   2.284
 2013SOL    HW1 6938   0.892   3.031   2.367
 2013SOL    HW2 6939   1.039   3.070   2.308
 2014SOL     OW 6940   3.889   1.767   4.023
 2014SOL    HW1 6941   3.938   1.827   4.086
 2014SOL    HW2 6942   3.923   1.781   3.930
 2015SOL     OW 6943   4.059   6.117   1.344
 2015SOL    HW1 6944   4.042   6.060   1.424
 2015SOL    HW2 6945   3.972   6.150   1.307
 2016SOL     OW 6946   1.686   0.891   5.420
 2016SOL    HW1 6947   1.703   0.816   5.356
 2016SOL    HW2 6948   1.639   0.855   5.501
 2017SOL     OW 6949   2.403   6.816   4.642
 2017SOL    HW1 6950   2.485   6.763   4.662
 2017SOL    HW2 6951   2.379   6.873   4.721
 2018SOL     OW 6952   0.311   0.345   4.744
 2018SOL    HW1 6953   0.347   0.286   4.671
 2018SOL    HW2 6954   0.319   0.441   4.717
 2019SOL     OW 6955   0.108   4.693   6.780
 2019SOL    HW1 6956   0.069   4.785   6.774
 2019SOL    HW2 6957   0.069   4.636   6.708
 2020SOL     OW 6958   1.692   6.824   1.294
 2020SOL    HW1 6959   1.598   6.858   1.299
 2020SOL    HW2 6960   1.744   6.857   1.373
 2021SOL     OW 6961   6.880   5.672   4.192
 2021SOL    HW1 6962   6.888   5.590   4.135
 2021SOL    HW2 6963   6.924   5.749   4.146
 2022SOL     OW 6964   1.771   3.053   4.334
 2022SOL    HW1 6965   1.834   3.028   4.260
 2022SOL    HW2 6966   1.822   3.071   4.417
 2023SOL     OW 6967   0.571   5.317   0.221
 2023SOL    HW1 6968   0.636   5.343   0.149
 2023SOL    HW2 6969   0.522   5.398   0.253
 2024SOL     OW 6970   6.627   5.880   3.901
 2024SOL    HW1 6971   6.528   5.885   3.891
 2024SOL    HW2 6972   6.668   5.967   3.876
 2025SOL     OW 6973   1.995   0.145   4.132
 2025SOL    HW1 6974   2.068   0.173   4.195
 2025SOL    HW2 6975   2.005   0.193   4.046
 2026SOL     OW 6976   1.633   7.027   5.488
 2026SOL    HW1 6977   1.574   0.012   5.409
 2026SOL    HW2 6978   1.729   0.013   5.462
 2027SOL     OW 6979   6.403   6.281   2.941
 2027SOL    HW1 6980   6.491   6.235   2.947
 2027SOL    HW2 6981   6.332   6.215   2.917
 2028SOL     OW 6982   2.282   6.140   5.280
 2028SOL    HW1 6983   2.381   6.140   5.291
 2028SOL    HW2 6984   2.257   6.092   5.196
 2029SOL     OW 6985   6.240   1.968   6.580
 2029SOL    HW1 6986   6.220   1.873   6.560
 2029SOL    HW2 6987   6.230   2.023   6.497
 2030SOL     OW 6988   1.825   6.595   2.909
 2030SOL    HW1 6989   1.849   6.532   2.984
 2030SOL    HW2 6990   1.876   6.570   2.827
 2031SOL     OW 6991   0.277   6.797   5.658
 2031SOL    HW1 6992   0.283   6.776   5.561
 2031SOL    HW2 6993   0.205   6.742   5.700
 2032SOL     OW 6994   2.420   2.984   6.695
 2032SOL    HW1 6995   2.324   2.959   6.686
 2032SOL    HW2 6996   2.473   2.938   6.624
 2033SOL     OW 6997   2.615   0.724   1.329
 2033SOL    HW1 6998   2.561   0.660   1.274
 2033SOL    HW2 6999   2.629   0.686   1.420
 2034SOL     OW 7000   0.527   4.386   5.121
 2034SOL    HW1 7001   0.551   4.386   5.218
 2034SOL    HW2 7002   0.437   4.428   5.109
 2035SOL     OW 7003   5.735   5.320   2.723
 2035SOL    HW1 7004   5.732   5.263   2.640
 2035SOL    HW2 7005   5.732   5.261   2.804
 2036SOL     OW 7006   0.392   3.871   5.879
 2036SOL    HW1 7007   0.480   3.848   5.837
 2036SOL    HW2 7008   0.359   3.793   5.932
 2037SOL     OW 7009   0.816   2.522   6.791
 2037SOL    HW1 7010   0.901   2.572   6.779
 2037SOL    HW2 7011   0.754   2.543   6.715
 2038SOL     OW 7012   1.421   0.591   5.778
 2038SOL    HW1 7013   1.330   0.628   5.794
 2038SOL    HW2 7014   1.465   0.571   5.865
 2039SOL     OW 7015   5.364   5.794   4.312
 2039SOL    HW1 7016   5.391   5.728   4.381
 2039SOL    HW2 7017   5.271   5.774   4.281
 2040SOL     OW 7018   2.723   1.909   0.652
 2040SOL    HW1 7019   2.634   1.915   0.607
 2040SOL    HW2 7020   2.731   1.983   0.719
 2041SOL     OW 7021   3.095   6.518   0.080
 2041SOL    HW1 7022   3.086   6.499   0.178
 2041SOL    HW2 7023   3.071   6.613   0.061
 2042SOL     OW 7024   0.290   0.246   5.473
 2042SOL    HW1 7025   0.304   0.284   5.564
 2042SOL    HW2 7026   0.192   0.234   5.456
 2043SOL     OW 7027   0.853   3.731   0.271
 2043SOL    HW1 7028   0.781   3.678   0.317
 2043SOL    HW2 7029   0.922   3.758   0.339
 2044SOL     OW 7030   4.070   0.714   1.925
 2044SOL    HW1 7031   4.128   0.769   1.865
 2044SOL    HW2 7032   4.107   0.716   2.018
 2045SOL     OW 7033   2.111   5.819   3.455
 2045SOL    HW1 7034   2.209   5.802   3.441
 2045SOL    HW2 7035   2.073   5.865   3.374
 2046SOL     OW 7036   0.778   2.830   6.243
 2046SOL    HW1 7037   0.866   2.823   6.288
 2046SOL    HW2 7038   0.766   2.923   6.208
 2047SOL     OW 7039   6.991   6.850   1.643
 2047SOL    HW1 7040   6.998   6.940   1.686
 2047SOL    HW2 7041   6.894   6.827   1.630
 2048SOL     OW 7042   1.724   0.792   3.552
 2048SOL    HW1 7043   1.778   0.805   3.469
 2048SOL    HW2 7044   1.690   0.881   3.583
 2049SOL     OW 7045   4.525   2.032   5.322
 2049SOL    HW1 7046   4.616   1.990   5.328
 2049SOL    HW2 7047   4.511   2.069   5.231
 2050SOL     OW 7048   0.386   1.032   2.696
 2050SOL    HW1 7049   0.467   1.086   2.674
 2050SOL    HW2 7050   0.307   1.069   2.648
 2051SOL     OW 7051   2.936   0.126   6.804
 2051SOL    HW1 7052   2.864   0.081   6.750
 2051SOL    HW2 7053   2.992   0.182   6.743
 2052SOL     OW 7054   6.888   4.288   1.182
 2052SOL    HW1 7055   6.841   4.234   1.253
 2052SOL    HW2 7056   6.824   4.310   1.109
 2053SOL     OW 7057   5.168   4.952   1.935
 2053SOL    HW1 7058   5.227   5.033   1.933
 2053SOL    HW2 7059   5.193   4.891   1.860
 2054SOL     OW 7060   3.291   4.111   3.249
 2054SOL    HW1 7061   3.267   4.089   3.344
 2054SOL    HW2 7062   3.382   4.075   3.229
 2055SOL     OW 7063   4.009   2.617   6.059
 2055SOL    HW1 7064   4.003   2.529   6.107
 2055SOL    HW2 7065   3.961   2.687   6.112
 2056SOL     OW 7066   2.669   5.003   1.835
 2056SOL    HW1 7067   2.635   5.040   1.749
 2056SOL    HW2 7068   2.736   4.930   1.816
 2057SOL     OW 7069   5.834   3.027   3.851
 2057SOL    HW1 7070   5.878   3.001   3.937
 2057SOL    HW2 7071   5.877   3.110   3.816
 2058SOL     OW 7072   5.304   0.015   3.849
 2058SOL    HW1 7073   5.242   0.049   3.920
 2058SOL    HW2 7074   5.253   0.007   3.762
 2059SOL     OW 7075   2.442   1.317   5.838
 2059SOL    HW1 7076   2.424   1.402   5.888
 2059SOL    HW2 7077   2.426   1.239   5.898
 2060SOL     OW 7078   1.114   2.577   6.743
 2060SOL    HW1 7079   1.108   2.574   6.643
 2060SOL    HW2 7080   1.132   2.485   6.778
 2061SOL     OW 7081   1.744   2.104   4.263
 2061SOL    HW1 7082   1.785   2.194   4.280
 2061SOL    HW2 7083   1.795   2.035   4.315
 2062SOL     OW 7084   5.500   5.672   4.093
 2062SOL    HW1 7085   5.482   5.575   4.110
 2062SOL    HW2 7086   5.424   5.727   4.128
 2063SOL     OW 7087   1.242   1.536   4.188
 2063SOL    HW1 7088   1.223   1.634   4.196
 2063SOL    HW2 7089   1.329   1.515   4.233
 2064SOL     OW 7090   0.646   3.852   4.976
 2064SOL    HW1 7091   0.613   3.946   4.987
 2064SOL    HW2 7092   0.740   3.854   4.941
 2065SOL     OW 7093   4.171   3.479   6.103
 2065SOL    HW1 7094   4.137   3.391   6.137
 2065SOL    HW2 7095   4.155   3.549   6.172
 2066SOL     OW 7096   1.735   2.718   4.551
 2066SOL    HW1 7097   1.686   2.679   4.473
 2066SOL    HW2 7098   1.673   2.722   4.630
 2067SOL     OW 7099   6.506   5.271   2.426
 2067SOL    HW1 7100   6.477   5.340   2.359
 2067SOL    HW2 7101   6.599   5.242   2.405
 2068SOL     OW 7102   3.329   6.587   3.973
 2068SOL    HW1 7103   3.348   6.626   4.063
 2068SOL    HW2 7104   3.414   6.551   3.934
 2069SOL     OW 7105   6.345   1.795   3.150
 2069SOL    HW1 7106   6.311   1.812   3.243
 2069SOL    HW2 7107   6.430   1.743   3.155
 2070SOL     OW 7108   7.019   4.817   2.073
 2070SOL    HW1 7109   7.025   4.796   1.975
 2070SOL    HW2 7110   7.009   4.732   2.124
 2071SOL     OW 7111   0.072   2.463   4.071
 2071SOL    HW1 7112   0.119   2.479   3.984
 2071SOL    HW2 7113   0.082   2.367   4.097
 2072SOL     OW 7114   5.616   2.965   5.752
 2072SOL    HW1 7115   5.534   3.013   5.784
 2072SOL    HW2 7116   5.591   2.873   5.723
 2073SOL     OW 7117   3.723   5.137   0.012
 2073SOL    HW1 7118   3.771   5.073   0.071
 2073SOL    HW2 7119   3.724   5.103   6.946
 2074SOL     OW 7120   3.739   4.930   5.230
 2074SOL    HW1 7121   3.791   4.962   5.150
 2074SOL    HW2 7122   3.790   4.951   5.313
 2075SOL     OW 7123   5.430   1.703   1.211
 2075SOL    HW1 7124   5.351   1.721   1.151
 2075SOL    HW2 7125   5.398   1.662   1.296
 2076SOL     OW 7126   6.707   6.986   3.662
 2076SOL    HW1 7127   6.789   0.015   3.658
 2076SOL    HW2 7128   6.640   0.000   3.724
 2077SOL     OW 7129   0.143   4.312   1.135
 2077SOL    HW1 7130   0.158   4.400   1.090
 2077SOL    HW2 7131   0.045   4.300   1.153
 2078SOL     OW 7132   0.767   2.858   0.046
 2078SOL    HW1 7133   0.759   2.893   6.981
 2078SOL    HW2 7134   0.680   2.817   0.073
 2079SOL     OW 7135   6.020   2.086   3.268
 2079SOL    HW1 7136   5.964   2.109   3.189
 2079SOL    HW2 7137   5.974   2.015   3.322
 2080SOL     OW 7138   2.359   3.594   5.862
 2080SOL    HW1 7139   2.311   3.573   5.777
 2080SOL    HW2 7140   2.450   3.553   5.860
 2081SOL     OW 7141   0.589   6.063   2.567
 2081SOL    HW1 7142   0.688   6.067   2.551
 2081SOL    HW2 7143   0.545   6.142   2.522
 2082SOL     OW 7144   6.689   6.165   3.748
 2082SOL    HW1 7145   6.623   6.198   3.815
 2082SOL    HW2 7146   6.751   6.240   3.723
 2083SOL     OW 7147   0.502   5.317   3.448
 2083SOL    HW1 7148   0.558   5.308   3.365
 2083SOL    HW2 7149   0.519   5.239   3.508
 2084SOL     OW 7150   6.179   2.351   1.317
 2084SOL    HW1 7151   6.269   2.342   1.361
 2084SOL    HW2 7152   6.109   2.317   1.380
 2085SOL     OW 7153   6.013   5.690   6.954
 2085SOL    HW1 7154   6.011   5.678   0.025
 2085SOL    HW2 7155   6.081   5.759   6.931
 2086SOL     OW 7156   6.121   0.079   5.654
 2086SOL    HW1 7157   6.219   0.062   5.643
 2086SOL    HW2 7158   6.073   0.043   5.574
 2087SOL     OW 7159   4.989   1.515   6.604
 2087SOL    HW1 7160   4.967   1.611   6.622
 2087SOL    HW2 7161   4.989   1.464   6.690
 2088SOL     OW 7162   0.434   3.502   5.787
 2088SOL    HW1 7163   0.378   3.533   5.864
 2088SOL    HW2 7164   0.394   3.420   5.748
 2089SOL     OW 7165   3.338   5.291   5.216
 2089SOL    HW1 7166   3.385   5.220   5.268
 2089SOL    HW2 7167   3.302   5.252   5.131
 2090SOL     OW 7168   5.013   2.138   6.368
 2090SOL    HW1 7169   4.950   2.142   6.445
 2090SOL    HW2 7170   5.068   2.221   6.365
 2091SOL     OW 7171   5.382   6.517   0.852
 2091SOL    HW1 7172   5.465   6.571   0.854
 2091SOL    HW2 7173   5.303   6.577   0.865
 2092SOL     OW 7174   3.214   2.984   2.519
 2092SOL    HW1 7175   3.195   3.056   2.452
 2092SOL    HW2 7176   3.283   2.922   2.483
 2093SOL     OW 7177   5.074   0.055   0.235
 2093SOL    HW1 7178   5.171   0.030   0.232
 2093SOL    HW2 7179   5.065   0.146   0.275
 2094SOL     OW 7180   4.920   2.890   0.800
 2094SOL    HW1 7181   4.920   2.808   0.858
 2094SOL    HW2 7182   4.934   2.971   0.857
 2095SOL     OW 7183   5.070   5.331   2.946
 2095SOL    HW1 7184   5.075   5.284   3.035
 2095SOL    HW2 7185   4.974   5.346   2.922
 2096SOL     OW 7186   4.137   6.616   3.007
 2096SOL    HW1 7187   4.180   6.597   2.919
 2096SOL    HW2 7188   4.163   6.545   3.073
 2097SOL     OW 7189   1.824   5.852   5.580
 2097SOL    HW1 7190   1.736   5.860   5.535
 2097SOL    HW2 7191   1.837   5.758   5.613
 2098SOL     OW 7192   1.857   0.184   3.720
 2098SOL    HW1 7193   1.921   0.126   3.770
 2098SOL    HW2 7194   1.825   0.135   3.639
 2099SOL     OW 7195   4.638   1.949   6.725
 2099SOL    HW1 7196   4.615   1.883   6.654
 2099SOL    HW2 7197   4.730   1.930   6.759
 2100SOL     OW 7198   4.561   0.363   0.474
 2100SOL    HW1 7199   4.547   0.461   0.490
 2100SOL    HW2 7200   4.651   0.349   0.432
 2101SOL     OW 7201   1.789   0.935   2.618
 2101SOL    HW1 7202   1.726   1.003   2.656
 2101SOL    HW2 7203   1.804   0.862   2.684
 2102SOL     OW 7204   3.549   2.850   1.917
 2102SOL    HW1 7205   3.574   2.846   2.014
 2102SOL    HW2 7206   3.457   2.815   1.905
 2103SOL     OW 7207   1.847   0.081   1.251
 2103SOL    HW1 7208   1.899   7.026   1.274
 2103SOL    HW2 7209   1.844   0.092   1.152
 2104SOL     OW 7210   1.073   4.339   2.581
 2104SOL    HW1 7211   1.156   4.357   2.632
 2104SOL    HW2 7212   1.040   4.246   2.601
 2105SOL     OW 7213   5.472   6.527   5.317
 2105SOL    HW1 7214   5.559   6.566   5.287
 2105SOL    HW2 7215   5.459   6.437   5.276
 2106SOL     OW 7216   3.302   2.423   1.412
 2106SOL    HW1 7217   3.260   2.342   1.454
 2106SOL    HW2 7218   3.387   2.397   1.366
 2107SOL     OW 7219   5.584   4.207   4.840
 2107SOL    HW1 7220   5.667   4.223   4.786
 2107SOL    HW2 7221   5.505   4.247   4.793
 2108SOL     OW 7222   4.826   6.956   5.269
 2108SOL    HW1 7223   4.910   6.955   5.216
 2108SOL    HW2 7224   4.790   0.022   5.273
 2109SOL     OW 7225   2.852   5.718   1.815
 2109SOL    HW1 7226   2.769   5.708   1.759
 2109SOL    HW2 7227   2.867   5.634   1.867
 2110SOL     OW 7228   4.023   5.717   6.707
 2110SOL    HW1 7229   4.072   5.728   6.793
 2110SOL    HW2 7230   4.084   5.740   6.631
 2111SOL     OW 7231   0.347   2.887   0.462
 2111SOL    HW1 7232   0.367   2.951   0.388
 2111SOL    HW2 7233   0.320   2.799   0.423
 2112SOL     OW 7234   0.930   0.591   6.818
 2112SOL    HW1 7235   1.000   0.572   6.887
 2112SOL    HW2 7236   0.900   0.505   6.777
 2113SOL     OW 7237   6.730   1.618   4.648
 2113SOL    HW1 7238   6.789   1.652   4.721
 2113SOL    HW2 7239   6.636   1.644   4.666
 2114SOL     OW 7240   2.829   1.097   5.143
 2114SOL    HW1 7241   2.747   1.088   5.085
 2114SOL    HW2 7242   2.814   1.170   5.210
 2115SOL     OW 7243   6.565   6.794   3.493
 2115SOL    HW1 7244   6.638   6.853   3.528
 2115SOL    HW2 7245   6.481   6.847   3.484
 2116SOL     OW 7246   2.097   0.991   6.041
 2116SOL    HW1 7247   2.081   0.896   6.067
 2116SOL    HW2 7248   2.193   1.002   6.014
 2117SOL     OW 7249   5.658   3.044   1.922
 2117SOL    HW1 7250   5.658   3.023   1.824
 2117SOL    HW2 7251   5.564   3.058   1.953
 2118SOL     OW 7252   6.995   2.911   2.845
 2118SOL    HW1 7253   6.943   2.908   2.930
 2118SOL    HW2 7254   6.932   2.908   2.767
 2119SOL     OW 7255   1.862   2.523   0.397
 2119SOL    HW1 7256   1.836   2.507   0.493
 2119SOL    HW2 7257   1.908   2.611   0.389
 2120SOL     OW 7258   5.472   2.388   0.891
 2120SOL    HW1 7259   5.474   2.376   0.792
 2120SOL    HW2 7260   5.448   2.302   0.935
 2121SOL     OW 7261   3.149   6.059   1.528
 2121SOL    HW1 7262   3.189   5.996   1.595
 2121SOL    HW2 7263   3.060   6.025   1.499
 2122SOL     OW 7264   0.375   0.649   5.354
 2122SOL    HW1 7265   0.469   0.641   5.386
 2122SOL    HW2 7266   0.312   0.629   5.429
 2123SOL     OW 7267   1.082   4.803   3.158
 2123SOL    HW1 7268   1.046   4.870   3.092
 2123SOL    HW2 7269   1.037   4.816   3.246
 2124SOL     OW 7270   4.717   3.106   6.088
 2124SOL    HW1 7271   4.798   3.071   6.041
 2124SOL    HW2 7272   4.649   3.134   6.020
 2125SOL     OW 7273   1.878   5.401   6.183
 2125SOL    HW1 7274   1.905   5.424   6.089
 2125SOL    HW2 7275   1.823   5.475   6.221
 2126SOL     OW 7276   2.873   5.172   1.637
 2126SOL    HW1 7277   2.909   5.099   1.580
 2126SOL    HW2 7278   2.925   5.177   1.722
 2127SOL     OW 7279   1.548   3.563   4.109
 2127SOL    HW1 7280   1.485   3.616   4.165
 2127SOL    HW2 7281   1.541   3.590   4.014
 2128SOL     OW 7282   5.352   2.725   1.329
 2128SOL    HW1 7283   5.400   2.670   1.261
 2128SOL    HW2 7284   5.399   2.715   1.417
 2129SOL     OW 7285   6.093   4.174   3.714
 2129SOL    HW1 7286   6.057   4.139   3.627
 2129SOL    HW2 7287   6.189   4.148   3.723
 2130SOL     OW 7288   1.957   0.428   2.570
 2130SOL    HW1 7289   1.989   0.433   2.665
 2130SOL    HW2 7290   1.865   0.466   2.564
 2131SOL     OW 7291   5.507   0.858   6.720
 2131SOL    HW1 7292   5.432   0.879   6.781
 2131SOL    HW2 7293   5.493   0.768   6.679
 2132SOL     OW 7294   2.576   2.077   0.026
 2132SOL    HW1 7295   2.558   2.081   6.956
 2132SOL    HW2 7296   2.603   2.168   0.058
 2133SOL     OW 7297   4.240   2.680   1.673
 2133SOL    HW1 7298   4.267   2.678   1.577
 2133SOL    HW2 7299   4.319   2.704   1.729
 2134SOL     OW 7300   2.427   0.368   5.306
 2134SOL    HW1 7301   2.445   0.302   5.379
 2134SOL    HW2 7302   2.358   0.433   5.336
 2135SOL     OW 7303   1.041   5.963   4.479
 2135SOL    HW1 7304   1.136   5.933   4.470
 2135SOL    HW2 7305   1.002   5.974   4.387
 2136SOL     OW 7306   0.857   4.996   3.623
 2136SOL    HW1 7307   0.823   4.912   3.666
 2136SOL    HW2 7308   0.956   4.988   3.608
 2137SOL     OW 7309   0.181   0.106   4.804
 2137SOL    HW1 7310   0.105   0.136   4.862
 2137SOL    HW2 7311   0.236   0.186   4.779
 2138SOL     OW 7312   1.143   2.226   6.784
 2138SOL    HW1 7313   1.177   2.236   6.691
 2138SOL    HW2 7314   1.141   2.129   6.808
 2139SOL     OW 7315   3.018   6.214   4.383
 2139SOL    HW1 7316   3.111   6.187   4.361
 2139SOL    HW2 7317   2.958   6.134   4.381
 2140SOL     OW 7318   1.564   5.784   3.827
 2140SOL    HW1 7319   1.469   5.760   3.845
 2140SOL    HW2 7320   1.571   5.827   3.737
 2141SOL     OW 7321   6.509   0.944   6.842
 2141SOL    HW1 7322   6.419   0.935   6.798
 2141SOL    HW2 7323   6.547   1.034   6.822
 2142SOL     OW 7324   4.217   1.165   3.158
 2142SOL    HW1 7325   4.297   1.178   3.099
 2142SOL    HW2 7326   4.134   1.190   3.107
 2143SOL     OW 7327   3.653   5.937   0.499
 2143SOL    HW1 7328   3.581   5.872   0.524
 2143SOL    HW2 7329   3.619   6.030   0.510
 2144SOL     OW 7330   1.048   1.392   1.944
 2144SOL    HW1 7331   1.007   1.358   2.029
 2144SOL    HW2 7332   1.122   1.457   1.966
 2145SOL     OW 7333   2.522   6.170   3.634
 2145SOL    HW1 7334   2.439   6.123   3.663
 2145SOL    HW2 7335   2.501   6.230   3.557
 2146SOL     OW 7336   3.006   2.682   1.073
 2146SOL    HW1 7337   3.068   2.611   1.106
 2146SOL    HW2 7338   3.005   2.682   0.973
 2147SOL     OW 7339   6.791   0.189   4.880
 2147SOL    HW1 7340   6.740   0.274   4.865
 2147SOL    HW2 7341   6.774   0.127   4.803
 2148SOL     OW 7342   6.559   3.823   3.925
 2148SOL    HW1 7343   6.588   3.754   3.859
 2148SOL    HW2 7344   6.595   3.912   3.898
 2149SOL     OW 7345   2.775   1.234   2.630
 2149SOL    HW1 7346   2.826   1.173   2.691
 2149SOL    HW2 7347   2.732   1.306   2.684
 2150SOL     OW 7348   4.662   0.444   2.586
 2150SOL    HW1 7349   4.692   0.364   2.640
 2150SOL    HW2 7350   4.741   0.481   2.537
 2151SOL     OW 7351   4.334   4.839   5.662
 2151SOL    HW1 7352   4.297   4.789   5.583
 2151SOL    HW2 7353   4.273   4.914   5.685
 2152SOL     OW 7354   0.409   6.502   2.518
 2152SOL    HW1 7355   0.504   6.490   2.546
 2152SOL    HW2 7356   0.392   6.598   2.498
 2153SOL     OW 7357   4.280   1.514   3.253
 2153SOL    HW1 7358   4.335   1.518   3.337
 2153SOL    HW2 7359   4.306   1.433   3.200
 2154SOL     OW 7360   4.071   6.665   4.537
 2154SOL    HW1 7361   3.996   6.653   4.472
 2154SOL    HW2 7362   4.153   6.694   4.488
 2155SOL     OW 7363   6.110   3.509   0.395
 2155SOL    HW1 7364   6.114   3.595   0.345
 2155SOL    HW2 7365   6.024   3.503   0.445
 2156SOL     OW 7366   6.212   6.193   2.515
 2156SOL    HW1 7367   6.167   6.136   2.584
 2156SOL    HW2 7368   6.267   6.136   2.455
 2157SOL     OW 7369   6.047   1.570   3.484
 2157SOL    HW1 7370   5.955   1.600   3.459
 2157SOL    HW2 7371   6.075   1.496   3.424
 2158SOL     OW 7372   4.235   0.080   3.364
 2158SOL    HW1 7373   4.334   0.066   3.354
 2158SOL    HW2 7374   4.189   0.055   3.279
 2159SOL     OW 7375   2.500   1.094   5.496
 2159SOL    HW1 7376   2.594   1.089   5.530
 2159SOL    HW2 7377   2.483   1.185   5.459
 2160SOL     OW 7378   2.354   4.068   1.011
 2160SOL    HW1 7379   2.290   4.122   1.065
 2160SOL    HW2 7380   2.439   4.120   0.999
 2161SOL     OW 7381   4.487   2.415   3.398
 2161SOL    HW1 7382   4.407   2.401   3.341
 2161SOL    HW2 7383   4.466   2.388   3.492
 2162SOL     OW 7384   2.601   1.640   2.480
 2162SOL    HW1 7385   2.510   1.610   2.509
 2162SOL    HW2 7386   2.619   1.731   2.517
 2163SOL     OW 7387   3.429   1.937   1.098
 2163SOL    HW1 7388   3.527   1.946   1.079
 2163SOL    HW2 7389   3.395   1.851   1.061
 2164SOL     OW 7390   6.566   0.926   1.426
 2164SOL    HW1 7391   6.646   0.896   1.478
 2164SOL    HW2 7392   6.518   0.846   1.390
 2165SOL     OW 7393   2.539   1.031   2.002
 2165SOL    HW1 7394   2.551   1.011   2.100
 2165SOL    HW2 7395   2.608   0.980   1.950
 2166SOL     OW 7396   5.552   2.686   4.743
 2166SOL    HW1 7397   5.590   2.604   4.701
 2166SOL    HW2 7398   5.452   2.681   4.743
 2167SOL     OW 7399   3.321   1.679   1.018
 2167SOL    HW1 7400   3.249   1.667   1.086
 2167SOL    HW2 7401   3.362   1.590   0.997
 2168SOL     OW 7402   5.331   6.364   4.311
 2168SOL    HW1 7403   5.348   6.382   4.214
 2168SOL    HW2 7404   5.389   6.423   4.367
 2169SOL     OW 7405   5.416   1.590   5.807
 2169SOL    HW1 7406   5.509   1.599   5.771
 2169SOL    HW2 7407   5.393   1.492   5.813
 2170SOL     OW 7408   5.117   5.175   4.207
 2170SOL    HW1 7409   5.126   5.274   4.203
 2170SOL    HW2 7410   5.132   5.144   4.301
 2171SOL     OW 7411   0.459   3.856   0.114
 2171SOL    HW1 7412   0.430   3.774   0.164
 2171SOL    HW2 7413   0.461   3.934   0.175
 2172SOL     OW 7414   2.088   0.162   2.625
 2172SOL    HW1 7415   2.176   0.175   2.672
 2172SOL    HW2 7416   2.074   0.235   2.559
 2173SOL     OW 7417   4.645   2.049   4.889
 2173SOL    HW1 7418   4.723   2.021   4.945
 2173SOL    HW2 7419   4.667   2.135   4.842
 2174SOL     OW 7420   1.301   5.867   4.864
 2174SOL    HW1 7421   1.300   5.792   4.930
 2174SOL    HW2 7422   1.259   5.948   4.904
 2175SOL     OW 7423   1.564   6.583   6.211
 2175SOL    HW1 7424   1.591   6.529   6.131
 2175SOL    HW2 7425   1.645   6.599   6.269
 2176SOL     OW 7426   2.026   2.721   2.469
 2176SOL    HW1 7427   1.982   2.726   2.558
 2176SOL    HW2 7428   2.059   2.629   2.453
 2177SOL     OW 7429   0.913   1.665   1.417
 2177SOL    HW1 7430   0.839   1.683   1.481
 2177SOL    HW2 7431   0.973   1.745   1.412
 2178SOL     OW 7432   6.443   5.956   0.189
 2178SOL    HW1 7433   6.344   5.956   0.198
 2178SOL    HW2 7434   6.480   6.039   0.231
 2179SOL     OW 7435   2.024   3.850   4.082
 2179SOL    HW1 7436   2.058   3.914   4.151
 2179SOL    HW2 7437   1.928   3.827   4.102
 2180SOL     OW 7438   2.916   3.133   1.949
 2180SOL    HW1 7439   2.993   3.073   1.927
 2180SOL    HW2 7440   2.894   3.124   2.046
 2181SOL     OW 7441   3.643   6.859   0.977
 2181SOL    HW1 7442   3.614   6.841   1.071
 2181SOL    HW2 7443   3.572   6.831   0.913
 2182SOL     OW 7444   4.138   3.396   0.907
 2182SOL    HW1 7445   4.227   3.381   0.950
 2182SOL    HW2 7446   4.135   3.488   0.867
 2183SOL     OW 7447   4.146   2.694   0.908
 2183SOL    HW1 7448   4.117   2.788   0.928
 2183SOL    HW2 7449   4.101   2.631   0.970
 2184SOL     OW 7450   5.066   2.803   5.863
 2184SOL    HW1 7451   5.164   2.807   5.881
 2184SOL    HW2 7452   5.023   2.890   5.887
 2185SOL     OW 7453   6.642   6.516   2.333
 2185SOL    HW1 7454   6.608   6.588   2.273
 2185SOL    HW2 7455   6.570   6.447   2.346
 2186SOL     OW 7456   7.001   4.205   3.497
 2186SOL    HW1 7457   6.964   4.172   3.584
 2186SOL    HW2 7458   6.930   4.199   3.426
 2187SOL     OW 7459   6.391   1.192   0.067
 2187SOL    HW1 7460   6.485   1.195   0.033
 2187SOL    HW2 7461   6.368   1.099   0.093
 2188SOL     OW 7462   4.424   1.569   3.560
 2188SOL    HW1 7463   4.436   1.572   3.660
 2188SOL    HW2 7464   4.498   1.515   3.520
 2189SOL     OW 7465   3.740   6.379   0.201
 2189SOL    HW1 7466   3.767   6.286   0.229
 2189SOL    HW2 7467   3.786   6.402   0.116
 2190SOL     OW 7468   5.433   3.227   0.656
 2190SOL    HW1 7469   5.505   3.281   0.614
 2190SOL    HW2 7470   5.346   3.276   0.649
 2191SOL     OW 7471   3.748   0.783   6.784
 2191SOL    HW1 7472   3.649   0.777   6.796
 2191SOL    HW2 7473   3.768   0.847   6.709
 2192SOL     OW 7474   4.236   6.238   2.231
 2192SOL    HW1 7475   4.211   6.322   2.182
 2192SOL    HW2 7476   4.170   6.222   2.304
 2193SOL     OW 7477   6.753   6.117   4.817
 2193SOL    HW1 7478   6.668   6.162   4.843
 2193SOL    HW2 7479   6.818   6.185   4.782
 2194SOL     OW 7480   2.591   0.239   1.612
 2194SOL    HW1 7481   2.556   0.298   1.539
 2194SOL    HW2 7482   2.515   0.208   1.669
 2195SOL     OW 7483   0.150   4.615   1.982
 2195SOL    HW1 7484   0.163   4.583   2.076
 2195SOL    HW2 7485   0.064   4.578   1.946
 2196SOL     OW 7486   4.336   3.865   0.154
 2196SOL    HW1 7487   4.337   3.818   0.066
 2196SOL    HW2 7488   4.259   3.929   0.157
 2197SOL     OW 7489   4.949   3.405   6.630
 2197SOL    HW1 7490   4.921   3.481   6.689
 2197SOL    HW2 7491   4.921   3.425   6.536
 2198SOL     OW 7492   0.050   3.980   0.292
 2198SOL    HW1 7493   0.070   4.078   0.299
 2198SOL    HW2 7494   0.010   3.961   0.202
 2199SOL     OW 7495   4.351   1.079   3.373
 2199SOL    HW1 7496   4.411   1.158   3.381
 2199SOL    HW2 7497   4.276   1.100   3.310
 2200SOL     OW 7498   3.754   6.981   4.067
 2200SOL    HW1 7499   3.796   0.010   4.137
 2200SOL    HW2 7500   3.668   6.943   4.103
 2201SOL     OW 7501   5.062   4.605   4.043
 2201SOL    HW1 7502   5.089   4.513   4.073
 2201SOL    HW2 7503   5.019   4.653   4.119
 2202SOL     OW 7504   4.746   5.974   3.715
 2202SOL    HW1 7505   4.739   6.073   3.725
 2202SOL    HW2 7506   4.752   5.931   3.806
 2203SOL     OW 7507   2.100   1.773   2.979
 2203SOL    HW1 7508   2.094   1.702   2.908
 2203SOL    HW2 7509   2.173   1.748   3.043
 2204SOL     OW 7510   3.383   2.191   1.185
 2204SOL    HW1 7511   3.291   2.209   1.220
 2204SOL    HW2 7512   3.391   2.094   1.161
 2205SOL     OW 7513   3.272   1.477   2.301
 2205SOL    HW1 7514   3.311   1.407   2.361
 2205SOL    HW2 7515   3.323   1.562   2.312
 2206SOL     OW 7516   1.240   4.255   0.082
 2206SOL    HW1 7517   1.250   4.341   0.132
 2206SOL    HW2 7518   1.294   4.259   7.026
 2207SOL     OW 7519   6.908   4.770   4.858
 2207SOL    HW1 7520   6.904   4.841   4.787
 2207SOL    HW2 7521   6.899   4.680   4.815
 2208SOL     OW 7522   6.651   5.458   1.663
 2208SOL    HW1 7523   6.630   5.539   1.608
 2208SOL    HW2 7524   6.616   5.376   1.616
 2209SOL     OW 7525   0.183   6.682   1.991
 2209SOL    HW1 7526   0.167   6.743   2.069
 2209SOL    HW2 7527   0.097   6.663   1.945
 2210SOL     OW 7528   2.532   4.931   3.879
 2210SOL    HW1 7529   2.448   4.983   3.897
 2210SOL    HW2 7530   2.519   4.876   3.797
 2211SOL     OW 7531   6.486   1.216   5.873
 2211SOL    HW1 7532   6.505   1.119   5.890
 2211SOL    HW2 7533   6.462   1.260   5.959
 2212SOL     OW 7534   2.901   6.967   6.133
 2212SOL    HW1 7535   2.943   6.902   6.069
 2212SOL    HW2 7536   2.824   6.923   6.179
 2213SOL     OW 7537   4.739   0.804   3.186
 2213SOL    HW1 7538   4.648   0.803   3.227
 2213SOL    HW2 7539   4.786   0.718   3.208
 2214SOL     OW 7540   3.713   0.007   4.727
 2214SOL    HW1 7541   3.620   7.012   4.698
 2214SOL    HW2 7542   3.771   6.954   4.720
 2215SOL     OW 7543   5.309   1.937   5.267
 2215SOL    HW1 7544   5.273   2.026   5.236
 2215SOL    HW2 7545   5.356   1.949   5.355
 2216SOL     OW 7546   3.126   1.736   2.646
 2216SOL    HW1 7547   3.119   1.652   2.699
 2216SOL    HW2 7548   3.184   1.722   2.566
 2217SOL     OW 7549   2.903   6.599   1.411
 2217SOL    HW1 7550   3.003   6.592   1.403
 2217SOL    HW2 7551   2.873   6.558   1.497
 2218SOL     OW 7552   0.153   0.841   2.221
 2218SOL    HW1 7553   0.095   0.760   2.226
 2218SOL    HW2 7554   0.249   0.814   2.229
 2219SOL     OW 7555   2.947   2.143   2.956
 2219SOL    HW1 7556   2.977   2.181   2.869
 2219SOL    HW2 7557   2.934   2.044   2.946
 2220SOL     OW 7558   1.659   0.086   2.558
 2220SOL    HW1 7559   1.723   0.088   2.635
 2220SOL    HW2 7560   1.705   0.118   2.475
 2221SOL     OW 7561   0.534   6.828   5.751
 2221SOL    HW1 7562   0.567   6.734   5.740
 2221SOL    HW2 7563   0.445   6.837   5.708
 2222SOL     OW 7564   6.035   5.242   4.021
 2222SOL    HW1 7565   5.985   5.234   3.935
 2222SOL    HW2 7566   6.024   5.158   4.074
 2223SOL     OW 7567   0.021   6.610   2.516
 2223SOL    HW1 7568   0.107   6.628   2.564
 2223SOL    HW2 7569   0.040   6.560   2.431
 2224SOL     OW 7570   1.216   6.200   0.486
 2224SOL    HW1 7571   1.275   6.229   0.561
 2224SOL    HW2 7572   1.120   6.206   0.513
 2225SOL     OW 7573   0.608   4.225   0.532
 2225SOL    HW1 7574   0.593   4.321   0.557
 2225SOL    HW2 7575   0.688   4.218   0.473
 2226SOL     OW 7576   3.691   3.774   2.554
 2226SOL    HW1 7577   3.620   3.794   2.621
 2226SOL    HW2 7578   3.689   3.844   2.482
 2227SOL     OW 7579   1.388   1.524   4.815
 2227SOL    HW1 7580   1.288   1.521   4.818
 2227SOL    HW2 7581   1.418   1.619   4.818
 2228SOL     OW 7582   2.393   4.406   4.419
 2228SOL    HW1 7583   2.484   4.446   4.418
 2228SOL    HW2 7584   2.347   4.428   4.505
 2229SOL     OW 7585   6.127   6.055   3.163
 2229SOL    HW1 7586   6.036   6.044   3.125
 2229SOL    HW2 7587   6.124   6.118   3.241
 2230SOL     OW 7588   2.249   5.255   2.884
 2230SOL    HW1 7589   2.157   5.284   2.910
 2230SOL    HW2 7590   2.314   5.282   2.955
 2231SOL     OW 7591   2.137   6.023   1.098
 2231SOL    HW1 7592   2.122   6.027   1.197
 2231SOL    HW2 7593   2.069   5.962   1.057
 2232SOL     OW 7594   5.690   1.835   3.746
 2232SOL    HW1 7595   5.614   1.889   3.781
 2232SOL    HW2 7596   5.664   1.791   3.660
 2233SOL     OW 7597   3.918   1.244   0.302
 2233SOL    HW1 7598   4.002   1.190   0.302
 2233SOL    HW2 7599   3.941   1.341   0.304
 2234SOL     OW 7600   4.444   2.625   1.389
 2234SOL    HW1 7601   4.395   2.541   1.411
 2234SOL    HW2 7602   4.382   2.688   1.343
 2235SOL     OW 7603   2.214   2.209   2.367
 2235SOL    HW1 7604   2.238   2.199   2.270
 2235SOL    HW2 7605   2.260   2.137   2.420
 2236SOL     OW 7606   0.923   4.228   5.574
 2236SOL    HW1 7607   0.881   4.148   5.533
 2236SOL    HW2 7608   0.908   4.308   5.516
 2237SOL     OW 7609   6.689   2.922   3.855
 2237SOL    HW1 7610   6.639   2.988   3.911
 2237SOL    HW2 7611   6.764   2.968   3.808
 2238SOL     OW 7612   5.479   5.853   6.721
 2238SOL    HW1 7613   5.477   5.766   6.770
 2238SOL    HW2 7614   5.465   5.928   6.787
 2239SOL     OW 7615   0.199   5.760   1.000
 2239SOL    HW1 7616   0.278   5.772   0.940
 2239SOL    HW2 7617   0.225   5.780   1.095
 2240SOL     OW 7618   6.096   3.941   1.558
 2240SOL    HW1 7619   6.009   3.911   1.521
 2240SOL    HW2 7620   6.088   4.034   1.592
 2241SOL     OW 7621   1.092   0.231   3.983
 2241SOL    HW1 7622   1.112   0.206   3.889
 2241SOL    HW2 7623   1.007   0.188   4.012
 2242SOL     OW 7624   2.635   1.765   2.944
 2242SOL    HW1 7625   2.569   1.810   2.884
 2242SOL    HW2 7626   2.602   1.767   3.038
 2243SOL     OW 7627   1.790   0.130   4.666
 2243SOL    HW1 7628   1.769   0.039   4.629
 2243SOL    HW2 7629   1.705   0.181   4.678
 2244SOL     OW 7630   3.678   0.569   5.276
 2244SOL    HW1 7631   3.717   0.521   5.354
 2244SOL    HW2 7632   3.618   0.508   5.224
 2245SOL     OW 7633   0.697   2.624   2.370
 2245SOL    HW1 7634   0.680   2.708   2.421
 2245SOL    HW2 7635   0.727   2.552   2.432
 2246SOL     OW 7636   0.817   4.513   5.147
 2246SOL    HW1 7637   0.734   4.515   5.091
 2246SOL    HW2 7638   0.848   4.607   5.163
 2247SOL     OW 7639   2.025   1.426   4.182
 2247SOL    HW1 7640   2.086   1.417   4.261
 2247SOL    HW2 7641   1.934   1.455   4.213
 2248SOL     OW 7642   5.379   3.741   6.018
 2248SOL    HW1 7643   5.292   3.691   6.014
 2248SOL    HW2 7644   5.449   3.687   5.970
 2249SOL     OW 7645   5.419   5.522   5.121
 2249SOL    HW1 7646   5.472   5.574   5.188
 2249SOL    HW2 7647   5.481   5.484   5.052
 2250SOL     OW 7648   4.542   4.461   1.750
 2250SOL    HW1 7649   4.507   4.425   1.664
 2250SOL    HW2 7650   4.533   4.391   1.821
 2251SOL     OW 7651   0.242   0.892   5.300
 2251SOL    HW1 7652   0.299   0.969   5.328
 2251SOL    HW2 7653   0.294   0.807   5.306
 2252SOL     OW 7654   3.469   1.105   6.560
 2252SOL    HW1 7655   3.393   1.138   6.503
 2252SOL    HW2 7656   3.447   1.013   6.594
 2253SOL     OW 7657   0.824   3.981   0.565
 2253SOL    HW1 7658   0.745   3.978   0.626
 2253SOL    HW2 7659   0.810   4.053   0.496
 2254SOL     OW 7660   1.196   4.461   6.635
 2254SOL    HW1 7661   1.271   4.506   6.586
 2254SOL    HW2 7662   1.184   4.369   6.599
 2255SOL     OW 7663   6.933   3.805   6.526
 2255SOL    HW1 7664   7.027   3.812   6.492
 2255SOL    HW2 7665   6.883   3.738   6.471
 2256SOL     OW 7666   2.755   5.085   2.449
 2256SOL    HW1 7667   2.855   5.087   2.460
 2256SOL    HW2 7668   2.730   5.016   2.381
 2257SOL     OW 7669   1.118   4.549   5.024
 2257SOL    HW1 7670   1.115   4.516   4.930
 2257SOL    HW2 7671   1.120   4.471   5.087
 2258SOL     OW 7672   2.033   5.369   5.575
 2258SOL    HW1 7673   1.941   5.347   5.607
 2258SOL    HW2 7674   2.052   5.466   5.591
 2259SOL     OW 7675   5.937   1.951   6.196
 2259SOL    HW1 7676   5.948   1.852   6.200
 2259SOL    HW2 7677   5.852   1.977   6.243
 2260SOL     OW 7678   3.870   3.235   0.647
 2260SOL    HW1 7679   3.849   3.333   0.651
 2260SOL    HW2 7680   3.793   3.182   0.681
 2261SOL     OW 7681   2.325   6.404   5.045
 2261SOL    HW1 7682   2.329   6.445   5.136
 2261SOL    HW2 7683   2.387   6.325   5.041
 2262SOL     OW 7684   3.067   1.515   3.586
 2262SOL    HW1 7685   3.092   1.604   3.624
 2262SOL    HW2 7686   3.045   1.452   3.660
 2263SOL     OW 7687   1.037   4.586   5.580
 2263SOL    HW1 7688   1.041   4.552   5.674
 2263SOL    HW2 7689   1.004   4.513   5.520
 2264SOL     OW 7690   3.729   3.508   3.655
 2264SOL    HW1 7691   3.700   3.412   3.657
 2264SOL    HW2 7692   3.666   3.562   3.600
 2265SOL     OW 7693   1.030   6.624   4.706
 2265SOL    HW1 7694   0.941   6.579   4.706
 2265SOL    HW2 7695   1.102   6.555   4.699
 2266SOL     OW 7696   6.839   0.572   5.598
 2266SOL    HW1 7697   6.825   0.593   5.501
 2266SOL    HW2 7698   6.767   0.615   5.652
 2267SOL     OW 7699   5.570   1.831   5.166
 2267SOL    HW1 7700   5.484   1.837   5.216
 2267SOL    HW2 7701   5.595   1.921   5.131
 2268SOL     OW 7702   0.419   6.559   0.557
 2268SOL    HW1 7703   0.513   6.574   0.528
 2268SOL    HW2 7704   0.384   6.476   0.514
 2269SOL     OW 7705   0.221   6.495   2.889
 2269SOL    HW1 7706   0.188   6.402   2.901
 2269SOL    HW2 7707   0.315   6.493   2.854
 2270SOL     OW 7708   3.787   2.924   3.280
 2270SOL    HW1 7709   3.860   2.992   3.273
 2270SOL    HW2 7710   3.751   2.905   3.189
 2271SOL     OW 7711   2.003   4.255   2.334
 2271SOL    HW1 7712   2.039   4.323   2.398
 2271SOL    HW2 7713   2.013   4.289   2.241
 2272SOL     OW 7714   4.993   0.448   5.509
 2272SOL    HW1 7715   5.064   0.518   5.508
 2272SOL    HW2 7716   4.910   0.483   5.466
 2273SOL     OW 7717   0.455   1.542   2.191
 2273SOL    HW1 7718   0.362   1.554   2.226
 2273SOL    HW2 7719   0.521   1.561   2.263
 2274SOL     OW 7720   0.608   4.256   3.460
 2274SOL    HW1 7721   0.670   4.330   3.487
 2274SOL    HW2 7722   0.520   4.268   3.506
 2275SOL     OW 7723   4.541   6.642   2.888
 2275SOL    HW1 7724   4.597   6.560   2.880
 2275SOL    HW2 7725   4.557   6.702   2.810
 2276SOL     OW 7726   3.597   5.811   2.497
 2276SOL    HW1 7727   3.595   5.760   2.411
 2276SOL    HW2 7728   3.691   5.815   2.531
 2277SOL     OW 7729   3.196   3.372   2.096
 2277SOL    HW1 7730   3.192   3.310   2.174
 2277SOL    HW2 7731   3.104   3.392   2.064
 2278SOL     OW 7732   3.731   4.904   1.408
 2278SOL    HW1 7733   3.666   4.971   1.374
 2278SOL    HW2 7734   3.719   4.817   1.359
 2279SOL     OW 7735   5.965   3.650   5.662
 2279SOL    HW1 7736   6.039   3.672   5.725
 2279SOL    HW2 7737   5.998   3.657   5.568
 2280SOL     OW 7738   5.963   0.299   5.919
 2280SOL    HW1 7739   5.871   0.337   5.929
 2280SOL    HW2 7740   5.973   0.219   5.978
 2281SOL     OW 7741   2.575   0.718   0.820
 2281SOL    HW1 7742   2.672   0.706   0.797
 2281SOL    HW2 7743   2.521   0.652   0.767
 2282SOL     OW 7744   4.011   6.495   2.598
 2282SOL    HW1 7745   3.947   6.548   2.655
 2282SOL    HW2 7746   3.983   6.501   2.502
 2283SOL     OW 7747   0.662   3.277   1.409
 2283SOL    HW1 7748   0.608   3.238   1.484
 2283SOL    HW2 7749   0.751   3.307   1.445
 2284SOL     OW 7750   2.028   3.268   1.173
 2284SOL    HW1 7751   2.058   3.249   1.079
 2284SOL    HW2 7752   1.956   3.203   1.199
 2285SOL     OW 7753   2.035   2.404   6.650
 2285SOL    HW1 7754   2.100   2.340   6.610
 2285SOL    HW2 7755   1.998   2.365   6.735
 2286SOL     OW 7756   6.268   6.748   4.147
 2286SOL    HW1 7757   6.291   6.806   4.225
 2286SOL    HW2 7758   6.173   6.763   4.122
 2287SOL     OW 7759   2.362   1.464   0.720
 2287SOL    HW1 7760   2.395   1.556   0.739
 2287SOL    HW2 7761   2.417   1.397   0.771
 2288SOL     OW 7762   2.556   6.431   4.836
 2288SOL    HW1 7763   2.630   6.481   4.881
 2288SOL    HW2 7764   2.468   6.462   4.872
 2289SOL     OW 7765   3.629   6.987   6.687
 2289SOL    HW1 7766   3.566   6.925   6.640
 2289SOL    HW2 7767   3.668   0.024   6.622
 2290SOL     OW 7768   2.801   3.435   5.150
 2290SOL    HW1 7769   2.769   3.512   5.205
 2290SOL    HW2 7770   2.843   3.468   5.066
 2291SOL     OW 7771   3.024   2.033   0.388
 2291SOL    HW1 7772   3.065   1.962   0.446
 2291SOL    HW2 7773   2.991   1.991   0.303
 2292SOL     OW 7774   5.276   2.458   3.380
 2292SOL    HW1 7775   5.342   2.509   3.434
 2292SOL    HW2 7776   5.285   2.482   3.284
 2293SOL     OW 7777   0.536   0.769   0.338
 2293SOL    HW1 7778   0.488   0.807   0.416
 2293SOL    HW2 7779   0.633   0.756   0.361
 2294SOL     OW 7780   6.442   2.361   4.969
 2294SOL    HW1 7781   6.451   2.415   4.886
 2294SOL    HW2 7782   6.375   2.404   5.030
 2295SOL     OW 7783   5.661   5.928   0.496
 2295SOL    HW1 7784   5.680   5.955   0.402
 2295SOL    HW2 7785   5.643   6.010   0.551
 2296SOL     OW 7786   3.829   5.582   4.300
 2296SOL    HW1 7787   3.922   5.596   4.265
 2296SOL    HW2 7788   3.827   5.602   4.398
 2297SOL     OW 7789   6.202   2.758   6.901
 2297SOL    HW1 7790   6.300   2.774   6.912
 2297SOL    HW2 7791   6.188   2.681   6.839
 2298SOL     OW 7792   2.726   4.017   5.269
 2298SOL    HW1 7793   2.638   3.998   5.226
 2298SOL    HW2 7794   2.730   4.113   5.298
 2299SOL     OW 7795   6.123   3.485   4.535
 2299SOL    HW1 7796   6.189   3.507   4.607
 2299SOL    HW2 7797   6.065   3.565   4.518
 2300SOL     OW 7798   4.865   0.113   2.984
 2300SOL    HW1 7799   4.844   0.034   2.927
 2300SOL    HW2 7800   4.954   0.100   3.028
 2301SOL     OW 7801   4.160   2.969   5.350
 2301SOL    HW1 7802   4.153   3.045   5.285
 2301SOL    HW2 7803   4.208   3.000   5.433
 2302SOL     OW 7804   0.235   3.342   5.634
 2302SOL    HW1 7805   0.307   3.341   5.564
 2302SOL    HW2 7806   0.215   3.248   5.662
 2303SOL     OW 7807   3.043   1.498   6.147
 2303SOL    HW1 7808   3.067   1.475   6.242
 2303SOL    HW2 7809   3.077   1.427   6.086
 2304SOL     OW 7810   4.857   6.699   2.428
 2304SOL    HW1 7811   4.889   6.648   2.508
 2304SOL    HW2 7812   4.826   6.634   2.358
 2305SOL     OW 7813   2.851   6.161   5.048
 2305SOL    HW1 7814   2.822   6.102   4.973
 2305SOL    HW2 7815   2.892   6.105   5.120
 2306SOL     OW 7816   0.927   4.864   4.794
 2306SOL    HW1 7817   0.867   4.789   4.821
 2306SOL    HW2 7818   1.010   4.827   4.752
 2307SOL     OW 7819   6.158   3.734   4.902
 2307SOL    HW1 7820   6.087   3.802   4.916
 2307SOL    HW2 7821   6.116   3.644   4.888
 2308SOL     OW 7822   1.070   5.961   2.336
 2308SOL    HW1 7823   1.092   5.958   2.239
 2308SOL    HW2 7824   1.007   5.886   2.358
 2309SOL     OW 7825   1.747   0.890   4.632
 2309SOL    HW1 7826   1.695   0.936   4.704
 2309SOL    HW2 7827   1.837   0.864   4.667
 2310SOL     OW 7828   5.287   6.188   0.399
 2310SOL    HW1 7829   5.330   6.151   0.481
 2310SOL    HW2 7830   5.188   6.171   0.403
 2311SOL     OW 7831   2.684   6.019   0.779
 2311SOL    HW1 7832   2.705   5.945   0.842
 2311SOL    HW2 7833   2.631   6.089   0.826
 2312SOL     OW 7834   2.649   4.735   2.808
 2312SOL    HW1 7835   2.564   4.764   2.763
 2312SOL    HW2 7836   2.727   4.779   2.763
 2313SOL     OW 7837   4.639   4.915   1.019
 2313SOL    HW1 7838   4.731   4.890   0.989
 2313SOL    HW2 7839   4.586   4.832   1.035
 2314SOL     OW 7840   2.286   4.483   2.951
 2314SOL    HW1 7841   2.256   4.577   2.970
 2314SOL    HW2 7842   2.286   4.467   2.853
 2315SOL     OW 7843   4.127   1.649   6.554
 2315SOL    HW1 7844   4.066   1.637   6.632
 2315SOL    HW2 7845   4.210   1.697   6.583
 2316SOL     OW 7846   5.396   3.376   1.518
 2316SOL    HW1 7847   5.398   3.344   1.423
 2316SOL    HW2 7848   5.487   3.406   1.545
 2317SOL     OW 7849   0.639   6.054   3.934
 2317SOL    HW1 7850   0.606   6.004   4.014
 2317SOL    HW2 7851   0.594   6.020   3.852
 2318SOL     OW 7852   6.824   1.671   3.727
 2318SOL    HW1 7853   6.752   1.718   3.779
 2318SOL    HW2 7854   6.908   1.724   3.733
 2319SOL     OW 7855   1.064   4.912   2.444
 2319SOL    HW1 7856   1.011   4.847   2.498
 2319SOL    HW2 7857   1.088   4.990   2.501
 2320SOL     OW 7858   6.393   4.572   4.323
 2320SOL    HW1 7859   6.366   4.490   4.272
 2320SOL    HW2 7860   6.468   4.618   4.275
 2321SOL     OW 7861   3.615   4.900   3.934
 2321SOL    HW1 7862   3.529   4.881   3.980
 2321SOL    HW2 7863   3.599   4.910   3.835
 2322SOL     OW 7864   2.166   1.102   4.677
 2322SOL    HW1 7865   2.223   1.158   4.738
 2322SOL    HW2 7866   2.209   1.099   4.587
 2323SOL     OW 7867   5.273   3.430   1.845
 2323SOL    HW1 7868   5.237   3.408   1.935
 2323SOL    HW2 7869   5.290   3.345   1.795
 2324SOL     OW 7870   0.053   5.227   3.994
 2324SOL    HW1 7871   7.020   5.245   4.071
 2324SOL    HW2 7872   0.004   5.180   3.922
 2325SOL     OW 7873   6.291   1.996   0.627
 2325SOL    HW1 7874   6.291   2.002   0.727
 2325SOL    HW2 7875   6.332   1.909   0.599
 2326SOL     OW 7876   0.608   5.120   0.620
 2326SOL    HW1 7877   0.604   5.219   0.627
 2326SOL    HW2 7878   0.562   5.079   0.699
 2327SOL     OW 7879   4.709   1.444   3.092
 2327SOL    HW1 7880   4.770   1.374   3.129
 2327SOL    HW2 7881   4.763   1.511   3.041
 2328SOL     OW 7882   6.224   5.063   3.826
 2328SOL    HW1 7883   6.318   5.076   3.857
 2328SOL    HW2 7884   6.192   5.146   3.780
 2329SOL     OW 7885   1.350   6.435   3.392
 2329SOL    HW1 7886   1.261   6.393   3.410
 2329SOL    HW2 7887   1.338   6.517   3.336
 2330SOL     OW 7888   1.268   4.442   0.289
 2330SOL    HW1 7889   1.345   4.402   0.339
 2330SOL    HW2 7890   1.268   4.541   0.302
 2331SOL     OW 7891   1.639   5.095   5.112
 2331SOL    HW1 7892   1.735   5.118   5.093
 2331SOL    HW2 7893   1.616   5.009   5.067
 2332SOL     OW 7894   6.318   3.513   6.037
 2332SOL    HW1 7895   6.341   3.548   6.128
 2332SOL    HW2 7896   6.360   3.423   6.025
 2333SOL     OW 7897   2.725   4.891   4.085
 2333SOL    HW1 7898   2.793   4.957   4.053
 2333SOL    HW2 7899   2.644   4.895   4.026
 2334SOL     OW 7900   2.634   6.910   5.587
 2334SOL    HW1 7901   2.628   6.822   5.633
 2334SOL    HW2 7902   2.677   6.977   5.647
 2335SOL     OW 7903   4.652   4.498   4.204
 2335SOL    HW1 7904   4.725   4.520   4.269
 2335SOL    HW2 7905   4.617   4.583   4.164
 2336SOL     OW 7906   4.329   1.528   5.968
 2336SOL    HW1 7907   4.391   1.590   6.016
 2336SOL    HW2 7908   4.294   1.573   5.886
 2337SOL     OW 7909   5.599   0.509   4.791
 2337SOL    HW1 7910   5.618   0.412   4.782
 2337SOL    HW2 7911   5.501   0.526   4.781
 2338SOL     OW 7912   1.232   6.890   0.004
 2338SOL    HW1 7913   1.195   6.973   6.989
 2338SOL    HW2 7914   1.156   6.833   0.035
 2339SOL     OW 7915   3.900   4.788   6.685
 2339SOL    HW1 7916   3.858   4.700   6.668
 2339SOL    HW2 7917   3.829   4.857   6.698
 2340SOL     OW 7918   4.191   4.957   3.819
 2340SOL    HW1 7919   4.181   4.978   3.722
 2340SOL    HW2 7920   4.105   4.921   3.855
 2341SOL     OW 7921   0.141   4.410   6.214
 2341SOL    HW1 7922   0.065   4.469   6.240
 2341SOL    HW2 7923   0.223   4.466   6.199
 2342SOL     OW 7924   6.268   1.307   5.748
 2342SOL    HW1 7925   6.267   1.251   5.665
 2342SOL    HW2 7926   6.340   1.275   5.809
 2343SOL     OW 7927   1.408   5.981   0.753
 2343SOL    HW1 7928   1.318   5.946   0.776
 2343SOL    HW2 7929   1.433   5.953   0.660
 2344SOL     OW 7930   2.533   1.007   2.715
 2344SOL    HW1 7931   2.472   1.084   2.696
 2344SOL    HW2 7932   2.513   0.932   2.651
 2345SOL     OW 7933   1.628   2.228   2.512
 2345SOL    HW1 7934   1.695   2.290   2.472
 2345SOL    HW2 7935   1.618   2.248   2.610
 2346SOL     OW 7936   4.795   3.255   5.195
 2346SOL    HW1 7937   4.783   3.353   5.214
 2346SOL    HW2 7938   4.824   3.243   5.100
 2347SOL     OW 7939   1.344   4.064   0.556
 2347SOL    HW1 7940   1.346   4.009   0.473
 2347SOL    HW2 7941   1.263   4.039   0.610
 2348SOL     OW 7942   2.714   0.367   1.115
 2348SOL    HW1 7943   2.662   0.282   1.116
 2348SOL    HW2 7944   2.772   0.371   1.197
 2349SOL     OW 7945   5.314   3.043   6.704
 2349SOL    HW1 7946   5.273   3.046   6.613
 2349SOL    HW2 7947   5.245   3.011   6.770
 2350SOL     OW 7948   1.687   6.195   5.127
 2350SOL    HW1 7949   1.712   6.176   5.032
 2350SOL    HW2 7950   1.756   6.156   5.188
 2351SOL     OW 7951   1.588   5.064   3.187
 2351SOL    HW1 7952   1.527   5.108   3.252
 2351SOL    HW2 7953   1.551   5.073   3.095
 2352SOL     OW 7954   5.771   5.805   6.638
 2352SOL    HW1 7955   5.862   5.830   6.605
 2352SOL    HW2 7956   5.777   5.718   6.688
 2353SOL     OW 7957   3.114   2.817   6.186
 2353SOL    HW1 7958   3.138   2.722   6.207
 2353SOL    HW2 7959   3.044   2.818   6.114
 2354SOL     OW 7960   4.020   1.347   2.207
 2354SOL    HW1 7961   3.957   1.329   2.131
 2354SOL    HW2 7962   4.097   1.283   2.202
 2355SOL     OW 7963   0.278   1.206   2.073
 2355SOL    HW1 7964   0.298   1.263   1.993
 2355SOL    HW2 7965   0.271   1.110   2.044
 2356SOL     OW 7966   3.846   5.177   4.258
 2356SOL    HW1 7967   3.930   5.177   4.312
 2356SOL    HW2 7968   3.779   5.117   4.301
 2357SOL     OW 7969   1.261   5.400   1.510
 2357SOL    HW1 7970   1.191   5.459   1.469
 2357SOL    HW2 7971   1.351   5.438   1.492
 2358SOL     OW 7972   2.223   0.371   5.666
 2358SOL    HW1 7973   2.242   0.406   5.574
 2358SOL    HW2 7974   2.253   0.438   5.734
 2359SOL     OW 7975   2.757   2.246   6.309
 2359SOL    HW1 7976   2.772   2.181   6.383
 2359SOL    HW2 7977   2.846   2.281   6.278
 2360SOL     OW 7978   2.984   5.097   0.686
 2360SOL    HW1 7979   2.896   5.053   0.668
 2360SOL    HW2 7980   3.043   5.087   0.605
 2361SOL     OW 7981   3.272   5.076   1.306
 2361SOL    HW1 7982   3.224   4.988   1.303
 2361SOL    HW2 7983   3.328   5.080   1.389
 2362SOL     OW 7984   2.816   4.995   4.731
 2362SOL    HW1 7985   2.776   4.903   4.725
 2362SOL    HW2 7986   2.753   5.061   4.692
 2363SOL     OW 7987   2.104   4.206   1.092
 2363SOL    HW1 7988   2.075   4.296   1.061
 2363SOL    HW2 7989   2.051   4.180   1.173
 2364SOL     OW 7990   4.749   0.748   2.193
 2364SOL    HW1 7991   4.691   0.687   2.140
 2364SOL    HW2 7992   4.841   0.709   2.200
 2365SOL     OW 7993   5.625   4.564   3.119
 2365SOL    HW1 7994   5.669   4.517   3.042
 2365SOL    HW2 7995   5.692   4.577   3.192
 2366SOL     OW 7996   3.304   4.859   5.402
 2366SOL    HW1 7997   3.377   4.818   5.347
 2366SOL    HW2 7998   3.216   4.820   5.373
 2367SOL     OW 7999   6.109   5.364   5.430
 2367SOL    HW1 8000   6.147   5.276   5.403
 2367SOL    HW2 8001   6.050   5.399   5.357
 2368SOL     OW 8002   5.255   0.214   4.929
 2368SOL    HW1 8003   5.255   0.135   4.990
 2368SOL    HW2 8004   5.195   0.284   4.966
 2369SOL     OW 8005   4.024   1.697   4.540
 2369SOL    HW1 8006   4.094   1.764   4.562
 2369SOL    HW2 8007   3.977   1.724   4.456
 2370SOL     OW 8008   4.371   1.882   1.470
 2370SOL    HW1 8009   4.405   1.834   1.389
 2370SOL    HW2 8010   4.430   1.862   1.548
 2371SOL     OW 8011   2.461   6.781   2.178
 2371SOL    HW1 8012   2.453   6.879   2.160
 2371SOL    HW2 8013   2.384   6.751   2.234
 2372SOL     OW 8014   6.618   0.050   5.419
 2372SOL    HW1 8015   6.529   0.029   5.378
 2372SOL    HW2 8016   6.671   0.105   5.355
 2373SOL     OW 8017   6.259   4.149   6.251
 2373SOL    HW1 8018   6.358   4.139   6.240
 2373SOL    HW2 8019   6.237   4.151   6.349
 2374SOL     OW 8020   0.054   6.143   2.211
 2374SOL    HW1 8021   0.110   6.142   2.293
 2374SOL    HW2 8022   7.012   6.215   2.218
 2375SOL     OW 8023   1.373   0.657   4.208
 2375SOL    HW1 8024   1.359   0.713   4.126
 2375SOL    HW2 8025   1.468   0.669   4.239
 2376SOL     OW 8026   5.177   3.244   3.841
 2376SOL    HW1 8027   5.145   3.188   3.765
 2376SOL    HW2 8028   5.277   3.246   3.842
 2377SOL     OW 8029   3.606   4.291   6.030
 2377SOL    HW1 8030   3.567   4.200   6.046
 2377SOL    HW2 8031   3.558   4.335   5.954
 2378SOL     OW 8032   0.896   0.840   0.753
 2378SOL    HW1 8033   0.881   0.828   0.851
 2378SOL    HW2 8034   0.872   0.934   0.727
 2379SOL     OW 8035   0.778   4.797   2.286
 2379SOL    HW1 8036   0.824   4.766   2.203
 2379SOL    HW2 8037   0.841   4.791   2.364
 2380SOL     OW 8038   4.096   5.360   6.535
 2380SOL    HW1 8039   4.043   5.428   6.485
 2380SOL    HW2 8040   4.192   5.366   6.509
 2381SOL     OW 8041   2.140   3.623   3.981
 2381SOL    HW1 8042   2.084   3.699   4.014
 2381SOL    HW2 8043   2.212   3.603   4.048
 2382SOL     OW 8044   6.579   5.996   2.895
 2382SOL    HW1 8045   6.509   6.016   2.826
 2382SOL    HW2 8046   6.536   5.956   2.976
 2383SOL     OW 8047   5.057   4.319   6.015
 2383SOL    HW1 8048   5.002   4.382   6.069
 2383SOL    HW2 8049   5.137   4.366   5.978
 2384SOL     OW 8050   0.650   2.327   3.227
 2384SOL    HW1 8051   0.696   2.346   3.140
 2384SOL    HW2 8052   0.551   2.319   3.212
 2385SOL     OW 8053   0.301   1.051   0.738
 2385SOL    HW1 8054   0.205   1.067   0.763
 2385SOL    HW2 8055   0.357   1.052   0.821
 2386SOL     OW 8056   6.979   4.979   5.373
 2386SOL    HW1 8057   6.928   4.966   5.288
 2386SOL    HW2 8058   0.048   4.988   5.352
 2387SOL     OW 8059   7.000   0.421   3.555
 2387SOL    HW1 8060   7.027   0.392   3.463
 2387SOL    HW2 8061   6.914   0.471   3.549
 2388SOL     OW 8062   1.648   4.293   4.289
 2388SOL    HW1 8063   1.633   4.248   4.377
 2388SOL    HW2 8064   1.561   4.307   4.243
 2389SOL     OW 8065   3.825   6.617   2.984
 2389SOL    HW1 8066   3.920   6.600   2.959
 2389SOL    HW2 8067   3.766   6.557   2.931
 2390SOL     OW 8068   5.340   2.619   5.528
 2390SOL    HW1 8069   5.352   2.587   5.434
 2390SOL    HW2 8070   5.294   2.707   5.528
 2391SOL     OW 8071   2.728   3.900   6.298
 2391SOL    HW1 8072   2.652   3.938   6.351
 2391SOL    HW2 8073   2.784   3.843   6.358
 2392SOL     OW 8074   3.870   5.436   5.844
 2392SOL    HW1 8075   3.931   5.471   5.774
 2392SOL    HW2 8076   3.876   5.336   5.848
 2393SOL     OW 8077   4.002   4.426   0.071
 2393SOL    HW1 8078   4.061   4.393   0.145
 2393SOL    HW2 8079   3.987   4.525   0.082
 2394SOL     OW 8080   6.739   2.556   3.376
 2394SOL    HW1 8081   6.694   2.480   3.424
 2394SOL    HW2 8082   6.675   2.597   3.311
 2395SOL     OW 8083   1.467   2.463   3.730
 2395SOL    HW1 8084   1.567   2.465   3.721
 2395SOL    HW2 8085   1.426   2.472   3.639
 2396SOL     OW 8086   6.986   0.368   6.262
 2396SOL    HW1 8087   7.015   0.353   6.168
 2396SOL    HW2 8088   0.038   0.375   6.321
 2397SOL     OW 8089   2.117   4.885   6.080
 2397SOL    HW1 8090   2.187   4.828   6.038
 2397SOL    HW2 8091   2.108   4.861   6.177
 2398SOL     OW 8092   4.061   6.071   4.803
 2398SOL    HW1 8093   4.028   6.006   4.736
 2398SOL    HW2 8094   3.984   6.118   4.846
 2399SOL     OW 8095   2.896   1.596   2.379
 2399SOL    HW1 8096   2.855   1.643   2.458
 2399SOL    HW2 8097   2.974   1.648   2.346
 2400SOL     OW 8098   0.928   2.636   0.371
 2400SOL    HW1 8099   0.924   2.544   0.332
 2400SOL    HW2 8100   0.846   2.653   0.425
 2401SOL     OW 8101   1.369   6.527   0.448
 2401SOL    HW1 8102   1.361   6.512   0.546
 2401SOL    HW2 8103   1.372   6.439   0.400
 2402SOL     OW 8104   0.549   3.891   2.705
 2402SOL    HW1 8105   0.606   3.809   2.696
 2402SOL    HW2 8106   0.605   3.973   2.693
 2403SOL     OW 8107   3.055   4.378   5.297
 2403SOL    HW1 8108   2.995   4.454   5.273
 2403SOL    HW2 8109   3.060   4.314   5.220
 2404SOL     OW 8110   6.307   1.695   2.085
 2404SOL    HW1 8111   6.337   1.751   2.163
 2404SOL    HW2 8112   6.319   1.747   2.001
 2405SOL     OW 8113   1.619   2.747   0.906
 2405SOL    HW1 8114   1.528   2.710   0.923
 2405SOL    HW2 8115   1.639   2.743   0.808
 2406SOL     OW 8116   4.337   5.583   4.313
 2406SOL    HW1 8117   4.385   5.498   4.337
 2406SOL    HW2 8118   4.403   5.651   4.282
 2407SOL     OW 8119   2.130   1.602   3.702
 2407SOL    HW1 8120   2.074   1.657   3.765
 2407SOL    HW2 8121   2.225   1.633   3.705
 2408SOL     OW 8122   4.143   0.151   5.738
 2408SOL    HW1 8123   4.205   0.230   5.727
 2408SOL    HW2 8124   4.076   0.171   5.810
 2409SOL     OW 8125   0.784   2.944   6.807
 2409SOL    HW1 8126   0.877   2.919   6.832
 2409SOL    HW2 8127   0.785   3.001   6.725
 2410SOL     OW 8128   6.879   3.515   4.328
 2410SOL    HW1 8129   6.955   3.558   4.377
 2410SOL    HW2 8130   6.915   3.454   4.257
 2411SOL     OW 8131   3.207   1.209   0.131
 2411SOL    HW1 8132   3.133   1.260   0.175
 2411SOL    HW2 8133   3.295   1.238   0.167
 2412SOL     OW 8134   2.880   2.135   6.913
 2412SOL    HW1 8135   2.792   2.096   6.938
 2412SOL    HW2 8136   2.902   2.209   6.976
 2413SOL     OW 8137   6.847   3.930   6.747
 2413SOL    HW1 8138   6.864   3.899   6.653
 2413SOL    HW2 8139   6.750   3.918   6.769
 2414SOL     OW 8140   6.476   1.687   4.740
 2414SOL    HW1 8141   6.450   1.717   4.831
 2414SOL    HW2 8142   6.396   1.652   4.691
 2415SOL     OW 8143   2.991   4.039   6.338
 2415SOL    HW1 8144   2.948   4.097   6.407
 2415SOL    HW2 8145   2.922   3.988   6.288
 2416SOL     OW 8146   0.213   3.353   4.327
 2416SOL    HW1 8147   0.285   3.332   4.392
 2416SOL    HW2 8148   0.205   3.452   4.317
 2417SOL     OW 8149   3.670   2.532   1.652
 2417SOL    HW1 8150   3.737   2.601   1.681
 2417SOL    HW2 8151   3.666   2.460   1.721
 2418SOL     OW 8152   5.757   4.043   6.482
 2418SOL    HW1 8153   5.832   4.101   6.513
 2418SOL    HW2 8154   5.727   3.984   6.557
 2419SOL     OW 8155   3.598   1.063   2.822
 2419SOL    HW1 8156   3.630   0.977   2.783
 2419SOL    HW2 8157   3.648   1.139   2.781
 2420SOL     OW 8158   1.363   3.574   2.304
 2420SOL    HW1 8159   1.296   3.540   2.238
 2420SOL    HW2 8160   1.451   3.530   2.288
 2421SOL     OW 8161   2.540   0.045   2.746
 2421SOL    HW1 8162   2.451   0.026   2.703
 2421SOL    HW2 8163   2.529   0.047   2.845
 2422SOL     OW 8164   3.967   6.647   0.330
 2422SOL    HW1 8165   3.944   6.601   0.416
 2422SOL    HW2 8166   3.940   6.589   0.254
 2423SOL     OW 8167   3.633   4.948   4.759
 2423SOL    HW1 8168   3.569   4.924   4.832
 2423SOL    HW2 8169   3.583   4.961   4.673
 2424SOL     OW 8170   5.357   6.660   6.205
 2424SOL    HW1 8171   5.324   6.652   6.111
 2424SOL    HW2 8172   5.454   6.685   6.205
 2425SOL     OW 8173   3.910   5.397   5.205
 2425SOL    HW1 8174   4.003   5.359   5.204
 2425SOL    HW2 8175   3.853   5.345   5.268
 2426SOL     OW 8176   3.047   2.374   5.348
 2426SOL    HW1 8177   2.989   2.294   5.362
 2426SOL    HW2 8178   3.117   2.352   5.280
 2427SOL     OW 8179   3.961   2.147   0.358
 2427SOL    HW1 8180   3.951   2.166   0.456
 2427SOL    HW2 8181   4.022   2.215   0.318
 2428SOL     OW 8182   1.899   1.853   2.709
 2428SOL    HW1 8183   1.987   1.897   2.691
 2428SOL    HW2 8184   1.833   1.882   2.639
 2429SOL     OW 8185   5.363   5.954   1.125
 2429SOL    HW1 8186   5.344   6.010   1.206
 2429SOL    HW2 8187   5.409   5.870   1.153
 2430SOL     OW 8188   6.734   0.356   7.012
 2430SOL    HW1 8189   6.757   0.366   0.081
 2430SOL    HW2 8190   6.747   0.444   6.966
 2431SOL     OW 8191   1.887   3.298   1.938
 2431SOL    HW1 8192   1.817   3.369   1.937
 2431SOL    HW2 8193   1.844   3.208   1.926
 2432SOL     OW 8194   3.008   5.876   2.273
 2432SOL    HW1 8195   3.023   5.854   2.370
 2432SOL    HW2 8196   2.927   5.826   2.240
 2433SOL     OW 8197   6.799   4.643   4.153
 2433SOL    HW1 8198   6.898   4.628   4.148
 2433SOL    HW2 8199   6.774   4.718   4.092
 2434SOL     OW 8200   4.121   1.860   2.777
 2434SOL    HW1 8201   4.203   1.830   2.728
 2434SOL    HW2 8202   4.053   1.787   2.776
 2435SOL     OW 8203   5.903   6.925   6.462
 2435SOL    HW1 8204   5.959   6.939   6.380
 2435SOL    HW2 8205   5.963   6.911   6.541
 2436SOL     OW 8206   0.027   2.798   0.895
 2436SOL    HW1 8207   0.102   2.848   0.851
 2436SOL    HW2 8208   0.014   2.710   0.848
 2437SOL     OW 8209   1.099   4.481   1.346
 2437SOL    HW1 8210   1.049   4.473   1.432
 2437SOL    HW2 8211   1.043   4.445   1.272
 2438SOL     OW 8212   3.756   1.580   4.625
 2438SOL    HW1 8213   3.767   1.488   4.664
 2438SOL    HW2 8214   3.843   1.609   4.585
 2439SOL     OW 8215   0.040   5.962   0.301
 2439SOL    HW1 8216   6.976   5.998   0.314
 2439SOL    HW2 8217   0.104   6.037   0.285
 2440SOL     OW 8218   5.724   2.121   5.355
 2440SOL    HW1 8219   5.764   2.032   5.379
 2440SOL    HW2 8220   5.665   2.110   5.275
 2441SOL     OW 8221   6.130   1.071   6.919
 2441SOL    HW1 8222   6.145   1.081   6.821
 2441SOL    HW2 8223   6.167   1.151   6.966
 2442SOL     OW 8224   5.156   3.031   2.620
 2442SOL    HW1 8225   5.239   2.985   2.589
 2442SOL    HW2 8226   5.076   2.980   2.589
 2443SOL     OW 8227   0.229   2.953   1.358
 2443SOL    HW1 8228   0.163   2.910   1.296
 2443SOL    HW2 8229   0.322   2.935   1.326
 2444SOL     OW 8230   3.741   5.033   3.071
 2444SOL    HW1 8231   3.648   5.057   3.044
 2444SOL    HW2 8232   3.739   4.985   3.159
 2445SOL     OW 8233   0.597   1.739   1.006
 2445SOL    HW1 8234   0.594   1.824   0.954
 2445SOL    HW2 8235   0.639   1.667   0.950
 2446SOL     OW 8236   6.497   6.019   1.460
 2446SOL    HW1 8237   6.467   5.924   1.465
 2446SOL    HW2 8238   6.420   6.080   1.477
 2447SOL     OW 8239   1.865   6.784   0.635
 2447SOL    HW1 8240   1.782   6.784   0.691
 2447SOL    HW2 8241   1.920   6.864   0.657
 2448SOL     OW 8242   5.730   1.067   4.112
 2448SOL    HW1 8243   5.725   1.161   4.078
 2448SOL    HW2 8244   5.652   1.048   4.170
 2449SOL     OW 8245   1.973   4.150   1.344
 2449SOL    HW1 8246   1.899   4.213   1.320
 2449SOL    HW2 8247   2.017   4.182   1.428
 2450SOL     OW 8248   0.660   6.626   5.115
 2450SOL    HW1 8249   0.649   6.647   5.212
 2450SOL    HW2 8250   0.720   6.693   5.073
 2451SOL     OW 8251   1.564   6.959   6.754
 2451SOL    HW1 8252   1.579   6.909   6.669
 2451SOL    HW2 8253   1.548   6.895   6.828
 2452SOL     OW 8254   2.456   1.985   3.883
 2452SOL    HW1 8255   2.417   2.077   3.874
 2452SOL    HW2 8256   2.448   1.954   3.977
 2453SOL     OW 8257   1.409   1.623   6.161
 2453SOL    HW1 8258   1.450   1.597   6.074
 2453SOL    HW2 8259   1.315   1.652   6.147
 2454SOL     OW 8260   2.800   6.298   0.435
 2454SOL    HW1 8261   2.858   6.284   0.515
 2454SOL    HW2 8262   2.856   6.300   0.353
 2455SOL     OW 8263   4.707   2.459   0.266
 2455SOL    HW1 8264   4.636   2.521   0.300
 2455SOL    HW2 8265   4.769   2.509   0.206
 2456SOL     OW 8266   0.670   3.545   5.915
 2456SOL    HW1 8267   0.732   3.591   5.851
 2456SOL    HW2 8268   0.583   3.526   5.870
 2457SOL     OW 8269   4.886   1.164   6.097
 2457SOL    HW1 8270   4.957   1.138   6.031
 2457SOL    HW2 8271   4.841   1.247   6.065
 2458SOL     OW 8272   1.123   0.205   2.255
 2458SOL    HW1 8273   1.064   0.279   2.289
 2458SOL    HW2 8274   1.068   0.140   2.203
 2459SOL     OW 8275   2.212   6.592   1.397
 2459SOL    HW1 8276   2.143   6.656   1.431
 2459SOL    HW2 8277   2.300   6.612   1.440
 2460SOL     OW 8278   0.390   0.416   3.969
 2460SOL    HW1 8279   0.374   0.497   3.913
 2460SOL    HW2 8280   0.384   0.441   4.066
 2461SOL     OW 8281   3.472   1.433   3.424
 2461SOL    HW1 8282   3.372   1.436   3.431
 2461SOL    HW2 8283   3.500   1.342   3.395
 2462SOL     OW 8284   0.151   6.347   0.960
 2462SOL    HW1 8285   0.229   6.288   0.938
 2462SOL    HW2 8286   0.184   6.440   0.976
 2463SOL     OW 8287   6.677   6.791   1.135
 2463SOL    HW1 8288   6.612   6.831   1.200
 2463SOL    HW2 8289   6.767   6.832   1.148
 2464SOL     OW 8290   0.837   2.697   4.924
 2464SOL    HW1 8291   0.873   2.789   4.940
 2464SOL    HW2 8292   0.739   2.703   4.905
 2465SOL     OW 8293   6.112   1.526   6.795
 2465SOL    HW1 8294   6.114   1.451   6.862
 2465SOL    HW2 8295   6.018   1.557   6.784
 2466SOL     OW 8296   0.718   2.358   1.340
 2466SOL    HW1 8297   0.696   2.450   1.372
 2466SOL    HW2 8298   0.633   2.305   1.329
 2467SOL     OW 8299   5.022   2.697   4.953
 2467SOL    HW1 8300   5.001   2.789   4.919
 2467SOL    HW2 8301   4.987   2.629   4.889
 2468SOL     OW 8302   3.349   0.113   5.157
 2468SOL    HW1 8303   3.401   0.028   5.153
 2468SOL    HW2 8304   3.324   0.143   5.065
 2469SOL     OW 8305   3.022   1.808   5.903
 2469SOL    HW1 8306   3.119   1.788   5.897
 2469SOL    HW2 8307   2.972   1.724   5.924
 2470SOL     OW 8308   2.101   5.782   6.327
 2470SOL    HW1 8309   2.045   5.813   6.251
 2470SOL    HW2 8310   2.048   5.783   6.411
 2471SOL     OW 8311   3.154   6.028   3.062
 2471SOL    HW1 8312   3.064   5.994   3.088
 2471SOL    HW2 8313   3.214   5.951   3.041
 2472SOL     OW 8314   4.861   1.544   2.484
 2472SOL    HW1 8315   4.909   1.548   2.396
 2472SOL    HW2 8316   4.892   1.619   2.543
 2473SOL     OW 8317   0.518   4.362   4.342
 2473SOL    HW1 8318   0.578   4.401   4.412
 2473SOL    HW2 8319   0.571   4.303   4.281
 2474SOL     OW 8320   1.681   6.495   0.731
 2474SOL    HW1 8321   1.750   6.441   0.779
 2474SOL    HW2 8322   1.646   6.442   0.653
 2475SOL     OW 8323   5.509   2.295   0.635
 2475SOL    HW1 8324   5.423   2.285   0.585
 2475SOL    HW2 8325   5.583   2.250   0.585
 2476SOL     OW 8326   4.740   6.959   0.666
 2476SOL    HW1 8327   4.668   6.938   0.732
 2476SOL    HW2 8328   4.771   0.024   0.679
 2477SOL     OW 8329   3.828   0.407   3.554
 2477SOL    HW1 8330   3.819   0.381   3.651
 2477SOL    HW2 8331   3.836   0.506   3.547
 2478SOL     OW 8332   3.655   0.287   4.448
 2478SOL    HW1 8333   3.568   0.238   4.458
 2478SOL    HW2 8334   3.642   0.363   4.384
 2479SOL     OW 8335   5.079   3.380   1.306
 2479SOL    HW1 8336   5.139   3.453   1.274
 2479SOL    HW2 8337   5.079   3.378   1.406
 2480SOL     OW 8338   3.333   2.442   1.703
 2480SOL    HW1 8339   3.238   2.418   1.685
 2480SOL    HW2 8340   3.386   2.436   1.618
 2481SOL     OW 8341   3.203   0.156   1.548
 2481SOL    HW1 8342   3.291   0.133   1.590
 2481SOL    HW2 8343   3.161   0.073   1.511
 2482SOL     OW 8344   6.751   3.099   0.008
 2482SOL    HW1 8345   6.823   3.094   6.967
 2482SOL    HW2 8346   6.690   3.175   7.015
 2483SOL     OW 8347   2.986   2.213   0.970
 2483SOL    HW1 8348   2.903   2.224   1.025
 2483SOL    HW2 8349   2.962   2.214   0.873
 2484SOL     OW 8350   4.344   0.274   6.740
 2484SOL    HW1 8351   4.321   0.341   6.810
 2484SOL    HW2 8352   4.439   0.286   6.712
 2485SOL     OW 8353   0.316   1.715   6.078
 2485SOL    HW1 8354   0.297   1.624   6.041
 2485SOL    HW2 8355   0.269   1.726   6.166
 2486SOL     OW 8356   0.052   5.410   3.453
 2486SOL    HW1 8357   0.048   5.470   3.373
 2486SOL    HW2 8358   0.113   5.333   3.435
 2487SOL     OW 8359   4.607   6.125   0.219
 2487SOL    HW1 8360   4.537   6.140   0.149
 2487SOL    HW2 8361   4.641   6.031   0.212
 2488SOL     OW 8362   6.983   4.107   0.773
 2488SOL    HW1 8363   6.977   4.016   0.732
 2488SOL    HW2 8364   6.904   4.121   0.834
 2489SOL     OW 8365   6.275   4.947   4.400
 2489SOL    HW1 8366   6.202   4.897   4.352
 2489SOL    HW2 8367   6.261   4.940   4.499
 2490SOL     OW 8368   2.330   5.687   2.024
 2490SOL    HW1 8369   2.239   5.648   2.011
 2490SOL    HW2 8370   2.363   5.724   1.938
 2491SOL     OW 8371   3.872   4.659   1.645
 2491SOL    HW1 8372   3.959   4.610   1.650
 2491SOL    HW2 8373   3.797   4.594   1.639
 2492SOL     OW 8374   0.068   5.352   1.209
 2492SOL    HW1 8375   0.004   5.389   1.141
 2492SOL    HW2 8376   0.038   5.380   1.300
 2493SOL     OW 8377   5.302   6.583   0.400
 2493SOL    HW1 8378   5.270   6.573   0.494
 2493SOL    HW2 8379   5.353   6.502   0.373
 2494SOL     OW 8380   6.776   4.065   0.937
 2494SOL    HW1 8381   6.702   4.044   1.001
 2494SOL    HW2 8382   6.738   4.074   0.845
 2495SOL     OW 8383   0.345   3.241   1.866
 2495SOL    HW1 8384   0.346   3.297   1.949
 2495SOL    HW2 8385   0.261   3.259   1.814
 2496SOL     OW 8386   5.645   4.663   6.381
 2496SOL    HW1 8387   5.565   4.669   6.321
 2496SOL    HW2 8388   5.685   4.753   6.394
 2497SOL     OW 8389   0.441   0.136   2.634
 2497SOL    HW1 8390   0.388   0.052   2.647
 2497SOL    HW2 8391   0.536   0.112   2.618
 2498SOL     OW 8392   1.870   3.474   4.987
 2498SOL    HW1 8393   1.837   3.507   4.899
 2498SOL    HW2 8394   1.831   3.384   5.005
 2499SOL     OW 8395   6.295   3.573   2.555
 2499SOL    HW1 8396   6.217   3.539   2.504
 2499SOL    HW2 8397   6.265   3.612   2.642
 2500SOL     OW 8398   3.678   3.446   2.205
 2500SOL    HW1 8399   3.598   3.452   2.145
 2500SOL    HW2 8400   3.738   3.524   2.190
 2501SOL     OW 8401   6.073   5.269   6.026
 2501SOL    HW1 8402   5.997   5.264   6.091
 2501SOL    HW2 8403   6.041   5.240   5.936
 2502SOL     OW 8404   2.142   6.428   3.960
 2502SOL    HW1 8405   2.110   6.515   3.997
 2502SOL    HW2 8406   2.238   6.414   3.986
 2503SOL     OW 8407   2.453   0.193   5.547
 2503SOL    HW1 8408   2.450   0.221   5.643
 2503SOL    HW2 8409   2.409   0.104   5.537
 2504SOL     OW 8410   3.805   0.107   2.868
 2504SOL    HW1 8411   3.866   0.064   2.801
 2504SOL    HW2 8412   3.830   0.204   2.877
 2505SOL     OW 8413   6.381   4.184   3.764
 2505SOL    HW1 8414   6.396   4.095   3.721
 2505SOL    HW2 8415   6.392   4.256   3.696
 2506SOL     OW 8416   5.985   5.156   6.301
 2506SOL    HW1 8417   6.031   5.204   6.376
 2506SOL    HW2 8418   6.021   5.062   6.294
 2507SOL     OW 8419   6.773   3.211   2.725
 2507SOL    HW1 8420   6.828   3.269   2.665
 2507SOL    HW2 8421   6.699   3.266   2.765
 2508SOL     OW 8422   5.974   0.949   4.162
 2508SOL    HW1 8423   6.044   1.019   4.153
 2508SOL    HW2 8424   5.883   0.991   4.156
 2509SOL     OW 8425   0.176   3.102   5.706
 2509SOL    HW1 8426   0.183   3.026   5.771
 2509SOL    HW2 8427   0.156   3.065   5.615
 2510SOL     OW 8428   3.424   4.145   2.240
 2510SOL    HW1 8429   3.410   4.237   2.277
 2510SOL    HW2 8430   3.337   4.109   2.207
 2511SOL     OW 8431   2.017   0.552   4.444
 2511SOL    HW1 8432   2.048   0.590   4.532
 2511SOL    HW2 8433   1.961   0.471   4.461
 2512SOL     OW 8434   4.261   4.661   3.711
 2512SOL    HW1 8435   4.205   4.719   3.770
 2512SOL    HW2 8436   4.331   4.615   3.766
 2513SOL     OW 8437   2.144   5.772   6.757
 2513SOL    HW1 8438   2.086   5.731   6.828
 2513SOL    HW2 8439   2.216   5.707   6.731
 2514SOL     OW 8440   1.952   1.917   3.212
 2514SOL    HW1 8441   1.922   1.872   3.296
 2514SOL    HW2 8442   1.980   1.848   3.145
 2515SOL     OW 8443   0.318   2.091   1.127
 2515SOL    HW1 8444   0.223   2.122   1.119
 2515SOL    HW2 8445   0.321   2.010   1.185
 2516SOL     OW 8446   5.764   2.181   4.421
 2516SOL    HW1 8447   5.805   2.099   4.379
 2516SOL    HW2 8448   5.667   2.187   4.394
 2517SOL     OW 8449   0.630   1.155   3.994
 2517SOL    HW1 8450   0.535   1.134   4.017
 2517SOL    HW2 8451   0.679   1.184   4.077
 2518SOL     OW 8452   2.499   4.413   0.964
 2518SOL    HW1 8453   2.585   4.402   0.914
 2518SOL    HW2 8454   2.518   4.418   1.062
 2519SOL     OW 8455   0.861   1.121   1.310
 2519SOL    HW1 8456   0.838   1.137   1.406
 2519SOL    HW2 8457   0.951   1.078   1.304
 2520SOL     OW 8458   2.433   2.656   1.080
 2520SOL    HW1 8459   2.449   2.701   1.168
 2520SOL    HW2 8460   2.521   2.637   1.036
 2521SOL     OW 8461   5.011   0.647   4.769
 2521SOL    HW1 8462   5.020   0.668   4.672
 2521SOL    HW2 8463   5.075   0.703   4.821
 2522SOL     OW 8464   1.105   1.967   6.913
 2522SOL    HW1 8465   1.034   1.962   6.982
 2522SOL    HW2 8466   1.133   1.874   6.887
 2523SOL     OW 8467   0.957   5.384   6.452
 2523SOL    HW1 8468   0.918   5.295   6.426
 2523SOL    HW2 8469   0.953   5.446   6.374
 2524SOL     OW 8470   1.089   1.359   4.339
 2524SOL    HW1 8471   1.137   1.442   4.310
 2524SOL    HW2 8472   1.139   1.279   4.306
 2525SOL     OW 8473   6.254   2.578   5.479
 2525SOL    HW1 8474   6.166   2.602   5.439
 2525SOL    HW2 8475   6.326   2.585   5.410
 2526SOL     OW 8476   1.440   0.583   0.377
 2526SOL    HW1 8477   1.454   0.542   0.467
 2526SOL    HW2 8478   1.442   0.683   0.386
 2527SOL     OW 8479   3.738   5.075   6.780
 2527SOL    HW1 8480   3.653   5.091   6.730
 2527SOL    HW2 8481   3.811   5.131   6.742
 2528SOL     OW 8482   4.580   5.610   6.581
 2528SOL    HW1 8483   4.485   5.640   6.575
 2528SOL    HW2 8484   4.635   5.664   6.517
 2529SOL     OW 8485   0.610   6.562   5.728
 2529SOL    HW1 8486   0.520   6.535   5.694
 2529SOL    HW2 8487   0.679   6.498   5.694
 2530SOL     OW 8488   2.462   6.111   6.727
 2530SOL    HW1 8489   2.464   6.048   6.649
 2530SOL    HW2 8490   2.524   6.078   6.798
 2531SOL     OW 8491   6.966   5.103   6.184
 2531SOL    HW1 8492   0.014   5.155   6.147
 2531SOL    HW2 8493   6.964   5.113   6.283
 2532SOL     OW 8494   5.902   5.824   1.592
 2532SOL    HW1 8495   5.803   5.819   1.576
 2532SOL    HW2 8496   5.940   5.732   1.593
 2533SOL     OW 8497   4.382   0.986   3.641
 2533SOL    HW1 8498   4.370   1.033   3.553
 2533SOL    HW2 8499   4.397   0.889   3.624
 2534SOL     OW 8500   4.143   1.403   2.676
 2534SOL    HW1 8501   4.095   1.316   2.692
 2534SOL    HW2 8502   4.137   1.427   2.579
 2535SOL     OW 8503   3.609   2.909   6.358
 2535SOL    HW1 8504   3.689   2.960   6.325
 2535SOL    HW2 8505   3.623   2.884   6.454
 2536SOL     OW 8506   1.403   0.401   1.465
 2536SOL    HW1 8507   1.308   0.378   1.488
 2536SOL    HW2 8508   1.465   0.339   1.514
 2537SOL     OW 8509   3.826   0.005   5.726
 2537SOL    HW1 8510   3.865   6.952   5.769
 2537SOL    HW2 8511   3.869   0.087   5.765
 2538SOL     OW 8512   5.785   3.486   3.696
 2538SOL    HW1 8513   5.735   3.427   3.633
 2538SOL    HW2 8514   5.734   3.497   3.781
 2539SOL     OW 8515   5.145   2.842   5.156
 2539SOL    HW1 8516   5.139   2.765   5.091
 2539SOL    HW2 8517   5.055   2.884   5.166
 2540SOL     OW 8518   2.857   2.198   1.312
 2540SOL    HW1 8519   2.791   2.262   1.272
 2540SOL    HW2 8520   2.851   2.203   1.412
 2541SOL     OW 8521   3.154   6.743   3.843
 2541SOL    HW1 8522   3.117   6.718   3.754
 2541SOL    HW2 8523   3.223   6.677   3.871
 2542SOL     OW 8524   1.909   5.197   5.936
 2542SOL    HW1 8525   1.946   5.145   6.012
 2542SOL    HW2 8526   1.967   5.185   5.855
 2543SOL     OW 8527   0.337   0.441   4.241
 2543SOL    HW1 8528   0.403   0.366   4.245
 2543SOL    HW2 8529   0.346   0.499   4.322
 2544SOL     OW 8530   0.383   5.277   6.635
 2544SOL    HW1 8531   0.449   5.333   6.685
 2544SOL    HW2 8532   0.378   5.186   6.678
 2545SOL     OW 8533   2.682   5.824   3.541
 2545SOL    HW1 8534   2.773   5.781   3.541
 2545SOL    HW2 8535   2.650   5.834   3.635
 2546SOL     OW 8536   0.010   1.184   1.634
 2546SOL    HW1 8537   0.089   1.246   1.628
 2546SOL    HW2 8538   0.043   1.089   1.630
 2547SOL     OW 8539   1.024   3.371   5.291
 2547SOL    HW1 8540   1.031   3.279   5.330
 2547SOL    HW2 8541   1.114   3.413   5.289
 2548SOL     OW 8542   1.062   0.369   6.013
 2548SOL    HW1 8543   1.078   0.280   5.971
 2548SOL    HW2 8544   0.966   0.376   6.042
 2549SOL     OW 8545   6.563   2.979   2.296
 2549SOL    HW1 8546   6.570   2.922   2.378
 2549SOL    HW2 8547   6.650   3.026   2.281
 2550SOL     OW 8548   5.741   5.232   0.024
 2550SOL    HW1 8549   5.731   5.257   6.956
 2550SOL    HW2 8550   5.721   5.311   0.082
 2551SOL     OW 8551   0.790   5.372   0.444
 2551SOL    HW1 8552   0.791   5.407   0.538
 2551SOL    HW2 8553   0.700   5.334   0.424
 2552SOL     OW 8554   1.675   5.636   3.521
 2552SOL    HW1 8555   1.734   5.716   3.535
 2552SOL    HW2 8556   1.607   5.657   3.450
 2553SOL     OW 8557   4.119   3.653   6.824
 2553SOL    HW1 8558   4.143   3.565   6.865
 2553SOL    HW2 8559   4.108   3.722   6.896
 2554SOL     OW 8560   1.130   1.891   0.741
 2554SOL    HW1 8561   1.184   1.976   0.739
 2554SOL    HW2 8562   1.038   1.909   0.707
 2555SOL     OW 8563   6.704   0.165   6.555
 2555SOL    HW1 8564   6.732   0.239   6.494
 2555SOL    HW2 8565   6.619   0.125   6.521
 2556SOL     OW 8566   3.908   4.911   0.476
 2556SOL    HW1 8567   3.928   4.819   0.441
 2556SOL    HW2 8568   3.832   4.950   0.424
 2557SOL     OW 8569   1.507   4.626   6.752
 2557SOL    HW1 8570   1.464   4.552   6.803
 2557SOL    HW2 8571   1.462   4.637   6.663
 2558SOL     OW 8572   4.181   0.188   5.105
 2558SOL    HW1 8573   4.086   0.218   5.100
 2558SOL    HW2 8574   4.185   0.093   5.134
 2559SOL     OW 8575   0.537   5.109   4.896
 2559SOL    HW1 8576   0.584   5.083   4.812
 2559SOL    HW2 8577   0.459   5.168   4.875
 2560SOL     OW 8578   5.838   1.255   6.842
 2560SOL    HW1 8579   5.772   1.179   6.846
 2560SOL    HW2 8580   5.906   1.236   6.771
 2561SOL     OW 8581   2.972   5.936   4.175
 2561SOL    HW1 8582   2.912   6.012   4.149
 2561SOL    HW2 8583   2.964   5.863   4.108
 2562SOL     OW 8584   2.480   3.701   6.984
 2562SOL    HW1 8585   2.471   3.646   0.039
 2562SOL    HW2 8586   2.389   3.729   6.953
 2563SOL     OW 8587   1.886   0.952   1.426
 2563SOL    HW1 8588   1.975   0.968   1.383
 2563SOL    HW2 8589   1.890   0.980   1.522
 2564SOL     OW 8590   1.773   6.449   2.365
 2564SOL    HW1 8591   1.765   6.400   2.452
 2564SOL    HW2 8592   1.817   6.537   2.380
 2565SOL     OW 8593   0.690   0.773   1.813
 2565SOL    HW1 8594   0.705   0.749   1.717
 2565SOL    HW2 8595   0.734   0.705   1.872
 2566SOL     OW 8596   1.997   6.935   5.730
 2566SOL    HW1 8597   2.055   7.008   5.768
 2566SOL    HW2 8598   1.980   6.866   5.800
 2567SOL     OW 8599   1.171   0.879   0.265
 2567SOL    HW1 8600   1.133   0.812   0.202
 2567SOL    HW2 8601   1.110   0.959   0.269
 2568SOL     OW 8602   5.213   4.117   0.079
 2568SOL    HW1 8603   5.151   4.066   0.019
 2568SOL    HW2 8604   5.260   4.188   0.026
 2569SOL     OW 8605   2.520   0.861   2.395
 2569SOL    HW1 8606   2.549   0.801   2.321
 2569SOL    HW2 8607   2.459   0.931   2.359
 2570SOL     OW 8608   5.382   2.475   5.943
 2570SOL    HW1 8609   5.418   2.446   6.032
 2570SOL    HW2 8610   5.335   2.562   5.953
 2571SOL     OW 8611   0.706   3.904   4.509
 2571SOL    HW1 8612   0.693   4.000   4.536
 2571SOL    HW2 8613   0.743   3.853   4.586
 2572SOL     OW 8614   1.659   4.839   3.730
 2572SOL    HW1 8615   1.640   4.821   3.827
 2572SOL    HW2 8616   1.758   4.849   3.718
 2573SOL     OW 8617   1.242   7.027   0.648
 2573SOL    HW1 8618   1.260   7.012   0.550
 2573SOL    HW2 8619   1.264   0.093   0.672
 2574SOL     OW 8620   6.440   3.686   0.699
 2574SOL    HW1 8621   6.525   3.736   0.681
 2574SOL    HW2 8622   6.427   3.616   0.630
 2575SOL     OW 8623   0.516   6.319   6.379
 2575SOL    HW1 8624   0.597   6.267   6.407
 2575SOL    HW2 8625   0.492   6.294   6.285
 2576SOL     OW 8626   4.368   6.548   4.918
 2576SOL    HW1 8627   4.303   6.472   4.916
 2576SOL    HW2 8628   4.317   6.634   4.927
 2577SOL     OW 8629   1.783   4.170   2.645
 2577SOL    HW1 8630   1.841   4.110   2.589
 2577SOL    HW2 8631   1.841   4.232   2.698
 2578SOL     OW 8632   4.260   1.970   2.428
 2578SOL    HW1 8633   4.294   1.926   2.511
 2578SOL    HW2 8634   4.230   1.900   2.363
 2579SOL     OW 8635   0.660   6.543   2.610
 2579SOL    HW1 8636   0.703   6.483   2.543
 2579SOL    HW2 8637   0.730   6.593   2.661
 2580SOL     OW 8638   2.518   1.777   6.006
 2580SOL    HW1 8639   2.607   1.804   5.971
 2580SOL    HW2 8640   2.529   1.732   6.095
 2581SOL     OW 8641   3.074   0.708   5.414
 2581SOL    HW1 8642   3.134   0.788   5.409
 2581SOL    HW2 8643   3.125   0.629   5.449
 2582SOL     OW 8644   6.916   3.369   1.500
 2582SOL    HW1 8645   6.983   3.305   1.465
 2582SOL    HW2 8646   6.865   3.326   1.575
 2583SOL     OW 8647   5.710   0.684   1.174
 2583SOL    HW1 8648   5.635   0.746   1.196
 2583SOL    HW2 8649   5.797   0.733   1.179
 2584SOL     OW 8650   3.691   4.703   6.229
 2584SOL    HW1 8651   3.624   4.631   6.244
 2584SOL    HW2 8652   3.760   4.672   6.164
 2585SOL     OW 8653   2.840   5.438   0.062
 2585SOL    HW1 8654   2.740   5.436   0.050
 2585SOL    HW2 8655   2.862   5.494   0.142
 2586SOL     OW 8656   2.478   0.801   3.562
 2586SOL    HW1 8657   2.449   0.895   3.581
 2586SOL    HW2 8658   2.488   0.752   3.649
 2587SOL     OW 8659   6.023   0.895   4.421
 2587SOL    HW1 8660   6.122   0.877   4.416
 2587SOL    HW2 8661   5.991   0.931   4.334
 2588SOL     OW 8662   4.601   0.471   0.043
 2588SOL    HW1 8663   4.645   0.560   0.026
 2588SOL    HW2 8664   4.560   0.438   6.986
 2589SOL     OW 8665   2.104   6.081   0.215
 2589SOL    HW1 8666   2.156   6.135   0.281
 2589SOL    HW2 8667   2.077   6.139   0.138
 2590SOL     OW 8668   3.021   5.744   0.136
 2590SOL    HW1 8669   3.030   5.843   0.141
 2590SOL    HW2 8670   2.925   5.718   0.141
 2591SOL     OW 8671   5.437   5.927   2.786
 2591SOL    HW1 8672   5.404   5.865   2.857
 2591SOL    HW2 8673   5.380   6.009   2.783
 2592SOL     OW 8674   2.867   3.956   1.178
 2592SOL    HW1 8675   2.810   4.035   1.154
 2592SOL    HW2 8676   2.855   3.884   1.109
 2593SOL     OW 8677   3.416   4.524   6.759
 2593SOL    HW1 8678   3.399   4.522   6.660
 2593SOL    HW2 8679   3.459   4.610   6.784
 2594SOL     OW 8680   2.045   3.253   3.683
 2594SOL    HW1 8681   2.124   3.194   3.664
 2594SOL    HW2 8682   2.052   3.337   3.630
 2595SOL     OW 8683   2.274   1.448   2.983
 2595SOL    HW1 8684   2.332   1.371   2.957
 2595SOL    HW2 8685   2.216   1.473   2.905
 2596SOL     OW 8686   0.209   2.134   0.521
 2596SOL    HW1 8687   0.274   2.091   0.458
 2596SOL    HW2 8688   0.199   2.076   0.602
 2597SOL     OW 8689   6.463   6.768   0.220
 2597SOL    HW1 8690   6.508   6.715   0.148
 2597SOL    HW2 8691   6.364   6.769   0.204
 2598SOL     OW 8692   4.692   2.462   2.538
 2598SOL    HW1 8693   4.657   2.467   2.632
 2598SOL    HW2 8694   4.702   2.554   2.501
 2599SOL     OW 8695   2.571   5.734   2.747
 2599SOL    HW1 8696   2.656   5.747   2.799
 2599SOL    HW2 8697   2.521   5.820   2.743
 2600SOL     OW 8698   5.489   3.772   4.486
 2600SOL    HW1 8699   5.580   3.745   4.516
 2600SOL    HW2 8700   5.490   3.789   4.387
 2601SOL     OW 8701   6.543   1.248   4.506
 2601SOL    HW1 8702   6.609   1.204   4.567
 2601SOL    HW2 8703   6.584   1.329   4.464
 2602SOL     OW 8704   0.883   4.706   2.534
 2602SOL    HW1 8705   0.818   4.649   2.584
 2602SOL    HW2 8706   0.956   4.648   2.498
 2603SOL     OW 8707   2.357   5.593   2.657
 2603SOL    HW1 8708   2.444   5.632   2.687
 2603SOL    HW2 8709   2.372   5.498   2.629
 2604SOL     OW 8710   4.562   2.624   3.576
 2604SOL    HW1 8711   4.487   2.590   3.520
 2604SOL    HW2 8712   4.554   2.587   3.669
 2605SOL     OW 8713   1.495   2.986   1.496
 2605SOL    HW1 8714   1.588   2.962   1.468
 2605SOL    HW2 8715   1.438   2.904   1.496
 2606SOL     OW 8716   5.078   3.679   1.022
 2606SOL    HW1 8717   5.129   3.622   1.086
 2606SOL    HW2 8718   5.097   3.775   1.041
 2607SOL     OW 8719   2.447   3.141   1.698
 2607SOL    HW1 8720   2.497   3.227   1.690
 2607SOL    HW2 8721   2.352   3.160   1.723
 2608SOL     OW 8722   3.304   5.541   5.097
 2608SOL    HW1 8723   3.297   5.451   5.140
 2608SOL    HW2 8724   3.338   5.530   5.004
 2609SOL     OW 8725   0.746   2.066   1.476
 2609SOL    HW1 8726   0.730   2.077   1.377
 2609SOL    HW2 8727   0.839   2.093   1.498
 2610SOL     OW 8728   1.162   4.284   4.954
 2610SOL    HW1 8729   1.099   4.229   5.009
 2610SOL    HW2 8730   1.254   4.276   4.992
 2611SOL     OW 8731   5.832   0.398   5.492
 2611SOL    HW1 8732   5.775   0.318   5.470
 2611SOL    HW2 8733   5.790   0.448   5.568
 2612SOL     OW 8734   6.705   6.665   0.000
 2612SOL    HW1 8735   6.683   6.722   6.949
 2612SOL    HW2 8736   6.750   6.581   6.998
 2613SOL     OW 8737   1.495   6.860   7.024
 2613SOL    HW1 8738   1.396   6.870   0.008
 2613SOL    HW2 8739   1.541   6.897   0.076
 2614SOL     OW 8740   5.809   2.158   0.553
 2614SOL    HW1 8741   5.853   2.143   0.465
 2614SOL    HW2 8742   5.873   2.136   0.627
 2615SOL     OW 8743   0.734   3.315   6.831
 2615SOL    HW1 8744   0.638   3.294   6.809
 2615SOL    HW2 8745   0.737   3.377   6.910
 2616SOL     OW 8746   1.175   1.035   4.277
 2616SOL    HW1 8747   1.111   0.993   4.212
 2616SOL    HW2 8748   1.214   0.964   4.336
 2617SOL     OW 8749   5.428   0.194   1.505
 2617SOL    HW1 8750   5.364   0.269   1.485
 2617SOL    HW2 8751   5.448   0.144   1.421
 2618SOL     OW 8752   1.373   0.107   6.593
 2618SOL    HW1 8753   1.453   0.073   6.643
 2618SOL    HW2 8754   1.398   0.125   6.498
 2619SOL     OW 8755   4.963   1.400   2.712
 2619SOL    HW1 8756   4.918   1.440   2.633
 2619SOL    HW2 8757   5.059   1.381   2.690
 2620SOL     OW 8758   6.297   2.197   2.102
 2620SOL    HW1 8759   6.316   2.290   2.073
 2620SOL    HW2 8760   6.257   2.145   2.027
 2621SOL     OW 8761   2.459   6.667   1.505
 2621SOL    HW1 8762   2.502   6.596   1.560
 2621SOL    HW2 8763   2.523   6.698   1.435
 2622SOL     OW 8764   2.580   3.455   6.771
 2622SOL    HW1 8765   2.508   3.393   6.738
 2622SOL    HW2 8766   2.577   3.540   6.719
 2623SOL     OW 8767   6.979   0.436   3.967
 2623SOL    HW1 8768   6.947   0.500   3.898
 2623SOL    HW2 8769   7.001   0.486   4.051
 2624SOL     OW 8770   1.075   1.822   5.744
 2624SOL    HW1 8771   1.104   1.915   5.767
 2624SOL    HW2 8772   0.976   1.821   5.731
 2625SOL     OW 8773   2.948   5.384   5.818
 2625SOL    HW1 8774   2.909   5.303   5.775
 2625SOL    HW2 8775   2.986   5.360   5.907
 2626SOL     OW 8776   6.887   6.947   6.801
 2626SOL    HW1 8777   6.895   7.019   6.869
 2626SOL    HW2 8778   6.932   6.976   6.716
 2627SOL     OW 8779   2.335   0.593   5.778
 2627SOL    HW1 8780   2.383   0.627   5.859
 2627SOL    HW2 8781   2.265   0.659   5.751
 2628SOL     OW 8782   0.062   5.096   1.386
 2628SOL    HW1 8783   0.103   5.166   1.328
 2628SOL    HW2 8784   0.066   5.125   1.482
 2629SOL     OW 8785   3.284   4.093   2.713
 2629SOL    HW1 8786   3.216   4.020   2.713
 2629SOL    HW2 8787   3.269   4.152   2.634
 2630SOL     OW 8788   3.461   0.713   4.285
 2630SOL    HW1 8789   3.494   0.796   4.240
 2630SOL    HW2 8790   3.375   0.733   4.332
 2631SOL     OW 8791   5.012   6.070   0.036
 2631SOL    HW1 8792   4.921   6.075   7.025
 2631SOL    HW2 8793   5.063   6.152   0.011
 2632SOL     OW 8794   5.587   5.075   1.712
 2632SOL    HW1 8795   5.632   5.155   1.754
 2632SOL    HW2 8796   5.630   4.992   1.745
 2633SOL     OW 8797   0.110   3.342   6.073
 2633SOL    HW1 8798   0.024   3.331   6.124
 2633SOL    HW2 8799   0.094   3.396   5.991
 2634SOL     OW 8800   1.210   1.736   6.025
 2634SOL    HW1 8801   1.188   1.834   6.022
 2634SOL    HW2 8802   1.243   1.707   5.936
 2635SOL     OW 8803   3.957   5.320   2.740
 2635SOL    HW1 8804   4.008   5.393   2.694
 2635SOL    HW2 8805   3.859   5.341   2.738
 2636SOL     OW 8806   3.548   6.467   6.134
 2636SOL    HW1 8807   3.516   6.372   6.132
 2636SOL    HW2 8808   3.472   6.528   6.114
 2637SOL     OW 8809   0.157   1.258   3.179
 2637SOL    HW1 8810   0.165   1.343   3.128
 2637SOL    HW2 8811   0.245   1.210   3.178
 2638SOL     OW 8812   0.758   6.511   4.737
 2638SOL    HW1 8813   0.782   6.435   4.797
 2638SOL    HW2 8814   0.660   6.529   4.743
 2639SOL     OW 8815   4.983   5.056   4.800
 2639SOL    HW1 8816   4.898   5.059   4.747
 2639SOL    HW2 8817   4.974   5.115   4.881
 2640SOL     OW 8818   2.268   1.016   3.116
 2640SOL    HW1 8819   2.244   0.965   3.199
 2640SOL    HW2 8820   2.249   1.113   3.129
 2641SOL     OW 8821   5.332   2.500   0.076
 2641SOL    HW1 8822   5.346   2.551   0.160
 2641SOL    HW2 8823   5.387   2.417   0.077
 2642SOL     OW 8824   0.051   0.033   2.440
 2642SOL    HW1 8825   0.049   0.056   2.343
 2642SOL    HW2 8826   7.004   0.079   2.487
 2643SOL     OW 8827   1.630   4.721   3.979
 2643SOL    HW1 8828   1.586   4.646   3.928
 2643SOL    HW2 8829   1.683   4.683   4.055
 2644SOL     OW 8830   5.505   5.626   3.815
 2644SOL    HW1 8831   5.536   5.667   3.900
 2644SOL    HW2 8832   5.493   5.698   3.746
 2645SOL     OW 8833   4.891   5.804   2.407
 2645SOL    HW1 8834   4.833   5.754   2.343
 2645SOL    HW2 8835   4.939   5.877   2.359
 2646SOL     OW 8836   1.234   2.103   6.297
 2646SOL    HW1 8837   1.153   2.082   6.243
 2646SOL    HW2 8838   1.317   2.086   6.243
 2647SOL     OW 8839   4.248   6.581   2.725
 2647SOL    HW1 8840   4.168   6.556   2.670
 2647SOL    HW2 8841   4.315   6.507   2.720
 2648SOL     OW 8842   1.619   0.635   5.590
 2648SOL    HW1 8843   1.597   0.601   5.498
 2648SOL    HW2 8844   1.547   0.609   5.653
 2649SOL     OW 8845   6.244   1.920   3.670
 2649SOL    HW1 8846   6.254   2.012   3.633
 2649SOL    HW2 8847   6.147   1.893   3.668
 2650SOL     OW 8848   2.216   0.252   4.572
 2650SOL    HW1 8849   2.148   0.300   4.516
 2650SOL    HW2 8850   2.168   0.200   4.644
 2651SOL     OW 8851   3.736   1.852   3.331
 2651SOL    HW1 8852   3.830   1.858   3.366
 2651SOL    HW2 8853   3.728   1.774   3.269
 2652SOL     OW 8854   4.994   3.810   5.738
 2652SOL    HW1 8855   5.015   3.904   5.710
 2652SOL    HW2 8856   5.059   3.748   5.695
 2653SOL     OW 8857   2.048   6.327   0.096
 2653SOL    HW1 8858   2.041   6.419   0.058
 2653SOL    HW2 8859   1.989   6.319   0.176
 2654SOL     OW 8860   0.018   1.034   0.600
 2654SOL    HW1 8861   7.022   0.948   0.645
 2654SOL    HW2 8862   7.018   1.031   0.504
 2655SOL     OW 8863   5.429   6.723   2.999
 2655SOL    HW1 8864   5.475   6.643   2.962
 2655SOL    HW2 8865   5.434   6.798   2.934
 2656SOL     OW 8866   4.904   6.374   4.336
 2656SOL    HW1 8867   4.918   6.334   4.245
 2656SOL    HW2 8868   4.840   6.317   4.387
 2657SOL     OW 8869   1.508   3.349   0.051
 2657SOL    HW1 8870   1.421   3.322   0.091
 2657SOL    HW2 8871   1.492   3.408   7.000
 2658SOL     OW 8872   3.184   4.379   7.021
 2658SOL    HW1 8873   3.223   4.435   0.066
 2658SOL    HW2 8874   3.088   4.362   0.011
 2659SOL     OW 8875   0.237   2.209   5.255
 2659SOL    HW1 8876   0.271   2.120   5.287
 2659SOL    HW2 8877   0.280   2.281   5.310
 2660SOL     OW 8878   0.782   1.197   1.061
 2660SOL    HW1 8879   0.800   1.148   1.146
 2660SOL    HW2 8880   0.833   1.284   1.061
 2661SOL     OW 8881   1.812   1.194   1.162
 2661SOL    HW1 8882   1.910   1.178   1.157
 2661SOL    HW2 8883   1.794   1.293   1.155
 2662SOL     OW 8884   3.084   1.524   1.583
 2662SOL    HW1 8885   3.086   1.622   1.602
 2662SOL    HW2 8886   3.033   1.507   1.498
 2663SOL     OW 8887   4.235   1.002   0.867
 2663SOL    HW1 8888   4.304   1.066   0.834
 2663SOL    HW2 8889   4.166   0.989   0.795
 2664SOL     OW 8890   4.955   3.034   5.917
 2664SOL    HW1 8891   4.929   3.058   5.824
 2664SOL    HW2 8892   4.977   3.117   5.969
 2665SOL     OW 8893   1.557   3.055   3.948
 2665SOL    HW1 8894   1.599   3.012   3.868
 2665SOL    HW2 8895   1.573   3.153   3.945
 2666SOL     OW 8896   1.727   4.233   1.877
 2666SOL    HW1 8897   1.741   4.144   1.834
 2666SOL    HW2 8898   1.636   4.236   1.918
 2667SOL     OW 8899   6.406   2.785   4.477
 2667SOL    HW1 8900   6.379   2.709   4.418
 2667SOL    HW2 8901   6.482   2.835   4.435
 2668SOL     OW 8902   5.489   1.001   4.251
 2668SOL    HW1 8903   5.500   0.910   4.290
 2668SOL    HW2 8904   5.405   1.005   4.197
 2669SOL     OW 8905   2.654   1.063   1.515
 2669SOL    HW1 8906   2.744   1.106   1.510
 2669SOL    HW2 8907   2.655   0.992   1.585
 2670SOL     OW 8908   0.602   0.561   0.612
 2670SOL    HW1 8909   0.688   0.512   0.606
 2670SOL    HW2 8910   0.538   0.527   0.543
 2671SOL     OW 8911   5.321   4.345   5.922
 2671SOL    HW1 8912   5.416   4.371   5.902
 2671SOL    HW2 8913   5.317   4.302   6.013
 2672SOL     OW 8914   2.428   1.881   2.831
 2672SOL    HW1 8915   2.375   1.908   2.750
 2672SOL    HW2 8916   2.383   1.915   2.913
 2673SOL     OW 8917   3.285   6.914   2.735
 2673SOL    HW1 8918   3.208   6.882   2.790
 2673SOL    HW2 8919   3.366   6.858   2.756
 2674SOL     OW 8920   6.670   5.918   3.254
 2674SOL    HW1 8921   6.681   5.939   3.352
 2674SOL    HW2 8922   6.628   5.996   3.208
 2675SOL     OW 8923   4.374   1.004   4.881
 2675SOL    HW1 8924   4.461   1.048   4.901
 2675SOL    HW2 8925   4.390   0.909   4.853
 2676SOL     OW 8926   3.938   3.109   4.629
 2676SOL    HW1 8927   3.939   3.106   4.529
 2676SOL    HW2 8928   3.947   3.203   4.660
 2677SOL     OW 8929   1.731   5.876   0.251
 2677SOL    HW1 8930   1.729   5.936   0.171
 2677SOL    HW2 8931   1.791   5.915   0.321
 2678SOL     OW 8932   3.638   1.989   2.413
 2678SOL    HW1 8933   3.617   2.012   2.318
 2678SOL    HW2 8934   3.555   1.994   2.468
 2679SOL     OW 8935   2.042   3.551   2.662
 2679SOL    HW1 8936   2.059   3.649   2.660
 2679SOL    HW2 8937   1.974   3.527   2.594
 2680SOL     OW 8938   5.592   2.794   6.735
 2680SOL    HW1 8939   5.653   2.727   6.692
 2680SOL    HW2 8940   5.531   2.747   6.798
 2681SOL     OW 8941   2.493   2.336   3.619
 2681SOL    HW1 8942   2.481   2.277   3.539
 2681SOL    HW2 8943   2.447   2.295   3.698
 2682SOL     OW 8944   3.787   3.978   2.044
 2682SOL    HW1 8945   3.707   4.036   2.030
 2682SOL    HW2 8946   3.814   3.983   2.141
 2683SOL     OW 8947   1.746   3.523   1.624
 2683SOL    HW1 8948   1.725   3.449   1.560
 2683SOL    HW2 8949   1.693   3.510   1.708
 2684SOL     OW 8950   5.500   0.678   3.736
 2684SOL    HW1 8951   5.507   0.709   3.642
 2684SOL    HW2 8952   5.572   0.722   3.791
 2685SOL     OW 8953   1.460   6.953   5.693
 2685SOL    HW1 8954   1.531   6.986   5.630
 2685SOL    HW2 8955   1.500   6.940   5.784
 2686SOL     OW 8956   1.736   1.606   6.113
 2686SOL    HW1 8957   1.699   1.518   6.141
 2686SOL    HW2 8958   1.683   1.679   6.157
 2687SOL     OW 8959   4.162   2.063   1.405
 2687SOL    HW1 8960   4.070   2.024   1.401
 2687SOL    HW2 8961   4.226   1.994   1.438
 2688SOL     OW 8962   3.912   2.634   6.681
 2688SOL    HW1 8963   3.975   2.710   6.695
 2688SOL    HW2 8964   3.849   2.656   6.607
 2689SOL     OW 8965   6.959   3.609   2.854
 2689SOL    HW1 8966   6.912   3.657   2.779
 2689SOL    HW2 8967   6.893   3.555   2.905
 2690SOL     OW 8968   4.937   0.962   5.112
 2690SOL    HW1 8969   4.898   1.032   5.052
 2690SOL    HW2 8970   4.929   0.872   5.068
 2691SOL     OW 8971   0.059   3.421   4.685
 2691SOL    HW1 8972   0.087   3.452   4.776
 2691SOL    HW2 8973   0.101   3.333   4.666
 2692SOL     OW 8974   2.119   5.273   1.681
 2692SOL    HW1 8975   2.099   5.175   1.673
 2692SOL    HW2 8976   2.065   5.323   1.615
 2693SOL     OW 8977   0.581   4.988   2.945
 2693SOL    HW1 8978   0.542   5.038   3.022
 2693SOL    HW2 8979   0.661   5.037   2.910
 2694SOL     OW 8980   2.195   0.526   2.436
 2694SOL    HW1 8981   2.241   0.437   2.429
 2694SOL    HW2 8982   2.105   0.513   2.479
 2695SOL     OW 8983   6.967   5.637   3.327
 2695SOL    HW1 8984   6.920   5.700   3.264
 2695SOL    HW2 8985   6.981   5.683   3.415
 2696SOL     OW 8986   3.845   4.657   6.009
 2696SOL    HW1 8987   3.790   4.684   5.930
 2696SOL    HW2 8988   3.942   4.661   5.985
 2697SOL     OW 8989   3.724   2.682   0.286
 2697SOL    HW1 8990   3.705   2.724   0.374
 2697SOL    HW2 8991   3.653   2.708   0.220
 2698SOL     OW 8992   1.458   5.835   6.666
 2698SOL    HW1 8993   1.492   5.798   6.752
 2698SOL    HW2 8994   1.429   5.930   6.680
 2699SOL     OW 8995   2.873   0.054   1.739
 2699SOL    HW1 8996   2.878   0.153   1.751
 2699SOL    HW2 8997   2.950   0.011   1.785
 2700SOL     OW 8998   4.558   2.110   1.591
 2700SOL    HW1 8999   4.529   2.098   1.496
 2700SOL    HW2 9000   4.478   2.099   1.651
 2701SOL     OW 9001   5.302   3.585   5.139
 2701SOL    HW1 9002   5.374   3.516   5.147
 2701SOL    HW2 9003   5.231   3.553   5.076
 2702SOL     OW 9004   2.016   1.310   4.597
 2702SOL    HW1 9005   2.048   1.239   4.659
 2702SOL    HW2 9006   1.983   1.389   4.649
 2703SOL     OW 9007   2.317   6.030   2.143
 2703SOL    HW1 9008   2.317   6.124   2.109
 2703SOL    HW2 9009   2.223   5.999   2.156
 2704SOL     OW 9010   4.202   0.606   3.376
 2704SOL    HW1 9011   4.192   0.652   3.465
 2704SOL    HW2 9012   4.213   0.508   3.390
 2705SOL     OW 9013   1.466   0.021   5.270
 2705SOL    HW1 9014   1.485   6.985   5.196
 2705SOL    HW2 9015   1.382   7.022   5.317
 2706SOL     OW 9016   6.553   4.589   3.659
 2706SOL    HW1 9017   6.482   4.660   3.662
 2706SOL    HW2 9018   6.568   4.552   3.750
 2707SOL     OW 9019   4.863   1.564   2.889
 2707SOL    HW1 9020   4.885   1.517   2.804
 2707SOL    HW2 9021   4.824   1.654   2.867
 2708SOL     OW 9022   5.057   3.420   5.794
 2708SOL    HW1 9023   4.987   3.392   5.729
 2708SOL    HW2 9024   5.145   3.429   5.746
 2709SOL     OW 9025   5.277   1.349   5.876
 2709SOL    HW1 9026   5.206   1.387   5.818
 2709SOL    HW2 9027   5.251   1.257   5.906
 2710SOL     OW 9028   1.227   2.597   4.591
 2710SOL    HW1 9029   1.279   2.682   4.591
 2710SOL    HW2 9030   1.129   2.617   4.603
 2711SOL     OW 9031   4.539   0.719   1.527
 2711SOL    HW1 9032   4.585   0.679   1.447
 2711SOL    HW2 9033   4.547   0.819   1.522
 2712SOL     OW 9034   5.633   5.751   1.545
 2712SOL    HW1 9035   5.588   5.838   1.564
 2712SOL    HW2 9036   5.565   5.679   1.534
 2713SOL     OW 9037   3.630   5.015   5.540
 2713SOL    HW1 9038   3.617   5.070   5.623
 2713SOL    HW2 9039   3.643   4.919   5.565
 2714SOL     OW 9040   3.097   4.472   6.324
 2714SOL    HW1 9041   3.066   4.477   6.419
 2714SOL    HW2 9042   3.109   4.564   6.288
 2715SOL     OW 9043   4.738   6.128   6.999
 2715SOL    HW1 9044   4.646   6.144   0.006
 2715SOL    HW2 9045   4.739   6.040   6.950
 2716SOL     OW 9046   4.385   1.214   2.593
 2716SOL    HW1 9047   4.353   1.308   2.605
 2716SOL    HW2 9048   4.472   1.202   2.640
 2717SOL     OW 9049   1.339   2.248   2.481
 2717SOL    HW1 9050   1.439   2.251   2.479
 2717SOL    HW2 9051   1.308   2.154   2.485
 2718SOL     OW 9052   6.296   1.755   5.742
 2718SOL    HW1 9053   6.233   1.829   5.719
 2718SOL    HW2 9054   6.246   1.668   5.744
 2719SOL     OW 9055   0.850   4.887   3.352
 2719SOL    HW1 9056   0.851   4.943   3.435
 2719SOL    HW2 9057   0.789   4.809   3.365
 2720SOL     OW 9058   2.284   5.166   6.483
 2720SOL    HW1 9059   2.244   5.107   6.553
 2720SOL    HW2 9060   2.222   5.171   6.405
 2721SOL     OW 9061   2.144   6.862   3.181
 2721SOL    HW1 9062   2.142   6.763   3.164
 2721SOL    HW2 9063   2.165   6.910   3.096
 2722SOL     OW 9064   3.604   4.781   6.484
 2722SOL    HW1 9065   3.663   4.774   6.404
 2722SOL    HW2 9066   3.607   4.695   6.535
 2723SOL     OW 9067   4.213   5.345   6.845
 2723SOL    HW1 9068   4.278   5.276   6.874
 2723SOL    HW2 9069   4.190   5.331   6.749
 2724SOL     OW 9070   6.563   5.809   1.250
 2724SOL    HW1 9071   6.634   5.758   1.200
 2724SOL    HW2 9072   6.595   5.903   1.265
 2725SOL     OW 9073   6.197   4.996   3.246
 2725SOL    HW1 9074   6.135   4.953   3.180
 2725SOL    HW2 9075   6.191   5.095   3.238
 2726SOL     OW 9076   6.618   2.270   3.165
 2726SOL    HW1 9077   6.593   2.261   3.261
 2726SOL    HW2 9078   6.540   2.248   3.108
 2727SOL     OW 9079   1.703   5.248   3.768
 2727SOL    HW1 9080   1.796   5.261   3.803
 2727SOL    HW2 9081   1.639   5.303   3.823
 2728SOL     OW 9082   5.073   5.550   5.557
 2728SOL    HW1 9083   5.157   5.498   5.574
 2728SOL    HW2 9084   5.031   5.575   5.644
 2729SOL     OW 9085   6.509   0.214   0.235
 2729SOL    HW1 9086   6.524   0.271   0.316
 2729SOL    HW2 9087   6.498   0.272   0.155
 2730SOL     OW 9088   1.347   5.405   2.890
 2730SOL    HW1 9089   1.380   5.482   2.943
 2730SOL    HW2 9090   1.296   5.438   2.810
 2731SOL     OW 9091   4.000   3.752   5.045
 2731SOL    HW1 9092   4.070   3.775   5.113
 2731SOL    HW2 9093   3.909   3.757   5.087
 2732SOL     OW 9094   4.703   0.521   1.670
 2732SOL    HW1 9095   4.630   0.560   1.613
 2732SOL    HW2 9096   4.753   0.595   1.714
 2733SOL     OW 9097   0.481   0.073   0.462
 2733SOL    HW1 9098   0.429   0.107   0.383
 2733SOL    HW2 9099   0.418   0.046   0.534
 2734SOL     OW 9100   3.204   0.194   2.366
 2734SOL    HW1 9101   3.275   0.212   2.298
 2734SOL    HW2 9102   3.212   0.099   2.398
 2735SOL     OW 9103   1.601   2.347   2.786
 2735SOL    HW1 9104   1.660   2.281   2.832
 2735SOL    HW2 9105   1.541   2.391   2.853
 2736SOL     OW 9106   5.624   4.395   2.682
 2736SOL    HW1 9107   5.525   4.383   2.673
 2736SOL    HW2 9108   5.650   4.485   2.647
 2737SOL     OW 9109   2.925   0.481   5.607
 2737SOL    HW1 9110   2.825   0.484   5.603
 2737SOL    HW2 9111   2.957   0.527   5.689
 2738SOL     OW 9112   5.133   6.234   1.043
 2738SOL    HW1 9113   5.102   6.236   1.138
 2738SOL    HW2 9114   5.063   6.275   0.985
 2739SOL     OW 9115   0.492   5.753   1.396
 2739SOL    HW1 9116   0.443   5.742   1.483
 2739SOL    HW2 9117   0.516   5.663   1.360
 2740SOL     OW 9118   6.975   5.234   4.250
 2740SOL    HW1 9119   6.921   5.281   4.320
 2740SOL    HW2 9120   0.031   5.198   4.291
 2741SOL     OW 9121   1.196   6.842   6.554
 2741SOL    HW1 9122   1.296   6.845   6.558
 2741SOL    HW2 9123   1.164   6.896   6.476
 2742SOL     OW 9124   2.896   5.107   2.927
 2742SOL    HW1 9125   2.798   5.092   2.935
 2742SOL    HW2 9126   2.937   5.030   2.876
 2743SOL     OW 9127   5.510   2.025   2.807
 2743SOL    HW1 9128   5.528   1.933   2.840
 2743SOL    HW2 9129   5.594   2.063   2.766
 2744SOL     OW 9130   3.684   4.060   2.448
 2744SOL    HW1 9131   3.612   4.118   2.410
 2744SOL    HW2 9132   3.684   4.069   2.548
 2745SOL     OW 9133   0.582   6.129   0.135
 2745SOL    HW1 9134   0.600   6.105   0.230
 2745SOL    HW2 9135   0.536   6.218   0.131
 2746SOL     OW 9136   1.462   0.753   4.644
 2746SOL    HW1 9137   1.405   0.800   4.712
 2746SOL    HW2 9138   1.552   0.734   4.684
 2747SOL     OW 9139   4.170   4.740   0.223
 2747SOL    HW1 9140   4.269   4.754   0.221
 2747SOL    HW2 9141   4.130   4.772   0.137
 2748SOL     OW 9142   4.211   0.210   1.175
 2748SOL    HW1 9143   4.277   0.237   1.105
 2748SOL    HW2 9144   4.230   0.258   1.260
 2749SOL     OW 9145   3.781   1.213   0.538
 2749SOL    HW1 9146   3.682   1.206   0.525
 2749SOL    HW2 9147   3.827   1.208   0.449
 2750SOL     OW 9148   2.703   6.093   2.836
 2750SOL    HW1 9149   2.772   6.054   2.896
 2750SOL    HW2 9150   2.668   6.178   2.876
 2751SOL     OW 9151   6.300   5.052   1.066
 2751SOL    HW1 9152   6.399   5.059   1.071
 2751SOL    HW2 9153   6.265   5.116   0.998
 2752SOL     OW 9154   3.994   5.547   6.359
 2752SOL    HW1 9155   3.940   5.629   6.377
 2752SOL    HW2 9156   3.964   5.506   6.273
 2753SOL     OW 9157   5.686   4.798   5.520
 2753SOL    HW1 9158   5.588   4.788   5.539
 2753SOL    HW2 9159   5.712   4.737   5.446
 2754SOL     OW 9160   1.227   0.432   5.146
 2754SOL    HW1 9161   1.234   0.456   5.243
 2754SOL    HW2 9162   1.133   0.402   5.126
 2755SOL     OW 9163   3.154   6.925   2.058
 2755SOL    HW1 9164   3.157   6.866   2.139
 2755SOL    HW2 9165   3.246   6.934   2.019
 2756SOL     OW 9166   4.651   5.910   6.845
 2756SOL    HW1 9167   4.696   5.931   6.759
 2756SOL    HW2 9168   4.553   5.932   6.839
 2757SOL     OW 9169   0.862   4.958   0.788
 2757SOL    HW1 9170   0.944   5.007   0.760
 2757SOL    HW2 9171   0.831   4.898   0.715
 2758SOL     OW 9172   4.789   0.520   5.343
 2758SOL    HW1 9173   4.769   0.613   5.312
 2758SOL    HW2 9174   4.834   0.470   5.269
 2759SOL     OW 9175   4.756   4.946   3.920
 2759SOL    HW1 9176   4.781   4.862   3.872
 2759SOL    HW2 9177   4.811   5.022   3.885
 2760SOL     OW 9178   1.119   6.363   3.500
 2760SOL    HW1 9179   1.074   6.282   3.537
 2760SOL    HW2 9180   1.050   6.424   3.460
 2761SOL     OW 9181   2.606   5.177   4.610
 2761SOL    HW1 9182   2.594   5.268   4.649
 2761SOL    HW2 9183   2.609   5.183   4.511
 2762SOL     OW 9184   1.895   0.967   5.769
 2762SOL    HW1 9185   1.951   1.034   5.819
 2762SOL    HW2 9186   1.799   0.994   5.775
 2763SOL     OW 9187   5.472   0.711   2.177
 2763SOL    HW1 9188   5.469   0.784   2.245
 2763SOL    HW2 9189   5.460   0.749   2.086
 2764SOL     OW 9190   6.150   0.686   1.957
 2764SOL    HW1 9191   6.077   0.714   1.894
 2764SOL    HW2 9192   6.204   0.766   1.982
 2765SOL     OW 9193   5.272   2.123   2.817
 2765SOL    HW1 9194   5.369   2.102   2.802
 2765SOL    HW2 9195   5.254   2.127   2.915
 2766SOL     OW 9196   5.276   0.060   2.466
 2766SOL    HW1 9197   5.320   0.137   2.512
 2766SOL    HW2 9198   5.335   7.008   2.470
 2767SOL     OW 9199   6.474   3.961   5.727
 2767SOL    HW1 9200   6.542   4.003   5.786
 2767SOL    HW2 9201   6.382   3.980   5.761
 2768SOL     OW 9202   6.014   1.348   6.410
 2768SOL    HW1 9203   6.011   1.266   6.352
 2768SOL    HW2 9204   6.085   1.410   6.376
 2769SOL     OW 9205   0.808   4.526   0.802
 2769SOL    HW1 9206   0.855   4.439   0.818
 2769SOL    HW2 9207   0.763   4.555   0.886
 2770SOL     OW 9208   5.316   6.413   2.253
 2770SOL    HW1 9209   5.328   6.324   2.298
 2770SOL    HW2 9210   5.268   6.400   2.166
 2771SOL     OW 9211   4.695   0.530   1.329
 2771SOL    HW1 9212   4.764   0.484   1.384
 2771SOL    HW2 9213   4.728   0.620   1.302
 2772SOL     OW 9214   3.821   1.179   6.674
 2772SOL    HW1 9215   3.769   1.239   6.613
 2772SOL    HW2 9216   3.801   1.204   6.770
 2773SOL     OW 9217   2.866   4.785   0.796
 2773SOL    HW1 9218   2.860   4.833   0.708
 2773SOL    HW2 9219   2.786   4.806   0.851
 2774SOL     OW 9220   5.117   3.354   2.052
 2774SOL    HW1 9221   5.064   3.387   2.130
 2774SOL    HW2 9222   5.058   3.300   1.992
 2775SOL     OW 9223   0.134   0.081   2.849
 2775SOL    HW1 9224   0.203   0.013   2.826
 2775SOL    HW2 9225   0.045   0.052   2.815
 2776SOL     OW 9226   2.356   6.578   7.015
 2776SOL    HW1 9227   2.388   6.498   6.965
 2776SOL    HW2 9228   2.417   6.594   0.065
 2777SOL     OW 9229   1.848   2.352   4.365
 2777SOL    HW1 9230   1.798   2.384   4.445
 2777SOL    HW2 9231   1.946   2.366   4.380
 2778SOL     OW 9232   2.848   2.217   5.115
 2778SOL    HW1 9233   2.930   2.270   5.093
 2778SOL    HW2 9234   2.870   2.120   5.120
 2779SOL     OW 9235   6.159   0.916   1.253
 2779SOL    HW1 9236   6.253   0.933   1.280
 2779SOL    HW2 9237   6.154   0.906   1.153
 2780SOL     OW 9238   3.740   6.089   0.295
 2780SOL    HW1 9239   3.718   6.003   0.341
 2780SOL    HW2 9240   3.712   6.083   0.199
 2781SOL     OW 9241   4.749   3.729   6.533
 2781SOL    HW1 9242   4.663   3.776   6.513
 2781SOL    HW2 9243   4.796   3.706   6.448
 2782SOL     OW 9244   3.737   1.176   5.316
 2782SOL    HW1 9245   3.755   1.113   5.392
 2782SOL    HW2 9246   3.749   1.128   5.230
 2783SOL     OW 9247   0.590   4.108   5.414
 2783SOL    HW1 9248   0.622   4.094   5.508
 2783SOL    HW2 9249   0.538   4.193   5.410
 2784SOL     OW 9250   2.424   2.580   1.530
 2784SOL    HW1 9251   2.447   2.605   1.436
 2784SOL    HW2 9252   2.325   2.564   1.537
 2785SOL     OW 9253   6.106   1.489   2.133
 2785SOL    HW1 9254   6.177   1.557   2.116
 2785SOL    HW2 9255   6.044   1.523   2.204
 2786SOL     OW 9256   3.753   0.576   0.608
 2786SOL    HW1 9257   3.693   0.531   0.674
 2786SOL    HW2 9258   3.757   0.522   0.523
 2787SOL     OW 9259   2.043   3.808   6.136
 2787SOL    HW1 9260   2.070   3.712   6.141
 2787SOL    HW2 9261   1.999   3.836   6.222
 2788SOL     OW 9262   0.498   3.450   0.013
 2788SOL    HW1 9263   0.591   3.444   0.048
 2788SOL    HW2 9264   0.460   3.540   0.035
 2789SOL     OW 9265   0.784   2.626   4.268
 2789SOL    HW1 9266   0.785   2.726   4.276
 2789SOL    HW2 9267   0.867   2.588   4.311
 2790SOL     OW 9268   3.625   6.405   4.272
 2790SOL    HW1 9269   3.617   6.459   4.188
 2790SOL    HW2 9270   3.543   6.417   4.328
 2791SOL     OW 9271   2.112   3.766   2.902
 2791SOL    HW1 9272   2.013   3.780   2.914
 2791SOL    HW2 9273   2.137   3.676   2.938
 2792SOL     OW 9274   1.050   2.506   5.531
 2792SOL    HW1 9275   0.986   2.438   5.497
 2792SOL    HW2 9276   1.002   2.570   5.591
 2793SOL     OW 9277   4.670   0.528   4.037
 2793SOL    HW1 9278   4.708   0.566   4.122
 2793SOL    HW2 9279   4.571   0.520   4.046
 2794SOL     OW 9280   0.854   1.365   1.755
 2794SOL    HW1 9281   0.781   1.432   1.770
 2794SOL    HW2 9282   0.903   1.349   1.840
 2795SOL     OW 9283   1.056   3.816   1.159
 2795SOL    HW1 9284   1.060   3.896   1.218
 2795SOL    HW2 9285   1.035   3.735   1.213
 2796SOL     OW 9286   5.163   4.537   2.424
 2796SOL    HW1 9287   5.171   4.482   2.341
 2796SOL    HW2 9288   5.072   4.524   2.464
 2797SOL     OW 9289   4.518   4.374   5.256
 2797SOL    HW1 9290   4.423   4.389   5.229
 2797SOL    HW2 9291   4.523   4.291   5.313
 2798SOL     OW 9292   1.898   4.086   3.446
 2798SOL    HW1 9293   1.886   4.163   3.509
 2798SOL    HW2 9294   1.966   4.023   3.483
 2799SOL     OW 9295   0.149   5.910   5.975
 2799SOL    HW1 9296   0.205   5.846   6.028
 2799SOL    HW2 9297   0.053   5.896   5.997
 2800SOL     OW 9298   2.731   1.160   6.403
 2800SOL    HW1 9299   2.667   1.236   6.411
 2800SOL    HW2 9300   2.687   1.075   6.432
 2801SOL     OW 9301   4.215   5.254   1.915
 2801SOL    HW1 9302   4.149   5.271   1.842
 2801SOL    HW2 9303   4.170   5.206   1.990
 2802SOL     OW 9304   6.460   0.370   6.529
 2802SOL    HW1 9305   6.477   0.272   6.517
 2802SOL    HW2 9306   6.521   0.421   6.468
 2803SOL     OW 9307   2.361   5.908   5.528
 2803SOL    HW1 9308   2.353   5.923   5.627
 2803SOL    HW2 9309   2.416   5.981   5.488
 2804SOL     OW 9310   0.562   4.578   2.324
 2804SOL    HW1 9311   0.633   4.598   2.257
 2804SOL    HW2 9312   0.527   4.486   2.310
 2805SOL     OW 9313   6.156   3.861   6.853
 2805SOL    HW1 9314   6.090   3.799   6.812
 2805SOL    HW2 9315   6.212   3.903   6.781
 2806SOL     OW 9316   6.579   5.688   2.460
 2806SOL    HW1 9317   6.493   5.712   2.505
 2806SOL    HW2 9318   6.655   5.726   2.512
 2807SOL     OW 9319   3.869   4.988   3.613
 2807SOL    HW1 9320   3.842   4.958   3.521
 2807SOL    HW2 9321   3.961   5.029   3.609
 2808SOL     OW 9322   4.732   6.170   4.415
 2808SOL    HW1 9323   4.669   6.231   4.367
 2808SOL    HW2 9324   4.709   6.169   4.512
 2809SOL     OW 9325   5.963   2.926   0.227
 2809SOL    HW1 9326   5.957   2.860   0.152
 2809SOL    HW2 9327   6.050   2.914   0.274
 2810SOL     OW 9328   1.547   1.197   6.318
 2810SOL    HW1 9329   1.472   1.145   6.277
 2810SOL    HW2 9330   1.516   1.237   6.405
 2811SOL     OW 9331   0.068   0.594   4.165
 2811SOL    HW1 9332   0.146   0.533   4.150
 2811SOL    HW2 9333   0.079   0.640   4.253
 2812SOL     OW 9334   5.035   4.663   2.856
 2812SOL    HW1 9335   5.090   4.669   2.773
 2812SOL    HW2 9336   5.032   4.568   2.888
 2813SOL     OW 9337   6.183   2.042   6.316
 2813SOL    HW1 9338   6.191   2.141   6.304
 2813SOL    HW2 9339   6.108   2.008   6.260
 2814SOL     OW 9340   5.507   4.421   4.592
 2814SOL    HW1 9341   5.457   4.493   4.639
 2814SOL    HW2 9342   5.602   4.419   4.625
 2815SOL     OW 9343   0.469   0.867   4.562
 2815SOL    HW1 9344   0.544   0.801   4.568
 2815SOL    HW2 9345   0.474   0.915   4.474
 2816SOL     OW 9346   5.172   6.612   3.079
 2816SOL    HW1 9347   5.119   6.682   3.127
 2816SOL    HW2 9348   5.248   6.655   3.031
 2817SOL     OW 9349   1.420   1.474   1.257
 2817SOL    HW1 9350   1.483   1.449   1.183
 2817SOL    HW2 9351   1.368   1.394   1.284
 2818SOL     OW 9352   1.413   3.041   0.121
 2818SOL    HW1 9353   1.473   3.029   0.041
 2818SOL    HW2 9354   1.326   2.995   0.104
 2819SOL     OW 9355   6.587   2.950   1.131
 2819SOL    HW1 9356   6.582   3.022   1.062
 2819SOL    HW2 9357   6.661   2.887   1.108
 2820SOL     OW 9358   5.028   2.213   3.849
 2820SOL    HW1 9359   4.981   2.151   3.787
 2820SOL    HW2 9360   4.970   2.231   3.929
 2821SOL     OW 9361   1.635   3.375   3.448
 2821SOL    HW1 9362   1.649   3.432   3.529
 2821SOL    HW2 9363   1.588   3.428   3.378
 2822SOL     OW 9364   2.905   1.892   0.943
 2822SOL    HW1 9365   2.975   1.918   1.010
 2822SOL    HW2 9366   2.938   1.817   0.887
 2823SOL     OW 9367   1.783   0.319   4.150
 2823SOL    HW1 9368   1.794   0.338   4.052
 2823SOL    HW2 9369   1.864   0.270   4.183
 2824SOL     OW 9370   3.220   2.033   5.338
 2824SOL    HW1 9371   3.297   2.085   5.300
 2824SOL    HW2 9372   3.157   2.009   5.264
 2825SOL     OW 9373   6.134   6.390   1.180
 2825SOL    HW1 9374   6.074   6.326   1.132
 2825SOL    HW2 9375   6.099   6.483   1.169
 2826SOL     OW 9376   4.910   3.261   4.314
 2826SOL    HW1 9377   4.906   3.233   4.218
 2826SOL    HW2 9378   5.001   3.243   4.350
 2827SOL     OW 9379   6.751   0.392   6.386
 2827SOL    HW1 9380   6.705   0.476   6.356
 2827SOL    HW2 9381   6.842   0.387   6.344
 2828SOL     OW 9382   3.974   2.140   6.450
 2828SOL    HW1 9383   3.893   2.198   6.455
 2828SOL    HW2 9384   3.946   2.044   6.446
 2829SOL     OW 9385   3.128   0.530   0.073
 2829SOL    HW1 9386   3.075   0.516   0.156
 2829SOL    HW2 9387   3.087   0.479   7.025
 2830SOL     OW 9388   3.171   3.697   6.775
 2830SOL    HW1 9389   3.161   3.790   6.741
 2830SOL    HW2 9390   3.080   3.656   6.786
 2831SOL     OW 9391   6.798   6.434   4.185
 2831SOL    HW1 9392   6.824   6.528   4.208
 2831SOL    HW2 9393   6.804   6.422   4.086
 2832SOL     OW 9394   0.554   1.205   2.198
 2832SOL    HW1 9395   0.583   1.243   2.110
 2832SOL    HW2 9396   0.456   1.223   2.211
 2833SOL     OW 9397   6.693   3.394   2.392
 2833SOL    HW1 9398   6.657   3.381   2.299
 2833SOL    HW2 9399   6.619   3.385   2.458
 2834SOL     OW 9400   4.639   0.684   5.820
 2834SOL    HW1 9401   4.585   0.703   5.902
 2834SOL    HW2 9402   4.595   0.612   5.767
 2835SOL     OW 9403   6.553   6.503   3.510
 2835SOL    HW1 9404   6.632   6.459   3.467
 2835SOL    HW2 9405   6.566   6.602   3.510
 2836SOL     OW 9406   6.252   0.476   0.651
 2836SOL    HW1 9407   6.254   0.572   0.680
 2836SOL    HW2 9408   6.236   0.417   0.731
 2837SOL     OW 9409   6.045   3.320   3.402
 2837SOL    HW1 9410   6.057   3.303   3.304
 2837SOL    HW2 9411   6.117   3.274   3.453
 2838SOL     OW 9412   1.958   4.539   4.365
 2838SOL    HW1 9413   1.878   4.560   4.309
 2838SOL    HW2 9414   1.929   4.517   4.458
 2839SOL     OW 9415   4.439   2.641   0.840
 2839SOL    HW1 9416   4.487   2.726   0.862
 2839SOL    HW2 9417   4.344   2.648   0.873
 2840SOL     OW 9418   6.542   2.776   4.700
 2840SOL    HW1 9419   6.517   2.871   4.721
 2840SOL    HW2 9420   6.514   2.754   4.607
 2841SOL     OW 9421   6.950   6.441   0.804
 2841SOL    HW1 9422   6.993   6.380   0.870
 2841SOL    HW2 9423   6.925   6.527   0.849
 2842SOL     OW 9424   6.003   3.407   2.853
 2842SOL    HW1 9425   6.056   3.458   2.920
 2842SOL    HW2 9426   5.955   3.472   2.793
 2843SOL     OW 9427   3.986   1.136   3.860
 2843SOL    HW1 9428   3.960   1.102   3.950
 2843SOL    HW2 9429   4.074   1.184   3.867
 2844SOL     OW 9430   1.095   4.184   5.229
 2844SOL    HW1 9431   1.056   4.167   5.320
 2844SOL    HW2 9432   1.156   4.263   5.234
 2845SOL     OW 9433   6.878   4.104   5.650
 2845SOL    HW1 9434   6.849   4.019   5.607
 2845SOL    HW2 9435   6.977   4.109   5.654
 2846SOL     OW 9436   5.673   0.928   5.860
 2846SOL    HW1 9437   5.647   0.852   5.921
 2846SOL    HW2 9438   5.760   0.967   5.892
 2847SOL     OW 9439   4.375   4.687   4.327
 2847SOL    HW1 9440   4.359   4.674   4.229
 2847SOL    HW2 9441   4.447   4.754   4.341
 2848SOL     OW 9442   2.010   6.608   5.405
 2848SOL    HW1 9443   2.046   6.533   5.349
 2848SOL    HW2 9444   1.933   6.575   5.459
 2849SOL     OW 9445   1.775   3.032   1.968
 2849SOL    HW1 9446   1.805   2.966   1.899
 2849SOL    HW2 9447   1.820   3.012   2.055
 2850SOL     OW 9448   3.898   1.661   0.402
 2850SOL    HW1 9449   3.819   1.695   0.352
 2850SOL    HW2 9450   3.958   1.610   0.341
 2851SOL     OW 9451   2.581   5.224   6.023
 2851SOL    HW1 9452   2.661   5.283   6.007
 2851SOL    HW2 9453   2.543   5.243   6.113
 2852SOL     OW 9454   0.619   2.494   6.608
 2852SOL    HW1 9455   0.534   2.441   6.602
 2852SOL    HW2 9456   0.631   2.546   6.524
 2853SOL     OW 9457   3.553   2.302   1.513
 2853SOL    HW1 9458   3.599   2.244   1.579
 2853SOL    HW2 9459   3.563   2.398   1.540
 2854SOL     OW 9460   0.443   0.573   3.669
 2854SOL    HW1 9461   0.523   0.632   3.653
 2854SOL    HW2 9462   0.361   0.618   3.633
 2855SOL     OW 9463   3.406   1.653   4.665
 2855SOL    HW1 9464   3.359   1.653   4.577
 2855SOL    HW2 9465   3.416   1.559   4.698
 2856SOL     OW 9466   2.459   1.488   5.609
 2856SOL    HW1 9467   2.448   1.413   5.674
 2856SOL    HW2 9468   2.490   1.570   5.657
 2857SOL     OW 9469   3.360   3.324   3.560
 2857SOL    HW1 9470   3.403   3.411   3.536
 2857SOL    HW2 9471   3.372   3.258   3.486
 2858SOL     OW 9472   5.564   2.646   3.199
 2858SOL    HW1 9473   5.502   2.695   3.260
 2858SOL    HW2 9474   5.574   2.552   3.231
 2859SOL     OW 9475   5.300   6.066   0.128
 2859SOL    HW1 9476   5.331   6.076   0.223
 2859SOL    HW2 9477   5.201   6.076   0.125
 2860SOL     OW 9478   4.312   2.338   0.896
 2860SOL    HW1 9479   4.323   2.398   0.975
 2860SOL    HW2 9480   4.400   2.297   0.872
 2861SOL     OW 9481   3.901   5.242   6.212
 2861SOL    HW1 9482   3.919   5.334   6.177
 2861SOL    HW2 9483   3.871   5.183   6.137
 2862SOL     OW 9484   6.515   6.763   3.230
 2862SOL    HW1 9485   6.549   6.762   3.324
 2862SOL    HW2 9486   6.420   6.731   3.228
 2863SOL     OW 9487   6.648   0.793   7.022
 2863SOL    HW1 9488   6.594   0.849   6.959
 2863SOL    HW2 9489   6.587   0.734   0.047
 2864SOL     OW 9490   3.529   1.773   0.657
 2864SOL    HW1 9491   3.497   1.684   0.622
 2864SOL    HW2 9492   3.546   1.834   0.580
 2865SOL     OW 9493   4.463   4.832   5.092
 2865SOL    HW1 9494   4.428   4.803   5.003
 2865SOL    HW2 9495   4.560   4.854   5.084
 2866SOL     OW 9496   0.151   6.876   6.416
 2866SOL    HW1 9497   0.219   6.809   6.384
 2866SOL    HW2 9498   0.193   6.938   6.481
 2867SOL     OW 9499   6.744   4.541   3.464
 2867SOL    HW1 9500   6.674   4.573   3.528
 2867SOL    HW2 9501   6.711   4.459   3.418
 2868SOL     OW 9502   1.903   5.034   4.934
 2868SOL    HW1 9503   1.978   5.082   4.889
 2868SOL    HW2 9504   1.862   4.968   4.870
 2869SOL     OW 9505   6.257   1.320   2.275
 2869SOL    HW1 9506   6.311   1.393   2.319
 2869SOL    HW2 9507   6.209   1.357   2.196
 2870SOL     OW 9508   4.162   2.227   2.424
 2870SOL    HW1 9509   4.193   2.132   2.428
 2870SOL    HW2 9510   4.111   2.242   2.339
 2871SOL     OW 9511   1.262   1.607   5.766
 2871SOL    HW1 9512   1.246   1.539   5.694
 2871SOL    HW2 9513   1.199   1.684   5.754
 2872SOL     OW 9514   2.066   0.296   3.926
 2872SOL    HW1 9515   2.047   0.393   3.943
 2872SOL    HW2 9516   2.120   0.287   3.842
 2873SOL     OW 9517   6.635   5.823   1.719
 2873SOL    HW1 9518   6.658   5.920   1.712
 2873SOL    HW2 9519   6.718   5.769   1.708
 2874SOL     OW 9520   5.534   2.187   2.148
 2874SOL    HW1 9521   5.483   2.165   2.064
 2874SOL    HW2 9522   5.471   2.226   2.216
 2875SOL     OW 9523   2.668   5.059   1.430
 2875SOL    HW1 9524   2.616   5.144   1.436
 2875SOL    HW2 9525   2.762   5.076   1.462
 2876SOL     OW 9526   6.842   2.466   1.736
 2876SOL    HW1 9527   6.818   2.382   1.785
 2876SOL    HW2 9528   6.884   2.530   1.800
 2877SOL     OW 9529   1.977   3.678   5.671
 2877SOL    HW1 9530   1.969   3.581   5.693
 2877SOL    HW2 9531   1.951   3.732   5.750
 2878SOL     OW 9532   3.636   4.911   0.365
 2878SOL    HW1 9533   3.623   4.939   0.461
 2878SOL    HW2 9534   3.631   4.812   0.358
 2879SOL     OW 9535   4.601   4.504   6.999
 2879SOL    HW1 9536   4.514   4.541   0.001
 2879SOL    HW2 9537   4.590   4.407   6.975
 2880SOL     OW 9538   2.151   7.007   2.950
 2880SOL    HW1 9539   2.177   0.043   2.878
 2880SOL    HW2 9540   2.142   6.915   2.912
 2881SOL     OW 9541   0.069   0.283   6.802
 2881SOL    HW1 9542   0.027   0.337   6.730
 2881SOL    HW2 9543   0.104   0.344   6.873
 2882SOL     OW 9544   6.737   3.284   3.320
 2882SOL    HW1 9545   6.837   3.295   3.322
 2882SOL    HW2 9546   6.702   3.280   3.413
 2883SOL     OW 9547   4.485   5.917   2.131
 2883SOL    HW1 9548   4.437   5.915   2.219
 2883SOL    HW2 9549   4.497   6.011   2.101
 2884SOL     OW 9550   1.877   5.649   3.085
 2884SOL    HW1 9551   1.919   5.566   3.121
 2884SOL    HW2 9552   1.884   5.648   2.985
 2885SOL     OW 9553   0.834   2.408   4.610
 2885SOL    HW1 9554   0.883   2.342   4.668
 2885SOL    HW2 9555   0.792   2.360   4.533
 2886SOL     OW 9556   2.588   2.879   6.497
 2886SOL    HW1 9557   2.630   2.924   6.418
 2886SOL    HW2 9558   2.655   2.818   6.539
 2887SOL     OW 9559   2.693   1.303   4.927
 2887SOL    HW1 9560   2.680   1.336   5.021
 2887SOL    HW2 9561   2.790   1.308   4.903
 2888SOL     OW 9562   0.111   5.595   0.085
 2888SOL    HW1 9563   0.055   5.678   0.079
 2888SOL    HW2 9564   0.195   5.608   0.031
 2889SOL     OW 9565   0.893   0.075   0.874
 2889SOL    HW1 9566   0.870   0.166   0.909
 2889SOL    HW2 9567   0.826   0.008   0.909
 2890SOL     OW 9568   3.132   0.531   0.535
 2890SOL    HW1 9569   3.216   0.478   0.549
 2890SOL    HW2 9570   3.137   0.616   0.586
 2891SOL     OW 9571   2.989   4.864   4.915
 2891SOL    HW1 9572   2.942   4.936   4.865
 2891SOL    HW2 9573   2.933   4.781   4.913
 2892SOL     OW 9574   4.211   4.288   5.370
 2892SOL    HW1 9575   4.226   4.344   5.289
 2892SOL    HW2 9576   4.206   4.346   5.451
 2893SOL     OW 9577   3.645   1.039   5.882
 2893SOL    HW1 9578   3.577   1.111   5.871
 2893SOL    HW2 9579   3.600   0.954   5.910
 2894SOL     OW 9580   4.027   2.869   1.366
 2894SOL    HW1 9581   3.935   2.892   1.397
 2894SOL    HW2 9582   4.071   2.951   1.331
 2895SOL     OW 9583   3.267   3.020   0.384
 2895SOL    HW1 9584   3.333   3.048   0.315
 2895SOL    HW2 9585   3.249   2.922   0.374
 2896SOL     OW 9586   1.669   4.866   0.418
 2896SOL    HW1 9587   1.604   4.836   0.349
 2896SOL    HW2 9588   1.633   4.948   0.464
 2897SOL     OW 9589   1.158   0.189   3.718
 2897SOL    HW1 9590   1.191   0.111   3.664
 2897SOL    HW2 9591   1.066   0.214   3.688
 2898SOL     OW 9592   2.309   4.974   2.644
 2898SOL    HW1 9593   2.393   4.986   2.697
 2898SOL    HW2 9594   2.233   4.954   2.705
 2899SOL     OW 9595   5.755   0.926   0.708
 2899SOL    HW1 9596   5.770   0.940   0.806
 2899SOL    HW2 9597   5.759   0.828   0.688
 2900SOL     OW 9598   3.361   5.299   6.554
 2900SOL    HW1 9599   3.415   5.219   6.579
 2900SOL    HW2 9600   3.404   5.344   6.475
 2901SOL     OW 9601   2.615   0.107   1.100
 2901SOL    HW1 9602   2.538   0.044   1.106
 2901SOL    HW2 9603   2.665   0.108   1.186
 2902SOL     OW 9604   4.982   5.276   0.883
 2902SOL    HW1 9605   4.891   5.274   0.925
 2902SOL    HW2 9606   4.994   5.194   0.827
 2903SOL     OW 9607   2.752   2.291   1.580
 2903SOL    HW1 9608   2.775   2.384   1.552
 2903SOL    HW2 9609   2.828   2.251   1.631
 2904SOL     OW 9610   2.460   2.645   4.187
 2904SOL    HW1 9611   2.531   2.632   4.118
 2904SOL    HW2 9612   2.495   2.704   4.260
 2905SOL     OW 9613   1.344   1.822   2.278
 2905SOL    HW1 9614   1.259   1.774   2.256
 2905SOL    HW2 9615   1.328   1.883   2.355
 2906SOL     OW 9616   5.392   5.387   2.093
 2906SOL    HW1 9617   5.416   5.384   2.191
 2906SOL    HW2 9618   5.449   5.456   2.047
 2907SOL     OW 9619   6.062   0.475   4.643
 2907SOL    HW1 9620   6.029   0.381   4.656
 2907SOL    HW2 9621   6.129   0.477   4.570
 2908SOL     OW 9622   3.643   5.855   5.105
 2908SOL    HW1 9623   3.659   5.821   5.197
 2908SOL    HW2 9624   3.724   5.903   5.072
 2909SOL     OW 9625   2.068   5.670   5.566
 2909SOL    HW1 9626   2.064   5.657   5.665
 2909SOL    HW2 9627   2.163   5.670   5.536
 2910SOL     OW 9628   4.823   6.254   5.174
 2910SOL    HW1 9629   4.728   6.234   5.198
 2910SOL    HW2 9630   4.840   6.352   5.184
 2911SOL     OW 9631   2.464   4.491   3.701
 2911SOL    HW1 9632   2.401   4.556   3.742
 2911SOL    HW2 9633   2.435   4.398   3.724
 2912SOL     OW 9634   2.634   5.208   1.041
 2912SOL    HW1 9635   2.545   5.192   1.082
 2912SOL    HW2 9636   2.649   5.141   0.968
 2913SOL     OW 9637   0.980   3.595   2.590
 2913SOL    HW1 9638   0.934   3.584   2.678
 2913SOL    HW2 9639   0.923   3.652   2.530
 2914SOL     OW 9640   5.376   4.758   5.784
 2914SOL    HW1 9641   5.368   4.843   5.835
 2914SOL    HW2 9642   5.304   4.754   5.715
 2915SOL     OW 9643   4.493   1.592   3.808
 2915SOL    HW1 9644   4.576   1.591   3.864
 2915SOL    HW2 9645   4.417   1.628   3.861
 2916SOL     OW 9646   4.669   6.976   4.475
 2916SOL    HW1 9647   4.569   6.971   4.478
 2916SOL    HW2 9648   4.706   6.887   4.448
 2917SOL     OW 9649   3.857   0.523   2.102
 2917SOL    HW1 9650   3.766   0.536   2.064
 2917SOL    HW2 9651   3.856   0.545   2.200
 2918SOL     OW 9652   0.866   2.913   4.639
 2918SOL    HW1 9653   0.932   2.979   4.603
 2918SOL    HW2 9654   0.902   2.821   4.628
 2919SOL     OW 9655   6.168   6.222   0.644
 2919SOL    HW1 9656   6.240   6.166   0.685
 2919SOL    HW2 9657   6.203   6.315   0.628
 2920SOL     OW 9658   4.539   2.012   2.582
 2920SOL    HW1 9659   4.623   1.981   2.627
 2920SOL    HW2 9660   4.561   2.082   2.514
 2921SOL     OW 9661   0.181   0.978   1.356
 2921SOL    HW1 9662   0.190   0.929   1.269
 2921SOL    HW2 9663   0.230   1.064   1.351
 2922SOL     OW 9664   4.361   6.372   5.239
 2922SOL    HW1 9665   4.429   6.445   5.234
 2922SOL    HW2 9666   4.391   6.304   5.306
 2923SOL     OW 9667   0.068   4.343   6.968
 2923SOL    HW1 9668   0.091   4.438   6.988
 2923SOL    HW2 9669   0.092   4.285   0.018
 2924SOL     OW 9670   6.449   6.485   5.930
 2924SOL    HW1 9671   6.418   6.502   5.836
 2924SOL    HW2 9672   6.391   6.416   5.973
 2925SOL     OW 9673   5.724   3.514   1.162
 2925SOL    HW1 9674   5.741   3.469   1.074
 2925SOL    HW2 9675   5.672   3.598   1.147
 2926SOL     OW 9676   0.043   1.219   4.124
 2926SOL    HW1 9677   0.032   1.124   4.152
 2926SOL    HW2 9678   0.009   1.279   4.195
 2927SOL     OW 9679   0.546   3.062   2.642
 2927SOL    HW1 9680   0.569   3.148   2.686
 2927SOL    HW2 9681   0.630   3.011   2.622
 2928SOL     OW 9682   5.348   6.025   0.611
 2928SOL    HW1 9683   5.386   6.101   0.663
 2928SOL    HW2 9684   5.276   5.981   0.664
 2929SOL     OW 9685   0.793   0.119   6.106
 2929SOL    HW1 9686   0.800   0.043   6.041
 2929SOL    HW2 9687   0.854   0.102   6.183
 2930SOL     OW 9688   3.190   6.597   4.318
 2930SOL    HW1 9689   3.140   6.649   4.388
 2930SOL    HW2 9690   3.129   6.576   4.242
 2931SOL     OW 9691   4.204   4.726   6.324
 2931SOL    HW1 9692   4.146   4.803   6.348
 2931SOL    HW2 9693   4.178   4.646   6.379
 2932SOL     OW 9694   1.608   4.819   2.141
 2932SOL    HW1 9695   1.554   4.848   2.220
 2932SOL    HW2 9696   1.549   4.817   2.059
 2933SOL     OW 9697   4.787   2.250   3.562
 2933SOL    HW1 9698   4.746   2.287   3.478
 2933SOL    HW2 9699   4.881   2.283   3.570
 2934SOL     OW 9700   2.035   1.107   0.815
 2934SOL    HW1 9701   2.054   1.117   0.717
 2934SOL    HW2 9702   1.937   1.122   0.832
 2935SOL     OW 9703   6.800   1.418   1.205
 2935SOL    HW1 9704   6.701   1.430   1.201
 2935SOL    HW2 9705   6.840   1.495   1.255
 2936SOL     OW 9706   3.412   5.498   0.328
 2936SOL    HW1 9707   3.455   5.421   0.282
 2936SOL    HW2 9708   3.324   5.468   0.367
 2937SOL     OW 9709   2.815   4.605   0.125
 2937SOL    HW1 9710   2.799   4.703   0.142
 2937SOL    HW2 9711   2.845   4.592   0.031
 2938SOL     OW 9712   5.140   4.759   5.637
 2938SOL    HW1 9713   5.173   4.824   5.568
 2938SOL    HW2 9714   5.089   4.685   5.592
 2939SOL     OW 9715   0.339   6.663   6.191
 2939SOL    HW1 9716   0.395   6.723   6.136
 2939SOL    HW2 9717   0.364   6.672   6.288
 2940SOL     OW 9718   3.614   6.689   5.136
 2940SOL    HW1 9719   3.519   6.667   5.159
 2940SOL    HW2 9720   3.666   6.703   5.220
 2941SOL     OW 9721   3.761   1.702   4.896
 2941SOL    HW1 9722   3.727   1.694   4.802
 2941SOL    HW2 9723   3.820   1.624   4.916
 2942SOL     OW 9724   4.052   6.384   4.081
 2942SOL    HW1 9725   4.134   6.339   4.046
 2942SOL    HW2 9726   4.077   6.473   4.119
 2943SOL     OW 9727   5.391   4.576   2.626
 2943SOL    HW1 9728   5.405   4.649   2.559
 2943SOL    HW2 9729   5.353   4.496   2.581
 2944SOL     OW 9730   4.466   6.143   7.020
 2944SOL    HW1 9731   4.406   6.223   7.021
 2944SOL    HW2 9732   4.431   6.076   6.954
 2945SOL     OW 9733   3.200   4.057   3.930
 2945SOL    HW1 9734   3.252   3.983   3.886
 2945SOL    HW2 9735   3.107   4.058   3.895
 2946SOL     OW 9736   0.581   5.952   6.122
 2946SOL    HW1 9737   0.653   5.924   6.185
 2946SOL    HW2 9738   0.622   5.997   6.043
 2947SOL     OW 9739   0.003   5.399   0.266
 2947SOL    HW1 9740   6.932   5.407   0.274
 2947SOL    HW2 9741   0.037   5.468   0.202
 2948SOL     OW 9742   5.807   3.979   5.444
 2948SOL    HW1 9743   5.902   3.957   5.420
 2948SOL    HW2 9744   5.763   3.900   5.486
 2949SOL     OW 9745   0.719   6.503   0.911
 2949SOL    HW1 9746   0.796   6.512   0.974
 2949SOL    HW2 9747   0.645   6.563   0.941
 2950SOL     OW 9748   4.905   3.519   4.709
 2950SOL    HW1 9749   4.861   3.552   4.793
 2950SOL    HW2 9750   4.997   3.488   4.730
 2951SOL     OW 9751   5.978   0.625   0.881
 2951SOL    HW1 9752   6.042   0.602   0.955
 2951SOL    HW2 9753   6.017   0.698   0.824
 2952SOL     OW 9754   0.920   3.917   1.552
 2952SOL    HW1 9755   0.853   3.843   1.551
 2952SOL    HW2 9756   1.012   3.879   1.564
 2953SOL     OW 9757   5.733   1.614   2.261
 2953SOL    HW1 9758   5.641   1.648   2.241
 2953SOL    HW2 9759   5.737   1.580   2.355
 2954SOL     OW 9760   5.537   6.020   1.584
 2954SOL    HW1 9761   5.526   6.056   1.677
 2954SOL    HW2 9762   5.577   6.090   1.525
 2955SOL     OW 9763   6.216   2.406   0.427
 2955SOL    HW1 9764   6.143   2.456   0.473
 2955SOL    HW2 9765   6.246   2.458   0.347
 2956SOL     OW 9766   6.921   5.804   3.542
 2956SOL    HW1 9767   6.852   5.872   3.517
 2956SOL    HW2 9768   6.916   5.786   3.640
 2957SOL     OW 9769   1.584   4.678   1.513
 2957SOL    HW1 9770   1.527   4.760   1.523
 2957SOL    HW2 9771   1.534   4.610   1.460
 2958SOL     OW 9772   2.848   5.529   6.632
 2958SOL    HW1 9773   2.912   5.531   6.708
 2958SOL    HW2 9774   2.867   5.605   6.569
 2959SOL     OW 9775   4.103   5.510   0.000
 2959SOL    HW1 9776   4.134   5.459   6.949
 2959SOL    HW2 9777   4.176   5.513   0.069
 2960SOL     OW 9778   2.773   1.572   0.096
 2960SOL    HW1 9779   2.807   1.560   0.003
 2960SOL    HW2 9780   2.723   1.491   0.125
 2961SOL     OW 9781   5.921   1.722   4.477
 2961SOL    HW1 9782   6.017   1.720   4.448
 2961SOL    HW2 9783   5.916   1.716   4.577
 2962SOL     OW 9784   4.085   0.654   2.726
 2962SOL    HW1 9785   4.153   0.601   2.776
 2962SOL    HW2 9786   4.045   0.724   2.786
 2963SOL     OW 9787   1.960   3.735   5.078
 2963SOL    HW1 9788   1.910   3.659   5.037
 2963SOL    HW2 9789   1.911   3.769   5.157
 2964SOL     OW 9790   2.945   5.958   0.422
 2964SOL    HW1 9791   2.857   5.924   0.388
 2964SOL    HW2 9792   2.993   6.007   0.349
 2965SOL     OW 9793   0.326   2.640   6.073
 2965SOL    HW1 9794   0.233   2.638   6.110
 2965SOL    HW2 9795   0.356   2.735   6.062
 2966SOL     OW 9796   5.104   4.821   3.501
 2966SOL    HW1 9797   5.006   4.841   3.495
 2966SOL    HW2 9798   5.132   4.768   3.421
 2967SOL     OW 9799   5.431   2.504   4.019
 2967SOL    HW1 9800   5.495   2.551   3.957
 2967SOL    HW2 9801   5.343   2.550   4.017
 2968SOL     OW 9802   6.263   3.615   3.111
 2968SOL    HW1 9803   6.306   3.525   3.108
 2968SOL    HW2 9804   6.308   3.670   3.182
 2969SOL     OW 9805   3.807   1.198   4.509
 2969SOL    HW1 9806   3.827   1.101   4.525
 2969SOL    HW2 9807   3.820   1.249   4.593
 2970SOL     OW 9808   0.912   4.027   6.120
 2970SOL    HW1 9809   0.943   4.084   6.196
 2970SOL    HW2 9810   0.988   4.011   6.057
 2971SOL     OW 9811   5.449   3.612   2.636
 2971SOL    HW1 9812   5.404   3.649   2.554
 2971SOL    HW2 9813   5.404   3.527   2.663
 2972SOL     OW 9814   0.832   4.231   5.064
 2972SOL    HW1 9815   0.869   4.167   5.131
 2972SOL    HW2 9816   0.858   4.324   5.090
 2973SOL     OW 9817   5.950   0.340   3.960
 2973SOL    HW1 9818   5.977   0.248   3.988
 2973SOL    HW2 9819   6.000   0.365   3.877
 2974SOL     OW 9820   6.793   4.264   2.392
 2974SOL    HW1 9821   6.746   4.176   2.382
 2974SOL    HW2 9822   6.887   4.255   2.358
 2975SOL     OW 9823   6.777   1.058   4.285
 2975SOL    HW1 9824   6.697   1.066   4.226
 2975SOL    HW2 9825   6.765   0.979   4.346
 2976SOL     OW 9826   2.463   6.143   1.588
 2976SOL    HW1 9827   2.439   6.191   1.673
 2976SOL    HW2 9828   2.473   6.209   1.514
 2977SOL     OW 9829   3.382   6.380   4.389
 2977SOL    HW1 9830   3.342   6.289   4.404
 2977SOL    HW2 9831   3.314   6.439   4.347
 2978SOL     OW 9832   3.286   7.009   6.284
 2978SOL    HW1 9833   3.263   6.914   6.267
 2978SOL    HW2 9834   3.275   0.002   6.381
 2979SOL     OW 9835   3.609   1.286   3.033
 2979SOL    HW1 9836   3.613   1.200   2.981
 2979SOL    HW2 9837   3.525   1.336   3.008
 2980SOL     OW 9838   6.598   6.202   4.032
 2980SOL    HW1 9839   6.680   6.252   4.002
 2980SOL    HW2 9840   6.621   6.107   4.050
 2981SOL     OW 9841   1.986   1.634   6.222
 2981SOL    HW1 9842   1.918   1.637   6.148
 2981SOL    HW2 9843   1.949   1.582   6.299
 2982SOL     OW 9844   4.928   6.165   1.909
 2982SOL    HW1 9845   4.980   6.230   1.854
 2982SOL    HW2 9846   4.990   6.094   1.944
 2983SOL     OW 9847   6.500   0.883   3.049
 2983SOL    HW1 9848   6.532   0.971   3.082
 2983SOL    HW2 9849   6.535   0.810   3.107
 2984SOL     OW 9850   6.223   4.382   1.780
 2984SOL    HW1 9851   6.245   4.336   1.866
 2984SOL    HW2 9852   6.302   4.376   1.718
 2985SOL     OW 9853   6.877   2.223   3.453
 2985SOL    HW1 9854   6.782   2.252   3.441
 2985SOL    HW2 9855   6.937   2.277   3.394
 2986SOL     OW 9856   2.183   3.572   5.175
 2986SOL    HW1 9857   2.252   3.644   5.173
 2986SOL    HW2 9858   2.094   3.610   5.152
 2987SOL     OW 9859   4.913   1.584   4.955
 2987SOL    HW1 9860   4.955   1.517   5.017
 2987SOL    HW2 9861   4.964   1.586   4.869
 2988SOL     OW 9862   0.671   6.742   1.944
 2988SOL    HW1 9863   0.677   6.766   1.848
 2988SOL    HW2 9864   0.664   6.642   1.954
 2989SOL     OW 9865   6.475   5.448   0.604
 2989SOL    HW1 9866   6.425   5.371   0.642
 2989SOL    HW2 9867   6.492   5.516   0.675
 2990SOL     OW 9868   2.887   1.465   1.341
 2990SOL    HW1 9869   2.859   1.375   1.375
 2990SOL    HW2 9870   2.864   1.473   1.244
 2991SOL     OW 9871   6.221   4.721   0.216
 2991SOL    HW1 9872   6.315   4.730   0.184
 2991SOL    HW2 9873   6.206   4.627   0.247
 2992SOL     OW 9874   4.284   4.752   6.897
 2992SOL    HW1 9875   4.376   4.787   6.913
 2992SOL    HW2 9876   4.261   4.763   6.801
 2993SOL     OW 9877   1.612   4.667   0.184
 2993SOL    HW1 9878   1.699   4.698   0.221
 2993SOL    HW2 9879   1.616   4.569   0.164
 2994SOL     OW 9880   4.057   5.990   0.214
 2994SOL    HW1 9881   4.086   6.025   0.303
 2994SOL    HW2 9882   4.010   6.062   0.163
 2995SOL     OW 9883   2.670   0.633   5.816
 2995SOL    HW1 9884   2.624   0.554   5.776
 2995SOL    HW2 9885   2.728   0.677   5.746
 2996SOL     OW 9886   4.623   6.130   5.297
 2996SOL    HW1 9887   4.696   6.133   5.365
 2996SOL    HW2 9888   4.534   6.140   5.343
 2997SOL     OW 9889   4.337   5.852   0.460
 2997SOL    HW1 9890   4.375   5.943   0.478
 2997SOL    HW2 9891   4.386   5.809   0.384
 2998SOL     OW 9892   6.364   5.039   5.554
 2998SOL    HW1 9893   6.458   5.024   5.522
 2998SOL    HW2 9894   6.365   5.051   5.654
 2999SOL     OW 9895   2.127   0.917   2.088
 2999SOL    HW1 9896   2.126   0.883   2.182
 2999SOL    HW2 9897   2.038   0.957   2.066
 3000SOL     OW 9898   1.277   1.997   4.696
 3000SOL    HW1 9899   1.284   1.993   4.796
 3000SOL    HW2 9900   1.187   1.962   4.668
 3001SOL     OW 9901   5.121   6.861   5.669
 3001SOL    HW1 9902   5.217   6.860   5.698
 3001SOL    HW2 9903   5.117   6.865   5.570
 3002SOL     OW 9904   2.846   0.846   5.338
 3002SOL    HW1 9905   2.925   0.789   5.360
 3002SOL    HW2 9906   2.873   0.943   5.339
 3003SOL     OW 9907   2.077   0.197   5.983
 3003SOL    HW1 9908   2.127   0.174   5.900
 3003SOL    HW2 9909   2.123   0.156   6.062
 3004SOL     OW 9910   6.433   2.889   5.559
 3004SOL    HW1 9911   6.390   2.956   5.619
 3004SOL    HW2 9912   6.468   2.813   5.614
 3005SOL     OW 9913   4.641   2.532   1.098
 3005SOL    HW1 9914   4.659   2.521   1.000
 3005SOL    HW2 9915   4.701   2.470   1.150
 3006SOL     OW 9916   4.522   7.006   1.247
 3006SOL    HW1 9917   4.448   6.957   1.295
 3006SOL    HW2 9918   4.520   0.074   1.274
 3007SOL     OW 9919   6.045   5.586   1.641
 3007SOL    HW1 9920   6.131   5.536   1.625
 3007SOL    HW2 9921   6.053   5.639   1.726
 3008SOL     OW 9922   4.819   6.070   5.477
 3008SOL    HW1 9923   4.803   5.978   5.514
 3008SOL    HW2 9924   4.874   6.063   5.394
 3009SOL     OW 9925   1.497   0.728   2.369
 3009SOL    HW1 9926   1.415   0.678   2.398
 3009SOL    HW2 9927   1.494   0.821   2.406
 3010SOL     OW 9928   2.622   6.716   2.675
 3010SOL    HW1 9929   2.710   6.701   2.719
 3010SOL    HW2 9930   2.632   6.710   2.576
 3011SOL     OW 9931   5.694   0.404   0.112
 3011SOL    HW1 9932   5.725   0.491   0.151
 3011SOL    HW2 9933   5.749   0.383   0.031
 3012SOL     OW 9934   0.059   4.817   1.306
 3012SOL    HW1 9935   0.061   4.912   1.337
 3012SOL    HW2 9936   0.152   4.781   1.303
 3013SOL     OW 9937   6.355   3.924   2.173
 3013SOL    HW1 9938   6.317   3.901   2.083
 3013SOL    HW2 9939   6.396   3.843   2.213
 3014SOL     OW 9940   5.268   0.192   5.498
 3014SOL    HW1 9941   5.316   0.108   5.475
 3014SOL    HW2 9942   5.169   0.178   5.491
 3015SOL     OW 9943   2.771   1.004   0.145
 3015SOL    HW1 9944   2.856   0.962   0.177
 3015SOL    HW2 9945   2.765   0.995   0.046
 3016SOL     OW 9946   4.119   6.374   3.301
 3016SOL    HW1 9947   4.204   6.423   3.323
 3016SOL    HW2 9948   4.041   6.432   3.323
 3017SOL     OW 9949   0.255   5.848   1.254
 3017SOL    HW1 9950   0.266   5.932   1.307
 3017SOL    HW2 9951   0.266   5.768   1.314
 3018SOL     OW 9952   4.139   0.072   6.140
 3018SOL    HW1 9953   4.141   0.151   6.201
 3018SOL    HW2 9954   4.094   0.097   6.054
 3019SOL     OW 9955   5.171   6.730   1.914
 3019SOL    HW1 9956   5.202   6.825   1.913
 3019SOL    HW2 9957   5.071   6.728   1.910
 3020SOL     OW 9958   1.944   1.103   1.677
 3020SOL    HW1 9959   1.933   1.038   1.752
 3020SOL    HW2 9960   2.039   1.105   1.648
 3021SOL     OW 9961   4.483   0.568   6.290
 3021SOL    HW1 9962   4.491   0.638   6.360
 3021SOL    HW2 9963   4.394   0.524   6.296
 3022SOL     OW 9964   6.507   0.276   2.429
 3022SOL    HW1 9965   6.592   0.325   2.447
 3022SOL    HW2 9966   6.520   0.212   2.354
 3023SOL     OW 9967   5.701   0.399   1.478
 3023SOL    HW1 9968   5.629   0.331   1.492
 3023SOL    HW2 9969   5.765   0.366   1.409
 3024SOL     OW 9970   3.020   6.922   6.414
 3024SOL    HW1 9971   2.989   6.957   6.325
 3024SOL    HW2 9972   3.089   6.984   6.452
 3025SOL     OW 9973   2.106   2.589   2.051
 3025SOL    HW1 9974   2.104   2.606   1.952
 3025SOL    HW2 9975   2.187   2.631   2.091
 3026SOL     OW 9976   2.612   5.494   0.473
 3026SOL    HW1 9977   2.630   5.544   0.558
 3026SOL    HW2 9978   2.692   5.499   0.414
 3027SOL     OW 9979   1.658   1.784   3.643
 3027SOL    HW1 9980   1.562   1.789   3.615
 3027SOL    HW2 9981   1.671   1.705   3.702
 3028SOL     OW 9982   1.002   0.818   4.561
 3028SOL    HW1 9983   1.090   0.859   4.539
 3028SOL    HW2 9984   0.996   0.802   4.659
 3029SOL     OW 9985   5.741   5.081   5.845
 3029SOL    HW1 9986   5.811   5.139   5.803
 3029SOL    HW2 9987   5.764   4.985   5.828
 3030SOL     OW 9988   1.044   1.070   5.971
 3030SOL    HW1 9989   1.104   0.999   5.934
 3030SOL    HW2 9990   0.971   1.028   6.024
 3031SOL     OW 9991   0.644   5.406   6.368
 3031SOL    HW1 9992   0.635   5.489   6.422
 3031SOL    HW2 9993   0.554   5.365   6.355
 3032SOL     OW 9994   3.942   6.784   5.808
 3032SOL    HW1 9995   4.019   6.764   5.869
 3032SOL    HW2 9996   3.878   6.707   5.809
 3033SOL     OW 9997   5.551   4.580   5.704
 3033SOL    HW1 9998   5.469   4.631   5.734
 3033SOL    HW2 9999   5.591   4.534   5.783
 3034SOL     OW10000   2.779   6.693   4.318
 3034SOL    HW110001   2.769   6.785   4.281
 3034SOL    HW210002   2.790   6.699   4.418
 3035SOL     OW10003   6.507   7.003   6.948
 3035SOL    HW110004   6.451   7.022   0.000
 3035SOL    HW210005   6.544   0.060   6.912
 3036SOL     OW10006   1.148   5.051   5.208
 3036SOL    HW110007   1.189   4.961   5.195
 3036SOL    HW210008   1.093   5.074   5.128
 3037SOL     OW10009   5.956   6.821   5.662
 3037SOL    HW110010   5.988   6.916   5.662
 3037SOL    HW210011   5.897   6.805   5.740
 3038SOL     OW10012   6.059   6.258   5.712
 3038SOL    HW110013   6.059   6.353   5.682
 3038SOL    HW210014   6.146   6.215   5.688
 3039SOL     OW10015   0.228   5.050   0.375
 3039SOL    HW110016   0.292   4.974   0.372
 3039SOL    HW210017   0.231   5.100   0.289
 3040SOL     OW10018   2.880   1.522   6.883
 3040SOL    HW110019   2.960   1.551   6.830
 3040SOL    HW210020   2.856   1.428   6.857
 3041SOL     OW10021   1.681   2.319   6.010
 3041SOL    HW110022   1.665   2.417   5.993
 3041SOL    HW210023   1.773   2.294   5.979
 3042SOL     OW10024   5.924   6.835   1.648
 3042SOL    HW110025   5.974   6.898   1.588
 3042SOL    HW210026   5.988   6.769   1.687
 3043SOL     OW10027   6.565   5.218   6.695
 3043SOL    HW110028   6.470   5.218   6.724
 3043SOL    HW210029   6.604   5.310   6.707
 3044SOL     OW10030   2.514   3.262   6.210
 3044SOL    HW110031   2.496   3.174   6.254
 3044SOL    HW210032   2.502   3.336   6.277
 3045SOL     OW10033   4.565   2.107   3.968
 3045SOL    HW110034   4.527   2.022   3.930
 3045SOL    HW210035   4.598   2.091   4.060
 3046SOL     OW10036   1.899   2.457   5.861
 3046SOL    HW110037   1.980   2.440   5.806
 3046SOL    HW210038   1.917   2.430   5.956
 3047SOL     OW10039   0.359   4.641   1.281
 3047SOL    HW110040   0.354   4.674   1.187
 3047SOL    HW210041   0.448   4.666   1.320
 3048SOL     OW10042   2.889   2.674   1.739
 3048SOL    HW110043   2.917   2.602   1.802
 3048SOL    HW210044   2.790   2.675   1.731
 3049SOL     OW10045   0.888   0.463   1.713
 3049SOL    HW110046   0.888   0.552   1.759
 3049SOL    HW210047   0.880   0.476   1.614
 3050SOL     OW10048   1.909   0.566   3.918
 3050SOL    HW110049   1.944   0.659   3.907
 3050SOL    HW210050   1.815   0.569   3.950
 3051SOL     OW10051   3.094   4.456   5.820
 3051SOL    HW110052   3.108   4.554   5.832
 3051SOL    HW210053   3.030   4.423   5.889
 3052SOL     OW10054   4.857   6.901   2.697
 3052SOL    HW110055   4.877   6.965   2.623
 3052SOL    HW210056   4.757   6.893   2.708
 3053SOL     OW10057   4.792   6.972   1.796
 3053SOL    HW110058   4.754   6.952   1.706
 3053SOL    HW210059   4.879   7.020   1.785
 3054SOL     OW10060   2.154   4.292   5.569
 3054SOL    HW110061   2.119   4.233   5.642
 3054SOL    HW210062   2.251   4.271   5.553
 3055SOL     OW10063   5.782   6.660   3.006
 3055SOL    HW110064   5.851   6.613   3.060
 3055SOL    HW210065   5.698   6.607   3.005
 3056SOL     OW10066   5.724   0.570   2.077
 3056SOL    HW110067   5.649   0.599   2.136
 3056SOL    HW210068   5.807   0.560   2.132
 3057SOL     OW10069   6.450   6.086   2.654
 3057SOL    HW110070   6.402   6.172   2.636
 3057SOL    HW210071   6.499   6.057   2.572
 3058SOL     OW10072   6.320   5.791   1.507
 3058SOL    HW110073   6.250   5.802   1.437
 3058SOL    HW210074   6.310   5.863   1.575
 3059SOL     OW10075   1.924   2.639   5.515
 3059SOL    HW110076   1.952   2.718   5.460
 3059SOL    HW210077   2.000   2.608   5.571
 3060SOL     OW10078   0.221   6.718   0.399
 3060SOL    HW110079   0.219   6.640   0.337
 3060SOL    HW210080   0.299   6.710   0.461
 3061SOL     OW10081   0.376   0.710   5.751
 3061SOL    HW110082   0.333   0.662   5.675
 3061SOL    HW210083   0.473   0.687   5.755
 3062SOL     OW10084   3.145   5.400   6.323
 3062SOL    HW110085   3.228   5.349   6.347
 3062SOL    HW210086   3.144   5.416   6.225
 3063SOL     OW10087   2.552   6.141   0.525
 3063SOL    HW110088   2.616   6.202   0.478
 3063SOL    HW210089   2.602   6.088   0.593
 3064SOL     OW10090   6.917   4.669   3.866
 3064SOL    HW110091   7.009   4.701   3.845
 3064SOL    HW210092   6.858   4.683   3.787
 3065SOL     OW10093   2.965   1.277   1.098
 3065SOL    HW110094   3.050   1.232   1.072
 3065SOL    HW210095   2.891   1.210   1.100
 3066SOL     OW10096   5.449   5.705   0.370
 3066SOL    HW110097   5.494   5.729   0.456
 3066SOL    HW210098   5.366   5.652   0.389
 3067SOL     OW10099   4.309   6.904   3.010
 3067SOL    HW110100   4.258   6.866   2.933
 3067SOL    HW210101   4.255   6.976   3.053
 3068SOL     OW10102   5.707   4.744   0.107
 3068SOL    HW110103   5.671   4.714   0.019
 3068SOL    HW210104   5.685   4.840   0.121
 3069SOL     OW10105   1.119   5.191   3.940
 3069SOL    HW110106   1.035   5.139   3.955
 3069SOL    HW210107   1.113   5.239   3.852
 3070SOL     OW10108   3.849   1.687   4.296
 3070SOL    HW110109   3.889   1.617   4.236
 3070SOL    HW210110   3.750   1.691   4.282
 3071SOL     OW10111   5.695   0.371   4.025
 3071SOL    HW110112   5.677   0.332   4.116
 3071SOL    HW210113   5.793   0.373   4.009
 3072SOL     OW10114   0.029   0.330   2.035
 3072SOL    HW110115   0.116   0.372   2.060
 3072SOL    HW210116   0.014   0.339   1.936
 3073SOL     OW10117   1.735   2.433   4.833
 3073SOL    HW110118   1.807   2.457   4.898
 3073SOL    HW210119   1.651   2.481   4.857
 3074SOL     OW10120   4.898   3.640   5.917
 3074SOL    HW110121   4.877   3.554   5.870
 3074SOL    HW210122   4.925   3.709   5.849
 3075SOL     OW10123   6.875   5.809   0.690
 3075SOL    HW110124   6.776   5.822   0.686
 3075SOL    HW210125   6.905   5.753   0.613
 3076SOL     OW10126   0.684   0.909   4.962
 3076SOL    HW110127   0.662   1.003   4.989
 3076SOL    HW210128   0.777   0.906   4.927
 3077SOL     OW10129   5.565   4.304   3.923
 3077SOL    HW110130   5.545   4.262   4.012
 3077SOL    HW210131   5.500   4.269   3.855
 3078SOL     OW10132   1.938   2.398   0.164
 3078SOL    HW110133   1.879   2.320   0.181
 3078SOL    HW210134   1.917   2.471   0.229
 3079SOL     OW10135   5.573   2.895   6.472
 3079SOL    HW110136   5.563   2.868   6.568
 3079SOL    HW210137   5.585   2.994   6.466
 3080SOL     OW10138   6.716   6.605   1.313
 3080SOL    HW110139   6.643   6.541   1.336
 3080SOL    HW210140   6.685   6.666   1.239
 3081SOL     OW10141   0.613   4.794   6.166
 3081SOL    HW110142   0.584   4.888   6.186
 3081SOL    HW210143   0.651   4.752   6.248
 3082SOL     OW10144   2.708   0.058   2.401
 3082SOL    HW110145   2.735   7.018   2.469
 3082SOL    HW210146   2.741   0.031   2.311
 3083SOL     OW10147   3.271   0.329   2.074
 3083SOL    HW110148   3.214   0.283   2.005
 3083SOL    HW210149   3.312   0.411   2.033
 3084SOL     OW10150   4.422   6.380   3.735
 3084SOL    HW110151   4.474   6.456   3.774
 3084SOL    HW210152   4.325   6.404   3.733
 3085SOL     OW10153   1.124   5.210   1.866
 3085SOL    HW110154   1.168   5.292   1.899
 3085SOL    HW210155   1.025   5.218   1.877
 3086SOL     OW10156   6.225   1.452   4.092
 3086SOL    HW110157   6.240   1.473   3.996
 3086SOL    HW210158   6.174   1.528   4.135
 3087SOL     OW10159   5.582   3.757   1.974
 3087SOL    HW110160   5.649   3.715   2.035
 3087SOL    HW210161   5.528   3.824   2.024
 3088SOL     OW10162   2.930   3.798   6.474
 3088SOL    HW110163   2.967   3.883   6.438
 3088SOL    HW210164   2.989   3.722   6.445
 3089SOL     OW10165   3.465   1.893   1.443
 3089SOL    HW110166   3.398   1.873   1.371
 3089SOL    HW210167   3.537   1.952   1.406
 3090SOL     OW10168   6.627   1.958   0.786
 3090SOL    HW110169   6.566   1.887   0.752
 3090SOL    HW210170   6.702   1.972   0.722
 3091SOL     OW10171   2.270   6.716   0.629
 3091SOL    HW110172   2.345   6.650   0.624
 3091SOL    HW210173   2.302   6.799   0.675
 3092SOL     OW10174   3.835   5.485   0.155
 3092SOL    HW110175   3.915   5.502   0.098
 3092SOL    HW210176   3.859   5.494   0.251
 3093SOL     OW10177   4.964   6.549   3.376
 3093SOL    HW110178   4.893   6.529   3.309
 3093SOL    HW210179   4.999   6.642   3.362
 3094SOL     OW10180   3.081   5.480   5.412
 3094SOL    HW110181   3.177   5.456   5.418
 3094SOL    HW210182   3.059   5.506   5.318
 3095SOL     OW10183   2.017   4.860   5.110
 3095SOL    HW110184   1.952   4.829   5.179
 3095SOL    HW210185   1.971   4.920   5.045
 3096SOL     OW10186   0.072   0.883   5.520
 3096SOL    HW110187   0.108   0.958   5.576
 3096SOL    HW210188   0.111   0.890   5.428
 3097SOL     OW10189   2.040   1.782   0.208
 3097SOL    HW110190   2.037   1.871   0.163
 3097SOL    HW210191   2.121   1.776   0.267
 3098SOL     OW10192   4.166   2.327   0.275
 3098SOL    HW110193   4.257   2.293   0.298
 3098SOL    HW210194   4.160   2.424   0.297
 3099SOL     OW10195   1.356   5.792   5.301
 3099SOL    HW110196   1.362   5.767   5.205
 3099SOL    HW210197   1.340   5.890   5.309
 3100SOL     OW10198   6.241   6.328   6.040
 3100SOL    HW110199   6.268   6.235   6.067
 3100SOL    HW210200   6.149   6.326   6.001
 3101SOL     OW10201   3.656   0.320   1.125
 3101SOL    HW110202   3.632   0.249   1.059
 3101SOL    HW210203   3.706   0.280   1.202
 3102SOL     OW10204   0.626   6.330   0.479
 3102SOL    HW110205   0.629   6.232   0.463
 3102SOL    HW210206   0.627   6.378   0.391
 3103SOL     OW10207   4.208   4.013   1.768
 3103SOL    HW110208   4.279   4.082   1.784
 3103SOL    HW210209   4.230   3.962   1.685
 3104SOL     OW10210   5.977   5.736   3.692
 3104SOL    HW110211   5.992   5.666   3.622
 3104SOL    HW210212   5.944   5.820   3.648
 3105SOL     OW10213   5.845   5.595   3.424
 3105SOL    HW110214   5.887   5.670   3.372
 3105SOL    HW210215   5.854   5.510   3.373
 3106SOL     OW10216   6.610   3.233   4.779
 3106SOL    HW110217   6.707   3.217   4.760
 3106SOL    HW210218   6.599   3.321   4.826
 3107SOL     OW10219   2.727   6.923   4.165
 3107SOL    HW110220   2.639   6.897   4.125
 3107SOL    HW210221   2.775   6.983   4.100
 3108SOL     OW10222   2.909   0.820   2.769
 3108SOL    HW110223   3.000   0.832   2.729
 3108SOL    HW210224   2.878   0.906   2.809
 3109SOL     OW10225   4.699   5.772   3.277
 3109SOL    HW110226   4.633   5.847   3.266
 3109SOL    HW210227   4.654   5.685   3.259
 3110SOL     OW10228   1.319   2.706   2.036
 3110SOL    HW110229   1.378   2.744   2.107
 3110SOL    HW210230   1.230   2.752   2.039
 3111SOL     OW10231   0.263   4.778   2.705
 3111SOL    HW110232   0.173   4.774   2.748
 3111SOL    HW210233   0.294   4.873   2.703
 3112SOL     OW10234   2.826   3.956   6.064
 3112SOL    HW110235   2.774   3.935   6.147
 3112SOL    HW210236   2.877   3.875   6.035
 3113SOL     OW10237   4.103   6.606   4.249
 3113SOL    HW110238   4.050   6.682   4.210
 3113SOL    HW210239   4.169   6.642   4.315
 3114SOL     OW10240   5.269   5.733   0.685
 3114SOL    HW110241   5.193   5.731   0.619
 3114SOL    HW210242   5.234   5.761   0.774
 3115SOL     OW10243   2.548   3.403   1.668
 3115SOL    HW110244   2.625   3.397   1.732
 3115SOL    HW210245   2.466   3.434   1.717
 3116SOL     OW10246   0.416   1.297   6.804
 3116SOL    HW110247   0.320   1.320   6.820
 3116SOL    HW210248   0.428   1.198   6.812
 3117SOL     OW10249   4.023   3.833   5.799
 3117SOL    HW110250   3.974   3.909   5.756
 3117SOL    HW210251   4.010   3.839   5.899
 3118SOL     OW10252   5.989   5.447   6.605
 3118SOL    HW110253   5.977   5.525   6.544
 3118SOL    HW210254   5.934   5.460   6.687
 3119SOL     OW10255   2.219   4.787   7.000
 3119SOL    HW110256   2.205   4.795   6.901
 3119SOL    HW210257   2.241   4.877   0.010
 3120SOL     OW10258   2.461   5.459   6.268
 3120SOL    HW110259   2.436   5.362   6.264
 3120SOL    HW210260   2.432   5.505   6.184
 3121SOL     OW10261   0.454   5.936   3.282
 3121SOL    HW110262   0.495   5.913   3.370
 3121SOL    HW210263   0.371   5.883   3.269
 3122SOL     OW10264   3.135   5.881   0.914
 3122SOL    HW110265   3.125   5.889   0.815
 3122SOL    HW210266   3.229   5.901   0.940
 3123SOL     OW10267   3.790   6.627   4.355
 3123SOL    HW110268   3.834   6.642   4.266
 3123SOL    HW210269   3.701   6.583   4.340
 3124SOL     OW10270   3.750   0.268   6.300
 3124SOL    HW110271   3.724   0.354   6.344
 3124SOL    HW210272   3.795   0.209   6.367
 3125SOL     OW10273   6.870   2.159   5.855
 3125SOL    HW110274   6.857   2.256   5.833
 3125SOL    HW210275   6.929   2.117   5.785
 3126SOL     OW10276   3.716   6.127   0.011
 3126SOL    HW110277   3.685   6.205   6.985
 3126SOL    HW210278   3.710   6.043   6.984
 3127SOL     OW10279   1.432   1.687   3.976
 3127SOL    HW110280   1.404   1.776   3.940
 3127SOL    HW210281   1.437   1.621   3.901
 3128SOL     OW10282   1.819   0.857   0.738
 3128SOL    HW110283   1.759   0.779   0.722
 3128SOL    HW210284   1.819   0.880   0.835
 3129SOL     OW10285   1.370   3.087   3.307
 3129SOL    HW110286   1.307   3.029   3.256
 3129SOL    HW210287   1.319   3.148   3.368
 3130SOL     OW10288   2.258   5.335   3.416
 3130SOL    HW110289   2.180   5.371   3.467
 3130SOL    HW210290   2.243   5.238   3.396
 3131SOL     OW10291   0.821   3.279   4.641
 3131SOL    HW110292   0.848   3.222   4.563
 3131SOL    HW210293   0.888   3.352   4.653
 3132SOL     OW10294   5.360   4.698   5.206
 3132SOL    HW110295   5.285   4.743   5.254
 3132SOL    HW210296   5.422   4.768   5.168
 3133SOL     OW10297   2.412   2.142   3.431
 3133SOL    HW110298   2.479   2.125   3.358
 3133SOL    HW210299   2.322   2.107   3.402
 3134SOL     OW10300   5.673   2.734   1.850
 3134SOL    HW110301   5.756   2.786   1.828
 3134SOL    HW210302   5.596   2.770   1.796
 3135SOL     OW10303   2.176   1.946   3.611
 3135SOL    HW110304   2.081   1.916   3.622
 3135SOL    HW210305   2.199   2.009   3.685
 3136SOL     OW10306   6.540   6.905   4.848
 3136SOL    HW110307   6.595   6.827   4.879
 3136SOL    HW210308   6.518   6.963   4.926
 3137SOL     OW10309   0.231   1.492   4.539
 3137SOL    HW110310   0.309   1.554   4.542
 3137SOL    HW210311   0.146   1.544   4.537
 3138SOL     OW10312   5.102   1.588   4.755
 3138SOL    HW110313   5.150   1.674   4.771
 3138SOL    HW210314   5.155   1.512   4.792
 3139SOL     OW10315   4.683   5.480   5.017
 3139SOL    HW110316   4.676   5.381   5.012
 3139SOL    HW210317   4.593   5.521   5.001
 3140SOL     OW10318   5.830   5.791   6.214
 3140SOL    HW110319   5.921   5.831   6.227
 3140SOL    HW210320   5.761   5.848   6.258
 3141SOL     OW10321   0.704   5.444   1.403
 3141SOL    HW110322   0.690   5.355   1.358
 3141SOL    HW210323   0.790   5.442   1.454
 3142SOL     OW10324   3.916   6.869   0.518
 3142SOL    HW110325   3.919   6.801   0.444
 3142SOL    HW210326   4.009   6.883   0.554
 3143SOL     OW10327   0.363   1.562   1.062
 3143SOL    HW110328   0.388   1.468   1.082
 3143SOL    HW210329   0.446   1.616   1.047
 3144SOL     OW10330   1.833   2.967   6.988
 3144SOL    HW110331   1.784   3.036   0.014
 3144SOL    HW210332   1.915   3.009   6.948
 3145SOL     OW10333   3.090   5.246   3.573
 3145SOL    HW110334   3.187   5.224   3.578
 3145SOL    HW210335   3.066   5.309   3.646
 3146SOL     OW10336   2.431   6.883   3.740
 3146SOL    HW110337   2.476   6.952   3.796
 3146SOL    HW210338   2.492   6.854   3.666
 3147SOL     OW10339   3.813   4.340   0.775
 3147SOL    HW110340   3.901   4.329   0.821
 3147SOL    HW210341   3.819   4.414   0.708
 3148SOL     OW10342   3.271   5.836   4.865
 3148SOL    HW110343   3.259   5.737   4.872
 3148SOL    HW210344   3.217   5.871   4.788
 3149SOL     OW10345   2.684   6.523   5.987
 3149SOL    HW110346   2.778   6.529   5.953
 3149SOL    HW210347   2.655   6.613   6.020
 3150SOL     OW10348   0.080   7.006   4.286
 3150SOL    HW110349   0.097   6.918   4.331
 3150SOL    HW210350   0.158   0.002   4.228
 3151SOL     OW10351   3.964   6.747   1.331
 3151SOL    HW110352   3.983   6.814   1.259
 3151SOL    HW210353   4.020   6.666   1.316
 3152SOL     OW10354   1.383   4.631   6.516
 3152SOL    HW110355   1.303   4.648   6.458
 3152SOL    HW210356   1.463   4.618   6.457
 3153SOL     OW10357   6.977   4.499   3.181
 3153SOL    HW110358   6.976   4.597   3.162
 3153SOL    HW210359   0.029   4.477   3.236
 3154SOL     OW10360   5.624   2.705   6.271
 3154SOL    HW110361   5.621   2.784   6.331
 3154SOL    HW210362   5.720   2.685   6.247
 3155SOL     OW10363   4.510   6.031   0.465
 3155SOL    HW110364   4.589   5.988   0.508
 3155SOL    HW210365   4.539   6.082   0.384
 3156SOL     OW10366   3.746   3.503   3.140
 3156SOL    HW110367   3.677   3.572   3.161
 3156SOL    HW210368   3.805   3.536   3.067
 3157SOL     OW10369   2.086   3.025   4.998
 3157SOL    HW110370   2.061   2.935   4.961
 3157SOL    HW210371   2.185   3.031   5.008
 3158SOL     OW10372   4.590   6.227   1.252
 3158SOL    HW110373   4.508   6.280   1.230
 3158SOL    HW210374   4.663   6.289   1.281
 3159SOL     OW10375   5.223   5.074   0.336
 3159SOL    HW110376   5.301   5.131   0.310
 3159SOL    HW210377   5.248   5.016   0.413
 3160SOL     OW10378   5.949   4.879   0.552
 3160SOL    HW110379   5.908   4.792   0.523
 3160SOL    HW210380   6.048   4.876   0.534
 3161SOL     OW10381   0.912   1.387   3.348
 3161SOL    HW110382   1.012   1.392   3.337
 3161SOL    HW210383   0.890   1.380   3.445
 3162SOL     OW10384   0.095   6.915   6.025
 3162SOL    HW110385   0.081   6.818   6.004
 3162SOL    HW210386   0.134   6.961   5.945
 3163SOL     OW10387   1.947   4.433   5.432
 3163SOL    HW110388   2.012   4.361   5.459
 3163SOL    HW210389   1.998   4.514   5.402
 3164SOL     OW10390   6.025   5.185   5.774
 3164SOL    HW110391   6.075   5.252   5.719
 3164SOL    HW210392   6.030   5.096   5.730
 3165SOL     OW10393   0.615   2.777   1.716
 3165SOL    HW110394   0.635   2.875   1.726
 3165SOL    HW210395   0.587   2.740   1.804
 3166SOL     OW10396   4.703   2.810   6.517
 3166SOL    HW110397   4.671   2.794   6.423
 3166SOL    HW210398   4.700   2.908   6.536
 3167SOL     OW10399   0.282   4.399   1.884
 3167SOL    HW110400   0.246   4.486   1.919
 3167SOL    HW210401   0.233   4.323   1.926
 3168SOL     OW10402   6.234   3.114   1.154
 3168SOL    HW110403   6.294   3.042   1.190
 3168SOL    HW210404   6.208   3.092   1.060
 3169SOL     OW10405   2.453   2.404   5.439
 3169SOL    HW110406   2.467   2.480   5.376
 3169SOL    HW210407   2.439   2.439   5.532
 3170SOL     OW10408   3.790   6.962   5.465
 3170SOL    HW110409   3.746   0.008   5.415
 3170SOL    HW210410   3.799   6.988   5.561
 3171SOL     OW10411   5.991   6.372   2.994
 3171SOL    HW110412   5.971   6.405   3.086
 3171SOL    HW210413   6.076   6.414   2.962
 3172SOL     OW10414   6.126   6.492   5.413
 3172SOL    HW110415   6.081   6.510   5.500
 3172SOL    HW210416   6.058   6.480   5.342
 3173SOL     OW10417   2.195   1.084   1.608
 3173SOL    HW110418   2.260   1.160   1.607
 3173SOL    HW210419   2.244   0.999   1.628
 3174SOL     OW10420   2.371   2.914   0.102
 3174SOL    HW110421   2.296   2.981   0.097
 3174SOL    HW210422   2.334   2.822   0.097
 3175SOL     OW10423   0.281   6.304   0.434
 3175SOL    HW110424   0.219   6.259   0.497
 3175SOL    HW210425   0.308   6.240   0.362
 3176SOL     OW10426   1.288   5.921   0.064
 3176SOL    HW110427   1.254   5.828   0.052
 3176SOL    HW210428   1.301   5.940   0.161
 3177SOL     OW10429   0.972   6.871   4.612
 3177SOL    HW110430   1.010   6.790   4.657
 3177SOL    HW210431   0.999   6.872   4.516
 3178SOL     OW10432   2.728   3.172   0.070
 3178SOL    HW110433   2.686   3.126   7.020
 3178SOL    HW210434   2.715   3.271   0.060
 3179SOL     OW10435   1.258   2.371   4.418
 3179SOL    HW110436   1.243   2.454   4.473
 3179SOL    HW210437   1.318   2.308   4.468
 3180SOL     OW10438   6.260   1.528   6.336
 3180SOL    HW110439   6.295   1.451   6.390
 3180SOL    HW210440   6.294   1.521   6.243
 3181SOL     OW10441   0.816   1.746   2.822
 3181SOL    HW110442   0.747   1.763   2.752
 3181SOL    HW210443   0.891   1.810   2.811
 3182SOL     OW10444   1.347   4.250   5.778
 3182SOL    HW110445   1.284   4.267   5.853
 3182SOL    HW210446   1.372   4.338   5.736
 3183SOL     OW10447   4.375   3.161   1.269
 3183SOL    HW110448   4.428   3.095   1.215
 3183SOL    HW210449   4.432   3.194   1.344
 3184SOL     OW10450   0.721   1.925   3.550
 3184SOL    HW110451   0.701   2.022   3.533
 3184SOL    HW210452   0.793   1.917   3.618
 3185SOL     OW10453   0.265   6.827   0.023
 3185SOL    HW110454   0.211   6.822   6.967
 3185SOL    HW210455   0.219   6.886   0.089
 3186SOL     OW10456   3.298   0.549   1.705
 3186SOL    HW110457   3.307   0.645   1.679
 3186SOL    HW210458   3.317   0.539   1.803
 3187SOL     OW10459   2.547   4.122   0.145
 3187SOL    HW110460   2.519   4.217   0.137
 3187SOL    HW210461   2.645   4.115   0.128
 3188SOL     OW10462   4.073   0.010   3.136
 3188SOL    HW110463   3.991   0.067   3.134
 3188SOL    HW210464   4.051   6.948   3.172
 3189SOL     OW10465   6.392   6.430   2.431
 3189SOL    HW110466   6.316   6.376   2.466
 3189SOL    HW210467   6.373   6.527   2.443
 3190SOL     OW10468   1.071   6.906   1.711
 3190SOL    HW110469   1.003   6.909   1.784
 3190SOL    HW210470   1.031   6.863   1.630
 3191SOL     OW10471   4.128   1.043   0.265
 3191SOL    HW110472   4.182   0.970   0.306
 3191SOL    HW210473   4.069   1.005   0.193
 3192SOL     OW10474   5.240   2.241   4.044
 3192SOL    HW110475   5.311   2.312   4.034
 3192SOL    HW210476   5.159   2.269   3.993
 3193SOL     OW10477   5.217   4.410   1.209
 3193SOL    HW110478   5.279   4.486   1.228
 3193SOL    HW210479   5.176   4.378   1.295
 3194SOL     OW10480   2.558   5.469   5.145
 3194SOL    HW110481   2.530   5.565   5.148
 3194SOL    HW210482   2.654   5.461   5.173
 3195SOL     OW10483   6.983   4.365   3.921
 3195SOL    HW110484   6.948   4.458   3.928
 3195SOL    HW210485   0.049   4.367   3.887
 3196SOL     OW10486   0.247   6.413   6.199
 3196SOL    HW110487   0.306   6.356   6.143
 3196SOL    HW210488   0.284   6.506   6.202
 3197SOL     OW10489   0.476   4.729   4.911
 3197SOL    HW110490   0.428   4.676   4.980
 3197SOL    HW210491   0.420   4.808   4.885
 3198SOL     OW10492   5.861   6.900   0.612
 3198SOL    HW110493   5.875   6.843   0.693
 3198SOL    HW210494   5.765   6.924   0.604
 3199SOL     OW10495   3.551   1.183   3.312
 3199SOL    HW110496   3.501   1.111   3.265
 3199SOL    HW210497   3.628   1.213   3.255
 3200SOL     OW10498   6.583   2.018   0.483
 3200SOL    HW110499   6.519   1.941   0.479
 3200SOL    HW210500   6.588   2.062   0.394
 3201SOL     OW10501   4.637   4.710   3.200
 3201SOL    HW110502   4.564   4.676   3.260
 3201SOL    HW210503   4.597   4.751   3.118
 3202SOL     OW10504   1.519   5.252   1.742
 3202SOL    HW110505   1.439   5.282   1.691
 3202SOL    HW210506   1.511   5.280   1.837
 3203SOL     OW10507   4.712   0.155   0.984
 3203SOL    HW110508   4.737   0.228   0.920
 3203SOL    HW210509   4.613   0.146   0.988
 3204SOL     OW10510   6.379   6.473   1.672
 3204SOL    HW110511   6.311   6.421   1.724
 3204SOL    HW210512   6.416   6.546   1.730
 3205SOL     OW10513   0.809   3.683   4.700
 3205SOL    HW110514   0.874   3.655   4.629
 3205SOL    HW210515   0.858   3.721   4.778
 3206SOL     OW10516   1.675   0.271   6.785
 3206SOL    HW110517   1.735   0.226   6.719
 3206SOL    HW210518   1.617   0.203   6.829
 3207SOL     OW10519   1.379   1.590   3.079
 3207SOL    HW110520   1.289   1.558   3.051
 3207SOL    HW210521   1.370   1.675   3.130
 3208SOL     OW10522   6.177   6.761   4.941
 3208SOL    HW110523   6.118   6.704   4.999
 3208SOL    HW210524   6.259   6.786   4.991
 3209SOL     OW10525   1.283   0.225   3.307
 3209SOL    HW110526   1.243   0.276   3.384
 3209SOL    HW210527   1.239   0.253   3.222
 3210SOL     OW10528   0.681   5.558   2.160
 3210SOL    HW110529   0.750   5.486   2.164
 3210SOL    HW210530   0.714   5.639   2.208
 3211SOL     OW10531   0.413   4.532   3.543
 3211SOL    HW110532   0.391   4.480   3.461
 3211SOL    HW210533   0.331   4.544   3.598
 3212SOL     OW10534   4.863   2.867   5.242
 3212SOL    HW110535   4.835   2.893   5.150
 3212SOL    HW210536   4.847   2.769   5.255
 3213SOL     OW10537   5.596   6.839   1.512
 3213SOL    HW110538   5.575   6.926   1.467
 3213SOL    HW210539   5.602   6.854   1.611
 3214SOL     OW10540   4.185   4.094   6.941
 3214SOL    HW110541   4.235   4.118   6.858
 3214SOL    HW210542   4.238   4.123   7.021
 3215SOL     OW10543   6.148   1.330   6.982
 3215SOL    HW110544   6.242   1.338   7.015
 3215SOL    HW210545   6.084   1.360   0.025
 3216SOL     OW10546   5.108   6.273   4.747
 3216SOL    HW110547   5.104   6.271   4.647
 3216SOL    HW210548   5.035   6.217   4.785
 3217SOL     OW10549   6.842   4.256   0.247
 3217SOL    HW110550   6.894   4.334   0.211
 3217SOL    HW210551   6.819   4.273   0.343
 3218SOL     OW10552   3.748   1.809   1.783
 3218SOL    HW110553   3.652   1.835   1.771
 3218SOL    HW210554   3.753   1.721   1.830
 3219SOL     OW10555   0.310   0.741   3.498
 3219SOL    HW110556   0.376   0.812   3.525
 3219SOL    HW210557   0.332   0.708   3.407
 3220SOL     OW10558   6.247   3.321   6.501
 3220SOL    HW110559   6.232   3.328   6.600
 3220SOL    HW210560   6.223   3.229   6.471
 3221SOL     OW10561   3.642   0.825   1.912
 3221SOL    HW110562   3.644   0.765   1.992
 3221SOL    HW210563   3.567   0.890   1.922
 3222SOL     OW10564   6.502   4.172   1.858
 3222SOL    HW110565   6.574   4.102   1.856
 3222SOL    HW210566   6.479   4.197   1.764
 3223SOL     OW10567   2.112   4.341   4.238
 3223SOL    HW110568   2.190   4.318   4.296
 3223SOL    HW210569   2.064   4.420   4.276
 3224SOL     OW10570   3.136   6.281   1.192
 3224SOL    HW110571   3.089   6.366   1.215
 3224SOL    HW210572   3.212   6.268   1.256
 3225SOL     OW10573   2.039   2.855   0.681
 3225SOL    HW110574   1.988   2.799   0.746
 3225SOL    HW210575   2.092   2.924   0.731
 3226SOL     OW10576   6.626   0.727   3.981
 3226SOL    HW110577   6.726   0.733   3.981
 3226SOL    HW210578   6.588   0.792   4.046
 3227SOL     OW10579   2.203   2.016   5.369
 3227SOL    HW110580   2.159   1.948   5.310
 3227SOL    HW210581   2.269   1.970   5.428
 3228SOL     OW10582   5.077   3.490   4.994
 3228SOL    HW110583   5.129   3.503   4.909
 3228SOL    HW210584   4.987   3.533   4.985
 3229SOL     OW10585   4.559   1.584   5.291
 3229SOL    HW110586   4.608   1.671   5.287
 3229SOL    HW210587   4.476   1.590   5.236
 3230SOL     OW10588   1.418   0.330   3.700
 3230SOL    HW110589   1.392   0.383   3.619
 3230SOL    HW210590   1.336   0.297   3.746
 3231SOL     OW10591   4.559   4.660   0.980
 3231SOL    HW110592   4.569   4.620   1.072
 3231SOL    HW210593   4.489   4.610   0.930
 3232SOL     OW10594   0.937   4.087   2.874
 3232SOL    HW110595   0.839   4.106   2.886
 3232SOL    HW210596   0.950   4.037   2.788
 3233SOL     OW10597   1.995   4.435   0.969
 3233SOL    HW110598   1.904   4.464   0.999
 3233SOL    HW210599   2.014   4.474   0.879
 3234SOL     OW10600   6.966   2.104   4.793
 3234SOL    HW110601   6.975   2.192   4.745
 3234SOL    HW210602   6.989   2.116   4.889
 3235SOL     OW10603   5.738   0.720   2.373
 3235SOL    HW110604   5.798   0.782   2.425
 3235SOL    HW210605   5.660   0.772   2.338
 3236SOL     OW10606   0.440   2.222   1.365
 3236SOL    HW110607   0.356   2.179   1.399
 3236SOL    HW210608   0.479   2.166   1.292
 3237SOL     OW10609   2.764   5.985   4.876
 3237SOL    HW110610   2.722   6.044   4.807
 3237SOL    HW210611   2.784   5.896   4.836
 3238SOL     OW10612   6.509   6.498   6.810
 3238SOL    HW110613   6.537   6.485   6.715
 3238SOL    HW210614   6.494   6.596   6.827
 3239SOL     OW10615   1.278   6.051   5.352
 3239SOL    HW110616   1.356   6.109   5.329
 3239SOL    HW210617   1.207   6.106   5.396
 3240SOL     OW10618   0.577   2.211   4.888
 3240SOL    HW110619   0.627   2.298   4.895
 3240SOL    HW210620   0.571   2.169   4.978
 3241SOL     OW10621   4.152   6.744   5.224
 3241SOL    HW110622   4.095   6.826   5.220
 3241SOL    HW210623   4.215   6.744   5.146
 3242SOL     OW10624   3.365   0.420   0.575
 3242SOL    HW110625   3.366   0.376   0.485
 3242SOL    HW210626   3.421   0.367   0.639
 3243SOL     OW10627   3.858   5.445   1.707
 3243SOL    HW110628   3.883   5.390   1.786
 3243SOL    HW210629   3.895   5.403   1.624
 3244SOL     OW10630   0.869   6.947   5.911
 3244SOL    HW110631   0.839   6.961   5.817
 3244SOL    HW210632   0.827   6.863   5.947
 3245SOL     OW10633   3.325   1.726   5.862
 3245SOL    HW110634   3.332   1.785   5.942
 3245SOL    HW210635   3.382   1.762   5.789
 3246SOL     OW10636   5.457   6.281   2.987
 3246SOL    HW110637   5.417   6.210   2.929
 3246SOL    HW210638   5.387   6.317   3.049
 3247SOL     OW10639   6.267   3.232   5.424
 3247SOL    HW110640   6.171   3.257   5.432
 3247SOL    HW210641   6.323   3.297   5.477
 3248SOL     OW10642   4.854   4.074   3.051
 3248SOL    HW110643   4.871   4.128   3.134
 3248SOL    HW210644   4.908   4.112   2.976
 3249SOL     OW10645   3.361   4.906   5.665
 3249SOL    HW110646   3.278   4.902   5.720
 3249SOL    HW210647   3.338   4.894   5.569
 3250SOL     OW10648   4.240   4.918   1.121
 3250SOL    HW110649   4.244   5.018   1.124
 3250SOL    HW210650   4.206   4.889   1.032
 3251SOL     OW10651   3.296   0.531   3.566
 3251SOL    HW110652   3.255   0.523   3.656
 3251SOL    HW210653   3.391   0.498   3.569
 3252SOL     OW10654   3.726   2.033   3.023
 3252SOL    HW110655   3.695   2.057   3.115
 3252SOL    HW210656   3.683   2.094   2.956
 3253SOL     OW10657   5.160   4.286   1.692
 3253SOL    HW110658   5.116   4.251   1.775
 3253SOL    HW210659   5.172   4.385   1.701
 3254SOL     OW10660   6.687   4.649   2.699
 3254SOL    HW110661   6.715   4.722   2.760
 3254SOL    HW210662   6.761   4.628   2.635
 3255SOL     OW10663   3.598   5.299   0.744
 3255SOL    HW110664   3.663   5.223   0.736
 3255SOL    HW210665   3.528   5.291   0.673
 3256SOL     OW10666   6.500   0.313   5.380
 3256SOL    HW110667   6.598   0.327   5.394
 3256SOL    HW210668   6.454   0.306   5.469
 3257SOL     OW10669   2.719   1.165   1.118
 3257SOL    HW110670   2.711   1.137   1.023
 3257SOL    HW210671   2.668   1.102   1.176
 3258SOL     OW10672   5.492   6.502   1.685
 3258SOL    HW110673   5.476   6.412   1.643
 3258SOL    HW210674   5.457   6.574   1.624
 3259SOL     OW10675   5.547   5.803   3.192
 3259SOL    HW110676   5.482   5.742   3.146
 3259SOL    HW210677   5.600   5.853   3.123
 3260SOL     OW10678   2.502   1.460   1.472
 3260SOL    HW110679   2.511   1.442   1.374
 3260SOL    HW210680   2.582   1.511   1.504
 3261SOL     OW10681   4.877   6.880   4.006
 3261SOL    HW110682   4.865   6.800   4.066
 3261SOL    HW210683   4.909   6.849   3.917
 3262SOL     OW10684   4.454   1.926   3.704
 3262SOL    HW110685   4.533   1.941   3.646
 3262SOL    HW210686   4.384   1.876   3.652
 3263SOL     OW10687   3.229   4.979   3.403
 3263SOL    HW110688   3.247   4.974   3.305
 3263SOL    HW210689   3.178   5.063   3.424
 3264SOL     OW10690   5.731   4.872   6.118
 3264SOL    HW110691   5.804   4.832   6.173
 3264SOL    HW210692   5.723   4.969   6.138
 3265SOL     OW10693   5.722   0.107   5.452
 3265SOL    HW110694   5.666   0.094   5.370
 3265SOL    HW210695   5.669   0.081   5.533
 3266SOL     OW10696   1.046   2.874   6.839
 3266SOL    HW110697   1.110   2.863   6.763
 3266SOL    HW210698   1.055   2.796   6.902
 3267SOL     OW10699   5.237   3.942   2.113
 3267SOL    HW110700   5.199   3.889   2.037
 3267SOL    HW210701   5.331   3.910   2.131
 3268SOL     OW10702   1.813   5.551   6.967
 3268SOL    HW110703   1.786   5.570   0.033
 3268SOL    HW210704   1.733   5.557   6.907
 3269SOL     OW10705   4.310   3.690   0.877
 3269SOL    HW110706   4.256   3.765   0.838
 3269SOL    HW210707   4.383   3.728   0.934
 3270SOL     OW10708   6.895   5.449   3.633
 3270SOL    HW110709   6.964   5.416   3.569
 3270SOL    HW210710   6.823   5.497   3.583
 3271SOL     OW10711   4.715   6.748   1.042
 3271SOL    HW110712   4.791   6.684   1.056
 3271SOL    HW210713   4.666   6.760   1.128
 3272SOL     OW10714   4.800   5.738   6.404
 3272SOL    HW110715   4.813   5.819   6.347
 3272SOL    HW210716   4.889   5.697   6.424
 3273SOL     OW10717   0.504   0.275   2.886
 3273SOL    HW110718   0.497   0.210   2.962
 3273SOL    HW210719   0.490   0.226   2.799
 3274SOL     OW10720   2.725   1.263   0.188
 3274SOL    HW110721   2.741   1.166   0.170
 3274SOL    HW210722   2.628   1.277   0.209
 3275SOL     OW10723   4.290   0.500   6.937
 3275SOL    HW110724   4.191   0.510   6.947
 3275SOL    HW210725   4.335   0.536   7.019
 3276SOL     OW10726   1.410   6.247   0.675
 3276SOL    HW110727   1.496   6.267   0.627
 3276SOL    HW210728   1.427   6.177   0.744
 3277SOL     OW10729   0.293   6.564   0.145
 3277SOL    HW110730   0.306   6.654   0.105
 3277SOL    HW210731   0.195   6.546   0.158
 3278SOL     OW10732   1.140   0.132   7.027
 3278SOL    HW110733   1.066   0.077   0.035
 3278SOL    HW210734   1.217   0.130   0.063
 3279SOL     OW10735   2.228   0.066   1.580
 3279SOL    HW110736   2.247   7.006   1.624
 3279SOL    HW210737   2.253   0.061   1.484
 3280SOL     OW10738   2.812   6.210   3.543
 3280SOL    HW110739   2.731   6.191   3.488
 3280SOL    HW210740   2.818   6.143   3.617
 3281SOL     OW10741   1.179   6.412   0.796
 3281SOL    HW110742   1.256   6.351   0.781
 3281SOL    HW210743   1.159   6.463   0.713
 3282SOL     OW10744   2.048   4.971   2.840
 3282SOL    HW110745   1.989   4.896   2.812
 3282SOL    HW210746   2.065   4.965   2.939
 3283SOL     OW10747   1.481   0.545   3.364
 3283SOL    HW110748   1.562   0.545   3.422
 3283SOL    HW210749   1.402   0.575   3.418
 3284SOL     OW10750   1.564   5.414   5.732
 3284SOL    HW110751   1.515   5.500   5.734
 3284SOL    HW210752   1.555   5.368   5.820
 3285SOL     OW10753   0.593   2.651   4.587
 3285SOL    HW110754   0.585   2.657   4.686
 3285SOL    HW210755   0.653   2.575   4.563
 3286SOL     OW10756   4.884   4.487   6.148
 3286SOL    HW110757   4.903   4.585   6.140
 3286SOL    HW210758   4.786   4.472   6.156
 3287SOL     OW10759   0.395   2.977   1.914
 3287SOL    HW110760   0.387   3.076   1.924
 3287SOL    HW210761   0.374   2.952   1.820
 3288SOL     OW10762   0.717   0.182   0.499
 3288SOL    HW110763   0.785   0.121   0.538
 3288SOL    HW210764   0.638   0.129   0.467
 3289SOL     OW10765   1.659   0.327   3.829
 3289SOL    HW110766   1.576   0.325   3.773
 3289SOL    HW210767   1.735   0.287   3.778
 3290SOL     OW10768   0.186   5.038   3.805
 3290SOL    HW110769   0.123   5.047   3.728
 3290SOL    HW210770   0.188   5.124   3.857
 3291SOL     OW10771   1.396   1.737   1.573
 3291SOL    HW110772   1.354   1.682   1.645
 3291SOL    HW210773   1.473   1.686   1.533
 3292SOL     OW10774   0.781   5.960   4.572
 3292SOL    HW110775   0.731   6.043   4.596
 3292SOL    HW210776   0.873   5.984   4.541
 3293SOL     OW10777   5.484   0.317   2.977
 3293SOL    HW110778   5.406   0.380   2.984
 3293SOL    HW210779   5.560   0.363   2.930
 3294SOL     OW10780   6.557   0.150   1.102
 3294SOL    HW110781   6.503   0.114   1.026
 3294SOL    HW210782   6.616   0.078   1.138
 3295SOL     OW10783   2.626   2.742   6.089
 3295SOL    HW110784   2.635   2.656   6.039
 3295SOL    HW210785   2.531   2.772   6.086
 3296SOL     OW10786   1.209   6.405   2.162
 3296SOL    HW110787   1.297   6.443   2.188
 3296SOL    HW210788   1.136   6.450   2.213
 3297SOL     OW10789   3.273   0.895   5.384
 3297SOL    HW110790   3.351   0.875   5.443
 3297SOL    HW210791   3.290   0.860   5.292
 3298SOL     OW10792   0.607   4.654   2.971
 3298SOL    HW110793   0.632   4.749   2.954
 3298SOL    HW210794   0.689   4.598   2.979
 3299SOL     OW10795   1.326   1.273   4.096
 3299SOL    HW110796   1.335   1.372   4.100
 3299SOL    HW210797   1.384   1.231   4.166
 3300SOL     OW10798   0.500   6.825   4.755
 3300SOL    HW110799   0.465   6.889   4.686
 3300SOL    HW210800   0.580   6.865   4.799
 3301SOL     OW10801   6.184   4.390   2.507
 3301SOL    HW110802   6.161   4.293   2.503
 3301SOL    HW210803   6.283   4.402   2.504
 3302SOL     OW10804   1.035   5.919   5.281
 3302SOL    HW110805   1.002   6.011   5.260
 3302SOL    HW210806   1.118   5.926   5.337
 3303SOL     OW10807   3.191   3.691   4.743
 3303SOL    HW110808   3.260   3.689   4.671
 3303SOL    HW210809   3.153   3.784   4.749
 3304SOL     OW10810   1.483   1.187   3.742
 3304SOL    HW110811   1.517   1.152   3.829
 3304SOL    HW210812   1.546   1.163   3.669
 3305SOL     OW10813   0.727   2.750   0.582
 3305SOL    HW110814   0.727   2.678   0.652
 3305SOL    HW210815   0.668   2.826   0.612
 3306SOL     OW10816   2.059   1.879   1.377
 3306SOL    HW110817   2.032   1.932   1.297
 3306SOL    HW210818   2.129   1.929   1.429
 3307SOL     OW10819   0.697   0.213   6.879
 3307SOL    HW110820   0.734   0.120   6.871
 3307SOL    HW210821   0.767   0.278   6.850
 3308SOL     OW10822   5.110   6.051   0.786
 3308SOL    HW110823   5.019   6.092   0.792
 3308SOL    HW210824   5.170   6.093   0.854
 3309SOL     OW10825   1.484   4.566   1.986
 3309SOL    HW110826   1.553   4.540   1.918
 3309SOL    HW210827   1.461   4.662   1.975
 3310SOL     OW10828   2.234   6.517   2.107
 3310SOL    HW110829   2.226   6.596   2.168
 3310SOL    HW210830   2.186   6.536   2.021
 3311SOL     OW10831   4.176   5.244   0.738
 3311SOL    HW110832   4.159   5.173   0.670
 3311SOL    HW210833   4.251   5.302   0.708
 3312SOL     OW10834   1.269   2.395   6.166
 3312SOL    HW110835   1.310   2.428   6.251
 3312SOL    HW210836   1.214   2.313   6.185
 3313SOL     OW10837   5.488   6.497   4.930
 3313SOL    HW110838   5.521   6.413   4.887
 3313SOL    HW210839   5.389   6.505   4.916
 3314SOL     OW10840   0.428   4.069   6.575
 3314SOL    HW110841   0.425   4.169   6.574
 3314SOL    HW210842   0.499   4.037   6.514
 3315SOL     OW10843   6.039   2.908   2.886
 3315SOL    HW110844   6.089   2.991   2.860
 3315SOL    HW210845   6.059   2.887   2.982
 3316SOL     OW10846   3.960   0.334   6.581
 3316SOL    HW110847   3.951   0.323   6.680
 3316SOL    HW210848   3.958   0.432   6.559
 3317SOL     OW10849   4.704   2.685   1.411
 3317SOL    HW110850   4.771   2.612   1.409
 3317SOL    HW210851   4.612   2.647   1.402
 3318SOL     OW10852   2.745   5.080   6.393
 3318SOL    HW110853   2.796   5.165   6.380
 3318SOL    HW210854   2.648   5.100   6.403
 3319SOL     OW10855   0.676   6.346   6.758
 3319SOL    HW110856   0.608   6.414   6.785
 3319SOL    HW210857   0.659   6.317   6.663
 3320SOL     OW10858   1.155   0.505   1.078
 3320SOL    HW110859   1.201   0.593   1.083
 3320SOL    HW210860   1.209   0.442   1.022
 3321SOL     OW10861   3.664   3.762   4.293
 3321SOL    HW110862   3.631   3.696   4.225
 3321SOL    HW210863   3.603   3.841   4.294
 3322SOL     OW10864   4.844   3.069   2.877
 3322SOL    HW110865   4.852   3.132   2.801
 3322SOL    HW210866   4.871   3.115   2.962
 3323SOL     OW10867   1.489   4.440   0.775
 3323SOL    HW110868   1.538   4.415   0.690
 3323SOL    HW210869   1.432   4.363   0.803
 3324SOL     OW10870   6.225   3.112   1.483
 3324SOL    HW110871   6.168   3.155   1.413
 3324SOL    HW210872   6.297   3.059   1.439
 3325SOL     OW10873   0.804   4.421   4.758
 3325SOL    HW110874   0.805   4.373   4.845
 3325SOL    HW210875   0.884   4.479   4.749
 3326SOL     OW10876   5.115   0.039   2.256
 3326SOL    HW110877   5.079   6.978   2.229
 3326SOL    HW210878   5.177   0.027   2.334
 3327SOL     OW10879   4.577   5.909   1.454
 3327SOL    HW110880   4.601   5.994   1.502
 3327SOL    HW210881   4.570   5.834   1.521
 3328SOL     OW10882   6.037   6.418   4.077
 3328SOL    HW110883   6.130   6.417   4.112
 3328SOL    HW210884   6.008   6.512   4.061
 3329SOL     OW10885   5.690   0.315   5.938
 3329SOL    HW110886   5.632   0.235   5.931
 3329SOL    HW210887   5.688   0.351   6.031
 3330SOL     OW10888   6.113   0.345   3.154
 3330SOL    HW110889   6.210   0.370   3.147
 3330SOL    HW210890   6.103   0.246   3.140
 3331SOL     OW10891   0.883   3.399   2.347
 3331SOL    HW110892   0.891   3.499   2.346
 3331SOL    HW210893   0.950   3.360   2.410
 3332SOL     OW10894   4.179   4.988   0.616
 3332SOL    HW110895   4.236   4.967   0.536
 3332SOL    HW210896   4.083   4.985   0.590
 3333SOL     OW10897   2.163   4.505   0.702
 3333SOL    HW110898   2.200   4.413   0.695
 3333SOL    HW210899   2.098   4.522   0.628
 3334SOL     OW10900   1.886   2.808   2.720
 3334SOL    HW110901   1.922   2.901   2.725
 3334SOL    HW210902   1.950   2.745   2.764
 3335SOL     OW10903   4.207   4.335   6.382
 3335SOL    HW110904   4.272   4.262   6.362
 3335SOL    HW210905   4.125   4.296   6.424
 3336SOL     OW10906   3.647   5.755   5.953
 3336SOL    HW110907   3.641   5.741   6.051
 3336SOL    HW210908   3.593   5.835   5.927
 3337SOL     OW10909   2.948   3.772   3.925
 3337SOL    HW110910   2.979   3.677   3.910
 3337SOL    HW210911   2.848   3.774   3.928
 3338SOL     OW10912   2.954   3.324   1.494
 3338SOL    HW110913   2.879   3.388   1.475
 3338SOL    HW210914   3.027   3.372   1.542
 3339SOL     OW10915   1.138   6.758   6.162
 3339SOL    HW110916   1.151   6.786   6.067
 3339SOL    HW210917   1.224   6.769   6.212
 3340SOL     OW10918   4.962   0.947   6.513
 3340SOL    HW110919   4.939   1.033   6.468
 3340SOL    HW210920   4.911   0.872   6.471
 3341SOL     OW10921   1.464   4.380   1.140
 3341SOL    HW110922   1.457   4.287   1.179
 3341SOL    HW210923   1.420   4.445   1.202
 3342SOL     OW10924   6.053   6.826   2.097
 3342SOL    HW110925   5.975   6.876   2.135
 3342SOL    HW210926   6.076   6.750   2.158
 3343SOL     OW10927   3.099   5.037   0.936
 3343SOL    HW110928   3.081   5.070   0.844
 3343SOL    HW210929   3.052   4.950   0.951
 3344SOL     OW10930   1.398   3.139   1.706
 3344SOL    HW110931   1.332   3.182   1.643
 3344SOL    HW210932   1.474   3.101   1.654
 3345SOL     OW10933   5.222   5.338   1.040
 3345SOL    HW110934   5.127   5.307   1.035
 3345SOL    HW210935   5.283   5.262   1.016
 3346SOL     OW10936   1.143   1.140   6.697
 3346SOL    HW110937   1.139   1.239   6.684
 3346SOL    HW210938   1.076   1.095   6.638
 3347SOL     OW10939   0.819   3.874   5.646
 3347SOL    HW110940   0.905   3.886   5.597
 3347SOL    HW210941   0.820   3.786   5.694
 3348SOL     OW10942   3.541   3.858   6.253
 3348SOL    HW110943   3.616   3.866   6.319
 3348SOL    HW210944   3.457   3.892   6.295
 3349SOL     OW10945   1.857   5.447   1.903
 3349SOL    HW110946   1.899   5.392   1.831
 3349SOL    HW210947   1.929   5.485   1.962
 3350SOL     OW10948   2.822   5.794   4.366
 3350SOL    HW110949   2.853   5.699   4.370
 3350SOL    HW210950   2.887   5.848   4.313
 3351SOL     OW10951   5.792   6.798   1.295
 3351SOL    HW110952   5.711   6.826   1.346
 3351SOL    HW210953   5.856   6.875   1.289
 3352SOL     OW10954   5.468   1.343   6.794
 3352SOL    HW110955   5.535   1.392   6.738
 3352SOL    HW210956   5.509   1.260   6.829
 3353SOL     OW10957   4.035   0.265   6.313
 3353SOL    HW110958   3.954   0.301   6.267
 3353SOL    HW210959   4.029   0.285   6.411
 3354SOL     OW10960   2.360   2.322   0.302
 3354SOL    HW110961   2.352   2.224   0.318
 3354SOL    HW210962   2.440   2.357   0.350
 3355SOL     OW10963   1.467   1.608   5.332
 3355SOL    HW110964   1.411   1.654   5.263
 3355SOL    HW210965   1.534   1.673   5.369
 3356SOL     OW10966   3.365   0.631   5.633
 3356SOL    HW110967   3.304   0.555   5.613
 3356SOL    HW210968   3.438   0.600   5.694
 3357SOL     OW10969   3.192   4.007   4.189
 3357SOL    HW110970   3.199   4.040   4.095
 3357SOL    HW210971   3.262   3.937   4.205
 3358SOL     OW10972   0.430   2.154   1.852
 3358SOL    HW110973   0.393   2.142   1.760
 3358SOL    HW210974   0.473   2.069   1.882
 3359SOL     OW10975   1.330   0.013   4.085
 3359SOL    HW110976   1.369   0.105   4.074
 3359SOL    HW210977   1.230   0.020   4.093
 3360SOL     OW10978   1.242   5.383   4.920
 3360SOL    HW110979   1.291   5.311   4.968
 3360SOL    HW210980   1.215   5.455   4.985
 3361SOL     OW10981   0.490   6.895   4.275
 3361SOL    HW110982   0.431   6.948   4.214
 3361SOL    HW210983   0.544   6.957   4.332
 3362SOL     OW10984   3.168   0.831   4.822
 3362SOL    HW110985   3.244   0.875   4.871
 3362SOL    HW210986   3.176   0.731   4.831
 3363SOL     OW10987   4.455   3.508   0.685
 3363SOL    HW110988   4.412   3.508   0.595
 3363SOL    HW210989   4.406   3.572   0.745
 3364SOL     OW10990   1.808   3.190   1.398
 3364SOL    HW110991   1.804   3.090   1.389
 3364SOL    HW210992   1.739   3.231   1.339
 3365SOL     OW10993   0.791   2.747   2.838
 3365SOL    HW110994   0.732   2.716   2.913
 3365SOL    HW210995   0.881   2.706   2.847
 3366SOL     OW10996   6.024   3.770   4.198
 3366SOL    HW110997   5.925   3.762   4.201
 3366SOL    HW210998   6.064   3.689   4.155
 3367SOL     OW10999   3.140   3.851   3.733
 3367SOL    HW111000   3.118   3.775   3.672
 3367SOL    HW211001   3.066   3.862   3.800
 3368SOL     OW11002   2.147   0.956   3.372
 3368SOL    HW111003   2.052   0.924   3.376
 3368SOL    HW211004   2.191   0.943   3.461
 3369SOL     OW11005   5.239   2.885   1.094
 3369SOL    HW111006   5.281   2.840   1.173
 3369SOL    HW211007   5.305   2.949   1.054
 3370SOL     OW11008   0.657   5.608   3.242
 3370SOL    HW111009   0.592   5.650   3.306
 3370SOL    HW211010   0.727   5.676   3.217
 3371SOL     OW11011   2.677   3.123   1.529
 3371SOL    HW111012   2.604   3.105   1.595
 3371SOL    HW211013   2.638   3.163   1.446
 3372SOL     OW11014   4.977   2.786   2.953
 3372SOL    HW111015   4.895   2.790   2.896
 3372SOL    HW211016   5.045   2.727   2.909
 3373SOL     OW11017   0.516   4.789   0.706
 3373SOL    HW111018   0.461   4.826   0.631
 3373SOL    HW211019   0.604   4.757   0.670
 3374SOL     OW11020   1.305   5.736   4.057
 3374SOL    HW111021   1.239   5.721   4.130
 3374SOL    HW211022   1.300   5.831   4.026
 3375SOL     OW11023   0.102   6.627   5.761
 3375SOL    HW111024   0.037   6.651   5.834
 3375SOL    HW211025   0.053   6.620   5.674
 3376SOL     OW11026   3.526   3.744   4.836
 3376SOL    HW111027   3.474   3.829   4.844
 3376SOL    HW211028   3.619   3.765   4.804
 3377SOL     OW11029   0.207   5.444   4.017
 3377SOL    HW111030   0.155   5.358   4.023
 3377SOL    HW211031   0.278   5.436   3.947
 3378SOL     OW11032   0.942   5.713   0.668
 3378SOL    HW111033   1.042   5.720   0.676
 3378SOL    HW211034   0.906   5.800   0.634
 3379SOL     OW11035   5.856   4.817   3.705
 3379SOL    HW111036   5.903   4.791   3.790
 3379SOL    HW211037   5.827   4.734   3.656
 3380SOL     OW11038   1.727   5.086   2.031
 3380SOL    HW111039   1.693   5.000   2.069
 3380SOL    HW211040   1.671   5.162   2.062
 3381SOL     OW11041   2.688   3.955   6.638
 3381SOL    HW111042   2.671   3.882   6.704
 3381SOL    HW211043   2.603   3.977   6.590
 3382SOL     OW11044   0.466   3.815   6.708
 3382SOL    HW111045   0.446   3.911   6.692
 3382SOL    HW211046   0.533   3.806   6.781
 3383SOL     OW11047   3.572   6.178   0.709
 3383SOL    HW111048   3.478   6.144   0.708
 3383SOL    HW211049   3.579   6.260   0.653
 3384SOL     OW11050   3.116   2.846   6.482
 3384SOL    HW111051   3.140   2.821   6.388
 3384SOL    HW211052   3.169   2.927   6.509
 3385SOL     OW11053   5.886   2.880   4.510
 3385SOL    HW111054   5.914   2.785   4.526
 3385SOL    HW211055   5.911   2.907   4.417
 3386SOL     OW11056   0.321   4.876   5.534
 3386SOL    HW111057   0.263   4.847   5.610
 3386SOL    HW211058   0.415   4.887   5.566
 3387SOL     OW11059   5.835   0.350   3.067
 3387SOL    HW111060   5.925   0.367   3.106
 3387SOL    HW211061   5.782   0.292   3.130
 3388SOL     OW11062   1.016   3.772   0.506
 3388SOL    HW111063   0.934   3.828   0.518
 3388SOL    HW211064   1.005   3.685   0.555
 3389SOL     OW11065   6.479   5.099   5.818
 3389SOL    HW111066   6.420   5.112   5.897
 3389SOL    HW211067   6.532   5.015   5.830
 3390SOL     OW11068   2.850   5.132   1.204
 3390SOL    HW111069   2.767   5.182   1.179
 3390SOL    HW211070   2.930   5.190   1.185
 3391SOL     OW11071   5.455   4.029   5.943
 3391SOL    HW111072   5.383   3.961   5.929
 3391SOL    HW211073   5.431   4.087   6.021
 3392SOL     OW11074   4.947   6.241   5.674
 3392SOL    HW111075   4.910   6.172   5.612
 3392SOL    HW211076   5.036   6.211   5.708
 3393SOL     OW11077   3.586   0.445   0.808
 3393SOL    HW111078   3.631   0.376   0.864
 3393SOL    HW211079   3.574   0.529   0.860
 3394SOL     OW11080   2.625   6.179   1.315
 3394SOL    HW111081   2.659   6.138   1.400
 3394SOL    HW211082   2.686   6.253   1.287
 3395SOL     OW11083   1.979   5.922   3.232
 3395SOL    HW111084   1.936   5.840   3.194
 3395SOL    HW211085   2.003   5.984   3.158
 3396SOL     OW11086   3.831   0.837   4.118
 3396SOL    HW111087   3.806   0.809   4.210
 3396SOL    HW211088   3.901   0.776   4.082
 3397SOL     OW11089   2.406   6.368   1.358
 3397SOL    HW111090   2.392   6.419   1.273
 3397SOL    HW211091   2.482   6.304   1.347
 3398SOL     OW11092   6.499   0.632   0.212
 3398SOL    HW111093   6.435   0.585   0.272
 3398SOL    HW211094   6.473   0.729   0.205
 3399SOL     OW11095   0.165   6.386   1.985
 3399SOL    HW111096   0.181   6.482   2.010
 3399SOL    HW211097   0.166   6.330   2.068
 3400SOL     OW11098   3.651   3.119   5.855
 3400SOL    HW111099   3.674   3.046   5.791
 3400SOL    HW211100   3.638   3.081   5.947
 3401SOL     OW11101   6.834   3.752   4.143
 3401SOL    HW111102   6.751   3.747   4.087
 3401SOL    HW211103   6.810   3.739   4.239
 3402SOL     OW11104   5.827   3.519   6.968
 3402SOL    HW111105   5.736   3.478   6.966
 3402SOL    HW211106   5.894   3.452   7.001
 3403SOL     OW11107   5.819   6.928   3.987
 3403SOL    HW111108   5.823   6.925   3.887
 3403SOL    HW211109   5.742   6.985   4.015
 3404SOL     OW11110   5.577   5.038   3.118
 3404SOL    HW111111   5.593   4.967   3.187
 3404SOL    HW211112   5.490   5.083   3.137
 3405SOL     OW11113   4.107   6.499   1.213
 3405SOL    HW111114   4.072   6.442   1.287
 3405SOL    HW211115   4.128   6.441   1.134
 3406SOL     OW11116   3.848   5.071   1.031
 3406SOL    HW111117   3.860   5.121   0.945
 3406SOL    HW211118   3.867   4.974   1.016
 3407SOL     OW11119   1.287   2.280   0.714
 3407SOL    HW111120   1.362   2.250   0.655
 3407SOL    HW211121   1.254   2.369   0.682
 3408SOL     OW11122   3.783   0.040   3.825
 3408SOL    HW111123   3.702   0.008   3.776
 3408SOL    HW211124   3.768   0.032   3.924
 3409SOL     OW11125   4.241   2.158   6.555
 3409SOL    HW111126   4.144   2.162   6.529
 3409SOL    HW211127   4.282   2.248   6.542
 3410SOL     OW11128   6.559   0.814   2.786
 3410SOL    HW111129   6.637   0.871   2.759
 3410SOL    HW211130   6.532   0.836   2.879
 3411SOL     OW11131   5.650   3.164   6.386
 3411SOL    HW111132   5.643   3.201   6.478
 3411SOL    HW211133   5.625   3.234   6.320
 3412SOL     OW11134   4.845   3.261   3.737
 3412SOL    HW111135   4.838   3.197   3.814
 3412SOL    HW211136   4.853   3.354   3.773
 3413SOL     OW11137   1.038   2.501   1.125
 3413SOL    HW111138   1.103   2.437   1.084
 3413SOL    HW211139   1.032   2.484   1.223
 3414SOL     OW11140   3.852   2.979   2.083
 3414SOL    HW111141   3.846   3.074   2.052
 3414SOL    HW211142   3.885   2.921   2.008
 3415SOL     OW11143   2.558   0.686   6.690
 3415SOL    HW111144   2.614   0.654   6.613
 3415SOL    HW211145   2.494   0.755   6.658
 3416SOL     OW11146   5.414   6.580   5.770
 3416SOL    HW111147   5.358   6.566   5.851
 3416SOL    HW211148   5.407   6.676   5.741
 3417SOL     OW11149   5.878   0.915   2.519
 3417SOL    HW111150   5.962   0.965   2.540
 3417SOL    HW211151   5.809   0.934   2.589
 3418SOL     OW11152   4.323   5.165   0.987
 3418SOL    HW111153   4.282   5.206   0.905
 3418SOL    HW211154   4.346   5.237   1.052
 3419SOL     OW11155   3.072   4.780   5.260
 3419SOL    HW111156   3.019   4.709   5.214
 3419SOL    HW211157   3.084   4.858   5.198
 3420SOL     OW11158   4.236   1.303   1.293
 3420SOL    HW111159   4.213   1.252   1.376
 3420SOL    HW211160   4.232   1.401   1.312
 3421SOL     OW11161   0.502   1.340   4.627
 3421SOL    HW111162   0.563   1.330   4.549
 3421SOL    HW211163   0.407   1.341   4.595
 3422SOL     OW11164   3.025   5.594   1.485
 3422SOL    HW111165   3.027   5.691   1.460
 3422SOL    HW211166   2.937   5.571   1.525
 3423SOL     OW11167   1.737   4.466   6.466
 3423SOL    HW111168   1.828   4.425   6.477
 3423SOL    HW211169   1.675   4.429   6.536
 3424SOL     OW11170   5.788   6.545   2.678
 3424SOL    HW111171   5.761   6.526   2.584
 3424SOL    HW211172   5.814   6.460   2.724
 3425SOL     OW11173   5.361   2.742   6.504
 3425SOL    HW111174   5.435   2.797   6.466
 3425SOL    HW211175   5.274   2.786   6.485
 3426SOL     OW11176   6.863   5.655   6.640
 3426SOL    HW111177   6.933   5.624   6.705
 3426SOL    HW211178   6.775   5.659   6.686
 3427SOL     OW11179   1.688   1.647   6.773
 3427SOL    HW111180   1.760   1.705   6.814
 3427SOL    HW211181   1.731   1.576   6.717
 3428SOL     OW11182   4.325   0.655   3.859
 3428SOL    HW111183   4.353   0.599   3.937
 3428SOL    HW211184   4.303   0.747   3.889
 3429SOL     OW11185   4.501   5.670   0.617
 3429SOL    HW111186   4.455   5.732   0.554
 3429SOL    HW211187   4.600   5.683   0.611
 3430SOL     OW11188   2.519   4.389   0.035
 3430SOL    HW111189   2.578   4.466   0.058
 3430SOL    HW211190   2.427   4.423   0.013
 3431SOL     OW11191   1.481   4.466   2.436
 3431SOL    HW111192   1.439   4.468   2.526
 3431SOL    HW211193   1.572   4.425   2.443
 3432SOL     OW11194   0.401   5.272   6.365
 3432SOL    HW111195   0.390   5.186   6.316
 3432SOL    HW211196   0.423   5.254   6.460
 3433SOL     OW11197   0.682   1.272   0.269
 3433SOL    HW111198   0.636   1.190   0.303
 3433SOL    HW211199   0.616   1.328   0.220
 3434SOL     OW11200   4.052   2.246   2.172
 3434SOL    HW111201   4.068   2.180   2.098
 3434SOL    HW211202   3.976   2.306   2.147
 3435SOL     OW11203   2.973   3.175   1.258
 3435SOL    HW111204   2.966   3.087   1.306
 3435SOL    HW211205   2.954   3.249   1.322
 3436SOL     OW11206   4.451   5.607   4.991
 3436SOL    HW111207   4.353   5.587   4.991
 3436SOL    HW211208   4.469   5.682   5.055
 3437SOL     OW11209   1.953   6.337   0.468
 3437SOL    HW111210   1.912   6.399   0.401
 3437SOL    HW211211   1.998   6.390   0.540
 3438SOL     OW11212   2.655   4.451   0.276
 3438SOL    HW111213   2.672   4.439   0.374
 3438SOL    HW211214   2.736   4.488   0.232
 3439SOL     OW11215   2.975   6.040   1.120
 3439SOL    HW111216   3.033   5.999   1.049
 3439SOL    HW211217   3.020   6.121   1.156
 3440SOL     OW11218   3.984   4.267   5.722
 3440SOL    HW111219   3.957   4.242   5.814
 3440SOL    HW211220   3.975   4.188   5.661
 3441SOL     OW11221   0.082   5.124   5.062
 3441SOL    HW111222   0.072   5.223   5.076
 3441SOL    HW211223   0.178   5.100   5.067
 3442SOL     OW11224   0.941   2.177   0.485
 3442SOL    HW111225   1.017   2.148   0.428
 3442SOL    HW211226   0.888   2.098   0.514
 3443SOL     OW11227   0.187   5.844   2.260
 3443SOL    HW111228   0.097   5.890   2.258
 3443SOL    HW211229   0.177   5.751   2.226
 3444SOL     OW11230   0.742   3.864   6.223
 3444SOL    HW111231   0.751   3.764   6.217
 3444SOL    HW211232   0.814   3.907   6.170
 3445SOL     OW11233   5.957   5.538   4.416
 3445SOL    HW111234   5.975   5.635   4.403
 3445SOL    HW211235   5.860   5.525   4.439
 3446SOL     OW11236   5.209   1.881   0.258
 3446SOL    HW111237   5.241   1.921   0.343
 3446SOL    HW211238   5.270   1.908   0.183
 3447SOL     OW11239   5.192   1.774   5.780
 3447SOL    HW111240   5.111   1.718   5.766
 3447SOL    HW211241   5.265   1.718   5.820
 3448SOL     OW11242   0.929   5.355   4.937
 3448SOL    HW111243   1.019   5.311   4.944
 3448SOL    HW211244   0.939   5.453   4.951
 3449SOL     OW11245   1.730   3.864   4.896
 3449SOL    HW111246   1.795   3.915   4.953
 3449SOL    HW211247   1.772   3.845   4.807
 3450SOL     OW11248   2.064   6.929   2.400
 3450SOL    HW111249   2.081   6.959   2.494
 3450SOL    HW211250   2.036   7.007   2.345
 3451SOL     OW11251   1.987   1.817   0.752
 3451SOL    HW111252   1.971   1.829   0.850
 3451SOL    HW211253   1.912   1.763   0.713
 3452SOL     OW11254   4.613   0.953   5.712
 3452SOL    HW111255   4.523   0.949   5.668
 3452SOL    HW211256   4.631   0.867   5.760
 3453SOL     OW11257   4.562   6.058   5.036
 3453SOL    HW111258   4.595   6.061   5.130
 3453SOL    HW211259   4.534   6.149   5.007
 3454SOL     OW11260   1.130   3.159   3.749
 3454SOL    HW111261   1.136   3.226   3.822
 3454SOL    HW211262   1.038   3.119   3.748
 3455SOL     OW11263   1.406   3.807   5.899
 3455SOL    HW111264   1.457   3.737   5.949
 3455SOL    HW211265   1.442   3.897   5.923
 3456SOL     OW11266   4.465   5.268   2.483
 3456SOL    HW111267   4.550   5.216   2.491
 3456SOL    HW211268   4.388   5.204   2.476
 3457SOL     OW11269   3.870   3.843   0.170
 3457SOL    HW111270   3.815   3.864   0.251
 3457SOL    HW211271   3.876   3.744   0.158
 3458SOL     OW11272   4.169   1.626   0.887
 3458SOL    HW111273   4.155   1.558   0.960
 3458SOL    HW211274   4.114   1.707   0.906
 3459SOL     OW11275   6.615   0.539   2.981
 3459SOL    HW111276   6.673   0.478   3.034
 3459SOL    HW211277   6.639   0.532   2.884
 3460SOL     OW11278   4.782   1.467   5.362
 3460SOL    HW111279   4.711   1.519   5.314
 3460SOL    HW211280   4.742   1.384   5.400
 3461SOL     OW11281   4.201   4.808   3.451
 3461SOL    HW111282   4.163   4.751   3.378
 3461SOL    HW211283   4.205   4.755   3.536
 3462SOL     OW11284   0.878   4.666   6.621
 3462SOL    HW111285   0.899   4.596   6.690
 3462SOL    HW211286   0.849   4.750   6.667
 3463SOL     OW11287   5.866   4.550   6.933
 3463SOL    HW111288   5.790   4.539   6.997
 3463SOL    HW211289   5.929   4.619   6.968
 3464SOL     OW11290   6.525   5.089   3.970
 3464SOL    HW111291   6.506   5.105   4.067
 3464SOL    HW211292   6.606   5.141   3.943
 3465SOL     OW11293   0.806   2.418   1.730
 3465SOL    HW111294   0.894   2.441   1.688
 3465SOL    HW211295   0.745   2.497   1.727
 3466SOL     OW11296   5.839   3.737   3.522
 3466SOL    HW111297   5.812   3.659   3.579
 3466SOL    HW211298   5.845   3.708   3.426
 3467SOL     OW11299   2.072   1.735   5.709
 3467SOL    HW111300   2.167   1.719   5.734
 3467SOL    HW211301   2.012   1.681   5.768
 3468SOL     OW11302   5.367   5.040   1.543
 3468SOL    HW111303   5.456   5.047   1.589
 3468SOL    HW211304   5.296   5.082   1.600
 3469SOL     OW11305   5.377   3.574   0.046
 3469SOL    HW111306   5.459   3.616   0.008
 3469SOL    HW211307   5.365   3.604   0.141
 3470SOL     OW11308   6.308   5.750   6.836
 3470SOL    HW111309   6.263   5.728   6.749
 3470SOL    HW211310   6.367   5.673   6.862
 3471SOL     OW11311   4.638   6.643   4.652
 3471SOL    HW111312   4.731   6.611   4.640
 3471SOL    HW211313   4.622   6.663   4.749
 3472SOL     OW11314   3.803   0.775   4.440
 3472SOL    HW111315   3.717   0.823   4.458
 3472SOL    HW211316   3.822   0.712   4.516
 3473SOL     OW11317   4.450   6.697   4.127
 3473SOL    HW111318   4.490   6.629   4.065
 3473SOL    HW211319   4.376   6.655   4.179
 3474SOL     OW11320   4.770   4.384   0.176
 3474SOL    HW111321   4.703   4.398   0.104
 3474SOL    HW211322   4.862   4.395   0.138
 3475SOL     OW11323   1.456   5.376   5.444
 3475SOL    HW111324   1.520   5.371   5.520
 3475SOL    HW211325   1.367   5.341   5.473
 3476SOL     OW11326   3.514   1.794   3.599
 3476SOL    HW111327   3.581   1.719   3.606
 3476SOL    HW211328   3.422   1.755   3.596
 3477SOL     OW11329   4.484   5.422   2.793
 3477SOL    HW111330   4.487   5.330   2.831
 3477SOL    HW211331   4.462   5.416   2.695
 3478SOL     OW11332   3.788   4.450   0.301
 3478SOL    HW111333   3.839   4.364   0.294
 3478SOL    HW211334   3.705   4.435   0.355
 3479SOL     OW11335   2.060   0.772   0.236
 3479SOL    HW111336   2.029   0.821   0.154
 3479SOL    HW211337   1.986   0.771   0.304
 3480SOL     OW11338   1.261   6.652   4.464
 3480SOL    HW111339   1.281   6.632   4.560
 3480SOL    HW211340   1.300   6.741   4.440
 3481SOL     OW11341   2.275   5.037   0.074
 3481SOL    HW111342   2.261   5.114   0.137
 3481SOL    HW211343   2.264   5.069   7.008
 3482SOL     OW11344   0.411   2.407   1.972
 3482SOL    HW111345   0.491   2.440   2.022
 3482SOL    HW211346   0.420   2.309   1.956
 3483SOL     OW11347   3.852   1.355   1.166
 3483SOL    HW111348   3.860   1.280   1.100
 3483SOL    HW211349   3.775   1.413   1.140
 3484SOL     OW11350   3.621   4.102   3.320
 3484SOL    HW111351   3.630   4.154   3.405
 3484SOL    HW211352   3.610   4.005   3.341
 3485SOL     OW11353   5.763   2.493   3.860
 3485SOL    HW111354   5.756   2.469   3.957
 3485SOL    HW211355   5.813   2.579   3.851
 3486SOL     OW11356   6.279   1.470   3.095
 3486SOL    HW111357   6.274   1.374   3.067
 3486SOL    HW211358   6.213   1.487   3.168
 3487SOL     OW11359   1.501   0.185   0.864
 3487SOL    HW111360   1.549   0.181   0.776
 3487SOL    HW211361   1.540   0.257   0.920
 3488SOL     OW11362   6.316   3.713   5.263
 3488SOL    HW111363   6.392   3.708   5.328
 3488SOL    HW211364   6.348   3.757   5.179
 3489SOL     OW11365   3.006   5.483   6.872
 3489SOL    HW111366   3.024   5.582   6.868
 3489SOL    HW211367   2.940   5.464   6.945
 3490SOL     OW11368   5.034   3.528   0.182
 3490SOL    HW111369   5.130   3.547   0.202
 3490SOL    HW211370   5.008   3.441   0.225
 3491SOL     OW11371   5.749   2.485   4.656
 3491SOL    HW111372   5.758   2.390   4.688
 3491SOL    HW211373   5.838   2.518   4.624
 3492SOL     OW11374   0.009   4.549   6.507
 3492SOL    HW111375   7.000   4.584   6.421
 3492SOL    HW211376   0.104   4.579   6.517
 3493SOL     OW11377   6.694   4.771   1.097
 3493SOL    HW111378   6.698   4.682   1.143
 3493SOL    HW211379   6.784   4.792   1.058
 3494SOL     OW11380   3.587   0.094   0.928
 3494SOL    HW111381   3.565   0.124   0.836
 3494SOL    HW211382   3.622   7.028   0.925
 3495SOL     OW11383   6.121   4.568   6.337
 3495SOL    HW111384   6.030   4.537   6.365
 3495SOL    HW211385   6.169   4.605   6.416
 3496SOL     OW11386   0.438   5.809   0.881
 3496SOL    HW111387   0.525   5.857   0.877
 3496SOL    HW211388   0.454   5.712   0.901
 3497SOL     OW11389   2.830   0.055   5.213
 3497SOL    HW111390   2.902   0.014   5.156
 3497SOL    HW211391   2.779   7.011   5.260
 3498SOL     OW11392   0.776   1.764   0.310
 3498SOL    HW111393   0.769   1.669   0.342
 3498SOL    HW211394   0.872   1.785   0.290
 3499SOL     OW11395   6.324   4.131   3.318
 3499SOL    HW111396   6.242   4.126   3.376
 3499SOL    HW211397   6.382   4.051   3.337
 3500SOL     OW11398   6.344   2.975   0.889
 3500SOL    HW111399   6.398   2.891   0.881
 3500SOL    HW211400   6.405   3.053   0.901
 3501SOL     OW11401   0.020   4.861   3.372
 3501SOL    HW111402   6.992   4.853   3.290
 3501SOL    HW211403   0.116   4.870   3.346
 3502SOL     OW11404   0.956   6.137   1.394
 3502SOL    HW111405   0.947   6.038   1.407
 3502SOL    HW211406   1.044   6.157   1.351
 3503SOL     OW11407   3.246   0.174   3.579
 3503SOL    HW111408   3.237   0.184   3.480
 3503SOL    HW211409   3.338   0.202   3.607
 3504SOL     OW11410   2.213   2.990   2.950
 3504SOL    HW111411   2.258   2.912   2.993
 3504SOL    HW211412   2.235   2.993   2.853
 3505SOL     OW11413   4.411   6.458   4.514
 3505SOL    HW111414   4.500   6.486   4.550
 3505SOL    HW211415   4.373   6.386   4.572
 3506SOL     OW11416   6.771   4.037   2.654
 3506SOL    HW111417   6.729   4.127   2.661
 3506SOL    HW211418   6.865   4.046   2.622
 3507SOL     OW11419   6.829   0.322   5.356
 3507SOL    HW111420   6.830   0.314   5.455
 3507SOL    HW211421   6.907   0.376   5.326
 3508SOL     OW11422   7.004   4.466   0.191
 3508SOL    HW111423   0.074   4.457   0.212
 3508SOL    HW211424   6.978   4.563   0.196
 3509SOL     OW11425   4.926   6.847   6.644
 3509SOL    HW111426   5.016   6.882   6.618
 3509SOL    HW211427   4.883   6.909   6.709
 3510SOL     OW11428   2.093   1.174   2.320
 3510SOL    HW111429   2.051   1.224   2.245
 3510SOL    HW211430   2.045   1.087   2.333
 3511SOL     OW11431   0.843   0.925   4.323
 3511SOL    HW111432   0.811   0.987   4.395
 3511SOL    HW211433   0.887   0.978   4.251
 3512SOL     OW11434   3.458   3.356   1.784
 3512SOL    HW111435   3.553   3.349   1.756
 3512SOL    HW211436   3.433   3.452   1.796
 3513SOL     OW11437   6.554   4.552   1.253
 3513SOL    HW111438   6.485   4.620   1.228
 3513SOL    HW211439   6.561   4.547   1.353
 3514SOL     OW11440   3.283   6.169   3.309
 3514SOL    HW111441   3.202   6.158   3.367
 3514SOL    HW211442   3.255   6.181   3.214
 3515SOL     OW11443   3.871   5.593   3.547
 3515SOL    HW111444   3.799   5.631   3.604
 3515SOL    HW211445   3.843   5.596   3.451
 3516SOL     OW11446   1.134   1.327   0.393
 3516SOL    HW111447   1.152   1.295   0.486
 3516SOL    HW211448   1.186   1.410   0.376
 3517SOL     OW11449   0.475   0.575   6.969
 3517SOL    HW111450   0.414   0.537   6.899
 3517SOL    HW211451   0.544   0.507   6.993
 3518SOL     OW11452   4.057   3.671   6.291
 3518SOL    HW111453   4.058   3.643   6.387
 3518SOL    HW211454   4.141   3.721   6.270
 3519SOL     OW11455   4.026   0.374   0.126
 3519SOL    HW111456   3.989   0.418   0.208
 3519SOL    HW211457   4.043   0.277   0.145
 3520SOL     OW11458   3.898   4.988   1.612
 3520SOL    HW111459   3.845   4.989   1.527
 3520SOL    HW211460   3.991   4.955   1.593
 3521SOL     OW11461   0.010   2.319   5.589
 3521SOL    HW111462   0.006   2.324   5.489
 3521SOL    HW211463   0.030   2.226   5.617
 3522SOL     OW11464   2.096   0.333   1.026
 3522SOL    HW111465   2.097   0.432   1.011
 3522SOL    HW211466   2.003   0.298   1.010
 3523SOL     OW11467   2.288   4.304   5.200
 3523SOL    HW111468   2.347   4.311   5.280
 3523SOL    HW211469   2.329   4.240   5.134
 3524SOL     OW11470   2.963   1.766   3.644
 3524SOL    HW111471   2.920   1.774   3.554
 3524SOL    HW211472   2.895   1.734   3.710
 3525SOL     OW11473   1.323   2.812   3.448
 3525SOL    HW111474   1.379   2.819   3.365
 3525SOL    HW211475   1.310   2.903   3.487
 3526SOL     OW11476   3.449   6.041   3.653
 3526SOL    HW111477   3.500   5.990   3.583
 3526SOL    HW211478   3.449   6.138   3.630
 3527SOL     OW11479   6.812   4.105   6.275
 3527SOL    HW111480   6.852   4.176   6.218
 3527SOL    HW211481   6.869   4.091   6.356
 3528SOL     OW11482   0.978   6.916   4.336
 3528SOL    HW111483   0.907   6.849   4.316
 3528SOL    HW211484   0.946   7.007   4.312
 3529SOL     OW11485   3.503   5.710   0.453
 3529SOL    HW111486   3.593   5.696   0.493
 3529SOL    HW211487   3.470   5.623   0.415
 3530SOL     OW11488   2.174   5.654   2.867
 3530SOL    HW111489   2.080   5.623   2.856
 3530SOL    HW211490   2.233   5.602   2.804
 3531SOL     OW11491   5.049   4.677   6.753
 3531SOL    HW111492   5.122   4.636   6.698
 3531SOL    HW211493   5.078   4.683   6.849
 3532SOL     OW11494   2.095   6.584   0.058
 3532SOL    HW111495   2.189   6.565   0.031
 3532SOL    HW211496   2.083   6.682   0.075
 3533SOL     OW11497   1.066   1.081   3.260
 3533SOL    HW111498   1.042   1.084   3.357
 3533SOL    HW211499   1.118   1.163   3.236
 3534SOL     OW11500   5.040   6.715   3.870
 3534SOL    HW111501   4.986   6.677   3.944
 3534SOL    HW211502   5.136   6.723   3.898
 3535SOL     OW11503   4.711   5.184   0.340
 3535SOL    HW111504   4.784   5.162   0.275
 3535SOL    HW211505   4.740   5.159   0.432
 3536SOL     OW11506   1.874   3.570   2.419
 3536SOL    HW111507   1.815   3.651   2.411
 3536SOL    HW211508   1.913   3.548   2.330
 3537SOL     OW11509   3.304   4.851   2.186
 3537SOL    HW111510   3.231   4.783   2.196
 3537SOL    HW211511   3.351   4.863   2.273
 3538SOL     OW11512   3.217   0.120   3.296
 3538SOL    HW111513   3.264   0.190   3.243
 3538SOL    HW211514   3.127   0.101   3.256
 3539SOL     OW11515   4.967   5.529   5.279
 3539SOL    HW111516   5.014   5.516   5.367
 3539SOL    HW211517   5.034   5.543   5.207
 3540SOL     OW11518   4.620   4.271   6.674
 3540SOL    HW111519   4.640   4.256   6.771
 3540SOL    HW211520   4.611   4.370   6.658
 3541SOL     OW11521   0.528   2.880   2.400
 3541SOL    HW111522   0.465   2.897   2.325
 3541SOL    HW211523   0.493   2.924   2.483
 3542SOL     OW11524   5.652   1.647   6.943
 3542SOL    HW111525   5.595   1.691   6.874
 3542SOL    HW211526   5.607   1.654   0.004
 3543SOL     OW11527   0.210   3.161   4.599
 3543SOL    HW111528   0.304   3.196   4.592
 3543SOL    HW211529   0.195   3.091   4.530
 3544SOL     OW11530   3.158   4.863   5.855
 3544SOL    HW111531   3.223   4.815   5.913
 3544SOL    HW211532   3.096   4.796   5.813
 3545SOL     OW11533   2.669   0.030   0.866
 3545SOL    HW111534   2.671   6.959   0.854
 3545SOL    HW211535   2.643   0.052   0.960
 3546SOL     OW11536   0.110   4.791   0.775
 3546SOL    HW111537   0.135   4.872   0.723
 3546SOL    HW211538   0.096   4.714   0.712
 3547SOL     OW11539   1.768   4.059   4.538
 3547SOL    HW111540   1.785   4.003   4.619
 3547SOL    HW211541   1.790   4.006   4.456
 3548SOL     OW11542   6.515   0.324   5.700
 3548SOL    HW111543   6.545   0.309   5.794
 3548SOL    HW211544   6.501   0.422   5.684
 3549SOL     OW11545   1.849   0.138   6.651
 3549SOL    HW111546   1.806   0.057   6.611
 3549SOL    HW211547   1.920   0.110   6.715
 3550SOL     OW11548   6.221   2.195   5.320
 3550SOL    HW111549   6.230   2.185   5.221
 3550SOL    HW211550   6.146   2.257   5.341
 3551SOL     OW11551   6.410   0.804   4.815
 3551SOL    HW111552   6.412   0.707   4.838
 3551SOL    HW211553   6.449   0.857   4.891
 3552SOL     OW11554   6.385   1.354   3.475
 3552SOL    HW111555   6.412   1.448   3.499
 3552SOL    HW211556   6.391   1.297   3.556
 3553SOL     OW11557   5.178   6.288   6.150
 3553SOL    HW111558   5.235   6.228   6.094
 3553SOL    HW211559   5.211   6.287   6.245
 3554SOL     OW11560   5.418   4.004   6.527
 3554SOL    HW111561   5.400   3.916   6.484
 3554SOL    HW211562   5.450   3.990   6.620
 3555SOL     OW11563   2.965   1.083   5.406
 3555SOL    HW111564   2.963   1.171   5.360
 3555SOL    HW211565   3.060   1.052   5.415
 3556SOL     OW11566   5.595   1.457   1.008
 3556SOL    HW111567   5.592   1.508   1.094
 3556SOL    HW211568   5.553   1.368   1.020
 3557SOL     OW11569   4.812   0.024   1.254
 3557SOL    HW111570   4.784   7.009   1.339
 3557SOL    HW211571   4.731   0.057   1.205
 3558SOL     OW11572   3.829   5.777   2.632
 3558SOL    HW111573   3.828   5.679   2.614
 3558SOL    HW211574   3.924   5.809   2.634
 3559SOL     OW11575   4.046   6.304   6.534
 3559SOL    HW111576   3.985   6.308   6.454
 3559SOL    HW211577   3.996   6.267   6.612
 3560SOL     OW11578   2.385   5.903   4.562
 3560SOL    HW111579   2.387   5.958   4.646
 3560SOL    HW211580   2.297   5.858   4.554
 3561SOL     OW11581   3.875   2.688   5.826
 3561SOL    HW111582   3.936   2.675   5.904
 3561SOL    HW211583   3.852   2.599   5.786
 3562SOL     OW11584   2.970   0.821   0.207
 3562SOL    HW111585   2.974   0.731   0.251
 3562SOL    HW211586   3.062   0.859   0.202
 3563SOL     OW11587   6.924   2.423   6.742
 3563SOL    HW111588   6.875   2.336   6.729
 3563SOL    HW211589   7.014   2.417   6.700
 3564SOL     OW11590   6.064   3.171   3.145
 3564SOL    HW111591   5.972   3.183   3.107
 3564SOL    HW211592   6.071   3.082   3.190
 3565SOL     OW11593   5.172   0.047   4.625
 3565SOL    HW111594   5.195   0.082   4.716
 3565SOL    HW211595   5.072   0.045   4.614
 3566SOL     OW11596   0.685   1.227   5.065
 3566SOL    HW111597   0.586   1.210   5.066
 3566SOL    HW211598   0.708   1.284   4.986
 3567SOL     OW11599   0.359   4.353   6.553
 3567SOL    HW111600   0.324   4.327   6.643
 3567SOL    HW211601   0.321   4.442   6.526
 3568SOL     OW11602   3.563   4.164   5.538
 3568SOL    HW111603   3.534   4.258   5.524
 3568SOL    HW211604   3.553   4.141   5.635
 3569SOL     OW11605   0.922   0.436   2.984
 3569SOL    HW111606   0.956   0.384   2.906
 3569SOL    HW211607   0.865   0.512   2.951
 3570SOL     OW11608   0.494   2.037   4.692
 3570SOL    HW111609   0.528   2.118   4.740
 3570SOL    HW211610   0.506   1.956   4.750
 3571SOL     OW11611   6.488   5.177   5.171
 3571SOL    HW111612   6.475   5.082   5.146
 3571SOL    HW211613   6.413   5.232   5.134
 3572SOL     OW11614   5.699   6.064   5.472
 3572SOL    HW111615   5.768   6.056   5.544
 3572SOL    HW211616   5.702   6.157   5.433
 3573SOL     OW11617   0.652   2.853   2.119
 3573SOL    HW111618   0.619   2.834   2.212
 3573SOL    HW211619   0.601   2.797   2.054
 3574SOL     OW11620   6.918   3.684   0.204
 3574SOL    HW111621   6.863   3.629   0.141
 3574SOL    HW211622   6.961   3.759   0.154
 3575SOL     OW11623   6.252   0.496   2.805
 3575SOL    HW111624   6.288   0.566   2.743
 3575SOL    HW211625   6.152   0.496   2.801
 3576SOL     OW11626   0.813   1.056   0.516
 3576SOL    HW111627   0.728   1.099   0.485
 3576SOL    HW211628   0.846   1.101   0.599
 3577SOL     OW11629   2.433   4.877   0.279
 3577SOL    HW111630   2.382   4.927   0.210
 3577SOL    HW211631   2.424   4.923   0.367
 3578SOL     OW11632   3.373   4.685   1.670
 3578SOL    HW111633   3.455   4.677   1.727
 3578SOL    HW211634   3.343   4.781   1.669
 3579SOL     OW11635   2.013   2.752   6.328
 3579SOL    HW111636   1.981   2.845   6.345
 3579SOL    HW211637   2.058   2.749   6.239
 3580SOL     OW11638   6.149   1.686   1.570
 3580SOL    HW111639   6.233   1.737   1.588
 3580SOL    HW211640   6.078   1.750   1.540
 3581SOL     OW11641   6.901   1.052   2.969
 3581SOL    HW111642   6.911   0.990   3.047
 3581SOL    HW211643   6.909   1.000   2.884
 3582SOL     OW11644   0.660   0.675   5.709
 3582SOL    HW111645   0.672   0.620   5.626
 3582SOL    HW211646   0.744   0.670   5.764
 3583SOL     OW11647   1.578   6.751   1.645
 3583SOL    HW111648   1.620   6.668   1.610
 3583SOL    HW211649   1.645   6.825   1.648
 3584SOL     OW11650   5.097   0.602   4.251
 3584SOL    HW111651   5.072   0.507   4.233
 3584SOL    HW211652   5.196   0.613   4.238
 3585SOL     OW11653   2.690   4.599   3.806
 3585SOL    HW111654   2.687   4.598   3.906
 3585SOL    HW211655   2.603   4.565   3.770
 3586SOL     OW11656   1.018   1.303   6.892
 3586SOL    HW111657   1.043   1.219   6.843
 3586SOL    HW211658   1.091   1.327   6.957
 3587SOL     OW11659   3.880   6.949   6.052
 3587SOL    HW111660   3.915   6.883   6.118
 3587SOL    HW211661   3.780   6.950   6.054
 3588SOL     OW11662   2.867   2.480   5.771
 3588SOL    HW111663   2.910   2.517   5.688
 3588SOL    HW211664   2.867   2.380   5.767
 3589SOL     OW11665   2.870   6.516   4.665
 3589SOL    HW111666   2.962   6.487   4.636
 3589SOL    HW211667   2.840   6.460   4.742
 3590SOL     OW11668   0.798   5.446   0.042
 3590SOL    HW111669   0.889   5.451   0.083
 3590SOL    HW211670   0.786   5.356   7.028
 3591SOL     OW11671   5.176   1.166   5.467
 3591SOL    HW111672   5.225   1.221   5.400
 3591SOL    HW211673   5.131   1.089   5.421
 3592SOL     OW11674   5.746   1.500   1.704
 3592SOL    HW111675   5.657   1.512   1.749
 3592SOL    HW211676   5.818   1.500   1.774
 3593SOL     OW11677   1.109   5.748   4.254
 3593SOL    HW111678   1.096   5.652   4.278
 3593SOL    HW211679   1.163   5.793   4.325
 3594SOL     OW11680   4.195   1.226   4.157
 3594SOL    HW111681   4.116   1.171   4.131
 3594SOL    HW211682   4.245   1.255   4.075
 3595SOL     OW11683   2.465   6.284   6.305
 3595SOL    HW111684   2.394   6.228   6.347
 3595SOL    HW211685   2.531   6.225   6.258
 3596SOL     OW11686   6.787   3.460   2.997
 3596SOL    HW111687   6.713   3.398   2.972
 3596SOL    HW211688   6.818   3.438   3.089
 3597SOL     OW11689   4.092   0.418   4.123
 3597SOL    HW111690   4.030   0.351   4.165
 3597SOL    HW211691   4.171   0.370   4.086
 3598SOL     OW11692   2.276   0.483   0.279
 3598SOL    HW111693   2.366   0.505   0.243
 3598SOL    HW211694   2.235   0.410   0.224
 3599SOL     OW11695   0.271   2.283   4.868
 3599SOL    HW111696   0.318   2.211   4.818
 3599SOL    HW211697   0.193   2.244   4.917
 3600SOL     OW11698   6.364   6.673   1.305
 3600SOL    HW111699   6.415   6.589   1.322
 3600SOL    HW211700   6.273   6.665   1.344
 3601SOL     OW11701   6.805   3.342   5.606
 3601SOL    HW111702   6.890   3.372   5.649
 3601SOL    HW211703   6.733   3.334   5.675
 3602SOL     OW11704   3.132   2.644   1.399
 3602SOL    HW111705   3.045   2.598   1.379
 3602SOL    HW211706   3.205   2.576   1.407
 3603SOL     OW11707   4.023   5.009   4.396
 3603SOL    HW111708   4.072   4.922   4.403
 3603SOL    HW211709   3.958   5.017   4.471
 3604SOL     OW11710   6.228   4.346   2.958
 3604SOL    HW111711   6.246   4.428   3.013
 3604SOL    HW211712   6.291   4.273   2.985
 3605SOL     OW11713   5.943   1.680   6.241
 3605SOL    HW111714   5.897   1.687   6.329
 3605SOL    HW211715   6.032   1.638   6.253
 3606SOL     OW11716   2.315   4.246   3.075
 3606SOL    HW111717   2.318   4.161   3.021
 3606SOL    HW211718   2.309   4.324   3.013
 3607SOL     OW11719   4.295   0.005   5.568
 3607SOL    HW111720   4.234   0.063   5.622
 3607SOL    HW211721   4.263   6.938   5.573
 3608SOL     OW11722   0.153   3.047   3.583
 3608SOL    HW111723   0.140   2.979   3.655
 3608SOL    HW211724   0.171   3.000   3.496
 3609SOL     OW11725   6.935   0.785   3.637
 3609SOL    HW111726   6.970   0.808   3.728
 3609SOL    HW211727   6.880   0.861   3.602
 3610SOL     OW11728   1.698   4.982   5.767
 3610SOL    HW111729   1.602   5.002   5.789
 3610SOL    HW211730   1.747   5.067   5.753
 3611SOL     OW11731   5.095   5.225   5.279
 3611SOL    HW111732   5.192   5.230   5.256
 3611SOL    HW211733   5.084   5.185   5.369
 3612SOL     OW11734   1.617   5.947   0.926
 3612SOL    HW111735   1.547   5.965   0.857
 3612SOL    HW211736   1.687   6.018   0.922
 3613SOL     OW11737   5.343   4.960   5.956
 3613SOL    HW111738   5.401   5.037   5.982
 3613SOL    HW211739   5.292   4.928   6.036
 3614SOL     OW11740   3.218   3.265   4.390
 3614SOL    HW111741   3.195   3.174   4.425
 3614SOL    HW211742   3.152   3.292   4.320
 3615SOL     OW11743   5.716   6.785   5.842
 3615SOL    HW111744   5.678   6.702   5.882
 3615SOL    HW211745   5.719   6.857   5.911
 3616SOL     OW11746   6.328   1.131   4.543
 3616SOL    HW111747   6.410   1.188   4.538
 3616SOL    HW211748   6.279   1.150   4.628
 3617SOL     OW11749   0.074   0.587   0.593
 3617SOL    HW111750   0.161   0.610   0.636
 3617SOL    HW211751   0.044   0.663   0.536
 3618SOL     OW11752   3.797   5.941   6.354
 3618SOL    HW111753   3.824   6.026   6.310
 3618SOL    HW211754   3.771   5.874   6.285
 3619SOL     OW11755   5.232   3.513   3.600
 3619SOL    HW111756   5.173   3.588   3.570
 3619SOL    HW211757   5.275   3.536   3.687
 3620SOL     OW11758   6.180   1.788   4.899
 3620SOL    HW111759   6.113   1.715   4.913
 3620SOL    HW211760   6.211   1.823   4.988
 3621SOL     OW11761   1.313   2.609   6.034
 3621SOL    HW111762   1.394   2.656   6.071
 3621SOL    HW211763   1.292   2.529   6.090
 3622SOL     OW11764   0.866   4.023   0.971
 3622SOL    HW111765   0.915   4.011   1.058
 3622SOL    HW211766   0.872   3.938   0.919
 3623SOL     OW11767   6.286   4.641   4.716
 3623SOL    HW111768   6.253   4.613   4.625
 3623SOL    HW211769   6.381   4.613   4.727
 3624SOL     OW11770   1.710   0.310   1.539
 3624SOL    HW111771   1.728   0.376   1.467
 3624SOL    HW211772   1.781   0.239   1.538
 3625SOL     OW11773   1.384   2.327   4.791
 3625SOL    HW111774   1.296   2.368   4.817
 3625SOL    HW211775   1.367   2.238   4.748
 3626SOL     OW11776   2.276   3.557   5.603
 3626SOL    HW111777   2.188   3.579   5.561
 3626SOL    HW211778   2.350   3.599   5.550
 3627SOL     OW11779   3.373   3.156   4.162
 3627SOL    HW111780   3.344   3.186   4.254
 3627SOL    HW211781   3.428   3.228   4.120
 3628SOL     OW11782   2.532   5.987   4.099
 3628SOL    HW111783   2.529   5.956   4.194
 3628SOL    HW211784   2.482   5.923   4.041
 3629SOL     OW11785   5.522   3.345   4.812
 3629SOL    HW111786   5.556   3.435   4.836
 3629SOL    HW211787   5.599   3.285   4.790
 3630SOL     OW11788   5.828   1.696   5.186
 3630SOL    HW111789   5.750   1.750   5.154
 3630SOL    HW211790   5.891   1.755   5.236
 3631SOL     OW11791   1.919   1.004   4.233
 3631SOL    HW111792   1.861   0.989   4.153
 3631SOL    HW211793   1.912   0.924   4.294
 3632SOL     OW11794   4.984   6.720   6.176
 3632SOL    HW111795   4.972   6.705   6.078
 3632SOL    HW211796   5.082   6.726   6.197
 3633SOL     OW11797   0.928   2.633   5.757
 3633SOL    HW111798   0.885   2.542   5.761
 3633SOL    HW211799   0.924   2.676   5.846
 3634SOL     OW11800   2.873   5.050   6.054
 3634SOL    HW111801   2.866   4.952   6.075
 3634SOL    HW211802   2.929   5.062   5.972
 3635SOL     OW11803   2.370   1.589   4.469
 3635SOL    HW111804   2.367   1.652   4.392
 3635SOL    HW211805   2.465   1.563   4.487
 3636SOL     OW11806   1.195   6.455   1.286
 3636SOL    HW111807   1.196   6.478   1.189
 3636SOL    HW211808   1.109   6.485   1.327
 3637SOL     OW11809   4.791   0.993   2.082
 3637SOL    HW111810   4.877   1.041   2.093
 3637SOL    HW211811   4.792   0.909   2.135
 3638SOL     OW11812   6.548   5.071   3.550
 3638SOL    HW111813   6.501   5.005   3.491
 3638SOL    HW211814   6.621   5.115   3.498
 3639SOL     OW11815   2.806   6.571   6.982
 3639SOL    HW111816   2.886   6.621   7.015
 3639SOL    HW211817   2.765   6.621   6.905
 3640SOL     OW11818   2.260   6.726   1.872
 3640SOL    HW111819   2.223   6.800   1.927
 3640SOL    HW211820   2.359   6.718   1.888
 3641SOL     OW11821   1.905   1.180   4.966
 3641SOL    HW111822   1.873   1.219   5.052
 3641SOL    HW211823   1.838   1.114   4.932
 3642SOL     OW11824   6.051   6.871   2.512
 3642SOL    HW111825   6.092   6.928   2.583
 3642SOL    HW211826   5.953   6.862   2.529
 3643SOL     OW11827   4.082   6.364   4.518
 3643SOL    HW111828   4.166   6.323   4.552
 3643SOL    HW211829   4.083   6.463   4.537
 3644SOL     OW11830   6.447   0.046   1.910
 3644SOL    HW111831   6.395   0.080   1.988
 3644SOL    HW211832   6.447   0.115   1.837
 3645SOL     OW11833   4.387   6.099   3.399
 3645SOL    HW111834   4.439   6.181   3.373
 3645SOL    HW211835   4.311   6.125   3.459
 3646SOL     OW11836   0.303   5.253   4.726
 3646SOL    HW111837   0.366   5.207   4.663
 3646SOL    HW211838   0.303   5.352   4.707
 3647SOL     OW11839   2.900   3.216   1.002
 3647SOL    HW111840   2.845   3.300   1.002
 3647SOL    HW211841   2.920   3.190   1.097
 3648SOL     OW11842   2.892   6.750   3.114
 3648SOL    HW111843   2.840   6.803   3.181
 3648SOL    HW211844   2.922   6.664   3.156
 3649SOL     OW11845   3.192   3.006   2.191
 3649SOL    HW111846   3.182   3.001   2.091
 3649SOL    HW211847   3.115   3.056   2.229
 3650SOL     OW11848   5.800   6.467   1.286
 3650SOL    HW111849   5.784   6.552   1.237
 3650SOL    HW211850   5.753   6.392   1.239
 3651SOL     OW11851   1.882   6.108   2.266
 3651SOL    HW111852   1.964   6.162   2.284
 3651SOL    HW211853   1.817   6.120   2.341
 3652SOL     OW11854   4.561   5.757   2.924
 3652SOL    HW111855   4.469   5.752   2.965
 3652SOL    HW211856   4.605   5.667   2.932
 3653SOL     OW11857   6.693   3.102   4.123
 3653SOL    HW111858   6.786   3.066   4.118
 3653SOL    HW211859   6.693   3.199   4.098
 3654SOL     OW11860   2.201   6.952   2.005
 3654SOL    HW111861   2.123   7.011   2.026
 3654SOL    HW211862   2.278   6.976   2.063
 3655SOL     OW11863   6.677   1.054   3.766
 3655SOL    HW111864   6.744   1.111   3.815
 3655SOL    HW211865   6.645   0.982   3.827
 3656SOL     OW11866   2.342   1.990   3.093
 3656SOL    HW111867   2.308   1.968   3.185
 3656SOL    HW211868   2.434   2.029   3.099
 3657SOL     OW11869   4.980   5.353   1.571
 3657SOL    HW111870   5.000   5.392   1.481
 3657SOL    HW211871   5.063   5.356   1.628
 3658SOL     OW11872   2.602   4.703   5.889
 3658SOL    HW111873   2.505   4.728   5.886
 3658SOL    HW211874   2.649   4.739   5.808
 3659SOL     OW11875   1.410   4.040   6.611
 3659SOL    HW111876   1.510   4.040   6.597
 3659SOL    HW211877   1.367   4.098   6.542
 3660SOL     OW11878   4.735   3.878   0.890
 3660SOL    HW111879   4.809   3.812   0.877
 3660SOL    HW211880   4.771   3.960   0.936
 3661SOL     OW11881   5.882   1.494   1.477
 3661SOL    HW111882   5.958   1.439   1.514
 3661SOL    HW211883   5.824   1.526   1.552
 3662SOL     OW11884   1.329   6.117   4.348
 3662SOL    HW111885   1.361   6.152   4.436
 3662SOL    HW211886   1.281   6.190   4.298
 3663SOL     OW11887   1.776   2.912   6.131
 3663SOL    HW111888   1.744   2.859   6.209
 3663SOL    HW211889   1.704   2.975   6.102
 3664SOL     OW11890   3.423   0.037   1.915
 3664SOL    HW111891   3.512   0.072   1.944
 3664SOL    HW211892   3.360   0.113   1.902
 3665SOL     OW11893   2.162   1.270   5.320
 3665SOL    HW111894   2.136   1.305   5.230
 3665SOL    HW211895   2.127   1.177   5.331
 3666SOL     OW11896   0.730   4.555   3.419
 3666SOL    HW111897   0.706   4.522   3.510
 3666SOL    HW211898   0.819   4.519   3.392
 3667SOL     OW11899   0.393   1.377   0.202
 3667SOL    HW111900   0.367   1.281   0.210
 3667SOL    HW211901   0.379   1.408   0.108
 3668SOL     OW11902   2.294   6.277   2.040
 3668SOL    HW111903   2.269   6.370   2.067
 3668SOL    HW211904   2.333   6.278   1.948
 3669SOL     OW11905   5.414   1.442   4.086
 3669SOL    HW111906   5.425   1.509   4.013
 3669SOL    HW211907   5.492   1.448   4.149
 3670SOL     OW11908   2.733   5.561   6.222
 3670SOL    HW111909   2.809   5.510   6.182
 3670SOL    HW211910   2.654   5.500   6.232
 3671SOL     OW11911   2.173   0.590   3.705
 3671SOL    HW111912   2.149   0.683   3.733
 3671SOL    HW211913   2.090   0.535   3.695
 3672SOL     OW11914   6.422   0.031   0.621
 3672SOL    HW111915   6.375   0.102   0.568
 3672SOL    HW211916   6.422   6.974   0.570
 3673SOL     OW11917   4.586   6.788   6.340
 3673SOL    HW111918   4.503   6.843   6.333
 3673SOL    HW211919   4.666   6.845   6.323
 3674SOL     OW11920   0.823   6.385   0.655
 3674SOL    HW111921   0.817   6.422   0.748
 3674SOL    HW211922   0.731   6.367   0.620
 3675SOL     OW11923   2.352   2.089   4.271
 3675SOL    HW111924   2.255   2.089   4.293
 3675SOL    HW211925   2.376   2.173   4.223
 3676SOL     OW11926   1.491   4.906   2.793
 3676SOL    HW111927   1.470   4.964   2.872
 3676SOL    HW211928   1.496   4.963   2.711
 3677SOL     OW11929   5.788   0.566   3.662
 3677SOL    HW111930   5.812   0.604   3.751
 3677SOL    HW211931   5.702   0.515   3.670
 3678SOL     OW11932   1.439   2.420   4.222
 3678SOL    HW111933   1.373   2.413   4.296
 3678SOL    HW211934   1.408   2.368   4.143
 3679SOL     OW11935   6.880   1.103   2.039
 3679SOL    HW111936   6.833   1.176   2.088
 3679SOL    HW211937   6.979   1.110   2.056
 3680SOL     OW11938   5.952   4.109   4.653
 3680SOL    HW111939   5.985   4.105   4.559
 3680SOL    HW211940   6.020   4.069   4.714
 3681SOL     OW11941   5.277   6.737   4.672
 3681SOL    HW111942   5.353   6.771   4.727
 3681SOL    HW211943   5.313   6.682   4.596
 3682SOL     OW11944   0.494   2.238   6.737
 3682SOL    HW111945   0.561   2.165   6.722
 3682SOL    HW211946   0.404   2.198   6.750
 3683SOL     OW11947   5.113   5.891   2.692
 3683SOL    HW111948   5.187   5.907   2.626
 3683SOL    HW211949   5.081   5.796   2.682
 3684SOL     OW11950   2.236   3.843   1.010
 3684SOL    HW111951   2.286   3.928   0.997
 3684SOL    HW211952   2.217   3.830   1.107
 3685SOL     OW11953   5.696   6.430   5.843
 3685SOL    HW111954   5.674   6.385   5.757
 3685SOL    HW211955   5.617   6.483   5.874
 3686SOL     OW11956   0.146   4.235   0.342
 3686SOL    HW111957   0.231   4.214   0.392
 3686SOL    HW211958   0.165   4.235   0.244
 3687SOL     OW11959   4.405   1.146   0.226
 3687SOL    HW111960   4.444   1.067   0.179
 3687SOL    HW211961   4.325   1.117   0.280
 3688SOL     OW11962   0.079   3.399   0.547
 3688SOL    HW111963   0.112   3.335   0.478
 3688SOL    HW211964   0.067   3.489   0.506
 3689SOL     OW11965   1.771   6.684   3.367
 3689SOL    HW111966   1.801   6.589   3.381
 3689SOL    HW211967   1.828   6.745   3.421
 3690SOL     OW11968   4.800   5.370   5.590
 3690SOL    HW111969   4.739   5.386   5.513
 3690SOL    HW211970   4.884   5.423   5.578
 3691SOL     OW11971   3.240   2.612   5.909
 3691SOL    HW111972   3.318   2.551   5.903
 3691SOL    HW211973   3.232   2.664   5.824
 3692SOL     OW11974   0.195   0.352   5.848
 3692SOL    HW111975   0.147   0.390   5.769
 3692SOL    HW211976   0.252   0.275   5.817
 3693SOL     OW11977   1.599   1.050   3.529
 3693SOL    HW111978   1.684   1.091   3.496
 3693SOL    HW211979   1.546   1.017   3.452
 3694SOL     OW11980   2.003   5.186   3.566
 3694SOL    HW111981   1.958   5.204   3.478
 3694SOL    HW211982   2.086   5.132   3.551
 3695SOL     OW11983   1.808   2.480   0.694
 3695SOL    HW111984   1.739   2.453   0.762
 3695SOL    HW211985   1.893   2.431   0.712
 3696SOL     OW11986   2.924   6.235   5.685
 3696SOL    HW111987   2.951   6.250   5.780
 3696SOL    HW211988   2.903   6.138   5.671
 3697SOL     OW11989   5.001   1.127   3.774
 3697SOL    HW111990   4.990   1.065   3.851
 3697SOL    HW211991   4.999   1.075   3.688
 3698SOL     OW11992   3.146   6.947   6.872
 3698SOL    HW111993   3.087   7.027   6.858
 3698SOL    HW211994   3.216   6.968   6.940
 3699SOL     OW11995   0.906   5.415   2.116
 3699SOL    HW111996   0.992   5.459   2.140
 3699SOL    HW211997   0.921   5.318   2.099
 3700SOL     OW11998   6.255   0.559   3.880
 3700SOL    HW111999   6.310   0.624   3.828
 3700SOL    HW212000   6.192   0.609   3.939
 3701SOL     OW12001   4.705   0.807   3.951
 3701SOL    HW112002   4.673   0.796   3.857
 3701SOL    HW212003   4.710   0.717   3.995
 3702SOL     OW12004   5.185   0.883   6.675
 3702SOL    HW112005   5.258   0.914   6.614
 3702SOL    HW212006   5.102   0.935   6.657
 3703SOL     OW12007   3.500   4.670   0.865
 3703SOL    HW112008   3.539   4.759   0.887
 3703SOL    HW212009   3.437   4.680   0.788
 3704SOL     OW12010   3.348   6.172   1.361
 3704SOL    HW112011   3.271   6.139   1.415
 3704SOL    HW212012   3.401   6.093   1.327
 3705SOL     OW12013   6.664   1.073   4.727
 3705SOL    HW112014   6.639   1.029   4.813
 3705SOL    HW212015   6.735   1.141   4.745
 3706SOL     OW12016   3.051   2.004   3.283
 3706SOL    HW112017   3.021   2.085   3.233
 3706SOL    HW212018   3.140   2.021   3.325
 3707SOL     OW12019   4.201   2.415   5.624
 3707SOL    HW112020   4.285   2.367   5.598
 3707SOL    HW212021   4.166   2.376   5.709
 3708SOL     OW12022   6.182   0.372   6.998
 3708SOL    HW112023   6.226   0.320   6.925
 3708SOL    HW212024   6.252   0.410   0.031
 3709SOL     OW12025   6.931   0.053   6.576
 3709SOL    HW112026   7.005   0.120   6.579
 3709SOL    HW212027   6.843   0.101   6.575
 3710SOL     OW12028   0.346   5.022   6.753
 3710SOL    HW112029   0.246   5.025   6.746
 3710SOL    HW212030   0.373   4.979   6.839
 3711SOL     OW12031   7.003   5.578   2.236
 3711SOL    HW112032   7.002   5.539   2.328
 3711SOL    HW212033   0.065   5.564   2.195
 3712SOL     OW12034   1.605   0.456   6.614
 3712SOL    HW112035   1.626   0.394   6.690
 3712SOL    HW212036   1.687   0.509   6.591
 3713SOL     OW12037   3.608   5.181   5.747
 3713SOL    HW112038   3.552   5.110   5.789
 3713SOL    HW212039   3.566   5.271   5.763
 3714SOL     OW12040   4.764   1.763   5.163
 3714SOL    HW112041   4.766   1.861   5.140
 3714SOL    HW212042   4.807   1.711   5.089
 3715SOL     OW12043   4.989   3.666   3.551
 3715SOL    HW112044   4.949   3.752   3.521
 3715SOL    HW212045   4.957   3.645   3.644
 3716SOL     OW12046   1.063   1.359   3.869
 3716SOL    HW112047   1.109   1.424   3.930
 3716SOL    HW212048   1.130   1.295   3.831
 3717SOL     OW12049   5.852   0.849   6.644
 3717SOL    HW112050   5.875   0.898   6.728
 3717SOL    HW212051   5.831   0.754   6.665
 3718SOL     OW12052   0.759   6.226   6.434
 3718SOL    HW112053   0.857   6.215   6.415
 3718SOL    HW212054   0.717   6.136   6.446
 3719SOL     OW12055   3.324   4.557   0.424
 3719SOL    HW112056   3.403   4.615   0.443
 3719SOL    HW212057   3.242   4.613   0.420
 3720SOL     OW12058   0.193   0.960   6.132
 3720SOL    HW112059   0.273   1.010   6.167
 3720SOL    HW212060   0.194   0.961   6.032
 3721SOL     OW12061   4.987   3.061   0.563
 3721SOL    HW112062   4.943   2.984   0.609
 3721SOL    HW212063   5.078   3.033   0.532
 3722SOL     OW12064   5.443   5.680   1.127
 3722SOL    HW112065   5.451   5.650   1.031
 3722SOL    HW212066   5.527   5.655   1.176
 3723SOL     OW12067   4.793   0.999   0.639
 3723SOL    HW112068   4.801   1.034   0.732
 3723SOL    HW212069   4.792   1.075   0.574
 3724SOL     OW12070   0.659   4.370   5.689
 3724SOL    HW112071   0.615   4.407   5.607
 3724SOL    HW212072   0.655   4.270   5.686
 3725SOL     OW12073   5.682   6.210   1.484
 3725SOL    HW112074   5.633   6.283   1.436
 3725SOL    HW212075   5.754   6.174   1.425
 3726SOL     OW12076   6.062   2.598   1.405
 3726SOL    HW112077   6.063   2.500   1.425
 3726SOL    HW212078   5.991   2.642   1.460
 3727SOL     OW12079   2.638   2.988   5.466
 3727SOL    HW112080   2.614   2.976   5.370
 3727SOL    HW212081   2.694   3.070   5.477
 3728SOL     OW12082   0.623   3.862   6.920
 3728SOL    HW112083   0.554   3.852   6.992
 3728SOL    HW212084   0.710   3.889   6.961
 3729SOL     OW12085   0.846   2.888   4.327
 3729SOL    HW112086   0.924   2.947   4.305
 3729SOL    HW212087   0.790   2.932   4.397
 3730SOL     OW12088   2.258   0.572   0.893
 3730SOL    HW112089   2.301   0.634   0.959
 3730SOL    HW212090   2.329   0.523   0.842
 3731SOL     OW12091   2.274   5.555   6.985
 3731SOL    HW112092   2.321   5.631   6.940
 3731SOL    HW212093   2.328   5.471   6.974
 3732SOL     OW12094   2.003   3.815   4.439
 3732SOL    HW112095   2.035   3.898   4.392
 3732SOL    HW212096   2.017   3.736   4.379
 3733SOL     OW12097   3.046   4.184   1.179
 3733SOL    HW112098   2.992   4.114   1.225
 3733SOL    HW212099   2.999   4.214   1.096
 3734SOL     OW12100   4.317   0.593   3.124
 3734SOL    HW112101   4.263   0.582   3.208
 3734SOL    HW212102   4.280   0.670   3.071
 3735SOL     OW12103   3.548   2.018   2.157
 3735SOL    HW112104   3.500   1.951   2.101
 3735SOL    HW212105   3.579   2.093   2.099
 3736SOL     OW12106   5.079   0.625   6.459
 3736SOL    HW112107   5.066   0.724   6.459
 3736SOL    HW212108   5.054   0.588   6.369
 3737SOL     OW12109   3.571   0.019   3.640
 3737SOL    HW112110   3.534   0.087   3.703
 3737SOL    HW212111   3.509   6.969   3.635
 3738SOL     OW12112   0.066   0.269   4.299
 3738SOL    HW112113   0.132   0.309   4.236
 3738SOL    HW212114   0.053   0.172   4.276
 3739SOL     OW12115   0.440   3.365   1.270
 3739SOL    HW112116   0.376   3.386   1.344
 3739SOL    HW212117   0.532   3.355   1.308
 3740SOL     OW12118   5.647   0.098   0.066
 3740SOL    HW112119   5.745   0.092   0.043
 3740SOL    HW212120   5.627   0.190   0.101
 3741SOL     OW12121   3.826   1.864   6.943
 3741SOL    HW112122   3.762   1.882   7.017
 3741SOL    HW212123   3.886   1.942   6.931
 3742SOL     OW12124   3.670   3.521   6.097
 3742SOL    HW112125   3.733   3.448   6.124
 3742SOL    HW212126   3.578   3.499   6.128
 3743SOL     OW12127   0.580   6.029   6.567
 3743SOL    HW112128   0.506   6.003   6.505
 3743SOL    HW212129   0.564   5.988   6.656
 3744SOL     OW12130   6.708   5.184   3.347
 3744SOL    HW112131   6.787   5.142   3.304
 3744SOL    HW212132   6.711   5.283   3.335
 3745SOL     OW12133   5.424   4.782   1.517
 3745SOL    HW112134   5.500   4.823   1.467
 3745SOL    HW212135   5.358   4.853   1.542
 3746SOL     OW12136   4.190   1.596   1.299
 3746SOL    HW112137   4.128   1.671   1.273
 3746SOL    HW212138   4.282   1.632   1.311
 3747SOL     OW12139   2.513   0.282   0.554
 3747SOL    HW112140   2.584   0.247   0.615
 3747SOL    HW212141   2.513   0.382   0.556
 3748SOL     OW12142   5.845   0.255   1.685
 3748SOL    HW112143   5.786   0.306   1.748
 3748SOL    HW212144   5.827   0.284   1.591
 3749SOL     OW12145   0.816   0.634   4.267
 3749SOL    HW112146   0.897   0.593   4.307
 3749SOL    HW212147   0.816   0.732   4.284
 3750SOL     OW12148   0.265   3.633   6.739
 3750SOL    HW112149   0.204   3.658   6.814
 3750SOL    HW212150   0.326   3.709   6.720
 3751SOL     OW12151   1.745   5.236   1.593
 3751SOL    HW112152   1.778   5.141   1.592
 3751SOL    HW212153   1.668   5.243   1.656
 3752SOL     OW12154   5.069   5.706   6.441
 3752SOL    HW112155   5.066   5.767   6.520
 3752SOL    HW212156   5.140   5.637   6.455
 3753SOL     OW12157   0.600   0.398   3.122
 3753SOL    HW112158   0.698   0.403   3.103
 3753SOL    HW212159   0.552   0.367   3.040
 3754SOL     OW12160   3.202   1.750   1.321
 3754SOL    HW112161   3.221   1.655   1.296
 3754SOL    HW212162   3.107   1.758   1.353
 3755SOL     OW12163   2.312   6.136   4.407
 3755SOL    HW112164   2.351   6.045   4.426
 3755SOL    HW212165   2.385   6.196   4.375
 3756SOL     OW12166   1.660   6.753   0.781
 3756SOL    HW112167   1.667   6.761   0.880
 3756SOL    HW212168   1.661   6.656   0.755
 3757SOL     OW12169   0.543   4.719   0.185
 3757SOL    HW112170   0.635   4.725   0.147
 3757SOL    HW212171   0.519   4.623   0.199
 3758SOL     OW12172   0.522   6.160   3.610
 3758SOL    HW112173   0.565   6.073   3.634
 3758SOL    HW212174   0.584   6.215   3.554
 3759SOL     OW12175   4.674   0.785   3.663
 3759SOL    HW112176   4.750   0.743   3.614
 3759SOL    HW212177   4.591   0.780   3.607
 3760SOL     OW12178   0.699   0.546   2.869
 3760SOL    HW112179   0.611   0.574   2.908
 3760SOL    HW212180   0.688   0.459   2.821
 3761SOL     OW12181   4.462   1.471   5.515
 3761SOL    HW112182   4.542   1.413   5.524
 3761SOL    HW212183   4.474   1.533   5.437
 3762SOL     OW12184   0.743   2.284   4.393
 3762SOL    HW112185   0.779   2.309   4.303
 3762SOL    HW212186   0.643   2.287   4.391
 3763SOL     OW12187   0.835   6.408   0.020
 3763SOL    HW112188   0.764   6.381   6.983
 3763SOL    HW212189   0.883   6.488   7.014
 3764SOL     OW12190   2.946   1.324   2.403
 3764SOL    HW112191   2.942   1.423   2.391
 3764SOL    HW212192   2.891   1.299   2.483
 3765SOL     OW12193   5.691   3.518   2.637
 3765SOL    HW112194   5.595   3.546   2.634
 3765SOL    HW212195   5.745   3.590   2.680
 3766SOL     OW12196   1.713   2.531   2.309
 3766SOL    HW112197   1.625   2.491   2.282
 3766SOL    HW212198   1.777   2.457   2.331
 3767SOL     OW12199   1.988   5.928   6.119
 3767SOL    HW112200   1.889   5.943   6.123
 3767SOL    HW212201   2.017   5.924   6.024
 3768SOL     OW12202   1.671   6.768   3.103
 3768SOL    HW112203   1.688   6.751   3.200
 3768SOL    HW212204   1.728   6.705   3.049
 3769SOL     OW12205   5.567   5.066   5.285
 3769SOL    HW112206   5.513   5.151   5.287
 3769SOL    HW212207   5.523   5.000   5.224
 3770SOL     OW12208   2.924   6.774   1.198
 3770SOL    HW112209   2.910   6.715   1.277
 3770SOL    HW212210   2.919   6.719   1.114
 3771SOL     OW12211   6.755   6.028   5.657
 3771SOL    HW112212   6.828   6.046   5.723
 3771SOL    HW212213   6.674   6.081   5.681
 3772SOL     OW12214   2.467   5.804   1.827
 3772SOL    HW112215   2.450   5.819   1.730
 3772SOL    HW212216   2.505   5.887   1.868
 3773SOL     OW12217   4.876   4.883   6.583
 3773SOL    HW112218   4.832   4.820   6.519
 3773SOL    HW212219   4.954   4.837   6.626
 3774SOL     OW12220   6.954   4.657   1.531
 3774SOL    HW112221   6.956   4.560   1.508
 3774SOL    HW212222   6.994   4.710   1.457
 3775SOL     OW12223   5.459   5.785   4.894
 3775SOL    HW112224   5.443   5.781   4.993
 3775SOL    HW212225   5.493   5.876   4.869
 3776SOL     OW12226   4.517   2.245   6.651
 3776SOL    HW112227   4.487   2.278   6.741
 3776SOL    HW212228   4.525   2.145   6.653
 3777SOL     OW12229   2.928   5.052   3.972
 3777SOL    HW112230   2.945   4.963   3.929
 3777SOL    HW212231   2.863   5.104   3.917
 3778SOL     OW12232   3.157   5.251   6.749
 3778SOL    HW112233   3.223   5.281   6.680
 3778SOL    HW212234   3.108   5.330   6.785
 3779SOL     OW12235   0.048   4.828   6.417
 3779SOL    HW112236   0.130   4.810   6.472
 3779SOL    HW212237   0.071   4.826   6.320
 3780SOL     OW12238   6.376   2.922   2.118
 3780SOL    HW112239   6.302   2.976   2.157
 3780SOL    HW212240   6.458   2.931   2.175
 3781SOL     OW12241   1.456   6.681   5.928
 3781SOL    HW112242   1.368   6.716   5.960
 3781SOL    HW212243   1.527   6.749   5.947
 3782SOL     OW12244   3.822   5.362   6.920
 3782SOL    HW112245   3.808   5.298   6.995
 3782SOL    HW212246   3.912   5.345   6.879
 3783SOL     OW12247   4.599   4.872   5.653
 3783SOL    HW112248   4.627   4.946   5.592
 3783SOL    HW212249   4.501   4.879   5.671
 3784SOL     OW12250   5.909   3.306   4.493
 3784SOL    HW112251   5.859   3.306   4.580
 3784SOL    HW212252   5.982   3.374   4.497
 3785SOL     OW12253   0.798   2.916   2.594
 3785SOL    HW112254   0.766   2.840   2.651
 3785SOL    HW212255   0.888   2.946   2.626
 3786SOL     OW12256   2.388   2.832   5.971
 3786SOL    HW112257   2.355   2.927   5.975
 3786SOL    HW212258   2.356   2.789   5.887
 3787SOL     OW12259   4.844   5.896   5.070
 3787SOL    HW112260   4.887   5.836   5.003
 3787SOL    HW212261   4.752   5.863   5.091
 3788SOL     OW12262   5.775   2.893   5.957
 3788SOL    HW112263   5.707   2.947   5.907
 3788SOL    HW212264   5.867   2.919   5.926
 3789SOL     OW12265   1.881   4.047   1.036
 3789SOL    HW112266   1.810   4.117   1.025
 3789SOL    HW212267   1.971   4.091   1.043
 3790SOL     OW12268   1.715   6.993   1.556
 3790SOL    HW112269   1.800   0.017   1.567
 3790SOL    HW212270   1.637   0.025   1.574
 3791SOL     OW12271   4.751   0.578   4.540
 3791SOL    HW112272   4.775   0.630   4.622
 3791SOL    HW212273   4.696   0.635   4.479
 3792SOL     OW12274   6.195   6.864   3.463
 3792SOL    HW112275   6.217   6.795   3.393
 3792SOL    HW212276   6.217   6.955   3.428
 3793SOL     OW12277   4.817   3.716   0.166
 3793SOL    HW112278   4.763   3.684   0.244
 3793SOL    HW212279   4.885   3.647   0.142
 3794SOL     OW12280   1.066   4.894   6.151
 3794SOL    HW112281   1.025   4.897   6.242
 3794SOL    HW212282   1.157   4.935   6.153
 3795SOL     OW12283   3.309   6.112   0.717
 3795SOL    HW112284   3.255   6.033   0.689
 3795SOL    HW212285   3.268   6.153   0.798
 3796SOL     OW12286   5.237   0.606   0.016
 3796SOL    HW112287   5.262   0.657   0.098
 3796SOL    HW212288   5.230   0.509   0.038
 3797SOL     OW12289   0.093   3.194   1.437
 3797SOL    HW112290   0.140   3.106   1.440
 3797SOL    HW212291   0.157   3.266   1.463
 3798SOL     OW12292   0.768   5.296   3.728
 3798SOL    HW112293   0.800   5.248   3.647
 3798SOL    HW212294   0.733   5.230   3.795
 3799SOL     OW12295   6.968   1.650   2.815
 3799SOL    HW112296   6.946   1.718   2.744
 3799SOL    HW212297   6.975   1.696   2.903
 3800SOL     OW12298   5.210   3.128   2.177
 3800SOL    HW112299   5.224   3.147   2.274
 3800SOL    HW212300   5.193   3.214   2.129
 3801SOL     OW12301   6.165   1.337   0.958
 3801SOL    HW112302   6.072   1.359   0.926
 3801SOL    HW212303   6.160   1.297   1.049
 3802SOL     OW12304   6.192   3.306   2.674
 3802SOL    HW112305   6.180   3.306   2.574
 3802SOL    HW212306   6.105   3.326   2.718
 3803SOL     OW12307   4.373   3.585   5.499
 3803SOL    HW112308   4.308   3.656   5.525
 3803SOL    HW212309   4.336   3.495   5.523
 3804SOL     OW12310   3.056   6.106   3.449
 3804SOL    HW112311   3.075   6.055   3.533
 3804SOL    HW212312   2.963   6.142   3.452
 3805SOL     OW12313   2.421   1.806   6.902
 3805SOL    HW112314   2.432   1.886   6.843
 3805SOL    HW212315   2.502   1.748   6.895
 3806SOL     OW12316   1.895   3.980   2.178
 3806SOL    HW112317   1.895   3.924   2.095
 3806SOL    HW212318   1.978   4.036   2.179
 3807SOL     OW12319   0.668   4.130   4.219
 3807SOL    HW112320   0.739   4.061   4.230
 3807SOL    HW212321   0.581   4.084   4.199
 3808SOL     OW12322   2.725   6.771   6.200
 3808SOL    HW112323   2.672   6.779   6.284
 3808SOL    HW212324   2.801   6.708   6.213
 3809SOL     OW12325   5.161   1.377   2.007
 3809SOL    HW112326   5.143   1.412   1.915
 3809SOL    HW212327   5.249   1.412   2.039
 3810SOL     OW12328   5.302   2.141   3.093
 3810SOL    HW112329   5.302   2.234   3.129
 3810SOL    HW212330   5.354   2.081   3.153
 3811SOL     OW12331   0.300   6.232   5.635
 3811SOL    HW112332   0.321   6.193   5.725
 3811SOL    HW212333   0.245   6.167   5.582
 3812SOL     OW12334   3.890   5.478   0.457
 3812SOL    HW112335   3.824   5.512   0.524
 3812SOL    HW212336   3.982   5.488   0.494
 3813SOL     OW12337   6.182   3.425   6.787
 3813SOL    HW112338   6.086   3.424   6.762
 3813SOL    HW212339   6.194   3.472   6.874
 3814SOL     OW12340   0.065   0.284   5.215
 3814SOL    HW112341   0.058   0.220   5.291
 3814SOL    HW212342   0.157   0.277   5.175
 3815SOL     OW12343   4.887   2.308   5.651
 3815SOL    HW112344   4.962   2.319   5.716
 3815SOL    HW212345   4.826   2.235   5.683
 3816SOL     OW12346   6.474   6.776   0.929
 3816SOL    HW112347   6.382   6.798   0.960
 3816SOL    HW212348   6.539   6.838   0.972
 3817SOL     OW12349   3.835   3.659   2.089
 3817SOL    HW112350   3.934   3.661   2.104
 3817SOL    HW212351   3.794   3.745   2.120
 3818SOL     OW12352   4.274   5.457   2.487
 3818SOL    HW112353   4.254   5.448   2.390
 3818SOL    HW212354   4.363   5.415   2.507
 3819SOL     OW12355   6.324   3.337   3.073
 3819SOL    HW112356   6.400   3.290   3.118
 3819SOL    HW212357   6.240   3.284   3.086
 3820SOL     OW12358   2.989   6.315   5.949
 3820SOL    HW112359   2.918   6.326   6.018
 3820SOL    HW212360   3.075   6.291   5.993
 3821SOL     OW12361   1.988   7.028   1.014
 3821SOL    HW112362   2.085   7.025   1.038
 3821SOL    HW212363   1.951   6.935   1.015
 3822SOL     OW12364   5.694   6.939   1.750
 3822SOL    HW112365   5.780   6.912   1.706
 3822SOL    HW212366   5.688   6.896   1.840
 3823SOL     OW12367   5.158   5.870   5.104
 3823SOL    HW112368   5.160   5.900   5.008
 3823SOL    HW212369   5.127   5.946   5.162
 3824SOL     OW12370   1.987   2.306   0.798
 3824SOL    HW112371   2.085   2.291   0.781
 3824SOL    HW212372   1.934   2.232   0.757
 3825SOL     OW12373   0.782   4.746   5.294
 3825SOL    HW112374   0.751   4.789   5.209
 3825SOL    HW212375   0.872   4.782   5.318
 3826SOL     OW12376   4.882   4.217   3.302
 3826SOL    HW112377   4.820   4.274   3.356
 3826SOL    HW212378   4.977   4.242   3.323
 3827SOL     OW12379   0.587   1.443   7.005
 3827SOL    HW112380   0.686   1.448   6.994
 3827SOL    HW212381   0.547   1.397   6.926
 3828SOL     OW12382   3.288   3.398   5.273
 3828SOL    HW112383   3.269   3.495   5.254
 3828SOL    HW212384   3.237   3.341   5.209
 3829SOL     OW12385   0.497   3.154   1.628
 3829SOL    HW112386   0.404   3.122   1.609
 3829SOL    HW212387   0.494   3.228   1.696
 3830SOL     OW12388   5.069   6.709   3.570
 3830SOL    HW112389   5.062   6.730   3.668
 3830SOL    HW212390   5.013   6.629   3.549
 3831SOL     OW12391   5.217   2.018   3.369
 3831SOL    HW112392   5.179   1.935   3.408
 3831SOL    HW212393   5.144   2.069   3.323
 3832SOL     OW12394   6.314   1.359   3.809
 3832SOL    HW112395   6.350   1.267   3.795
 3832SOL    HW212396   6.224   1.366   3.766
 3833SOL     OW12397   1.693   2.916   5.758
 3833SOL    HW112398   1.719   2.833   5.807
 3833SOL    HW212399   1.733   2.915   5.667
 3834SOL     OW12400   5.486   4.529   0.905
 3834SOL    HW112401   5.488   4.503   1.002
 3834SOL    HW212402   5.577   4.517   0.865
 3835SOL     OW12403   4.494   5.232   5.076
 3835SOL    HW112404   4.442   5.168   5.020
 3835SOL    HW212405   4.586   5.196   5.092
 3836SOL     OW12406   0.370   6.952   4.538
 3836SOL    HW112407   0.288   6.896   4.528
 3836SOL    HW212408   0.436   6.929   4.466
 3837SOL     OW12409   4.548   4.482   5.827
 3837SOL    HW112410   4.624   4.438   5.876
 3837SOL    HW212411   4.506   4.416   5.765
 3838SOL     OW12412   6.773   0.830   4.468
 3838SOL    HW112413   6.784   0.733   4.490
 3838SOL    HW212414   6.677   0.856   4.479
 3839SOL     OW12415   4.693   1.054   3.438
 3839SOL    HW112416   4.638   1.010   3.367
 3839SOL    HW212417   4.666   1.021   3.528
 3840SOL     OW12418   3.939   1.275   6.396
 3840SOL    HW112419   3.999   1.295   6.474
 3840SOL    HW212420   3.994   1.261   6.314
 3841SOL     OW12421   5.717   4.361   3.336
 3841SOL    HW112422   5.757   4.452   3.344
 3841SOL    HW212423   5.618   4.367   3.353
 3842SOL     OW12424   2.069   3.862   5.449
 3842SOL    HW112425   2.049   3.821   5.538
 3842SOL    HW212426   2.021   3.950   5.442
 3843SOL     OW12427   5.995   2.635   5.997
 3843SOL    HW112428   6.007   2.538   5.976
 3843SOL    HW212429   5.977   2.646   6.094
 3844SOL     OW12430   6.767   7.019   1.431
 3844SOL    HW112431   6.789   0.080   1.468
 3844SOL    HW212432   6.851   6.964   1.423
 3845SOL     OW12433   2.046   5.640   0.320
 3845SOL    HW112434   2.028   5.578   0.245
 3845SOL    HW212435   2.144   5.663   0.321
 3846SOL     OW12436   6.694   3.017   2.967
 3846SOL    HW112437   6.616   2.969   2.927
 3846SOL    HW212438   6.723   3.090   2.904
 3847SOL     OW12439   0.538   1.657   6.753
 3847SOL    HW112440   0.450   1.670   6.707
 3847SOL    HW212441   0.524   1.604   6.837
 3848SOL     OW12442   6.498   5.254   2.020
 3848SOL    HW112443   6.468   5.349   2.012
 3848SOL    HW212444   6.427   5.194   1.983
 3849SOL     OW12445   0.644   4.091   5.703
 3849SOL    HW112446   0.649   4.099   5.803
 3849SOL    HW212447   0.706   4.019   5.673
 3850SOL     OW12448   2.951   2.836   1.290
 3850SOL    HW112449   2.971   2.787   1.205
 3850SOL    HW212450   3.032   2.834   1.349
 3851SOL     OW12451   0.412   5.854   2.905
 3851SOL    HW112452   0.370   5.898   2.825
 3851SOL    HW212453   0.466   5.775   2.875
 3852SOL     OW12454   2.200   0.591   4.907
 3852SOL    HW112455   2.298   0.596   4.925
 3852SOL    HW212456   2.185   0.564   4.812
 3853SOL     OW12457   2.733   0.829   3.114
 3853SOL    HW112458   2.727   0.743   3.064
 3853SOL    HW212459   2.737   0.905   3.050
 3854SOL     OW12460   0.591   1.881   2.157
 3854SOL    HW112461   0.505   1.871   2.207
 3854SOL    HW212462   0.657   1.931   2.214
 3855SOL     OW12463   3.094   6.562   6.475
 3855SOL    HW112464   3.133   6.506   6.402
 3855SOL    HW212465   3.079   6.655   6.442
 3856SOL     OW12466   6.487   2.611   6.782
 3856SOL    HW112467   6.446   2.574   6.699
 3856SOL    HW212468   6.579   2.645   6.761
 3857SOL     OW12469   2.159   0.274   6.466
 3857SOL    HW112470   2.071   0.307   6.499
 3857SOL    HW212471   2.232   0.307   6.527
 3858SOL     OW12472   3.673   0.707   4.859
 3858SOL    HW112473   3.589   0.654   4.848
 3858SOL    HW212474   3.694   0.718   4.956
 3859SOL     OW12475   6.356   0.168   2.174
 3859SOL    HW112476   6.327   0.262   2.189
 3859SOL    HW212477   6.339   0.114   2.256
 3860SOL     OW12478   1.435   6.859   4.444
 3860SOL    HW112479   1.466   6.906   4.361
 3860SOL    HW212480   1.453   6.917   4.524
 3861SOL     OW12481   3.090   5.634   1.989
 3861SOL    HW112482   3.033   5.710   2.021
 3861SOL    HW212483   3.174   5.630   2.044
 3862SOL     OW12484   1.273   0.448   4.365
 3862SOL    HW112485   1.327   0.507   4.304
 3862SOL    HW212486   1.319   0.441   4.453
 3863SOL     OW12487   4.079   0.694   0.524
 3863SOL    HW112488   3.990   0.699   0.569
 3863SOL    HW212489   4.151   0.719   0.589
 3864SOL     OW12490   0.877   0.145   4.311
 3864SOL    HW112491   0.842   0.172   4.221
 3864SOL    HW212492   0.973   0.172   4.318
 3865SOL     OW12493   5.406   1.225   0.908
 3865SOL    HW112494   5.357   1.139   0.895
 3865SOL    HW212495   5.340   1.299   0.921
 3866SOL     OW12496   3.138   0.965   6.712
 3866SOL    HW112497   3.219   0.917   6.678
 3866SOL    HW212498   3.107   0.922   6.797
 3867SOL     OW12499   6.912   3.349   2.551
 3867SOL    HW112500   6.829   3.387   2.509
 3867SOL    HW212501   6.984   3.419   2.552
 3868SOL     OW12502   3.977   0.409   6.871
 3868SOL    HW112503   3.877   0.400   6.867
 3868SOL    HW212504   4.008   0.399   6.966
 3869SOL     OW12505   3.933   1.101   4.129
 3869SOL    HW112506   3.871   1.167   4.171
 3869SOL    HW212507   3.882   1.021   4.100
 3870SOL     OW12508   0.202   1.835   5.674
 3870SOL    HW112509   0.217   1.865   5.769
 3870SOL    HW212510   0.290   1.821   5.629
 3871SOL     OW12511   2.593   5.798   3.796
 3871SOL    HW112512   2.505   5.802   3.843
 3871SOL    HW212513   2.658   5.746   3.851
 3872SOL     OW12514   2.946   3.747   5.196
 3872SOL    HW112515   2.927   3.732   5.099
 3872SOL    HW212516   2.926   3.842   5.220
 3873SOL     OW12517   4.377   1.937   6.838
 3873SOL    HW112518   4.464   1.950   6.792
 3873SOL    HW212519   4.379   1.980   6.928
 3874SOL     OW12520   2.526   1.392   1.202
 3874SOL    HW112521   2.541   1.296   1.177
 3874SOL    HW212522   2.609   1.444   1.185
 3875SOL     OW12523   0.959   1.851   6.450
 3875SOL    HW112524   1.055   1.838   6.476
 3875SOL    HW212525   0.903   1.778   6.490
 3876SOL     OW12526   3.237   5.458   2.532
 3876SOL    HW112527   3.311   5.518   2.564
 3876SOL    HW212528   3.226   5.471   2.433
 3877SOL     OW12529   0.600   1.517   5.596
 3877SOL    HW112530   0.522   1.573   5.567
 3877SOL    HW212531   0.568   1.434   5.641
 3878SOL     OW12532   4.514   1.239   4.706
 3878SOL    HW112533   4.568   1.187   4.773
 3878SOL    HW212534   4.431   1.274   4.750
 3879SOL     OW12535   5.156   5.840   7.015
 3879SOL    HW112536   5.191   5.808   0.075
 3879SOL    HW212537   5.112   5.928   7.027
 3880SOL     OW12538   5.353   4.647   3.937
 3880SOL    HW112539   5.414   4.603   4.004
 3880SOL    HW212540   5.261   4.652   3.975
 3881SOL     OW12541   1.479   2.915   0.448
 3881SOL    HW112542   1.387   2.948   0.466
 3881SOL    HW212543   1.535   2.989   0.413
 3882SOL     OW12544   0.348   2.308   5.497
 3882SOL    HW112545   0.283   2.367   5.544
 3882SOL    HW212546   0.439   2.320   5.537
 3883SOL     OW12547   4.243   5.893   3.901
 3883SOL    HW112548   4.303   5.813   3.901
 3883SOL    HW212549   4.223   5.920   3.806
 3884SOL     OW12550   0.547   3.697   2.399
 3884SOL    HW112551   0.553   3.602   2.428
 3884SOL    HW212552   0.497   3.750   2.468
 3885SOL     OW12553   4.270   5.487   2.186
 3885SOL    HW112554   4.306   5.432   2.111
 3885SOL    HW212555   4.177   5.517   2.164
 3886SOL     OW12556   2.669   5.594   5.894
 3886SOL    HW112557   2.715   5.507   5.876
 3886SOL    HW212558   2.737   5.664   5.917
 3887SOL     OW12559   1.731   5.674   1.795
 3887SOL    HW112560   1.793   5.751   1.783
 3887SOL    HW212561   1.784   5.592   1.814
 3888SOL     OW12562   5.566   4.887   4.084
 3888SOL    HW112563   5.491   4.931   4.034
 3888SOL    HW212564   5.532   4.852   4.171
 3889SOL     OW12565   5.411   4.428   0.467
 3889SOL    HW112566   5.433   4.366   0.541
 3889SOL    HW212567   5.339   4.491   0.495
 3890SOL     OW12568   5.588   3.549   3.893
 3890SOL    HW112569   5.519   3.478   3.878
 3890SOL    HW212570   5.555   3.636   3.857
 3891SOL     OW12571   5.143   5.168   3.705
 3891SOL    HW112572   5.187   5.250   3.741
 3891SOL    HW212573   5.116   5.109   3.781
 3892SOL     OW12574   6.842   2.010   1.623
 3892SOL    HW112575   6.867   2.004   1.526
 3892SOL    HW212576   6.804   1.923   1.652
 3893SOL     OW12577   4.099   3.381   3.065
 3893SOL    HW112578   4.080   3.409   2.970
 3893SOL    HW212579   4.157   3.300   3.065
 3894SOL     OW12580   4.494   0.754   6.023
 3894SOL    HW112581   4.397   0.727   6.018
 3894SOL    HW212582   4.537   0.710   6.102
 3895SOL     OW12583   0.462   0.158   3.899
 3895SOL    HW112584   0.414   0.245   3.911
 3895SOL    HW212585   0.540   0.153   3.962
 3896SOL     OW12586   2.233   1.523   6.260
 3896SOL    HW112587   2.205   1.433   6.293
 3896SOL    HW212588   2.154   1.584   6.258
 3897SOL     OW12589   3.999   5.521   1.296
 3897SOL    HW112590   4.058   5.589   1.339
 3897SOL    HW212591   4.054   5.463   1.235
 3898SOL     OW12592   3.426   3.186   1.500
 3898SOL    HW112593   3.349   3.218   1.556
 3898SOL    HW212594   3.443   3.090   1.520
 3899SOL     OW12595   3.204   0.333   5.261
 3899SOL    HW112596   3.256   0.265   5.208
 3899SOL    HW212597   3.134   0.286   5.315
 3900SOL     OW12598   4.576   4.807   2.898
 3900SOL    HW112599   4.665   4.810   2.853
 3900SOL    HW212600   4.537   4.715   2.888
 3901SOL     OW12601   2.741   1.246   6.902
 3901SOL    HW112602   2.774   1.255   6.996
 3901SOL    HW212603   2.652   1.200   6.902
 3902SOL     OW12604   5.161   3.016   2.893
 3902SOL    HW112605   5.156   3.037   2.795
 3902SOL    HW212606   5.116   2.928   2.910
 3903SOL     OW12607   2.946   4.330   6.083
 3903SOL    HW112608   2.847   4.326   6.071
 3903SOL    HW212609   2.968   4.333   6.180
 3904SOL     OW12610   1.961   0.012   0.733
 3904SOL    HW112611   1.965   0.094   0.675
 3904SOL    HW212612   1.959   0.039   0.829
 3905SOL     OW12613   0.036   6.456   5.178
 3905SOL    HW112614   7.007   6.522   5.226
 3905SOL    HW212615   0.004   6.447   5.083
 3906SOL     OW12616   6.941   6.363   4.923
 3906SOL    HW112617   6.925   6.347   4.826
 3906SOL    HW212618   7.001   6.293   4.960
 3907SOL     OW12619   5.511   2.046   3.661
 3907SOL    HW112620   5.572   2.121   3.686
 3907SOL    HW212621   5.416   2.074   3.675
 3908SOL     OW12622   2.622   4.240   6.283
 3908SOL    HW112623   2.588   4.192   6.202
 3908SOL    HW212624   2.650   4.332   6.258
 3909SOL     OW12625   5.976   5.865   3.421
 3909SOL    HW112626   6.067   5.887   3.457
 3909SOL    HW212627   5.957   5.922   3.341
 3910SOL     OW12628   3.535   3.163   2.667
 3910SOL    HW112629   3.604   3.137   2.600
 3910SOL    HW212630   3.466   3.221   2.623
 3911SOL     OW12631   6.025   2.571   5.310
 3911SOL    HW112632   6.043   2.650   5.251
 3911SOL    HW212633   6.031   2.488   5.256
 3912SOL     OW12634   5.306   2.716   6.220
 3912SOL    HW112635   5.207   2.708   6.211
 3912SOL    HW212636   5.336   2.671   6.305
 3913SOL     OW12637   1.434   6.965   1.354
 3913SOL    HW112638   1.399   6.976   1.447
 3913SOL    HW212639   1.476   0.023   1.324
 3914SOL     OW12640   3.085   5.888   5.849
 3914SOL    HW112641   3.056   5.910   5.942
 3914SOL    HW212642   3.140   5.804   5.851
 3915SOL     OW12643   0.600   5.960   1.256
 3915SOL    HW112644   0.551   6.040   1.292
 3915SOL    HW212645   0.562   5.877   1.296
 3916SOL     OW12646   0.768   0.142   3.166
 3916SOL    HW112647   0.772   0.047   3.195
 3916SOL    HW212648   0.855   0.168   3.124
 3917SOL     OW12649   2.610   0.294   6.732
 3917SOL    HW112650   2.523   0.330   6.701
 3917SOL    HW212651   2.598   0.199   6.763
 3918SOL     OW12652   5.580   3.342   6.909
 3918SOL    HW112653   5.573   3.274   6.836
 3918SOL    HW212654   5.501   3.402   6.906
 3919SOL     OW12655   3.138   6.578   0.829
 3919SOL    HW112656   3.226   6.563   0.785
 3919SOL    HW212657   3.126   6.675   0.848
 3920SOL     OW12658   2.179   1.215   6.841
 3920SOL    HW112659   2.088   1.254   6.860
 3920SOL    HW212660   2.217   1.259   6.759
 3921SOL     OW12661   0.751   3.798   1.256
 3921SOL    HW112662   0.768   3.895   1.242
 3921SOL    HW212663   0.742   3.780   1.354
 3922SOL     OW12664   1.486   5.212   1.207
 3922SOL    HW112665   1.549   5.151   1.157
 3922SOL    HW212666   1.537   5.264   1.275
 3923SOL     OW12667   6.599   0.453   0.893
 3923SOL    HW112668   6.626   0.533   0.945
 3923SOL    HW212669   6.602   0.474   0.795
 3924SOL     OW12670   6.551   4.884   4.799
 3924SOL    HW112671   6.603   4.930   4.727
 3924SOL    HW212672   6.526   4.792   4.769
 3925SOL     OW12673   1.449   4.820   1.925
 3925SOL    HW112674   1.484   4.859   1.840
 3925SOL    HW212675   1.362   4.864   1.949
 3926SOL     OW12676   3.524   5.619   2.868
 3926SOL    HW112677   3.554   5.659   2.955
 3926SOL    HW212678   3.578   5.538   2.848
 3927SOL     OW12679   1.506   3.246   6.758
 3927SOL    HW112680   1.409   3.219   6.765
 3927SOL    HW212681   1.550   3.234   6.847
 3928SOL     OW12682   6.131   6.235   6.343
 3928SOL    HW112683   6.198   6.201   6.408
 3928SOL    HW212684   6.039   6.208   6.373
 3929SOL     OW12685   0.862   1.514   4.331
 3929SOL    HW112686   0.936   1.456   4.366
 3929SOL    HW212687   0.866   1.517   4.231
 3930SOL     OW12688   2.789   1.805   3.863
 3930SOL    HW112689   2.870   1.807   3.921
 3930SOL    HW212690   2.708   1.790   3.920
 3931SOL     OW12691   4.802   0.395   2.204
 3931SOL    HW112692   4.773   0.304   2.174
 3931SOL    HW212693   4.898   0.409   2.179
 3932SOL     OW12694   1.234   2.049   4.028
 3932SOL    HW112695   1.180   1.974   4.065
 3932SOL    HW212696   1.223   2.131   4.084
 3933SOL     OW12697   1.589   0.160   6.126
 3933SOL    HW112698   1.501   0.205   6.113
 3933SOL    HW212699   1.649   0.181   6.049
 3934SOL     OW12700   5.585   6.592   6.939
 3934SOL    HW112701   5.499   6.617   6.894
 3934SOL    HW212702   5.614   6.667   6.998
 3935SOL     OW12703   5.127   6.536   1.376
 3935SOL    HW112704   5.109   6.606   1.445
 3935SOL    HW212705   5.214   6.555   1.331
 3936SOL     OW12706   0.784   4.206   2.268
 3936SOL    HW112707   0.724   4.141   2.316
 3936SOL    HW212708   0.728   4.265   2.210
 3937SOL     OW12709   0.628   2.255   2.300
 3937SOL    HW112710   0.632   2.159   2.328
 3937SOL    HW212711   0.541   2.295   2.330
 3938SOL     OW12712   6.964   2.521   3.228
 3938SOL    HW112713   6.932   2.445   3.172
 3938SOL    HW212714   6.892   2.549   3.291
 3939SOL     OW12715   2.217   2.058   1.524
 3939SOL    HW112716   2.172   2.143   1.552
 3939SOL    HW212717   2.310   2.079   1.495
 3940SOL     OW12718   4.486   3.858   1.032
 3940SOL    HW112719   4.573   3.852   0.982
 3940SOL    HW212720   4.487   3.938   1.092
 3941SOL     OW12721   4.874   3.085   6.794
 3941SOL    HW112722   4.923   3.171   6.805
 3941SOL    HW212723   4.856   3.069   6.697
 3942SOL     OW12724   6.893   0.409   0.709
 3942SOL    HW112725   6.834   0.367   0.640
 3942SOL    HW212726   6.969   0.457   0.665
 3943SOL     OW12727   6.450   3.007   4.829
 3943SOL    HW112728   6.436   3.003   4.928
 3943SOL    HW212729   6.501   3.089   4.805
 3944SOL     OW12730   5.894   1.131   5.068
 3944SOL    HW112731   5.870   1.064   4.997
 3944SOL    HW212732   5.812   1.181   5.095
 3945SOL     OW12733   6.905   0.580   1.092
 3945SOL    HW112734   6.878   0.490   1.057
 3945SOL    HW212735   6.967   0.623   1.027
 3946SOL     OW12736   3.792   5.281   3.318
 3946SOL    HW112737   3.840   5.239   3.241
 3946SOL    HW212738   3.768   5.375   3.294
 3947SOL     OW12739   6.536   4.114   6.269
 3947SOL    HW112740   6.550   4.016   6.283
 3947SOL    HW212741   6.625   4.159   6.263
 3948SOL     OW12742   6.080   3.899   0.809
 3948SOL    HW112743   6.050   3.986   0.847
 3948SOL    HW212744   6.164   3.869   0.854
 3949SOL     OW12745   5.599   6.361   3.224
 3949SOL    HW112746   5.603   6.312   3.137
 3949SOL    HW212747   5.504   6.366   3.255
 3950SOL     OW12748   1.619   6.299   0.518
 3950SOL    HW112749   1.582   6.316   0.426
 3950SOL    HW212750   1.698   6.239   0.511
 3951SOL     OW12751   6.103   6.138   1.917
 3951SOL    HW112752   6.196   6.104   1.926
 3951SOL    HW212753   6.072   6.174   2.005
 3952SOL     OW12754   5.887   1.824   6.487
 3952SOL    HW112755   5.985   1.832   6.504
 3952SOL    HW212756   5.842   1.910   6.510
 3953SOL     OW12757   3.655   4.135   3.042
 3953SOL    HW112758   3.562   4.153   3.008
 3953SOL    HW212759   3.657   4.148   3.141
 3954SOL     OW12760   3.894   5.177   5.807
 3954SOL    HW112761   3.963   5.115   5.769
 3954SOL    HW212762   3.803   5.144   5.783
 3955SOL     OW12763   3.843   1.356   4.786
 3955SOL    HW112764   3.775   1.302   4.836
 3955SOL    HW212765   3.912   1.390   4.849
 3956SOL     OW12766   2.441   1.211   1.634
 3956SOL    HW112767   2.479   1.129   1.593
 3956SOL    HW212768   2.493   1.291   1.604
 3957SOL     OW12769   3.493   0.980   4.160
 3957SOL    HW112770   3.510   0.986   4.062
 3957SOL    HW212771   3.425   1.049   4.186
 3958SOL     OW12772   5.746   6.619   5.255
 3958SOL    HW112773   5.776   6.609   5.160
 3958SOL    HW212774   5.811   6.678   5.304
 3959SOL     OW12775   5.223   4.999   6.804
 3959SOL    HW112776   5.220   4.958   6.713
 3959SOL    HW212777   5.270   5.088   6.799
 3960SOL     OW12778   6.242   1.993   4.663
 3960SOL    HW112779   6.253   1.910   4.717
 3960SOL    HW212780   6.330   2.041   4.658
 3961SOL     OW12781   5.528   6.550   4.405
 3961SOL    HW112782   5.607   6.534   4.345
 3961SOL    HW212783   5.550   6.520   4.497
 3962SOL     OW12784   6.718   5.330   5.074
 3962SOL    HW112785   6.684   5.237   5.088
 3962SOL    HW212786   6.712   5.380   5.161
 3963SOL     OW12787   4.739   6.849   2.027
 3963SOL    HW112788   4.760   6.896   1.941
 3963SOL    HW212789   4.656   6.794   2.016
 3964SOL     OW12790   5.116   2.913   3.328
 3964SOL    HW112791   5.112   2.995   3.271
 3964SOL    HW212792   5.046   2.918   3.399
 3965SOL     OW12793   4.847   3.832   4.160
 3965SOL    HW112794   4.919   3.773   4.122
 3965SOL    HW212795   4.782   3.776   4.212
 3966SOL     OW12796   2.177   6.910   6.404
 3966SOL    HW112797   2.137   6.883   6.491
 3966SOL    HW212798   2.252   6.974   6.420
 3967SOL     OW12799   1.979   4.482   3.883
 3967SOL    HW112800   1.890   4.489   3.838
 3967SOL    HW212801   1.996   4.564   3.937
 3968SOL     OW12802   3.618   6.911   0.679
 3968SOL    HW112803   3.564   6.840   0.722
 3968SOL    HW212804   3.625   6.893   0.581
 3969SOL     OW12805   0.443   4.785   3.335
 3969SOL    HW112806   0.486   4.709   3.287
 3969SOL    HW212807   0.483   4.795   3.426
 3970SOL     OW12808   4.955   5.762   1.660
 3970SOL    HW112809   4.871   5.816   1.659
 3970SOL    HW212810   4.938   5.673   1.619
 3971SOL     OW12811   1.772   6.419   3.613
 3971SOL    HW112812   1.787   6.359   3.691
 3971SOL    HW212813   1.796   6.513   3.638
 3972SOL     OW12814   1.197   3.502   6.793
 3972SOL    HW112815   1.254   3.474   6.716
 3972SOL    HW212816   1.119   3.555   6.759
 3973SOL     OW12817   1.964   4.863   0.918
 3973SOL    HW112818   1.972   4.900   1.011
 3973SOL    HW212819   1.929   4.770   0.922
 3974SOL     OW12820   2.964   1.414   5.662
 3974SOL    HW112821   2.881   1.449   5.618
 3974SOL    HW212822   2.939   1.358   5.741
 3975SOL     OW12823   6.191   2.842   6.299
 3975SOL    HW112824   6.142   2.923   6.265
 3975SOL    HW212825   6.263   2.871   6.362
 3976SOL     OW12826   2.180   4.674   2.446
 3976SOL    HW112827   2.128   4.760   2.444
 3976SOL    HW212828   2.232   4.665   2.361
 3977SOL     OW12829   0.617   3.156   0.229
 3977SOL    HW112830   0.662   3.125   0.312
 3977SOL    HW212831   0.685   3.165   0.156
 3978SOL     OW12832   6.010   4.475   3.760
 3978SOL    HW112833   6.044   4.551   3.705
 3978SOL    HW212834   6.073   4.458   3.836
 3979SOL     OW12835   4.247   6.053   6.219
 3979SOL    HW112836   4.262   6.070   6.122
 3979SOL    HW212837   4.310   6.110   6.272
 3980SOL     OW12838   5.267   5.119   5.717
 3980SOL    HW112839   5.237   5.064   5.795
 3980SOL    HW212840   5.366   5.129   5.719
 3981SOL     OW12841   4.612   5.442   0.321
 3981SOL    HW112842   4.655   5.355   0.346
 3981SOL    HW212843   4.559   5.430   0.237
 3982SOL     OW12844   2.803   6.171   3.197
 3982SOL    HW112845   2.835   6.077   3.179
 3982SOL    HW212846   2.740   6.169   3.274
 3983SOL     OW12847   3.497   5.940   4.330
 3983SOL    HW112848   3.506   6.001   4.251
 3983SOL    HW212849   3.445   5.858   4.303
 3984SOL     OW12850   6.582   2.861   3.418
 3984SOL    HW112851   6.503   2.922   3.411
 3984SOL    HW212852   6.582   2.797   3.340
 3985SOL     OW12853   4.068   4.932   6.420
 3985SOL    HW112854   3.978   4.974   6.418
 3985SOL    HW212855   4.105   4.935   6.513
 3986SOL     OW12856   5.236   0.736   2.955
 3986SOL    HW112857   5.204   0.798   2.883
 3986SOL    HW212858   5.335   0.732   2.954
 3987SOL     OW12859   3.786   5.916   4.784
 3987SOL    HW112860   3.725   5.992   4.762
 3987SOL    HW212861   3.853   5.905   4.711
 3988SOL     OW12862   3.996   5.660   0.742
 3988SOL    HW112863   4.052   5.621   0.668
 3988SOL    HW212864   3.948   5.741   0.708
 3989SOL     OW12865   5.752   2.809   0.993
 3989SOL    HW112866   5.689   2.758   0.933
 3989SOL    HW212867   5.827   2.749   1.020
 3990SOL     OW12868   6.919   1.527   2.217
 3990SOL    HW112869   6.886   1.615   2.182
 3990SOL    HW212870   6.997   1.496   2.162
 3991SOL     OW12871   5.495   0.633   2.886
 3991SOL    HW112872   5.449   0.594   2.807
 3991SOL    HW212873   5.584   0.588   2.898
 3992SOL     OW12874   3.697   1.986   1.002
 3992SOL    HW112875   3.777   2.036   1.036
 3992SOL    HW212876   3.662   2.030   0.920
 3993SOL     OW12877   1.095   2.851   2.053
 3993SOL    HW112878   1.049   2.925   2.103
 3993SOL    HW212879   1.116   2.882   1.960
 3994SOL     OW12880   2.508   6.297   4.254
 3994SOL    HW112881   2.546   6.228   4.192
 3994SOL    HW212882   2.526   6.388   4.218
 3995SOL     OW12883   1.778   1.662   4.570
 3995SOL    HW112884   1.878   1.657   4.564
 3995SOL    HW212885   1.752   1.749   4.613
 3996SOL     OW12886   6.958   6.325   4.623
 3996SOL    HW112887   6.922   6.293   4.535
 3996SOL    HW212888   0.029   6.339   4.615
 3997SOL     OW12889   3.371   0.766   3.972
 3997SOL    HW112890   3.466   0.744   3.950
 3997SOL    HW212891   3.359   0.865   3.970
 3998SOL     OW12892   4.655   2.111   3.088
 3998SOL    HW112893   4.641   2.022   3.134
 3998SOL    HW212894   4.593   2.118   3.010
 3999SOL     OW12895   4.913   1.809   4.200
 3999SOL    HW112896   4.895   1.754   4.282
 3999SOL    HW212897   5.000   1.781   4.160
 4000SOL     OW12898   4.056   6.655   3.877
 4000SOL    HW112899   4.053   6.755   3.870
 4000SOL    HW212900   4.122   6.619   3.812
 4001SOL     OW12901   0.891   1.504   4.052
 4001SOL    HW112902   0.813   1.538   4.001
 4001SOL    HW212903   0.945   1.444   3.994
 4002SOL     OW12904   2.533   4.766   1.670
 4002SOL    HW112905   2.529   4.825   1.751
 4002SOL    HW212906   2.600   4.694   1.685
 4003SOL     OW12907   3.893   2.182   5.109
 4003SOL    HW112908   3.980   2.207   5.067
 4003SOL    HW212909   3.886   2.225   5.199
 4004SOL     OW12910   6.308   2.109   6.008
 4004SOL    HW112911   6.217   2.131   5.973
 4004SOL    HW212912   6.322   2.010   6.004
 4005SOL     OW12913   5.791   4.189   5.264
 4005SOL    HW112914   5.770   4.125   5.338
 4005SOL    HW212915   5.710   4.203   5.208
 4006SOL     OW12916   3.964   5.887   2.286
 4006SOL    HW112917   3.982   5.942   2.205
 4006SOL    HW212918   4.019   5.920   2.362
 4007SOL     OW12919   0.251   1.480   5.948
 4007SOL    HW112920   0.321   1.412   5.925
 4007SOL    HW212921   0.181   1.480   5.876
 4008SOL     OW12922   3.095   1.640   5.067
 4008SOL    HW112923   3.098   1.651   5.166
 4008SOL    HW212924   3.021   1.695   5.029
 4009SOL     OW12925   3.480   3.462   2.715
 4009SOL    HW112926   3.559   3.517   2.688
 4009SOL    HW212927   3.410   3.521   2.754
 4010SOL     OW12928   1.541   3.170   0.330
 4010SOL    HW112929   1.488   3.246   0.366
 4010SOL    HW212930   1.506   3.143   0.240
 4011SOL     OW12931   0.687   3.023   0.870
 4011SOL    HW112932   0.639   2.996   0.787
 4011SOL    HW212933   0.755   2.953   0.894
 4012SOL     OW12934   5.476   3.173   3.552
 4012SOL    HW112935   5.535   3.114   3.497
 4012SOL    HW212936   5.429   3.238   3.493
 4013SOL     OW12937   5.256   2.419   3.080
 4013SOL    HW112938   5.330   2.456   3.024
 4013SOL    HW212939   5.185   2.382   3.020
 4014SOL     OW12940   5.303   5.864   1.817
 4014SOL    HW112941   5.383   5.847   1.875
 4014SOL    HW212942   5.280   5.780   1.767
 4015SOL     OW12943   4.692   3.607   0.399
 4015SOL    HW112944   4.626   3.670   0.359
 4015SOL    HW212945   4.711   3.633   0.494
 4016SOL     OW12946   3.094   6.206   4.854
 4016SOL    HW112947   3.193   6.207   4.863
 4016SOL    HW212948   3.052   6.209   4.945
 4017SOL     OW12949   6.264   6.565   6.539
 4017SOL    HW112950   6.310   6.479   6.515
 4017SOL    HW212951   6.329   6.640   6.530
 4018SOL     OW12952   2.174   0.275   6.834
 4018SOL    HW112953   2.222   0.283   6.921
 4018SOL    HW212954   2.113   0.195   6.836
 4019SOL     OW12955   5.006   5.458   3.267
 4019SOL    HW112956   5.073   5.464   3.194
 4019SOL    HW212957   4.922   5.416   3.233
 4020SOL     OW12958   5.201   1.975   4.974
 4020SOL    HW112959   5.196   1.891   5.027
 4020SOL    HW212960   5.252   2.044   5.026
 4021SOL     OW12961   4.517   4.058   6.519
 4021SOL    HW112962   4.527   4.136   6.580
 4021SOL    HW212963   4.442   4.000   6.552
 4022SOL     OW12964   5.469   0.263   0.771
 4022SOL    HW112965   5.382   0.305   0.743
 4022SOL    HW212966   5.510   0.216   0.693
 4023SOL     OW12967   6.408   0.049   5.607
 4023SOL    HW112968   6.487   0.110   5.601
 4023SOL    HW212969   6.415   7.007   5.537
 4024SOL     OW12970   4.522   4.578   4.830
 4024SOL    HW112971   4.484   4.606   4.742
 4024SOL    HW212972   4.452   4.588   4.901
 4025SOL     OW12973   0.837   3.942   4.273
 4025SOL    HW112974   0.933   3.914   4.273
 4025SOL    HW212975   0.792   3.904   4.354
 4026SOL     OW12976   5.097   0.087   5.227
 4026SOL    HW112977   5.056   0.058   5.314
 4026SOL    HW212978   5.115   0.186   5.231
 4027SOL     OW12979   3.175   5.183   2.476
 4027SOL    HW112980   3.154   5.278   2.498
 4027SOL    HW212981   3.202   5.177   2.380
 4028SOL     OW12982   2.372   5.782   3.455
 4028SOL    HW112983   2.448   5.758   3.394
 4028SOL    HW212984   2.404   5.789   3.549
 4029SOL     OW12985   1.875   3.823   3.630
 4029SOL    HW112986   1.837   3.882   3.701
 4029SOL    HW212987   1.969   3.851   3.611
 4030SOL     OW12988   1.576   1.837   6.243
 4030SOL    HW112989   1.483   1.812   6.216
 4030SOL    HW212990   1.592   1.933   6.219
 4031SOL     OW12991   6.468   5.712   4.219
 4031SOL    HW112992   6.405   5.687   4.293
 4031SOL    HW212993   6.515   5.629   4.187
 4032SOL     OW12994   3.365   0.070   4.867
 4032SOL    HW112995   3.358   0.010   4.787
 4032SOL    HW212996   3.419   0.150   4.844
 4033SOL     OW12997   3.986   3.843   6.073
 4033SOL    HW112998   3.991   3.763   6.133
 4033SOL    HW212999   3.890   3.866   6.057
 4034SOL     OW13000   5.757   3.222   4.765
 4034SOL    HW113001   5.796   3.134   4.738
 4034SOL    HW213002   5.808   3.259   4.843
 4035SOL     OW13003   0.581   5.900   1.728
 4035SOL    HW113004   0.650   5.829   1.716
 4035SOL    HW213005   0.492   5.865   1.700
 4036SOL     OW13006   6.710   6.264   2.120
 4036SOL    HW113007   6.765   6.192   2.077
 4036SOL    HW213008   6.665   6.318   2.049
 4037SOL     OW13009   0.166   4.062   5.309
 4037SOL    HW113010   0.151   4.005   5.229
 4037SOL    HW213011   0.222   4.012   5.375
 4038SOL     OW13012   6.056   5.250   2.966
 4038SOL    HW113013   6.128   5.254   3.036
 4038SOL    HW213014   6.074   5.174   2.904
 4039SOL     OW13015   2.791   5.812   0.923
 4039SOL    HW113016   2.766   5.848   1.013
 4039SOL    HW213017   2.891   5.800   0.919
 4040SOL     OW13018   3.377   6.495   0.113
 4040SOL    HW113019   3.282   6.519   0.096
 4040SOL    HW213020   3.382   6.410   0.164
 4041SOL     OW13021   0.790   5.765   2.940
 4041SOL    HW113022   0.772   5.849   2.887
 4041SOL    HW213023   0.825   5.790   3.030
 4042SOL     OW13024   6.041   6.214   2.167
 4042SOL    HW113025   6.118   6.267   2.203
 4042SOL    HW213026   6.011   6.148   2.236
 4043SOL     OW13027   6.311   3.920   1.399
 4043SOL    HW113028   6.294   3.881   1.308
 4043SOL    HW213029   6.232   3.905   1.458
 4044SOL     OW13030   6.042   5.150   1.956
 4044SOL    HW113031   6.010   5.057   1.973
 4044SOL    HW213032   6.087   5.185   2.038
 4045SOL     OW13033   2.639   4.415   5.791
 4045SOL    HW113034   2.727   4.429   5.746
 4045SOL    HW213035   2.593   4.503   5.802
 4046SOL     OW13036   0.571   3.374   0.587
 4046SOL    HW113037   0.588   3.294   0.646
 4046SOL    HW213038   0.593   3.457   0.637
 4047SOL     OW13039   2.981   3.895   2.880
 4047SOL    HW113040   2.929   3.968   2.836
 4047SOL    HW213041   3.028   3.930   2.961
 4048SOL     OW13042   4.419   2.498   0.598
 4048SOL    HW113043   4.433   2.546   0.685
 4048SOL    HW213044   4.418   2.400   0.614
 4049SOL     OW13045   6.440   0.431   0.042
 4049SOL    HW113046   6.447   0.433   6.971
 4049SOL    HW213047   6.474   0.516   0.081
 4050SOL     OW13048   2.943   0.659   2.403
 4050SOL    HW113049   2.994   0.669   2.488
 4050SOL    HW213050   2.938   0.747   2.356
 4051SOL     OW13051   1.782   3.729   0.780
 4051SOL    HW113052   1.862   3.780   0.812
 4051SOL    HW213053   1.782   3.639   0.823
 4052SOL     OW13054   1.057   0.090   1.540
 4052SOL    HW113055   1.074   0.022   1.612
 4052SOL    HW213056   1.120   0.073   1.464
 4053SOL     OW13057   3.024   5.187   3.161
 4053SOL    HW113058   2.970   5.184   3.076
 4053SOL    HW213059   3.075   5.102   3.170
 4054SOL     OW13060   5.162   1.702   6.896
 4054SOL    HW113061   5.084   1.649   6.930
 4054SOL    HW213062   5.162   1.699   6.796
 4055SOL     OW13063   4.757   3.349   0.298
 4055SOL    HW113064   4.737   3.438   0.339
 4055SOL    HW213065   4.734   3.276   0.363
 4056SOL     OW13066   4.354   3.110   0.216
 4056SOL    HW113067   4.438   3.112   0.161
 4056SOL    HW213068   4.373   3.145   0.307
 4057SOL     OW13069   6.218   3.126   0.425
 4057SOL    HW113070   6.272   3.200   0.465
 4057SOL    HW213071   6.250   3.038   0.460
 4058SOL     OW13072   0.626   2.287   3.859
 4058SOL    HW113073   0.675   2.344   3.793
 4058SOL    HW213074   0.691   2.233   3.912
 4059SOL     OW13075   6.761   2.216   5.312
 4059SOL    HW113076   6.857   2.243   5.319
 4059SOL    HW213077   6.739   2.150   5.384
 4060SOL     OW13078   3.294   6.513   5.971
 4060SOL    HW113079   3.261   6.588   6.028
 4060SOL    HW213080   3.247   6.429   5.995
 4061SOL     OW13081   2.211   3.148   1.479
 4061SOL    HW113082   2.259   3.229   1.447
 4061SOL    HW213083   2.142   3.175   1.547
 4062SOL     OW13084   3.055   6.876   2.856
 4062SOL    HW113085   2.999   6.796   2.836
 4062SOL    HW213086   3.076   6.880   2.953
 4063SOL     OW13087   2.917   5.703   6.392
 4063SOL    HW113088   2.842   5.654   6.348
 4063SOL    HW213089   3.004   5.659   6.368
 4064SOL     OW13090   6.242   6.938   4.367
 4064SOL    HW113091   6.260   7.020   4.422
 4064SOL    HW213092   6.249   6.857   4.425
 4065SOL     OW13093   0.978   4.237   6.296
 4065SOL    HW113094   0.922   4.303   6.347
 4065SOL    HW213095   1.018   4.282   6.217
 4066SOL     OW13096   4.966   5.201   1.181
 4066SOL    HW113097   5.012   5.117   1.211
 4066SOL    HW213098   4.871   5.180   1.159
 4067SOL     OW13099   5.504   0.855   1.237
 4067SOL    HW113100   5.574   0.908   1.284
 4067SOL    HW213101   5.489   0.892   1.146
 4068SOL     OW13102   5.191   0.930   4.767
 4068SOL    HW113103   5.174   0.931   4.669
 4068SOL    HW213104   5.245   0.849   4.791
 4069SOL     OW13105   6.603   6.096   1.147
 4069SOL    HW113106   6.680   6.147   1.108
 4069SOL    HW213107   6.528   6.159   1.166
 4070SOL     OW13108   6.534   3.632   2.769
 4070SOL    HW113109   6.456   3.664   2.715
 4070SOL    HW213110   6.507   3.552   2.822
 4071SOL     OW13111   2.682   0.469   4.530
 4071SOL    HW113112   2.756   0.486   4.595
 4071SOL    HW213113   2.605   0.528   4.552
 4072SOL     OW13114   0.649   0.048   4.395
 4072SOL    HW113115   0.733   0.072   4.346
 4072SOL    HW213116   0.659   0.071   4.492
 4073SOL     OW13117   2.572   5.170   2.638
 4073SOL    HW113118   2.607   5.143   2.548
 4073SOL    HW213119   2.615   5.255   2.666
 4074SOL     OW13120   0.257   3.245   0.728
 4074SOL    HW113121   0.343   3.214   0.687
 4074SOL    HW213122   0.189   3.259   0.656
 4075SOL     OW13123   6.200   6.817   3.732
 4075SOL    HW113124   6.253   6.881   3.788
 4075SOL    HW213125   6.209   6.841   3.635
 4076SOL     OW13126   1.495   2.754   3.198
 4076SOL    HW113127   1.517   2.843   3.157
 4076SOL    HW213128   1.573   2.692   3.187
 4077SOL     OW13129   3.479   0.828   1.170
 4077SOL    HW113130   3.532   0.905   1.134
 4077SOL    HW213131   3.529   0.787   1.247
 4078SOL     OW13132   4.833   4.517   3.139
 4078SOL    HW113133   4.767   4.577   3.185
 4078SOL    HW213134   4.785   4.437   3.103
 4079SOL     OW13135   4.998   0.919   3.942
 4079SOL    HW113136   5.059   0.841   3.933
 4079SOL    HW213137   4.903   0.888   3.941
 4080SOL     OW13138   3.387   3.962   4.450
 4080SOL    HW113139   3.474   3.999   4.483
 4080SOL    HW213140   3.382   3.971   4.351
 4081SOL     OW13141   2.501   1.130   6.961
 4081SOL    HW113142   2.495   1.046   7.015
 4081SOL    HW213143   2.408   1.161   6.938
 4082SOL     OW13144   1.122   1.338   6.018
 4082SOL    HW113145   1.038   1.393   6.024
 4082SOL    HW213146   1.099   1.241   6.013
 4083SOL     OW13147   6.299   5.057   2.094
 4083SOL    HW113148   6.354   5.061   2.177
 4083SOL    HW213149   6.329   4.979   2.038
 4084SOL     OW13150   4.524   6.541   2.016
 4084SOL    HW113151   4.596   6.486   2.059
 4084SOL    HW213152   4.530   6.532   1.917
 4085SOL     OW13153   2.327   4.330   2.664
 4085SOL    HW113154   2.357   4.248   2.616
 4085SOL    HW213155   2.385   4.407   2.639
 4086SOL     OW13156   5.842   5.142   5.268
 4086SOL    HW113157   5.908   5.069   5.254
 4086SOL    HW213158   5.750   5.103   5.275
 4087SOL     OW13159   1.850   1.146   2.020
 4087SOL    HW113160   1.920   1.215   2.038
 4087SOL    HW213161   1.824   1.102   2.106
 4088SOL     OW13162   7.012   2.047   5.630
 4088SOL    HW113163   0.063   1.989   5.651
 4088SOL    HW213164   6.970   2.016   5.544
 4089SOL     OW13165   0.930   0.489   2.584
 4089SOL    HW113166   0.882   0.577   2.582
 4089SOL    HW213167   0.913   0.444   2.671
 4090SOL     OW13168   3.266   2.376   5.575
 4090SOL    HW113169   3.250   2.416   5.665
 4090SOL    HW213170   3.179   2.372   5.525
 4091SOL     OW13171   3.855   6.235   2.285
 4091SOL    HW113172   3.818   6.328   2.276
 4091SOL    HW213173   3.781   6.169   2.271
 4092SOL     OW13174   5.331   1.786   6.252
 4092SOL    HW113175   5.406   1.721   6.256
 4092SOL    HW213176   5.267   1.760   6.180
 4093SOL     OW13177   5.720   4.089   2.433
 4093SOL    HW113178   5.757   4.130   2.517
 4093SOL    HW213179   5.665   4.009   2.457
 4094SOL     OW13180   6.640   6.991   0.294
 4094SOL    HW113181   6.602   0.051   0.267
 4094SOL    HW213182   6.585   6.918   0.255
 4095SOL     OW13183   1.646   5.043   1.038
 4095SOL    HW113184   1.613   5.045   0.944
 4095SOL    HW213185   1.732   5.094   1.045
 4096SOL     OW13186   0.333   0.171   6.339
 4096SOL    HW113187   0.345   0.112   6.418
 4096SOL    HW213188   0.253   0.142   6.287
 4097SOL     OW13189   1.374   3.917   5.164
 4097SOL    HW113190   1.405   3.976   5.239
 4097SOL    HW213191   1.276   3.932   5.148
 4098SOL     OW13192   1.620   5.765   2.132
 4098SOL    HW113193   1.654   5.793   2.221
 4098SOL    HW213194   1.645   5.834   2.064
 4099SOL     OW13195   6.923   2.852   5.636
 4099SOL    HW113196   6.900   2.950   5.632
 4099SOL    HW213197   6.888   2.807   5.554
 4100SOL     OW13198   2.395   0.432   3.615
 4100SOL    HW113199   2.336   0.512   3.603
 4100SOL    HW213200   2.425   0.398   3.526
 4101SOL     OW13201   6.429   6.147   6.181
 4101SOL    HW113202   6.455   6.060   6.223
 4101SOL    HW213203   6.508   6.187   6.135
 4102SOL     OW13204   1.982   5.334   0.700
 4102SOL    HW113205   1.964   5.236   0.700
 4102SOL    HW213206   2.062   5.354   0.757
 4103SOL     OW13207   2.384   5.089   3.088
 4103SOL    HW113208   2.292   5.073   3.052
 4103SOL    HW213209   2.393   5.185   3.115
 4104SOL     OW13210   2.027   5.656   5.826
 4104SOL    HW113211   2.005   5.750   5.854
 4104SOL    HW213212   1.954   5.595   5.854
 4105SOL     OW13213   3.599   6.817   1.704
 4105SOL    HW113214   3.627   6.913   1.715
 4105SOL    HW213215   3.608   6.791   1.608
 4106SOL     OW13216   1.335   6.941   2.824
 4106SOL    HW113217   1.351   7.000   2.903
 4106SOL    HW213218   1.294   6.993   2.750
 4107SOL     OW13219   1.781   2.035   1.034
 4107SOL    HW113220   1.804   2.079   0.947
 4107SOL    HW213221   1.746   2.104   1.098
 4108SOL     OW13222   0.459   6.145   5.195
 4108SOL    HW113223   0.444   6.228   5.141
 4108SOL    HW213224   0.398   6.146   5.274
 4109SOL     OW13225   5.007   6.800   4.781
 4109SOL    HW113226   4.957   6.881   4.750
 4109SOL    HW213227   5.085   6.785   4.721
 4110SOL     OW13228   4.322   3.028   0.719
 4110SOL    HW113229   4.238   3.081   0.733
 4110SOL    HW213230   4.306   2.958   0.650
 4111SOL     OW13231   5.953   5.032   3.549
 4111SOL    HW113232   5.929   4.974   3.628
 4111SOL    HW213233   5.880   5.026   3.481
 4112SOL     OW13234   4.557   5.809   5.418
 4112SOL    HW113235   4.584   5.802   5.322
 4112SOL    HW213236   4.638   5.802   5.476
 4113SOL     OW13237   4.420   5.557   5.352
 4113SOL    HW113238   4.502   5.501   5.350
 4113SOL    HW213239   4.443   5.649   5.384
 4114SOL     OW13240   6.701   1.482   2.808
 4114SOL    HW113241   6.790   1.526   2.792
 4114SOL    HW213242   6.647   1.540   2.869
 4115SOL     OW13243   3.952   6.243   4.296
 4115SOL    HW113244   4.002   6.273   4.378
 4115SOL    HW213245   3.988   6.290   4.216
 4116SOL     OW13246   6.234   3.744   3.902
 4116SOL    HW113247   6.223   3.839   3.871
 4116SOL    HW213248   6.286   3.743   3.988
 4117SOL     OW13249   0.222   1.934   2.909
 4117SOL    HW113250   0.312   1.926   2.952
 4117SOL    HW213251   0.165   1.858   2.938
 4118SOL     OW13252   1.007   0.283   1.878
 4118SOL    HW113253   0.953   0.316   1.801
 4118SOL    HW213254   1.102   0.312   1.869
 4119SOL     OW13255   6.716   0.888   5.243
 4119SOL    HW113256   6.749   0.884   5.149
 4119SOL    HW213257   6.710   0.983   5.272
 4120SOL     OW13258   1.368   0.590   6.206
 4120SOL    HW113259   1.407   0.519   6.264
 4120SOL    HW213260   1.442   0.641   6.162
 4121SOL     OW13261   6.706   1.123   1.230
 4121SOL    HW113262   6.803   1.115   1.251
 4121SOL    HW213263   6.654   1.067   1.295
 4122SOL     OW13264   0.795   4.741   3.724
 4122SOL    HW113265   0.765   4.746   3.819
 4122SOL    HW213266   0.856   4.662   3.713
 4123SOL     OW13267   6.019   4.184   1.692
 4123SOL    HW113268   6.093   4.251   1.698
 4123SOL    HW213269   5.982   4.167   1.784
 4124SOL     OW13270   6.199   6.803   0.129
 4124SOL    HW113271   6.155   6.774   0.214
 4124SOL    HW213272   6.236   6.895   0.140
 4125SOL     OW13273   6.757   2.694   6.645
 4125SOL    HW113274   6.839   2.641   6.666
 4125SOL    HW213275   6.759   2.721   6.548
 4126SOL     OW13276   1.179   4.125   3.881
 4126SOL    HW113277   1.106   4.194   3.887
 4126SOL    HW213278   1.179   4.069   3.964
 4127SOL     OW13279   4.585   2.366   4.144
 4127SOL    HW113280   4.491   2.356   4.111
 4127SOL    HW213281   4.626   2.448   4.103
 4128SOL     OW13282   6.553   2.127   6.290
 4128SOL    HW113283   6.548   2.190   6.368
 4128SOL    HW213284   6.477   2.063   6.294
 4129SOL     OW13285   3.205   0.272   1.814
 4129SOL    HW113286   3.198   0.213   1.734
 4129SOL    HW213287   3.202   0.368   1.785
 4130SOL     OW13288   5.315   2.625   0.316
 4130SOL    HW113289   5.362   2.609   0.402
 4130SOL    HW213290   5.217   2.613   0.328
 4131SOL     OW13291   5.264   6.291   3.680
 4131SOL    HW113292   5.210   6.299   3.596
 4131SOL    HW213293   5.348   6.241   3.661
 4132SOL     OW13294   6.176   3.768   2.720
 4132SOL    HW113295   6.200   3.713   2.800
 4132SOL    HW213296   6.168   3.864   2.747
 4133SOL     OW13297   5.627   6.580   3.662
 4133SOL    HW113298   5.532   6.554   3.681
 4133SOL    HW213299   5.659   6.532   3.581
 4134SOL     OW13300   1.147   3.254   1.598
 4134SOL    HW113301   1.109   3.177   1.547
 4134SOL    HW213302   1.072   3.307   1.638
 4135SOL     OW13303   6.064   1.108   0.807
 4135SOL    HW113304   6.123   1.189   0.800
 4135SOL    HW213305   5.991   1.115   0.739
 4136SOL     OW13306   0.838   5.051   0.476
 4136SOL    HW113307   0.830   4.988   0.399
 4136SOL    HW213308   0.747   5.065   0.516
 4137SOL     OW13309   0.175   2.726   5.639
 4137SOL    HW113310   0.182   2.631   5.668
 4137SOL    HW213311   0.080   2.756   5.646
 4138SOL     OW13312   5.638   6.738   6.164
 4138SOL    HW113313   5.700   6.806   6.124
 4138SOL    HW213314   5.671   6.713   6.255
 4139SOL     OW13315   1.934   4.024   2.484
 4139SOL    HW113316   1.892   3.951   2.430
 4139SOL    HW213317   1.983   4.087   2.424
 4140SOL     OW13318   2.330   6.921   0.152
 4140SOL    HW113319   2.413   6.950   0.199
 4140SOL    HW213320   2.294   6.838   0.196
 4141SOL     OW13321   5.472   0.150   5.895
 4141SOL    HW113322   5.434   0.177   5.806
 4141SOL    HW213323   5.401   0.159   5.965
 4142SOL     OW13324   0.149   6.524   1.563
 4142SOL    HW113325   0.191   6.584   1.495
 4142SOL    HW213326   0.209   6.446   1.581
 4143SOL     OW13327   6.905   3.657   6.822
 4143SOL    HW113328   6.849   3.594   6.767
 4143SOL    HW213329   6.893   3.751   6.788
 4144SOL     OW13330   3.995   0.525   1.562
 4144SOL    HW113331   3.947   0.546   1.477
 4144SOL    HW213332   3.933   0.537   1.640
 4145SOL     OW13333   5.193   0.926   1.476
 4145SOL    HW113334   5.107   0.876   1.486
 4145SOL    HW213335   5.260   0.890   1.540
 4146SOL     OW13336   3.841   6.811   2.357
 4146SOL    HW113337   3.891   6.810   2.444
 4146SOL    HW213338   3.865   6.730   2.304
 4147SOL     OW13339   4.630   4.213   6.975
 4147SOL    HW113340   4.568   4.137   6.996
 4147SOL    HW213341   4.718   4.177   6.946
 4148SOL     OW13342   3.323   1.054   5.849
 4148SOL    HW113343   3.333   1.123   5.778
 4148SOL    HW213344   3.282   0.972   5.809
 4149SOL     OW13345   1.716   3.168   0.106
 4149SOL    HW113346   1.762   3.242   0.155
 4149SOL    HW213347   1.638   3.205   0.055
 4150SOL     OW13348   6.340   1.212   0.624
 4150SOL    HW113349   6.297   1.281   0.565
 4150SOL    HW213350   6.385   1.258   0.701
 4151SOL     OW13351   3.075   5.817   4.605
 4151SOL    HW113352   3.037   5.767   4.683
 4151SOL    HW213353   3.046   5.773   4.520
 4152SOL     OW13354   2.796   4.189   1.463
 4152SOL    HW113355   2.876   4.175   1.521
 4152SOL    HW213356   2.733   4.111   1.472
 4153SOL     OW13357   6.856   5.866   1.439
 4153SOL    HW113358   6.915   5.859   1.359
 4153SOL    HW213359   6.799   5.784   1.446
 4154SOL     OW13360   0.185   6.379   4.561
 4154SOL    HW113361   0.243   6.428   4.495
 4154SOL    HW213362   0.233   6.297   4.593
 4155SOL     OW13363   5.929   1.457   1.912
 4155SOL    HW113364   5.968   1.448   2.003
 4155SOL    HW213365   5.921   1.554   1.888
 4156SOL     OW13366   0.584   5.054   5.584
 4156SOL    HW113367   0.638   4.983   5.629
 4156SOL    HW213368   0.608   5.058   5.487
 4157SOL     OW13369   5.474   6.049   0.898
 4157SOL    HW113370   5.421   6.028   0.980
 4157SOL    HW213371   5.567   6.014   0.908
 4158SOL     OW13372   6.459   2.078   0.041
 4158SOL    HW113373   6.520   2.092   0.119
 4158SOL    HW213374   6.476   2.149   7.001
 4159SOL     OW13375   3.222   0.385   4.801
 4159SOL    HW113376   3.141   0.370   4.744
 4159SOL    HW213377   3.302   0.399   4.743
 4160SOL     OW13378   1.625   6.898   5.955
 4160SOL    HW113379   1.723   6.889   5.941
 4160SOL    HW213380   1.607   6.964   6.028
 4161SOL     OW13381   3.181   3.083   3.986
 4161SOL    HW113382   3.225   3.003   3.945
 4161SOL    HW213383   3.243   3.125   4.052
 4162SOL     OW13384   5.020   5.804   1.302
 4162SOL    HW113385   4.987   5.888   1.345
 4162SOL    HW213386   5.120   5.807   1.297
 4163SOL     OW13387   3.713   5.562   1.107
 4163SOL    HW113388   3.619   5.530   1.120
 4163SOL    HW213389   3.764   5.549   1.192
 4164SOL     OW13390   5.576   1.990   6.745
 4164SOL    HW113391   5.514   2.068   6.741
 4164SOL    HW213392   5.641   2.002   6.820
 4165SOL     OW13393   3.291   1.897   3.995
 4165SOL    HW113394   3.334   1.934   4.077
 4165SOL    HW213395   3.287   1.968   3.924
 4166SOL     OW13396   6.401   2.301   2.549
 4166SOL    HW113397   6.385   2.303   2.648
 4166SOL    HW213398   6.335   2.361   2.504
 4167SOL     OW13399   3.936   6.466   4.739
 4167SOL    HW113400   4.019   6.482   4.793
 4167SOL    HW213401   3.959   6.418   4.655
 4168SOL     OW13402   4.794   3.684   6.248
 4168SOL    HW113403   4.868   3.737   6.205
 4168SOL    HW213404   4.711   3.693   6.194
 4169SOL     OW13405   5.043   3.799   6.658
 4169SOL    HW113406   5.000   3.883   6.626
 4169SOL    HW213407   4.975   3.741   6.702
 4170SOL     OW13408   1.345   3.202   4.846
 4170SOL    HW113409   1.255   3.246   4.844
 4170SOL    HW213410   1.370   3.182   4.941
 4171SOL     OW13411   0.488   0.947   6.353
 4171SOL    HW113412   0.455   0.862   6.312
 4171SOL    HW213413   0.554   0.926   6.425
 4172SOL     OW13414   2.566   2.943   6.936
 4172SOL    HW113415   2.498   2.946   7.009
 4172SOL    HW213416   2.520   2.957   6.848
 4173SOL     OW13417   5.073   0.951   5.354
 4173SOL    HW113418   5.030   0.955   5.264
 4173SOL    HW213419   5.042   0.869   5.402
 4174SOL     OW13420   2.965   6.915   3.791
 4174SOL    HW113421   3.032   6.856   3.836
 4174SOL    HW213422   2.993   6.932   3.696
 4175SOL     OW13423   0.979   4.864   6.431
 4175SOL    HW113424   1.017   4.941   6.481
 4175SOL    HW213425   0.925   4.806   6.493
 4176SOL     OW13426   4.529   0.139   5.639
 4176SOL    HW113427   4.459   0.069   5.648
 4176SOL    HW213428   4.525   0.179   5.548
 4177SOL     OW13429   4.484   5.891   3.666
 4177SOL    HW113430   4.550   5.956   3.704
 4177SOL    HW213431   4.397   5.937   3.650
 4178SOL     OW13432   3.908   6.574   1.000
 4178SOL    HW113433   3.890   6.672   0.991
 4178SOL    HW213434   4.006   6.558   0.999
 4179SOL     OW13435   4.226   2.479   6.511
 4179SOL    HW113436   4.173   2.427   6.579
 4179SOL    HW213437   4.258   2.564   6.552
 4180SOL     OW13438   3.643   4.176   0.040
 4180SOL    HW113439   3.559   4.127   0.064
 4180SOL    HW213440   3.681   4.140   6.983
 4181SOL     OW13441   5.486   6.271   5.209
 4181SOL    HW113442   5.393   6.279   5.245
 4181SOL    HW213443   5.482   6.247   5.112
 4182SOL     OW13444   6.976   5.317   5.281
 4182SOL    HW113445   6.951   5.220   5.270
 4182SOL    HW213446   6.893   5.373   5.278
 4183SOL     OW13447   5.050   2.524   0.338
 4183SOL    HW113448   4.993   2.560   0.264
 4183SOL    HW213449   4.995   2.513   0.421
 4184SOL     OW13450   3.456   5.495   3.352
 4184SOL    HW113451   3.472   5.426   3.422
 4184SOL    HW213452   3.384   5.464   3.290
 4185SOL     OW13453   4.715   4.316   2.979
 4185SOL    HW113454   4.705   4.324   2.880
 4185SOL    HW213455   4.747   4.224   3.002
 4186SOL     OW13456   1.570   5.045   6.616
 4186SOL    HW113457   1.547   5.000   6.703
 4186SOL    HW213458   1.622   5.129   6.634
 4187SOL     OW13459   2.230   4.110   6.406
 4187SOL    HW113460   2.243   4.046   6.330
 4187SOL    HW213461   2.216   4.059   6.490
 4188SOL     OW13462   5.376   0.482   6.375
 4188SOL    HW113463   5.430   0.400   6.353
 4188SOL    HW213464   5.289   0.478   6.326
 4189SOL     OW13465   5.209   5.506   2.785
 4189SOL    HW113466   5.133   5.546   2.734
 4189SOL    HW213467   5.173   5.443   2.854
 4190SOL     OW13468   6.755   6.371   1.703
 4190SOL    HW113469   6.835   6.347   1.758
 4190SOL    HW213470   6.786   6.409   1.616
 4191SOL     OW13471   4.317   2.569   6.249
 4191SOL    HW113472   4.236   2.567   6.307
 4191SOL    HW213473   4.291   2.599   6.157
 4192SOL     OW13474   1.501   3.619   6.074
 4192SOL    HW113475   1.499   3.535   6.019
 4192SOL    HW213476   1.563   3.606   6.151
 4193SOL     OW13477   6.483   0.044   1.513
 4193SOL    HW113478   6.564   0.083   1.470
 4193SOL    HW213479   6.458   0.099   1.593
 4194SOL     OW13480   5.477   0.616   6.605
 4194SOL    HW113481   5.445   0.594   6.513
 4194SOL    HW213482   5.577   0.613   6.607
 4195SOL     OW13483   2.168   5.912   0.610
 4195SOL    HW113484   2.115   5.929   0.527
 4195SOL    HW213485   2.215   5.995   0.638
 4196SOL     OW13486   6.896   3.007   3.556
 4196SOL    HW113487   6.990   3.031   3.578
 4196SOL    HW213488   6.882   2.909   3.573
 4197SOL     OW13489   4.103   0.686   0.187
 4197SOL    HW113490   4.153   0.600   0.179
 4197SOL    HW213491   4.135   0.736   0.268
 4198SOL     OW13492   0.148   2.398   1.762
 4198SOL    HW113493   0.132   2.394   1.861
 4198SOL    HW213494   0.221   2.464   1.743
 4199SOL     OW13495   0.967   3.905   6.800
 4199SOL    HW113496   0.925   3.967   6.734
 4199SOL    HW213497   0.905   3.892   6.877
 4200SOL     OW13498   5.368   1.876   3.093
 4200SOL    HW113499   5.457   1.877   3.049
 4200SOL    HW213500   5.300   1.916   3.031
 4201SOL     OW13501   5.338   0.178   4.344
 4201SOL    HW113502   5.249   0.224   4.341
 4201SOL    HW213503   5.331   0.097   4.402
 4202SOL     OW13504   4.546   4.016   1.667
 4202SOL    HW113505   4.500   4.087   1.721
 4202SOL    HW213506   4.479   3.947   1.639
 4203SOL     OW13507   6.085   3.778   5.411
 4203SOL    HW113508   6.093   3.863   5.463
 4203SOL    HW213509   6.174   3.754   5.373
 4204SOL     OW13510   2.162   4.337   6.305
 4204SOL    HW113511   2.164   4.243   6.337
 4204SOL    HW213512   2.175   4.339   6.206
 4205SOL     OW13513   5.477   6.156   5.771
 4205SOL    HW113514   5.491   6.238   5.716
 4205SOL    HW213515   5.557   6.096   5.761
 4206SOL     OW13516   2.457   2.448   4.640
 4206SOL    HW113517   2.525   2.425   4.570
 4206SOL    HW213518   2.409   2.531   4.612
 4207SOL     OW13519   2.028   2.756   1.370
 4207SOL    HW113520   2.060   2.697   1.296
 4207SOL    HW213521   1.953   2.711   1.418
 4208SOL     OW13522   2.751   2.394   3.361
 4208SOL    HW113523   2.806   2.333   3.417
 4208SOL    HW213524   2.772   2.489   3.384
 4209SOL     OW13525   6.561   5.678   2.811
 4209SOL    HW113526   6.567   5.748   2.740
 4209SOL    HW213527   6.517   5.715   2.892
 4210SOL     OW13528   3.008   4.696   5.725
 4210SOL    HW113529   2.928   4.754   5.706
 4210SOL    HW213530   3.053   4.672   5.639
 4211SOL     OW13531   4.516   2.716   5.891
 4211SOL    HW113532   4.421   2.692   5.909
 4211SOL    HW213533   4.576   2.647   5.932
 4212SOL     OW13534   0.771   2.822   3.155
 4212SOL    HW113535   0.837   2.752   3.183
 4212SOL    HW213536   0.695   2.778   3.108
 4213SOL     OW13537   3.806   0.709   3.500
 4213SOL    HW113538   3.749   0.716   3.419
 4213SOL    HW213539   3.751   0.725   3.582
 4214SOL     OW13540   6.598   6.544   3.783
 4214SOL    HW113541   6.523   6.555   3.848
 4214SOL    HW213542   6.561   6.514   3.695
 4215SOL     OW13543   6.138   0.182   5.294
 4215SOL    HW113544   6.159   0.224   5.382
 4215SOL    HW213545   6.136   0.252   5.223
 4216SOL     OW13546   2.467   5.505   2.185
 4216SOL    HW113547   2.390   5.549   2.139
 4216SOL    HW213548   2.530   5.575   2.220
 4217SOL     OW13549   0.849   0.248   2.769
 4217SOL    HW113550   0.892   0.165   2.806
 4217SOL    HW213551   0.794   0.223   2.689
 4218SOL     OW13552   3.325   0.800   2.047
 4218SOL    HW113553   3.256   0.844   1.990
 4218SOL    HW213554   3.380   0.870   2.093
 4219SOL     OW13555   3.133   5.572   2.955
 4219SOL    HW113556   3.080   5.518   2.888
 4219SOL    HW213557   3.178   5.510   3.019
 4220SOL     OW13558   5.987   2.336   1.545
 4220SOL    HW113559   6.052   2.279   1.597
 4220SOL    HW213560   5.907   2.356   1.601
 4221SOL     OW13561   0.516   6.935   0.987
 4221SOL    HW113562   0.530   7.002   0.915
 4221SOL    HW213563   0.456   6.862   0.953
 4222SOL     OW13564   4.875   3.262   4.600
 4222SOL    HW113565   4.861   3.360   4.614
 4222SOL    HW213566   4.877   3.243   4.502
 4223SOL     OW13567   3.405   4.145   2.962
 4223SOL    HW113568   3.332   4.124   3.026
 4223SOL    HW213569   3.374   4.128   2.868
 4224SOL     OW13570   4.595   4.376   4.576
 4224SOL    HW113571   4.612   4.323   4.659
 4224SOL    HW213572   4.543   4.458   4.599
 4225SOL     OW13573   0.579   1.891   6.492
 4225SOL    HW113574   0.614   1.800   6.467
 4225SOL    HW213575   0.551   1.939   6.409
 4226SOL     OW13576   5.754   4.578   4.465
 4226SOL    HW113577   5.792   4.646   4.402
 4226SOL    HW213578   5.807   4.493   4.457
 4227SOL     OW13579   5.698   5.337   1.055
 4227SOL    HW113580   5.652   5.410   1.004
 4227SOL    HW213581   5.794   5.332   1.027
 4228SOL     OW13582   1.598   4.402   3.565
 4228SOL    HW113583   1.570   4.496   3.544
 4228SOL    HW213584   1.566   4.340   3.493
 4229SOL     OW13585   6.509   6.153   5.326
 4229SOL    HW113586   6.422   6.202   5.327
 4229SOL    HW213587   6.548   6.156   5.234
 4230SOL     OW13588   0.293   0.970   1.893
 4230SOL    HW113589   0.362   0.897   1.897
 4230SOL    HW213590   0.300   1.016   1.805
 4231SOL     OW13591   0.510   0.442   6.347
 4231SOL    HW113592   0.579   0.369   6.348
 4231SOL    HW213593   0.491   0.469   6.253
 4232SOL     OW13594   1.516   4.688   3.510
 4232SOL    HW113595   1.497   4.723   3.418
 4232SOL    HW213596   1.561   4.758   3.564
 4233SOL     OW13597   4.373   4.852   2.377
 4233SOL    HW113598   4.344   4.936   2.424
 4233SOL    HW213599   4.380   4.871   2.279
 4234SOL     OW13600   3.577   5.451   5.861
 4234SOL    HW113601   3.573   5.483   5.766
 4234SOL    HW213602   3.670   5.420   5.882
 4235SOL     OW13603   6.801   5.962   6.686
 4235SOL    HW113604   6.794   5.950   6.785
 4235SOL    HW213605   6.863   5.892   6.648
 4236SOL     OW13606   0.499   5.174   3.188
 4236SOL    HW113607   0.592   5.155   3.219
 4236SOL    HW213608   0.497   5.260   3.138
 4237SOL     OW13609   6.410   4.378   3.572
 4237SOL    HW113610   6.431   4.324   3.490
 4237SOL    HW213611   6.489   4.435   3.595
 4238SOL     OW13612   2.799   5.774   2.905
 4238SOL    HW113613   2.877   5.788   2.843
 4238SOL    HW213614   2.784   5.676   2.918
 4239SOL     OW13615   3.841   1.117   3.189
 4239SOL    HW113616   3.772   1.056   3.151
 4239SOL    HW213617   3.925   1.066   3.206
 4240SOL     OW13618   5.645   0.043   2.490
 4240SOL    HW113619   5.556   7.025   2.487
 4240SOL    HW213620   5.691   0.033   2.401
 4241SOL     OW13621   6.667   4.850   0.481
 4241SOL    HW113622   6.706   4.886   0.396
 4241SOL    HW213623   6.688   4.753   0.489
 4242SOL     OW13624   3.374   1.981   3.064
 4242SOL    HW113625   3.454   1.930   3.034
 4242SOL    HW213626   3.291   1.937   3.030
 4243SOL     OW13627   3.643   2.132   2.788
 4243SOL    HW113628   3.696   2.059   2.744
 4243SOL    HW213629   3.613   2.198   2.718
 4244SOL     OW13630   2.967   3.492   4.908
 4244SOL    HW113631   3.066   3.496   4.926
 4244SOL    HW213632   2.950   3.434   4.828
 4245SOL     OW13633   6.444   0.532   6.219
 4245SOL    HW113634   6.392   0.575   6.145
 4245SOL    HW213635   6.431   0.433   6.215
 4246SOL     OW13636   0.187   4.821   6.164
 4246SOL    HW113637   0.199   4.727   6.133
 4246SOL    HW213638   0.258   4.879   6.124
 4247SOL     OW13639   0.168   5.391   5.097
 4247SOL    HW113640   0.126   5.375   5.186
 4247SOL    HW213641   0.233   5.467   5.104
 4248SOL     OW13642   2.001   3.542   6.463
 4248SOL    HW113643   2.033   3.521   6.556
 4248SOL    HW213644   2.009   3.460   6.407
 4249SOL     OW13645   5.424   2.953   6.188
 4249SOL    HW113646   5.385   2.861   6.199
 4249SOL    HW213647   5.497   2.966   6.255
 4250SOL     OW13648   6.616   4.108   3.480
 4250SOL    HW113649   6.530   4.117   3.531
 4250SOL    HW213650   6.681   4.054   3.533
 4251SOL     OW13651   6.174   4.805   6.092
 4251SOL    HW113652   6.100   4.773   6.151
 4251SOL    HW213653   6.184   4.743   6.014
 4252SOL     OW13654   6.676   4.963   5.209
 4252SOL    HW113655   6.746   4.933   5.144
 4252SOL    HW213656   6.586   4.964   5.163
 4253SOL     OW13657   3.465   6.361   3.045
 4253SOL    HW113658   3.481   6.331   3.139
 4253SOL    HW213659   3.404   6.296   2.999
 4254SOL     OW13660   2.927   3.495   1.885
 4254SOL    HW113661   2.879   3.421   1.839
 4254SOL    HW213662   2.911   3.581   1.838
 4255SOL     OW13663   0.441   2.229   4.333
 4255SOL    HW113664   0.433   2.247   4.235
 4255SOL    HW213665   0.356   2.189   4.366
 4256SOL     OW13666   1.804   1.472   2.175
 4256SOL    HW113667   1.800   1.462   2.274
 4256SOL    HW213668   1.729   1.421   2.133
 4257SOL     OW13669   4.137   2.188   5.381
 4257SOL    HW113670   4.091   2.100   5.379
 4257SOL    HW213671   4.232   2.176   5.410
 4258SOL     OW13672   5.375   6.237   2.524
 4258SOL    HW113673   5.378   6.310   2.592
 4258SOL    HW213674   5.287   6.190   2.530
 4259SOL     OW13675   2.440   3.686   1.377
 4259SOL    HW113676   2.481   3.649   1.460
 4259SOL    HW213677   2.342   3.701   1.391
 4260SOL     OW13678   3.827   5.858   4.372
 4260SOL    HW113679   3.739   5.888   4.408
 4260SOL    HW213680   3.843   5.902   4.283
 4261SOL     OW13681   0.772   1.287   3.101
 4261SOL    HW113682   0.757   1.188   3.108
 4261SOL    HW213683   0.824   1.318   3.180
 4262SOL     OW13684   0.672   6.132   5.935
 4262SOL    HW113685   0.754   6.170   5.978
 4262SOL    HW213686   0.669   6.160   5.839
 4263SOL     OW13687   4.273   4.921   6.637
 4263SOL    HW113688   4.259   4.972   6.722
 4263SOL    HW213689   4.360   4.947   6.597
 4264SOL     OW13690   0.459   0.336   1.732
 4264SOL    HW113691   0.444   0.369   1.825
 4264SOL    HW213692   0.372   0.332   1.683
 4265SOL     OW13693   1.639   1.523   0.426
 4265SOL    HW113694   1.694   1.570   0.357
 4265SOL    HW213695   1.671   1.429   0.436
 4266SOL     OW13696   3.259   4.537   0.699
 4266SOL    HW113697   3.298   4.554   0.608
 4266SOL    HW213698   3.228   4.623   0.738
 4267SOL     OW13699   1.567   4.301   5.488
 4267SOL    HW113700   1.635   4.245   5.534
 4267SOL    HW213701   1.528   4.366   5.553
 4268SOL     OW13702   1.451   1.297   1.748
 4268SOL    HW113703   1.488   1.338   1.831
 4268SOL    HW213704   1.512   1.318   1.671
 4269SOL     OW13705   2.748   3.907   0.814
 4269SOL    HW113706   2.826   3.894   0.753
 4269SOL    HW213707   2.762   3.990   0.868
 4270SOL     OW13708   4.060   3.007   6.475
 4270SOL    HW113709   4.006   2.964   6.547
 4270SOL    HW213710   4.091   2.937   6.411
 4271SOL     OW13711   1.616   0.690   0.996
 4271SOL    HW113712   1.708   0.682   1.035
 4271SOL    HW213713   1.548   0.661   1.064
 4272SOL     OW13714   0.070   3.888   3.757
 4272SOL    HW113715   0.042   3.841   3.842
 4272SOL    HW213716   0.162   3.923   3.768
 4273SOL     OW13717   5.955   0.035   3.782
 4273SOL    HW113718   5.985   0.079   3.697
 4273SOL    HW213719   6.022   6.994   3.809
 4274SOL     OW13720   2.374   0.482   4.198
 4274SOL    HW113721   2.313   0.423   4.146
 4274SOL    HW213722   2.465   0.479   4.158
 4275SOL     OW13723   0.648   0.471   5.260
 4275SOL    HW113724   0.581   0.397   5.256
 4275SOL    HW213725   0.728   0.441   5.312
 4276SOL     OW13726   2.301   4.271   2.300
 4276SOL    HW113727   2.288   4.201   2.370
 4276SOL    HW213728   2.230   4.262   2.230
 4277SOL     OW13729   0.564   5.535   5.365
 4277SOL    HW113730   0.613   5.522   5.278
 4277SOL    HW213731   0.526   5.447   5.394
 4278SOL     OW13732   1.546   6.327   6.522
 4278SOL    HW113733   1.474   6.368   6.466
 4278SOL    HW213734   1.602   6.266   6.465
 4279SOL     OW13735   3.005   5.999   3.713
 4279SOL    HW113736   3.083   5.974   3.770
 4279SOL    HW213737   2.920   5.990   3.765
 4280SOL     OW13738   5.052   2.239   3.377
 4280SOL    HW113739   5.036   2.295   3.458
 4280SOL    HW213740   5.107   2.291   3.311
 4281SOL     OW13741   2.126   4.088   5.188
 4281SOL    HW113742   2.168   4.162   5.241
 4281SOL    HW213743   2.194   4.049   5.126
 4282SOL     OW13744   0.239   2.235   0.844
 4282SOL    HW113745   0.218   2.151   0.794
 4282SOL    HW213746   0.157   2.267   0.892
 4283SOL     OW13747   2.236   1.073   4.404
 4283SOL    HW113748   2.318   1.021   4.379
 4283SOL    HW213749   2.225   1.151   4.342
 4284SOL     OW13750   6.621   1.982   3.084
 4284SOL    HW113751   6.543   1.935   3.125
 4284SOL    HW213752   6.624   2.077   3.116
 4285SOL     OW13753   1.096   6.165   4.686
 4285SOL    HW113754   1.032   6.119   4.625
 4285SOL    HW213755   1.190   6.141   4.660
 4286SOL     OW13756   4.358   5.352   6.443
 4286SOL    HW113757   4.314   5.283   6.386
 4286SOL    HW213758   4.457   5.339   6.442
 4287SOL     OW13759   3.891   5.663   5.245
 4287SOL    HW113760   3.890   5.735   5.176
 4287SOL    HW213761   3.878   5.574   5.200
 4288SOL     OW13762   1.216   5.855   3.313
 4288SOL    HW113763   1.286   5.921   3.340
 4288SOL    HW213764   1.231   5.769   3.360
 4289SOL     OW13765   0.210   4.146   0.080
 4289SOL    HW113766   0.278   4.102   0.139
 4289SOL    HW213767   0.186   4.083   0.006
 4290SOL     OW13768   2.103   1.480   3.235
 4290SOL    HW113769   2.120   1.559   3.177
 4290SOL    HW213770   2.126   1.503   3.330
 4291SOL     OW13771   7.026   4.339   1.496
 4291SOL    HW113772   0.092   4.366   1.472
 4291SOL    HW213773   7.018   4.331   1.595
 4292SOL     OW13774   5.862   5.485   5.664
 4292SOL    HW113775   5.827   5.396   5.634
 4292SOL    HW213776   5.952   5.474   5.706
 4293SOL     OW13777   0.185   2.140   6.770
 4293SOL    HW113778   0.117   2.161   6.840
 4293SOL    HW213779   0.208   2.043   6.773
 4294SOL     OW13780   5.068   1.415   6.146
 4294SOL    HW113781   4.987   1.456   6.188
 4294SOL    HW213782   5.134   1.486   6.124
 4295SOL     OW13783   3.737   5.984   5.734
 4295SOL    HW113784   3.741   5.886   5.749
 4295SOL    HW213785   3.729   6.031   5.822
 4296SOL     OW13786   2.400   1.241   2.644
 4296SOL    HW113787   2.444   1.325   2.677
 4296SOL    HW213788   2.380   1.250   2.546
 4297SOL     OW13789   5.593   0.191   0.550
 4297SOL    HW113790   5.548   0.127   0.487
 4297SOL    HW213791   5.685   0.210   0.517
 4298SOL     OW13792   1.897   5.035   1.832
 4298SOL    HW113793   1.857   5.018   1.741
 4298SOL    HW213794   1.824   5.044   1.899
 4299SOL     OW13795   1.316   5.252   5.190
 4299SOL    HW113796   1.353   5.286   5.276
 4299SOL    HW213797   1.267   5.166   5.206
 4300SOL     OW13798   6.274   6.761   5.442
 4300SOL    HW113799   6.178   6.737   5.432
 4300SOL    HW213800   6.296   6.838   5.381
 4301SOL     OW13801   3.136   0.793   0.629
 4301SOL    HW113802   3.144   0.876   0.574
 4301SOL    HW213803   3.046   0.792   0.674
 4302SOL     OW13804   0.919   0.309   6.753
 4302SOL    HW113805   1.004   0.259   6.768
 4302SOL    HW213806   0.923   0.355   6.664
 4303SOL     OW13807   6.756   4.326   1.754
 4303SOL    HW113808   6.712   4.315   1.843
 4303SOL    HW213809   6.836   4.266   1.749
 4304SOL     OW13810   3.212   3.394   5.536
 4304SOL    HW113811   3.286   3.439   5.585
 4304SOL    HW213812   3.240   3.375   5.442
 4305SOL     OW13813   6.948   1.224   5.313
 4305SOL    HW113814   6.871   1.170   5.347
 4305SOL    HW213815   6.914   1.308   5.270
 4306SOL     OW13816   6.367   5.648   5.716
 4306SOL    HW113817   6.367   5.744   5.744
 4306SOL    HW213818   6.390   5.642   5.619
 4307SOL     OW13819   5.365   3.325   0.205
 4307SOL    HW113820   5.359   3.390   0.129
 4307SOL    HW213821   5.274   3.310   0.243
 4308SOL     OW13822   3.373   6.571   5.238
 4308SOL    HW113823   3.342   6.619   5.320
 4308SOL    HW213824   3.339   6.477   5.240
 4309SOL     OW13825   1.710   0.713   1.387
 4309SOL    HW113826   1.755   0.632   1.350
 4309SOL    HW213827   1.773   0.791   1.382
 4310SOL     OW13828   1.553   0.544   2.885
 4310SOL    HW113829   1.511   0.530   2.795
 4310SOL    HW213830   1.530   0.467   2.945
 4311SOL     OW13831   1.530   5.430   4.626
 4311SOL    HW113832   1.547   5.337   4.661
 4311SOL    HW213833   1.434   5.454   4.642
 4312SOL     OW13834   1.181   5.801   1.388
 4312SOL    HW113835   1.275   5.817   1.420
 4312SOL    HW213836   1.160   5.863   1.312
 4313SOL     OW13837   4.967   0.776   1.495
 4313SOL    HW113838   4.880   0.768   1.447
 4313SOL    HW213839   4.954   0.752   1.592
 4314SOL     OW13840   5.845   3.364   1.335
 4314SOL    HW113841   5.881   3.276   1.304
 4314SOL    HW213842   5.786   3.403   1.265
 4315SOL     OW13843   2.339   1.271   2.389
 4315SOL    HW113844   2.241   1.250   2.384
 4315SOL    HW213845   2.374   1.290   2.297
 4316SOL     OW13846   0.620   1.161   2.628
 4316SOL    HW113847   0.606   1.229   2.556
 4316SOL    HW213848   0.709   1.174   2.670
 4317SOL     OW13849   3.903   0.328   3.029
 4317SOL    HW113850   3.914   0.273   3.112
 4317SOL    HW213851   3.866   0.417   3.052
 4318SOL     OW13852   6.662   2.613   5.105
 4318SOL    HW113853   6.674   2.711   5.113
 4318SOL    HW213854   6.646   2.589   5.009
 4319SOL     OW13855   3.211   2.487   6.153
 4319SOL    HW113856   3.296   2.513   6.199
 4319SOL    HW213857   3.211   2.526   6.060
 4320SOL     OW13858   0.170   6.009   3.506
 4320SOL    HW113859   0.184   5.950   3.427
 4320SOL    HW213860   0.215   6.097   3.491
 4321SOL     OW13861   0.609   0.635   4.795
 4321SOL    HW113862   0.583   0.717   4.846
 4321SOL    HW213863   0.643   0.662   4.705
 4322SOL     OW13864   5.750   1.312   1.282
 4322SOL    HW113865   5.653   1.308   1.255
 4322SOL    HW213866   5.763   1.389   1.344
 4323SOL     OW13867   7.017   1.994   3.989
 4323SOL    HW113868   6.989   1.970   3.896
 4323SOL    HW213869   6.996   1.917   4.050
 4324SOL     OW13870   5.586   2.644   5.624
 4324SOL    HW113871   5.599   2.642   5.723
 4324SOL    HW213872   5.490   2.622   5.603
 4325SOL     OW13873   1.497   2.227   6.724
 4325SOL    HW113874   1.400   2.246   6.711
 4325SOL    HW213875   1.544   2.312   6.751
 4326SOL     OW13876   6.424   2.530   4.770
 4326SOL    HW113877   6.433   2.456   4.704
 4326SOL    HW213878   6.491   2.601   4.749
 4327SOL     OW13879   4.854   1.161   2.862
 4327SOL    HW113880   4.885   1.252   2.835
 4327SOL    HW213881   4.927   1.114   2.911
 4328SOL     OW13882   5.625   4.976   0.223
 4328SOL    HW113883   5.533   4.943   0.203
 4328SOL    HW213884   5.620   5.059   0.279
 4329SOL     OW13885   5.145   2.278   0.273
 4329SOL    HW113886   5.086   2.352   0.305
 4329SOL    HW213887   5.090   2.209   0.227
 4330SOL     OW13888   0.963   1.005   6.543
 4330SOL    HW113889   0.892   1.030   6.609
 4330SOL    HW213890   0.989   0.909   6.557
 4331SOL     OW13891   5.431   2.221   6.737
 4331SOL    HW113892   5.483   2.304   6.718
 4331SOL    HW213893   5.348   2.245   6.789
 4332SOL     OW13894   5.533   3.490   1.861
 4332SOL    HW113895   5.546   3.588   1.881
 4332SOL    HW213896   5.436   3.473   1.843
 4333SOL     OW13897   6.373   1.592   5.487
 4333SOL    HW113898   6.351   1.601   5.584
 4333SOL    HW213899   6.397   1.681   5.449
 4334SOL     OW13900   4.156   0.210   1.693
 4334SOL    HW113901   4.249   0.234   1.721
 4334SOL    HW213902   4.091   0.270   1.740
 4335SOL     OW13903   3.509   4.451   5.520
 4335SOL    HW113904   3.433   4.442   5.455
 4335SOL    HW213905   3.587   4.493   5.474
 4336SOL     OW13906   0.790   6.736   6.040
 4336SOL    HW113907   0.720   6.664   6.039
 4336SOL    HW213908   0.879   6.696   6.063
 4337SOL     OW13909   0.484   5.796   0.120
 4337SOL    HW113910   0.496   5.822   0.216
 4337SOL    HW213911   0.572   5.765   0.083
 4338SOL     OW13912   5.265   6.671   3.377
 4338SOL    HW113913   5.224   6.681   3.468
 4338SOL    HW213914   5.218   6.597   3.328
 4339SOL     OW13915   6.601   1.231   6.505
 4339SOL    HW113916   6.569   1.149   6.457
 4339SOL    HW213917   6.681   1.268   6.457
 4340SOL     OW13918   4.336   3.607   1.662
 4340SOL    HW113919   4.318   3.524   1.715
 4340SOL    HW213920   4.377   3.582   1.574
 4341SOL     OW13921   1.244   3.534   0.813
 4341SOL    HW113922   1.237   3.539   0.912
 4341SOL    HW213923   1.338   3.509   0.788
 4342SOL     OW13924   0.290   1.830   3.311
 4342SOL    HW113925   0.306   1.890   3.389
 4342SOL    HW213926   0.375   1.784   3.286
 4343SOL     OW13927   2.747   2.095   0.866
 4343SOL    HW113928   2.653   2.089   0.902
 4343SOL    HW213929   2.801   2.019   0.902
 4344SOL     OW13930   1.899   3.802   1.978
 4344SOL    HW113931   1.891   3.770   1.883
 4344SOL    HW213932   1.911   3.723   2.038
 4345SOL     OW13933   2.885   1.252   6.037
 4345SOL    HW113934   2.804   1.284   6.087
 4345SOL    HW213935   2.960   1.239   6.101
 4346SOL     OW13936   6.905   3.576   1.323
 4346SOL    HW113937   6.885   3.514   1.399
 4346SOL    HW213938   6.973   3.535   1.263
 4347SOL     OW13939   5.010   5.632   2.596
 4347SOL    HW113940   5.005   5.704   2.526
 4347SOL    HW213941   4.945   5.560   2.574
 4348SOL     OW13942   1.142   3.591   0.025
 4348SOL    HW113943   1.100   3.529   0.091
 4348SOL    HW213944   1.173   3.540   6.973
 4349SOL     OW13945   6.733   0.949   1.715
 4349SOL    HW113946   6.770   0.868   1.669
 4349SOL    HW213947   6.769   0.953   1.808
 4350SOL     OW13948   3.894   0.798   2.924
 4350SOL    HW113949   3.955   0.866   2.964
 4350SOL    HW213950   3.870   0.729   2.993
 4351SOL     OW13951   3.043   6.786   0.033
 4351SOL    HW113952   3.080   6.835   6.982
 4351SOL    HW213953   3.008   6.851   0.100
 4352SOL     OW13954   6.880   1.859   2.526
 4352SOL    HW113955   6.785   1.869   2.496
 4352SOL    HW213956   6.900   1.929   2.595
 4353SOL     OW13957   3.173   5.768   1.202
 4353SOL    HW113958   3.163   5.670   1.216
 4353SOL    HW213959   3.166   5.789   1.104
 4354SOL     OW13960   3.008   0.623   1.170
 4354SOL    HW113961   2.939   0.695   1.166
 4354SOL    HW213962   2.972   0.540   1.127
 4355SOL     OW13963   4.703   6.991   0.156
 4355SOL    HW113964   4.734   6.981   0.250
 4355SOL    HW213965   4.657   0.050   0.145
 4356SOL     OW13966   3.387   3.763   0.501
 4356SOL    HW113967   3.449   3.840   0.482
 4356SOL    HW213968   3.299   3.780   0.456
 4357SOL     OW13969   5.764   0.912   0.119
 4357SOL    HW113970   5.680   0.966   0.123
 4357SOL    HW213971   5.806   0.922   0.029
 4358SOL     OW13972   6.018   0.675   1.204
 4358SOL    HW113973   6.085   0.603   1.183
 4358SOL    HW213974   6.065   0.763   1.214
 4359SOL     OW13975   6.282   3.827   4.510
 4359SOL    HW113976   6.329   3.860   4.427
 4359SOL    HW213977   6.349   3.802   4.579
 4360SOL     OW13978   2.021   3.857   0.813
 4360SOL    HW113979   2.075   3.846   0.729
 4360SOL    HW213980   2.079   3.842   0.892
 4361SOL     OW13981   6.271   2.420   2.347
 4361SOL    HW113982   6.206   2.366   2.293
 4361SOL    HW213983   6.269   2.515   2.318
 4362SOL     OW13984   5.298   3.905   2.836
 4362SOL    HW113985   5.375   3.967   2.820
 4362SOL    HW213986   5.305   3.866   2.928
 4363SOL     OW13987   5.028   0.368   6.767
 4363SOL    HW113988   4.992   0.344   6.676
 4363SOL    HW213989   5.098   0.439   6.757
 4364SOL     OW13990   3.672   3.773   4.572
 4364SOL    HW113991   3.671   3.734   4.479
 4364SOL    HW213992   3.764   3.765   4.610
 4365SOL     OW13993   4.394   2.219   0.629
 4365SOL    HW113994   4.480   2.186   0.666
 4365SOL    HW213995   4.318   2.192   0.689
 4366SOL     OW13996   4.986   5.000   0.233
 4366SOL    HW113997   4.956   5.079   0.180
 4366SOL    HW213998   5.082   5.012   0.260
 4367SOL     OW13999   6.867   0.212   1.231
 4367SOL    HW114000   6.812   0.246   1.154
 4367SOL    HW214001   6.806   0.175   1.301
 4368SOL     OW14002   4.436   4.577   2.150
 4368SOL    HW114003   4.431   4.631   2.234
 4368SOL    HW214004   4.497   4.500   2.163
 4369SOL     OW14005   3.157   5.288   1.510
 4369SOL    HW114006   3.134   5.384   1.497
 4369SOL    HW214007   3.077   5.238   1.543
 4370SOL     OW14008   5.229   4.824   2.184
 4370SOL    HW114009   5.294   4.757   2.148
 4370SOL    HW214010   5.205   4.890   2.112
 4371SOL     OW14011   1.285   1.635   2.782
 4371SOL    HW114012   1.334   1.556   2.817
 4371SOL    HW214013   1.255   1.693   2.858
 4372SOL     OW14014   5.000   0.155   3.612
 4372SOL    HW114015   4.920   0.103   3.585
 4372SOL    HW214016   5.075   0.136   3.548
 4373SOL     OW14017   6.834   1.571   6.118
 4373SOL    HW114018   6.921   1.521   6.120
 4373SOL    HW214019   6.836   1.644   6.186
 4374SOL     OW14020   3.463   1.233   0.432
 4374SOL    HW114021   3.468   1.189   0.342
 4374SOL    HW214022   3.381   1.290   0.437
 4375SOL     OW14023   3.647   5.703   4.074
 4375SOL    HW114024   3.704   5.661   4.144
 4375SOL    HW214025   3.705   5.753   4.010
 4376SOL     OW14026   0.155   2.157   4.379
 4376SOL    HW114027   0.136   2.237   4.436
 4376SOL    HW214028   0.156   2.184   4.283
 4377SOL     OW14029   6.584   4.731   6.461
 4377SOL    HW114030   6.624   4.820   6.484
 4377SOL    HW214031   6.513   4.743   6.393
 4378SOL     OW14032   3.017   1.830   4.008
 4378SOL    HW114033   3.005   1.849   4.105
 4378SOL    HW214034   3.112   1.848   3.981
 4379SOL     OW14035   3.749   2.346   6.401
 4379SOL    HW114036   3.731   2.295   6.485
 4379SOL    HW214037   3.705   2.302   6.323
 4380SOL     OW14038   0.150   2.345   3.271
 4380SOL    HW114039   0.109   2.256   3.253
 4380SOL    HW214040   0.079   2.416   3.268
 4381SOL     OW14041   1.153   5.710   6.979
 4381SOL    HW114042   1.092   5.786   6.955
 4381SOL    HW214043   1.187   5.667   6.896
 4382SOL     OW14044   0.884   5.510   4.547
 4382SOL    HW114045   0.921   5.492   4.456
 4382SOL    HW214046   0.916   5.600   4.578
 4383SOL     OW14047   6.999   4.307   0.553
 4383SOL    HW114048   0.034   4.289   0.477
 4383SOL    HW214049   6.970   4.221   0.594
 4384SOL     OW14050   4.855   6.944   3.571
 4384SOL    HW114051   4.855   6.944   3.471
 4384SOL    HW214052   4.858   6.850   3.605
 4385SOL     OW14053   4.723   1.222   5.739
 4385SOL    HW114054   4.760   1.132   5.762
 4385SOL    HW214055   4.680   1.218   5.649
 4386SOL     OW14056   1.966   3.555   4.286
 4386SOL    HW114057   1.980   3.508   4.373
 4386SOL    HW214058   1.877   3.601   4.287
 4387SOL     OW14059   5.590   1.895   1.085
 4387SOL    HW114060   5.666   1.856   1.032
 4387SOL    HW214061   5.539   1.821   1.129
 4388SOL     OW14062   5.278   3.498   6.832
 4388SOL    HW114063   5.263   3.584   6.783
 4388SOL    HW214064   5.293   3.518   6.929
 4389SOL     OW14065   2.297   1.444   0.038
 4389SOL    HW114066   2.265   1.514   7.003
 4389SOL    HW214067   2.332   1.366   7.014
 4390SOL     OW14068   6.927   2.056   0.947
 4390SOL    HW114069   6.832   2.030   0.963
 4390SOL    HW214070   6.931   2.134   0.885
 4391SOL     OW14071   0.640   5.949   0.774
 4391SOL    HW114072   0.687   6.000   0.846
 4391SOL    HW214073   0.591   6.012   0.714
 4392SOL     OW14074   1.142   2.701   6.223
 4392SOL    HW114075   1.105   2.793   6.210
 4392SOL    HW214076   1.199   2.677   6.144
 4393SOL     OW14077   6.110   0.273   2.448
 4393SOL    HW114078   6.077   0.185   2.412
 4393SOL    HW214079   6.032   0.329   2.475
 4394SOL     OW14080   0.298   0.210   2.294
 4394SOL    HW114081   0.240   0.158   2.230
 4394SOL    HW214082   0.288   0.172   2.386
 4395SOL     OW14083   1.754   3.820   2.357
 4395SOL    HW114084   1.659   3.828   2.326
 4395SOL    HW214085   1.814   3.871   2.295
 4396SOL     OW14086   2.993   1.298   2.821
 4396SOL    HW114087   2.984   1.397   2.829
 4396SOL    HW214088   3.068   1.266   2.878
 4397SOL     OW14089   3.576   1.346   4.947
 4397SOL    HW114090   3.499   1.391   4.992
 4397SOL    HW214091   3.543   1.290   4.872
 4398SOL     OW14092   2.591   3.445   5.798
 4398SOL    HW114093   2.561   3.403   5.713
 4398SOL    HW214094   2.648   3.525   5.778
 4399SOL     OW14095   2.672   6.759   1.378
 4399SOL    HW114096   2.746   6.697   1.353
 4399SOL    HW214097   2.698   6.810   1.460
 4400SOL     OW14098   1.677   6.199   4.835
 4400SOL    HW114099   1.730   6.273   4.795
 4400SOL    HW214100   1.661   6.128   4.766
 4401SOL     OW14101   2.559   6.839   6.410
 4401SOL    HW114102   2.635   6.829   6.474
 4401SOL    HW214103   2.505   6.920   6.434
 4402SOL     OW14104   1.780   0.686   2.818
 4402SOL    HW114105   1.694   0.637   2.833
 4402SOL    HW214106   1.855   0.620   2.814
 4403SOL     OW14107   0.176   5.402   2.640
 4403SOL    HW114108   0.076   5.402   2.648
 4403SOL    HW214109   0.208   5.493   2.614
 4404SOL     OW14110   0.643   6.879   6.292
 4404SOL    HW114111   0.682   6.845   6.206
 4404SOL    HW214112   0.595   6.805   6.339
 4405SOL     OW14113   1.351   5.092   2.526
 4405SOL    HW114114   1.271   5.103   2.584
 4405SOL    HW214115   1.368   5.178   2.477
 4406SOL     OW14116   6.594   4.764   2.422
 4406SOL    HW114117   6.562   4.702   2.493
 4406SOL    HW214118   6.645   4.713   2.353
 4407SOL     OW14119   6.236   6.830   1.079
 4407SOL    HW114120   6.238   6.781   1.166
 4407SOL    HW214121   6.145   6.825   1.039
 4408SOL     OW14122   4.626   0.702   0.982
 4408SOL    HW114123   4.550   0.710   1.046
 4408SOL    HW214124   4.666   0.792   0.966
 4409SOL     OW14125   2.866   0.706   4.499
 4409SOL    HW114126   2.940   0.692   4.564
 4409SOL    HW214127   2.825   0.618   4.474
 4410SOL     OW14128   0.597   0.450   1.003
 4410SOL    HW114129   0.555   0.440   1.094
 4410SOL    HW214130   0.528   0.483   0.939
 4411SOL     OW14131   4.572   4.705   5.413
 4411SOL    HW114132   4.571   4.724   5.511
 4411SOL    HW214133   4.650   4.646   5.391
 4412SOL     OW14134   4.419   6.182   2.032
 4412SOL    HW114135   4.408   6.234   1.947
 4412SOL    HW214136   4.352   6.213   2.099
 4413SOL     OW14137   4.805   5.889   3.975
 4413SOL    HW114138   4.818   5.790   3.967
 4413SOL    HW214139   4.789   5.912   4.071
 4414SOL     OW14140   5.638   3.819   1.461
 4414SOL    HW114141   5.674   3.733   1.496
 4414SOL    HW214142   5.554   3.843   1.509
 4415SOL     OW14143   1.612   3.946   1.070
 4415SOL    HW114144   1.575   3.940   0.977
 4415SOL    HW214145   1.712   3.951   1.066
 4416SOL     OW14146   4.956   2.767   4.528
 4416SOL    HW114147   4.967   2.668   4.522
 4416SOL    HW214148   5.032   2.812   4.483
 4417SOL     OW14149   0.159   4.162   1.979
 4417SOL    HW114150   0.088   4.104   2.018
 4417SOL    HW214151   0.184   4.127   1.888
 4418SOL     OW14152   5.815   1.360   5.495
 4418SOL    HW114153   5.849   1.333   5.585
 4418SOL    HW214154   5.854   1.449   5.470
 4419SOL     OW14155   6.557   6.119   6.701
 4419SOL    HW114156   6.577   6.190   6.768
 4419SOL    HW214157   6.642   6.091   6.656
 4420SOL     OW14158   4.209   1.324   0.869
 4420SOL    HW114159   4.112   1.318   0.845
 4420SOL    HW214160   4.217   1.360   0.962
 4421SOL     OW14161   2.094   2.704   0.387
 4421SOL    HW114162   2.119   2.706   0.484
 4421SOL    HW214163   2.130   2.620   0.345
 4422SOL     OW14164   0.355   3.150   6.087
 4422SOL    HW114165   0.263   3.191   6.083
 4422SOL    HW214166   0.420   3.217   6.123
 4423SOL     OW14167   5.764   4.383   4.704
 4423SOL    HW114168   5.844   4.325   4.687
 4423SOL    HW214169   5.794   4.477   4.719
 4424SOL     OW14170   4.498   5.812   2.639
 4424SOL    HW114171   4.491   5.765   2.727
 4424SOL    HW214172   4.594   5.834   2.621
 4425SOL     OW14173   0.775   6.294   1.219
 4425SOL    HW114174   0.853   6.275   1.279
 4425SOL    HW214175   0.774   6.392   1.195
 4426SOL     OW14176   0.417   0.231   4.526
 4426SOL    HW114177   0.417   0.141   4.569
 4426SOL    HW214178   0.408   0.220   4.427
 4427SOL     OW14179   2.969   5.730   2.502
 4427SOL    HW114180   2.920   5.651   2.464
 4427SOL    HW214181   2.930   5.753   2.591
 4428SOL     OW14182   6.248   5.667   3.761
 4428SOL    HW114183   6.266   5.641   3.666
 4428SOL    HW214184   6.153   5.696   3.770
 4429SOL     OW14185   2.357   6.462   3.005
 4429SOL    HW114186   2.309   6.510   3.078
 4429SOL    HW214187   2.296   6.453   2.926
 4430SOL     OW14188   6.344   3.475   4.720
 4430SOL    HW114189   6.394   3.391   4.696
 4430SOL    HW214190   6.285   3.456   4.799
 4431SOL     OW14191   4.407   6.931   4.964
 4431SOL    HW114192   4.349   6.897   5.038
 4431SOL    HW214193   4.479   6.863   4.945
 4432SOL     OW14194   1.057   3.176   6.544
 4432SOL    HW114195   0.958   3.189   6.538
 4432SOL    HW214196   1.103   3.251   6.494
 4433SOL     OW14197   0.729   0.694   4.566
 4433SOL    HW114198   0.717   0.638   4.484
 4433SOL    HW214199   0.811   0.752   4.555
 4434SOL     OW14200   6.875   1.065   2.485
 4434SOL    HW114201   6.792   1.117   2.506
 4434SOL    HW214202   6.932   1.118   2.422
 4435SOL     OW14203   2.678   4.474   0.748
 4435SOL    HW114204   2.686   4.557   0.693
 4435SOL    HW214205   2.634   4.402   0.694
 4436SOL     OW14206   4.754   2.130   1.797
 4436SOL    HW114207   4.685   2.152   1.727
 4436SOL    HW214208   4.708   2.104   1.882
 4437SOL     OW14209   6.487   4.727   0.131
 4437SOL    HW114210   6.579   4.749   0.163
 4437SOL    HW214211   6.479   4.628   0.119
 4438SOL     OW14212   4.232   1.354   4.592
 4438SOL    HW114213   4.202   1.434   4.645
 4438SOL    HW214214   4.160   1.327   4.528
 4439SOL     OW14215   2.572   5.357   2.397
 4439SOL    HW114216   2.630   5.310   2.330
 4439SOL    HW214217   2.491   5.393   2.351
 4440SOL     OW14218   1.812   5.062   5.474
 4440SOL    HW114219   1.726   5.023   5.442
 4440SOL    HW214220   1.795   5.117   5.556
 4441SOL     OW14221   6.659   1.826   1.130
 4441SOL    HW114222   6.734   1.812   1.066
 4441SOL    HW214223   6.671   1.914   1.176
 4442SOL     OW14224   2.164   4.967   1.521
 4442SOL    HW114225   2.209   4.932   1.439
 4442SOL    HW214226   2.232   5.009   1.581
 4443SOL     OW14227   0.794   5.784   5.567
 4443SOL    HW114228   0.726   5.850   5.535
 4443SOL    HW214229   0.747   5.699   5.595
 4444SOL     OW14230   5.682   5.485   0.118
 4444SOL    HW114231   5.666   5.533   0.205
 4444SOL    HW214232   5.676   5.550   0.042
 4445SOL     OW14233   2.209   4.078   0.428
 4445SOL    HW114234   2.263   4.038   0.502
 4445SOL    HW214235   2.236   4.038   0.341
 4446SOL     OW14236   4.731   2.089   2.228
 4446SOL    HW114237   4.736   2.177   2.181
 4446SOL    HW214238   4.639   2.076   2.264
 4447SOL     OW14239   4.681   5.697   5.193
 4447SOL    HW114240   4.663   5.638   5.114
 4447SOL    HW214241   4.755   5.656   5.248
 4448SOL     OW14242   3.336   6.558   2.464
 4448SOL    HW114243   3.424   6.607   2.472
 4448SOL    HW214244   3.352   6.467   2.428
 4449SOL     OW14245   3.939   1.526   5.555
 4449SOL    HW114246   4.022   1.581   5.561
 4449SOL    HW214247   3.962   1.429   5.555
 4450SOL     OW14248   1.987   5.906   0.391
 4450SOL    HW114249   1.992   5.809   0.364
 4450SOL    HW214250   2.013   5.963   0.314
 4451SOL     OW14251   4.804   5.755   3.548
 4451SOL    HW114252   4.755   5.773   3.463
 4451SOL    HW214253   4.794   5.833   3.610
 4452SOL     OW14254   5.335   4.526   3.666
 4452SOL    HW114255   5.274   4.449   3.684
 4452SOL    HW214256   5.352   4.575   3.751
 4453SOL     OW14257   0.546   4.910   1.159
 4453SOL    HW114258   0.572   4.878   1.250
 4453SOL    HW214259   0.599   4.861   1.090
 4454SOL     OW14260   0.406   2.009   0.352
 4454SOL    HW114261   0.459   1.930   0.383
 4454SOL    HW214262   0.468   2.075   0.307
 4455SOL     OW14263   1.298   0.392   4.018
 4455SOL    HW114264   1.220   0.329   4.020
 4455SOL    HW214265   1.378   0.348   4.057
 4456SOL     OW14266   1.750   6.004   4.230
 4456SOL    HW114267   1.832   6.061   4.220
 4456SOL    HW214268   1.672   6.061   4.252
 4457SOL     OW14269   1.445   1.640   4.535
 4457SOL    HW114270   1.417   1.665   4.628
 4457SOL    HW214271   1.480   1.720   4.487
 4458SOL     OW14272   1.682   2.750   6.351
 4458SOL    HW114273   1.652   2.797   6.434
 4458SOL    HW214274   1.707   2.656   6.374
 4459SOL     OW14275   0.391   3.884   3.145
 4459SOL    HW114276   0.468   3.938   3.181
 4459SOL    HW214277   0.308   3.906   3.196
 4460SOL     OW14278   6.813   2.937   4.814
 4460SOL    HW114279   6.910   2.947   4.794
 4460SOL    HW214280   6.765   2.911   4.730
 4461SOL     OW14281   2.047   0.835   0.572
 4461SOL    HW114282   1.981   0.847   0.645
 4461SOL    HW214283   2.091   0.923   0.552
 4462SOL     OW14284   6.434   4.029   2.414
 4462SOL    HW114285   6.385   4.010   2.329
 4462SOL    HW214286   6.517   4.081   2.394
 4463SOL     OW14287   5.717   2.071   6.992
 4463SOL    HW114288   5.657   2.151   6.990
 4463SOL    HW214289   5.700   2.018   0.047
 4464SOL     OW14290   0.851   3.548   1.186
 4464SOL    HW114291   0.821   3.643   1.189
 4464SOL    HW214292   0.801   3.495   1.255
 4465SOL     OW14293   4.451   5.255   1.794
 4465SOL    HW114294   4.482   5.162   1.770
 4465SOL    HW214295   4.362   5.249   1.840
 4466SOL     OW14296   0.207   3.038   2.734
 4466SOL    HW114297   0.282   2.977   2.760
 4466SOL    HW214298   0.120   2.997   2.762
 4467SOL     OW14299   5.470   4.531   1.726
 4467SOL    HW114300   5.498   4.438   1.750
 4467SOL    HW214301   5.475   4.544   1.627
 4468SOL     OW14302   1.716   3.230   0.783
 4468SOL    HW114303   1.727   3.231   0.683
 4468SOL    HW214304   1.736   3.138   0.817
 4469SOL     OW14305   1.850   6.233   1.537
 4469SOL    HW114306   1.809   6.143   1.555
 4469SOL    HW214307   1.905   6.261   1.616
 4470SOL     OW14308   1.035   6.600   2.268
 4470SOL    HW114309   1.094   6.667   2.315
 4470SOL    HW214310   0.942   6.635   2.264
 4471SOL     OW14311   1.053   0.918   6.907
 4471SOL    HW114312   1.073   0.907   6.810
 4471SOL    HW214313   0.996   0.842   6.939
 4472SOL     OW14314   1.601   2.531   1.144
 4472SOL    HW114315   1.533   2.595   1.108
 4472SOL    HW214316   1.556   2.445   1.168
 4473SOL     OW14317   0.461   2.794   5.125
 4473SOL    HW114318   0.541   2.850   5.149
 4473SOL    HW214319   0.423   2.825   5.038
 4474SOL     OW14320   2.322   6.109   0.672
 4474SOL    HW114321   2.396   6.125   0.606
 4474SOL    HW214322   2.362   6.089   0.762
 4475SOL     OW14323   0.768   3.470   0.097
 4475SOL    HW114324   0.865   3.448   0.103
 4475SOL    HW214325   0.743   3.532   0.171
 4476SOL     OW14326   5.209   0.554   3.563
 4476SOL    HW114327   5.202   0.514   3.654
 4476SOL    HW214328   5.277   0.503   3.510
 4477SOL     OW14329   6.889   1.271   4.396
 4477SOL    HW114330   6.861   1.186   4.352
 4477SOL    HW214331   6.976   1.257   4.445
 4478SOL     OW14332   1.646   0.637   2.173
 4478SOL    HW114333   1.739   0.671   2.159
 4478SOL    HW214334   1.614   0.662   2.264
 4479SOL     OW14335   2.320   2.582   6.697
 4479SOL    HW114336   2.419   2.588   6.706
 4479SOL    HW214337   2.292   2.613   6.606
 4480SOL     OW14338   6.858   6.558   3.196
 4480SOL    HW114339   6.881   6.653   3.177
 4480SOL    HW214340   6.881   6.536   3.290
 4481SOL     OW14341   2.061   4.100   6.099
 4481SOL    HW114342   2.082   4.003   6.094
 4481SOL    HW214343   2.095   4.146   6.017
 4482SOL     OW14344   2.752   0.084   1.337
 4482SOL    HW114345   2.724   0.019   1.408
 4482SOL    HW214346   2.836   0.051   1.294
 4483SOL     OW14347   1.017   3.327   1.129
 4483SOL    HW114348   0.976   3.418   1.139
 4483SOL    HW214349   0.944   3.260   1.116
 4484SOL     OW14350   3.557   0.777   0.483
 4484SOL    HW114351   3.580   0.680   0.470
 4484SOL    HW214352   3.624   0.819   0.544
 4485SOL     OW14353   0.472   3.368   4.973
 4485SOL    HW114354   0.512   3.329   5.056
 4485SOL    HW214355   0.383   3.327   4.956
 4486SOL     OW14356   4.997   4.535   3.452
 4486SOL    HW114357   4.930   4.581   3.510
 4486SOL    HW214358   4.997   4.577   3.361
 4487SOL     OW14359   0.307   2.947   6.538
 4487SOL    HW114360   0.340   2.925   6.446
 4487SOL    HW214361   0.381   2.989   6.591
 4488SOL     OW14362   6.432   4.871   3.860
 4488SOL    HW114363   6.474   4.943   3.916
 4488SOL    HW214364   6.347   4.905   3.821
 4489SOL     OW14365   3.296   6.178   6.609
 4489SOL    HW114366   3.352   6.108   6.653
 4489SOL    HW214367   3.205   6.180   6.651
 4490SOL     OW14368   5.475   1.537   1.796
 4490SOL    HW114369   5.407   1.573   1.860
 4490SOL    HW214370   5.434   1.528   1.705
 4491SOL     OW14371   0.144   4.076   2.958
 4491SOL    HW114372   0.108   3.985   2.977
 4491SOL    HW214373   0.134   4.133   3.039
 4492SOL     OW14374   6.096   1.376   2.523
 4492SOL    HW114375   6.142   1.463   2.506
 4492SOL    HW214376   6.019   1.391   2.585
 4493SOL     OW14377   5.272   1.558   6.064
 4493SOL    HW114378   5.355   1.552   6.119
 4493SOL    HW214379   5.275   1.491   5.990
 4494SOL     OW14380   1.668   1.190   2.579
 4494SOL    HW114381   1.662   1.176   2.678
 4494SOL    HW214382   1.736   1.261   2.559
 4495SOL     OW14383   4.492   6.027   0.808
 4495SOL    HW114384   4.549   5.956   0.850
 4495SOL    HW214385   4.530   6.052   0.719
 4496SOL     OW14386   2.433   5.620   6.029
 4496SOL    HW114387   2.517   5.606   5.977
 4496SOL    HW214388   2.357   5.574   5.983
 4497SOL     OW14389   4.226   6.926   5.882
 4497SOL    HW114390   4.192   6.883   5.966
 4497SOL    HW214391   4.179   7.013   5.868
 4498SOL     OW14392   1.546   4.888   4.291
 4498SOL    HW114393   1.634   4.875   4.336
 4498SOL    HW214394   1.501   4.969   4.330
 4499SOL     OW14395   5.931   1.749   2.130
 4499SOL    HW114396   5.964   1.799   2.210
 4499SOL    HW214397   5.857   1.688   2.157
 4500SOL     OW14398   3.470   6.575   6.879
 4500SOL    HW114399   3.437   6.546   6.969
 4500SOL    HW214400   3.392   6.586   6.818
 4501SOL     OW14401   6.402   0.239   2.726
 4501SOL    HW114402   6.357   0.324   2.752
 4501SOL    HW214403   6.450   0.251   2.639
 4502SOL     OW14404   1.395   3.788   6.701
 4502SOL    HW114405   1.335   3.752   6.629
 4502SOL    HW214406   1.409   3.886   6.688
 4503SOL     OW14407   3.842   1.304   2.426
 4503SOL    HW114408   3.933   1.323   2.391
 4503SOL    HW214409   3.779   1.288   2.350
 4504SOL     OW14410   1.405   2.293   3.963
 4504SOL    HW114411   1.425   2.355   3.888
 4504SOL    HW214412   1.306   2.290   3.979
 4505SOL     OW14413   6.383   3.007   3.303
 4505SOL    HW114414   6.444   3.078   3.267
 4505SOL    HW214415   6.295   3.048   3.327
 4506SOL     OW14416   4.137   4.071   0.210
 4506SOL    HW114417   4.049   4.117   0.204
 4506SOL    HW214418   4.208   4.130   0.173
 4507SOL     OW14419   6.026   2.428   3.136
 4507SOL    HW114420   5.970   2.449   3.216
 4507SOL    HW214421   6.085   2.505   3.115
 4508SOL     OW14422   6.300   5.246   0.635
 4508SOL    HW114423   6.360   5.177   0.595
 4508SOL    HW214424   6.234   5.278   0.567
 4509SOL     OW14425   5.091   2.351   2.321
 4509SOL    HW114426   5.081   2.409   2.402
 4509SOL    HW214427   5.041   2.265   2.335
 4510SOL     OW14428   4.624   1.571   4.072
 4510SOL    HW114429   4.719   1.542   4.086
 4510SOL    HW214430   4.563   1.510   4.121
 4511SOL     OW14431   0.435   4.409   6.925
 4511SOL    HW114432   0.407   4.506   6.927
 4511SOL    HW214433   0.357   4.353   6.897
 4512SOL     OW14434   3.196   3.348   5.999
 4512SOL    HW114435   3.189   3.250   5.980
 4512SOL    HW214436   3.283   3.382   5.964
 4513SOL     OW14437   0.403   0.859   1.068
 4513SOL    HW114438   0.478   0.850   1.133
 4513SOL    HW214439   0.427   0.812   0.983
 4514SOL     OW14440   4.426   4.693   6.165
 4514SOL    HW114441   4.396   4.680   6.071
 4514SOL    HW214442   4.357   4.744   6.216
 4515SOL     OW14443   4.529   0.087   6.042
 4515SOL    HW114444   4.568   0.019   5.979
 4515SOL    HW214445   4.431   0.068   6.055
 4516SOL     OW14446   3.550   1.863   5.340
 4516SOL    HW114447   3.524   1.959   5.346
 4516SOL    HW214448   3.560   1.837   5.244
 4517SOL     OW14449   3.607   0.948   4.467
 4517SOL    HW114450   3.592   1.034   4.516
 4517SOL    HW214451   3.544   0.943   4.389
 4518SOL     OW14452   6.804   0.307   0.984
 4518SOL    HW114453   6.863   0.327   0.906
 4518SOL    HW214454   6.709   0.326   0.959
 4519SOL     OW14455   5.176   6.876   6.286
 4519SOL    HW114456   5.264   6.831   6.277
 4519SOL    HW214457   5.150   6.916   6.199
 4520SOL     OW14458   4.524   5.199   5.392
 4520SOL    HW114459   4.484   5.114   5.358
 4520SOL    HW214460   4.498   5.212   5.488
 4521SOL     OW14461   4.676   2.594   4.060
 4521SOL    HW114462   4.722   2.648   4.131
 4521SOL    HW214463   4.720   2.610   3.972
 4522SOL     OW14464   5.630   3.951   3.432
 4522SOL    HW114465   5.708   3.890   3.438
 4522SOL    HW214466   5.546   3.900   3.451
 4523SOL     OW14467   0.157   3.150   6.590
 4523SOL    HW114468   0.208   3.077   6.544
 4523SOL    HW214469   0.205   3.175   6.674
 4524SOL     OW14470   2.175   3.857   1.933
 4524SOL    HW114471   2.075   3.849   1.927
 4524SOL    HW214472   2.199   3.904   2.018
 4525SOL     OW14473   3.626   1.651   5.910
 4525SOL    HW114474   3.621   1.680   6.006
 4525SOL    HW214475   3.698   1.581   5.901
 4526SOL     OW14476   1.714   0.246   5.290
 4526SOL    HW114477   1.784   0.260   5.359
 4526SOL    HW214478   1.733   0.162   5.240
 4527SOL     OW14479   0.962   2.249   2.583
 4527SOL    HW114480   1.062   2.249   2.590
 4527SOL    HW214481   0.935   2.226   2.490
 4528SOL     OW14482   5.246   1.381   4.844
 4528SOL    HW114483   5.235   1.336   4.933
 4528SOL    HW214484   5.270   1.312   4.776
 4529SOL     OW14485   2.003   1.830   3.844
 4529SOL    HW114486   1.909   1.853   3.866
 4529SOL    HW214487   2.057   1.914   3.835
 4530SOL     OW14488   4.124   4.760   6.034
 4530SOL    HW114489   4.123   4.730   6.129
 4530SOL    HW214490   4.203   4.721   5.988
 4531SOL     OW14491   1.639   0.201   4.969
 4531SOL    HW114492   1.699   0.277   4.994
 4531SOL    HW214493   1.693   0.119   4.955
 4532SOL     OW14494   5.603   1.347   2.004
 4532SOL    HW114495   5.681   1.290   1.978
 4532SOL    HW214496   5.564   1.390   1.922
 4533SOL     OW14497   2.823   6.354   1.250
 4533SOL    HW114498   2.838   6.396   1.160
 4533SOL    HW214499   2.861   6.414   1.321
 4534SOL     OW14500   5.612   0.832   4.580
 4534SOL    HW114501   5.533   0.810   4.522
 4534SOL    HW214502   5.684   0.765   4.565
 4535SOL     OW14503   1.231   1.047   0.042
 4535SOL    HW114504   1.168   1.002   7.008
 4535SOL    HW214505   1.252   0.985   0.119
 4536SOL     OW14506   3.861   0.688   5.758
 4536SOL    HW114507   3.881   0.735   5.844
 4536SOL    HW214508   3.828   0.754   5.691
 4537SOL     OW14509   3.127   3.356   3.119
 4537SOL    HW114510   3.109   3.286   3.189
 4537SOL    HW214511   3.057   3.351   3.048
 4538SOL     OW14512   1.404   2.705   0.306
 4538SOL    HW114513   1.427   2.759   0.387
 4538SOL    HW214514   1.359   2.620   0.333
 4539SOL     OW14515   1.179   5.003   4.355
 4539SOL    HW114516   1.211   5.084   4.305
 4539SOL    HW214517   1.084   5.017   4.382
 4540SOL     OW14518   1.778   2.145   0.751
 4540SOL    HW114519   1.732   2.229   0.779
 4540SOL    HW214520   1.710   2.080   0.716
 4541SOL     OW14521   4.063   3.131   0.211
 4541SOL    HW114522   4.153   3.112   0.170
 4541SOL    HW214523   4.075   3.193   0.289
 4542SOL     OW14524   0.087   1.504   0.798
 4542SOL    HW114525   0.089   1.546   0.889
 4542SOL    HW214526   0.009   1.442   0.792
 4543SOL     OW14527   4.479   1.319   1.153
 4543SOL    HW114528   4.401   1.316   1.215
 4543SOL    HW214529   4.469   1.396   1.090
 4544SOL     OW14530   4.971   6.138   0.349
 4544SOL    HW114531   4.946   6.067   0.284
 4544SOL    HW214532   4.889   6.189   0.376
 4545SOL     OW14533   3.035   3.046   5.404
 4545SOL    HW114534   3.017   3.084   5.495
 4545SOL    HW214535   3.002   3.109   5.334
 4546SOL     OW14536   4.859   6.900   6.370
 4546SOL    HW114537   4.875   6.865   6.462
 4546SOL    HW214538   4.922   6.856   6.306
 4547SOL     OW14539   6.652   1.320   0.065
 4547SOL    HW114540   6.745   1.327   0.101
 4547SOL    HW214541   6.626   1.407   0.024
 4548SOL     OW14542   3.095   1.345   2.119
 4548SOL    HW114543   3.141   1.374   2.203
 4548SOL    HW214544   3.122   1.405   2.043
 4549SOL     OW14545   6.325   4.672   3.506
 4549SOL    HW114546   6.311   4.573   3.507
 4549SOL    HW214547   6.239   4.717   3.482
 4550SOL     OW14548   2.465   5.383   6.546
 4550SOL    HW114549   2.414   5.298   6.536
 4550SOL    HW214550   2.466   5.432   6.458
 4551SOL     OW14551   3.550   3.026   6.110
 4551SOL    HW114552   3.584   2.962   6.178
 4551SOL    HW214553   3.451   3.035   6.118
 4552SOL     OW14554   4.959   0.705   0.152
 4552SOL    HW114555   5.003   0.761   0.081
 4552SOL    HW214556   4.940   0.614   0.115
 4553SOL     OW14557   6.891   6.968   0.181
 4553SOL    HW114558   6.920   0.001   0.107
 4553SOL    HW214559   6.807   7.004   0.223
 4554SOL     OW14560   5.577   6.512   2.862
 4554SOL    HW114561   5.654   6.537   2.804
 4554SOL    HW214562   5.573   6.412   2.871
 4555SOL     OW14563   0.690   0.004   2.675
 4555SOL    HW114564   0.785   7.009   2.698
 4555SOL    HW214565   0.630   7.007   2.750
 4556SOL     OW14566   5.045   4.562   4.583
 4556SOL    HW114567   5.042   4.557   4.683
 4556SOL    HW214568   5.121   4.621   4.555
 4557SOL     OW14569   6.991   5.423   4.929
 4557SOL    HW114570   6.905   5.398   4.974
 4557SOL    HW214571   0.039   5.402   4.990
 4558SOL     OW14572   0.860   4.521   4.318
 4558SOL    HW114573   0.917   4.588   4.365
 4558SOL    HW214574   0.778   4.503   4.373
 4559SOL     OW14575   0.409   3.083   4.271
 4559SOL    HW114576   0.436   3.004   4.216
 4559SOL    HW214577   0.310   3.087   4.278
 4560SOL     OW14578   6.324   4.524   3.170
 4560SOL    HW114579   6.412   4.552   3.130
 4560SOL    HW214580   6.340   4.484   3.260
 4561SOL     OW14581   4.818   2.827   4.154
 4561SOL    HW114582   4.856   2.879   4.078
 4561SOL    HW214583   4.761   2.886   4.211
 4562SOL     OW14584   4.795   0.940   0.957
 4562SOL    HW114585   4.725   1.008   0.980
 4562SOL    HW214586   4.879   0.961   1.007
 4563SOL     OW14587   1.015   4.120   1.724
 4563SOL    HW114588   1.109   4.086   1.727
 4563SOL    HW214589   0.958   4.057   1.672
 4564SOL     OW14590   2.162   3.808   2.317
 4564SOL    HW114591   2.131   3.725   2.271
 4564SOL    HW214592   2.161   3.793   2.416
 4565SOL     OW14593   2.217   0.113   5.754
 4565SOL    HW114594   2.290   0.057   5.714
 4565SOL    HW214595   2.212   0.201   5.707
 4566SOL     OW14596   6.843   5.015   3.160
 4566SOL    HW114597   6.930   4.993   3.117
 4566SOL    HW214598   6.795   4.930   3.182
 4567SOL     OW14599   0.308   0.150   0.274
 4567SOL    HW114600   0.239   0.211   0.311
 4567SOL    HW214601   0.268   0.060   0.258
 4568SOL     OW14602   0.750   4.065   3.597
 4568SOL    HW114603   0.800   4.057   3.510
 4568SOL    HW214604   0.665   4.115   3.582
 4569SOL     OW14605   0.822   2.999   3.441
 4569SOL    HW114606   0.749   3.063   3.467
 4569SOL    HW214607   0.818   2.983   3.343
 4570SOL     OW14608   5.191   5.843   0.936
 4570SOL    HW114609   5.152   5.919   0.884
 4570SOL    HW214610   5.249   5.879   1.010
 4571SOL     OW14611   2.086   3.049   5.699
 4571SOL    HW114612   2.144   3.129   5.679
 4571SOL    HW214613   2.057   3.052   5.794
 4572SOL     OW14614   4.396   3.150   1.713
 4572SOL    HW114615   4.392   3.069   1.653
 4572SOL    HW214616   4.463   3.134   1.785
 4573SOL     OW14617   2.017   5.048   0.740
 4573SOL    HW114618   1.968   4.999   0.812
 4573SOL    HW214619   2.094   4.992   0.708
 4574SOL     OW14620   5.167   0.479   1.747
 4574SOL    HW114621   5.167   0.386   1.783
 4574SOL    HW214622   5.125   0.480   1.656
 4575SOL     OW14623   0.037   1.412   5.463
 4575SOL    HW114624   0.125   1.441   5.427
 4575SOL    HW214625   0.014   1.322   5.426
 4576SOL     OW14626   2.895   3.540   0.092
 4576SOL    HW114627   2.907   3.518   7.024
 4576SOL    HW214628   2.868   3.457   0.142
 4577SOL     OW14629   0.591   1.530   1.614
 4577SOL    HW114630   0.630   1.622   1.603
 4577SOL    HW214631   0.501   1.537   1.658
 4578SOL     OW14632   1.336   0.770   2.933
 4578SOL    HW114633   1.264   0.829   2.968
 4578SOL    HW214634   1.417   0.778   2.990
 4579SOL     OW14635   4.462   1.207   2.977
 4579SOL    HW114636   4.456   1.181   2.881
 4579SOL    HW214637   4.532   1.151   3.022
 4580SOL     OW14638   0.748   0.417   1.992
 4580SOL    HW114639   0.786   0.408   1.900
 4580SOL    HW214640   0.708   0.330   2.021
 4581SOL     OW14641   2.851   0.327   1.716
 4581SOL    HW114642   2.894   0.410   1.679
 4581SOL    HW214643   2.769   0.306   1.664
 4582SOL     OW14644   6.093   0.712   4.071
 4582SOL    HW114645   6.070   0.800   4.112
 4582SOL    HW214646   6.071   0.638   4.135
 4583SOL     OW14647   1.900   6.994   0.101
 4583SOL    HW114648   1.856   6.904   0.101
 4583SOL    HW214649   1.967   6.999   0.175
 4584SOL     OW14650   0.122   1.228   4.520
 4584SOL    HW114651   0.156   1.321   4.537
 4584SOL    HW214652   0.161   1.165   4.587
 4585SOL     OW14653   0.945   3.045   3.114
 4585SOL    HW114654   0.898   3.114   3.169
 4585SOL    HW214655   0.895   2.959   3.118
 4586SOL     OW14656   6.952   5.001   5.650
 4586SOL    HW114657   6.883   5.068   5.678
 4586SOL    HW214658   6.968   5.009   5.551
 4587SOL     OW14659   4.445   3.357   6.274
 4587SOL    HW114660   4.380   3.284   6.250
 4587SOL    HW214661   4.479   3.400   6.190
 4588SOL     OW14662   2.806   4.193   6.495
 4588SOL    HW114663   2.745   4.231   6.425
 4588SOL    HW214664   2.756   4.126   6.550
 4589SOL     OW14665   5.327   6.179   2.027
 4589SOL    HW114666   5.259   6.107   2.042
 4589SOL    HW214667   5.418   6.138   2.024
 4590SOL     OW14668   2.611   5.221   1.650
 4590SOL    HW114669   2.608   5.319   1.670
 4590SOL    HW214670   2.706   5.190   1.651
 4591SOL     OW14671   1.996   0.900   4.723
 4591SOL    HW114672   1.934   0.941   4.790
 4591SOL    HW214673   2.069   0.964   4.701
 4592SOL     OW14674   2.893   2.235   3.535
 4592SOL    HW114675   2.987   2.221   3.503
 4592SOL    HW214676   2.882   2.194   3.626
 4593SOL     OW14677   1.553   5.693   4.484
 4593SOL    HW114678   1.628   5.758   4.496
 4593SOL    HW214679   1.564   5.616   4.548
 4594SOL     OW14680   1.252   6.044   3.739
 4594SOL    HW114681   1.249   5.982   3.660
 4594SOL    HW214682   1.332   6.103   3.732
 4595SOL     OW14683   5.957   2.114   6.631
 4595SOL    HW114684   5.923   2.174   6.559
 4595SOL    HW214685   6.044   2.074   6.602
 4596SOL     OW14686   0.643   1.630   2.360
 4596SOL    HW114687   0.725   1.604   2.309
 4596SOL    HW214688   0.669   1.659   2.453
 4597SOL     OW14689   2.117   5.702   0.753
 4597SOL    HW114690   2.141   5.794   0.724
 4597SOL    HW214691   2.056   5.660   0.685
 4598SOL     OW14692   0.492   2.793   0.055
 4598SOL    HW114693   0.444   2.706   0.044
 4598SOL    HW214694   0.432   2.859   0.099
 4599SOL     OW14695   3.043   6.469   2.938
 4599SOL    HW114696   3.126   6.519   2.962
 4599SOL    HW214697   3.065   6.402   2.866
 4600SOL     OW14698   1.177   6.290   6.027
 4600SOL    HW114699   1.193   6.196   6.057
 4600SOL    HW214700   1.163   6.348   6.107
 4601SOL     OW14701   1.359   0.879   5.470
 4601SOL    HW114702   1.324   0.925   5.388
 4601SOL    HW214703   1.396   0.789   5.445
 4602SOL     OW14704   4.225   0.771   6.559
 4602SOL    HW114705   4.305   0.712   6.567
 4602SOL    HW214706   4.208   0.816   6.647
 4603SOL     OW14707   4.057   6.837   1.023
 4603SOL    HW114708   4.104   6.749   1.029
 4603SOL    HW214709   4.016   6.847   0.932
 4604SOL     OW14710   0.978   6.783   3.084
 4604SOL    HW114711   1.024   6.847   3.146
 4604SOL    HW214712   1.032   6.700   3.076
 4605SOL     OW14713   4.462   1.112   1.790
 4605SOL    HW114714   4.472   1.037   1.855
 4605SOL    HW214715   4.372   1.155   1.802
 4606SOL     OW14716   6.809   6.762   4.576
 4606SOL    HW114717   6.882   6.822   4.609
 4606SOL    HW214718   6.723   6.813   4.571
 4607SOL     OW14719   3.094   1.930   1.133
 4607SOL    HW114720   3.148   2.014   1.138
 4607SOL    HW214721   3.114   1.872   1.212
 4608SOL     OW14722   0.515   2.684   5.560
 4608SOL    HW114723   0.483   2.652   5.648
 4608SOL    HW214724   0.530   2.606   5.499
 4609SOL     OW14725   6.241   5.054   5.991
 4609SOL    HW114726   6.219   4.969   6.039
 4609SOL    HW214727   6.156   5.105   5.974
 4610SOL     OW14728   5.221   4.667   6.398
 4610SOL    HW114729   5.201   4.593   6.334
 4610SOL    HW214730   5.259   4.629   6.482
 4611SOL     OW14731   7.006   0.648   6.741
 4611SOL    HW114732   6.982   0.742   6.717
 4611SOL    HW214733   0.014   0.646   6.835
 4612SOL     OW14734   2.465   1.219   2.989
 4612SOL    HW114735   2.429   1.128   2.970
 4612SOL    HW214736   2.485   1.228   3.087
 4613SOL     OW14737   1.396   5.222   3.294
 4613SOL    HW114738   1.471   5.286   3.281
 4613SOL    HW214739   1.326   5.238   3.223
 4614SOL     OW14740   0.355   4.357   3.324
 4614SOL    HW114741   0.417   4.429   3.293
 4614SOL    HW214742   0.268   4.398   3.351
 4615SOL     OW14743   1.313   4.660   0.089
 4615SOL    HW114744   1.309   4.592   0.016
 4615SOL    HW214745   1.399   4.649   0.139
 4616SOL     OW14746   1.193   3.900   6.521
 4616SOL    HW114747   1.284   3.937   6.540
 4616SOL    HW214748   1.127   3.942   6.583
 4617SOL     OW14749   0.211   4.110   4.043
 4617SOL    HW114750   0.239   4.204   4.027
 4617SOL    HW214751   0.112   4.102   4.032
 4618SOL     OW14752   2.315   4.041   5.679
 4618SOL    HW114753   2.346   3.975   5.747
 4618SOL    HW214754   2.369   4.032   5.596
 4619SOL     OW14755   4.540   5.571   6.926
 4619SOL    HW114756   4.533   5.625   6.842
 4619SOL    HW214757   4.600   5.618   6.991
 4620SOL     OW14758   1.357   4.549   1.378
 4620SOL    HW114759   1.385   4.614   1.307
 4620SOL    HW214760   1.258   4.537   1.374
 4621SOL     OW14761   2.667   0.255   2.615
 4621SOL    HW114762   2.683   0.206   2.530
 4621SOL    HW214763   2.619   0.196   2.680
 4622SOL     OW14764   5.931   0.238   0.422
 4622SOL    HW114765   5.892   0.329   0.435
 4622SOL    HW214766   5.990   0.239   0.341
 4623SOL     OW14767   3.050   4.831   2.978
 4623SOL    HW114768   3.011   4.742   2.951
 4623SOL    HW214769   2.990   4.874   3.046
 4624SOL     OW14770   5.192   1.826   0.989
 4624SOL    HW114771   5.235   1.776   0.913
 4624SOL    HW214772   5.125   1.767   1.033
 4625SOL     OW14773   1.057   6.413   1.931
 4625SOL    HW114774   1.048   6.319   1.897
 4625SOL    HW214775   1.141   6.420   1.985
 4626SOL     OW14776   4.185   3.594   1.976
 4626SOL    HW114777   4.253   3.582   1.904
 4626SOL    HW214778   4.165   3.691   1.989
 4627SOL     OW14779   5.986   6.171   4.591
 4627SOL    HW114780   6.030   6.115   4.662
 4627SOL    HW214781   6.055   6.199   4.524
 4628SOL     OW14782   6.754   4.818   2.885
 4628SOL    HW114783   6.679   4.884   2.879
 4628SOL    HW214784   6.831   4.860   2.933
 4629SOL     OW14785   1.155   4.982   0.948
 4629SOL    HW114786   1.176   4.889   0.920
 4629SOL    HW214787   1.212   5.046   0.897
 4630SOL     OW14788   2.011   3.686   1.430
 4630SOL    HW114789   1.924   3.731   1.410
 4630SOL    HW214790   2.005   3.589   1.406
 4631SOL     OW14791   6.493   1.796   2.779
 4631SOL    HW114792   6.433   1.752   2.712
 4631SOL    HW214793   6.505   1.735   2.858
 4632SOL     OW14794   3.243   5.080   3.876
 4632SOL    HW114795   3.320   5.076   3.940
 4632SOL    HW214796   3.184   5.001   3.891
 4633SOL     OW14797   5.421   2.979   3.983
 4633SOL    HW114798   5.463   3.068   3.965
 4633SOL    HW214799   5.469   2.908   3.930
 4634SOL     OW14800   3.584   3.086   5.224
 4634SOL    HW114801   3.671   3.042   5.245
 4634SOL    HW214802   3.514   3.016   5.212
 4635SOL     OW14803   4.146   6.667   2.185
 4635SOL    HW114804   4.131   6.740   2.118
 4635SOL    HW214805   4.242   6.669   2.214
 4636SOL     OW14806   1.549   5.529   6.498
 4636SOL    HW114807   1.460   5.484   6.493
 4636SOL    HW214808   1.546   5.614   6.446
 4637SOL     OW14809   2.038   2.522   3.274
 4637SOL    HW114810   2.036   2.434   3.323
 4637SOL    HW214811   2.115   2.577   3.307
 4638SOL     OW14812   3.923   4.664   0.300
 4638SOL    HW114813   3.877   4.576   0.288
 4638SOL    HW214814   4.016   4.658   0.262
 4639SOL     OW14815   4.127   2.099   1.925
 4639SOL    HW114816   4.034   2.112   1.890
 4639SOL    HW214817   4.141   2.002   1.946
 4640SOL     OW14818   6.810   2.762   1.118
 4640SOL    HW114819   6.803   2.670   1.080
 4640SOL    HW214820   6.906   2.787   1.127
 4641SOL     OW14821   0.956   6.000   4.898
 4641SOL    HW114822   0.989   6.064   4.828
 4641SOL    HW214823   0.857   6.009   4.906
 4642SOL     OW14824   6.150   1.541   5.754
 4642SOL    HW114825   6.200   1.455   5.747
 4642SOL    HW214826   6.089   1.538   5.833
 4643SOL     OW14827   0.722   1.802   6.942
 4643SOL    HW114828   0.669   1.779   7.024
 4643SOL    HW214829   0.668   1.780   6.861
 4644SOL     OW14830   1.243   1.291   1.324
 4644SOL    HW114831   1.241   1.235   1.407
 4644SOL    HW214832   1.159   1.345   1.318
 4645SOL     OW14833   5.713   2.375   5.214
 4645SOL    HW114834   5.660   2.345   5.293
 4645SOL    HW214835   5.719   2.475   5.213
 4646SOL     OW14836   1.338   4.178   2.545
 4646SOL    HW114837   1.386   4.137   2.468
 4646SOL    HW214838   1.385   4.263   2.572
 4647SOL     OW14839   2.147   6.390   2.514
 4647SOL    HW114840   2.113   6.363   2.424
 4647SOL    HW214841   2.188   6.311   2.559
 4648SOL     OW14842   2.532   1.109   4.826
 4648SOL    HW114843   2.587   1.174   4.879
 4648SOL    HW214844   2.534   1.135   4.730
 4649SOL     OW14845   5.070   2.441   0.807
 4649SOL    HW114846   5.119   2.527   0.820
 4649SOL    HW214847   5.027   2.414   0.893
 4650SOL     OW14848   3.912   5.232   0.813
 4650SOL    HW114849   3.902   5.323   0.854
 4650SOL    HW214850   4.005   5.218   0.782
 4651SOL     OW14851   1.275   3.810   6.986
 4651SOL    HW114852   1.223   3.726   7.004
 4651SOL    HW214853   1.279   3.825   6.887
 4652SOL     OW14854   0.014   0.417   5.638
 4652SOL    HW114855   7.023   0.319   5.630
 4652SOL    HW214856   6.957   0.469   5.628
 4653SOL     OW14857   0.120   6.255   0.672
 4653SOL    HW114858   0.102   6.169   0.720
 4653SOL    HW214859   0.093   6.332   0.730
 4654SOL     OW14860   0.429   1.084   5.354
 4654SOL    HW114861   0.412   1.111   5.259
 4654SOL    HW214862   0.524   1.053   5.363
 4655SOL     OW14863   5.436   4.735   2.850
 4655SOL    HW114864   5.418   4.680   2.769
 4655SOL    HW214865   5.461   4.675   2.926
 4656SOL     OW14866   5.893   0.621   1.493
 4656SOL    HW114867   5.912   0.676   1.412
 4656SOL    HW214868   5.796   0.597   1.496
 4657SOL     OW14869   3.687   1.688   2.685
 4657SOL    HW114870   3.711   1.696   2.588
 4657SOL    HW214871   3.762   1.644   2.734
 4658SOL     OW14872   1.038   1.800   0.281
 4658SOL    HW114873   1.036   1.869   0.210
 4658SOL    HW214874   1.111   1.821   0.346
 4659SOL     OW14875   2.436   5.051   0.489
 4659SOL    HW114876   2.522   5.089   0.454
 4659SOL    HW214877   2.368   5.125   0.496
 4660SOL     OW14878   0.430   5.006   4.111
 4660SOL    HW114879   0.428   5.068   4.189
 4660SOL    HW214880   0.511   4.949   4.116
 4661SOL     OW14881   1.214   0.849   5.861
 4661SOL    HW114882   1.208   0.777   5.931
 4661SOL    HW214883   1.294   0.905   5.878
 4662SOL     OW14884   3.021   0.564   5.878
 4662SOL    HW114885   3.090   0.503   5.917
 4662SOL    HW214886   3.036   0.657   5.912
 4663SOL     OW14887   0.893   0.730   1.313
 4663SOL    HW114888   0.962   0.798   1.334
 4663SOL    HW214889   0.933   0.638   1.320
 4664SOL     OW14890   6.010   5.803   5.003
 4664SOL    HW114891   6.012   5.811   5.102
 4664SOL    HW214892   6.040   5.711   4.976
 4665SOL     OW14893   6.784   0.864   2.304
 4665SOL    HW114894   6.862   0.802   2.299
 4665SOL    HW214895   6.813   0.950   2.347
 4666SOL     OW14896   1.724   2.654   5.845
 4666SOL    HW114897   1.809   2.602   5.831
 4666SOL    HW214898   1.646   2.594   5.832
 4667SOL     OW14899   5.979   3.115   1.246
 4667SOL    HW114900   5.922   3.092   1.167
 4667SOL    HW214901   6.075   3.103   1.222
 4668SOL     OW14902   4.803   1.396   5.950
 4668SOL    HW114903   4.771   1.490   5.941
 4668SOL    HW214904   4.754   1.338   5.886
 4669SOL     OW14905   5.694   6.974   6.017
 4669SOL    HW114906   5.618   7.026   6.057
 4669SOL    HW214907   5.772   0.007   6.003
 4670SOL     OW14908   0.424   3.401   6.792
 4670SOL    HW114909   0.458   3.415   6.885
 4670SOL    HW214910   0.353   3.469   6.772
 4671SOL     OW14911   0.088   2.418   2.293
 4671SOL    HW114912   0.059   2.368   2.374
 4671SOL    HW214913   0.124   2.353   2.225
 4672SOL     OW14914   3.245   3.318   0.604
 4672SOL    HW114915   3.177   3.249   0.625
 4672SOL    HW214916   3.337   3.280   0.617
 4673SOL     OW14917   5.440   0.924   0.972
 4673SOL    HW114918   5.353   0.911   0.925
 4673SOL    HW214919   5.515   0.914   0.907
 4674SOL     OW14920   1.343   2.688   1.000
 4674SOL    HW114921   1.267   2.736   1.044
 4674SOL    HW214922   1.319   2.669   0.904
 4675SOL     OW14923   1.762   6.026   0.021
 4675SOL    HW114924   1.695   6.099   0.014
 4675SOL    HW214925   1.845   6.051   7.000
 4676SOL     OW14926   1.004   5.762   4.700
 4676SOL    HW114927   1.048   5.825   4.763
 4676SOL    HW214928   1.001   5.802   4.608
 4677SOL     OW14929   4.218   6.891   6.758
 4677SOL    HW114930   4.284   6.921   6.827
 4677SOL    HW214931   4.149   6.832   6.801
 4678SOL     OW14932   2.733   4.877   0.197
 4678SOL    HW114933   2.636   4.878   0.177
 4678SOL    HW214934   2.781   4.941   0.137
 4679SOL     OW14935   2.166   6.805   5.070
 4679SOL    HW114936   2.252   6.798   5.119
 4679SOL    HW214937   2.171   6.752   4.985
 4680SOL     OW14938   0.609   5.061   6.698
 4680SOL    HW114939   0.576   5.049   6.604
 4680SOL    HW214940   0.537   5.037   6.762
 4681SOL     OW14941   6.655   5.720   5.143
 4681SOL    HW114942   6.605   5.740   5.227
 4681SOL    HW214943   6.740   5.672   5.164
 4682SOL     OW14944   3.273   0.578   1.190
 4682SOL    HW114945   3.175   0.598   1.202
 4682SOL    HW214946   3.321   0.661   1.163
 4683SOL     OW14947   0.181   4.610   3.696
 4683SOL    HW114948   0.093   4.621   3.649
 4683SOL    HW214949   0.210   4.697   3.735
 4684SOL     OW14950   1.873   1.386   4.813
 4684SOL    HW114951   1.777   1.361   4.796
 4684SOL    HW214952   1.909   1.330   4.887
 4685SOL     OW14953   5.001   4.259   4.666
 4685SOL    HW114954   4.990   4.317   4.585
 4685SOL    HW214955   4.910   4.237   4.703
 4686SOL     OW14956   5.044   5.399   6.740
 4686SOL    HW114957   5.055   5.489   6.782
 4686SOL    HW214958   5.011   5.410   6.646
 4687SOL     OW14959   4.798   0.179   4.317
 4687SOL    HW114960   4.830   0.248   4.381
 4687SOL    HW214961   4.775   0.095   4.367
 4688SOL     OW14962   6.671   1.208   0.577
 4688SOL    HW114963   6.677   1.109   0.587
 4688SOL    HW214964   6.578   1.238   0.603
 4689SOL     OW14965   2.027   5.757   4.325
 4689SOL    HW114966   1.939   5.751   4.278
 4689SOL    HW214967   2.012   5.762   4.424
 4690SOL     OW14968   2.251   1.722   1.002
 4690SOL    HW114969   2.263   1.636   1.051
 4690SOL    HW214970   2.156   1.753   1.013
 4691SOL     OW14971   3.536   4.455   0.030
 4691SOL    HW114972   3.479   4.402   6.996
 4691SOL    HW214973   3.600   4.395   0.077
 4692SOL     OW14974   1.143   5.290   3.675
 4692SOL    HW114975   1.207   5.367   3.678
 4692SOL    HW214976   1.182   5.217   3.619
 4693SOL     OW14977   0.876   1.260   2.134
 4693SOL    HW114978   0.884   1.170   2.092
 4693SOL    HW214979   0.925   1.260   2.222
 4694SOL     OW14980   1.269   1.113   5.287
 4694SOL    HW114981   1.245   1.153   5.375
 4694SOL    HW214982   1.340   1.168   5.244
 4695SOL     OW14983   3.295   3.695   2.848
 4695SOL    HW114984   3.218   3.720   2.788
 4695SOL    HW214985   3.272   3.716   2.942
 4696SOL     OW14986   6.811   3.594   0.724
 4696SOL    HW114987   6.763   3.641   0.798
 4696SOL    HW214988   6.846   3.506   0.758
 4697SOL     OW14989   1.049   5.820   6.611
 4697SOL    HW114990   0.952   5.797   6.622
 4697SOL    HW214991   1.105   5.744   6.643
 4698SOL     OW14992   6.323   3.245   1.726
 4698SOL    HW114993   6.296   3.210   1.636
 4698SOL    HW214994   6.257   3.214   1.794
 4699SOL     OW14995   6.964   6.821   3.164
 4699SOL    HW114996   6.997   6.844   3.256
 4699SOL    HW214997   6.865   6.830   3.161
 4700SOL     OW14998   5.086   6.599   6.544
 4700SOL    HW114999   5.181   6.591   6.512
 4700SOL    HW215000   5.073   6.688   6.588
 4701SOL     OW15001   1.854   0.649   6.901
 4701SOL    HW115002   1.917   0.596   6.844
 4701SOL    HW215003   1.791   0.586   6.947
 4702SOL     OW15004   2.796   2.828   0.917
 4702SOL    HW115005   2.765   2.746   0.965
 4702SOL    HW215006   2.896   2.830   0.916
 4703SOL     OW15007   0.912   6.896   1.938
 4703SOL    HW115008   0.828   6.845   1.952
 4703SOL    HW215009   0.908   6.983   1.988
 4704SOL     OW15010   4.833   6.609   6.416
 4704SOL    HW115011   4.862   6.650   6.329
 4704SOL    HW215012   4.912   6.602   6.477
 4705SOL     OW15013   3.784   3.099   4.896
 4705SOL    HW115014   3.790   3.021   4.958
 4705SOL    HW215015   3.844   3.083   4.817
 4706SOL     OW15016   5.514   3.708   6.872
 4706SOL    HW115017   5.536   3.803   6.851
 4706SOL    HW215018   5.461   3.668   6.797
 4707SOL     OW15019   2.630   5.629   0.719
 4707SOL    HW115020   2.687   5.688   0.664
 4707SOL    HW215021   2.638   5.654   0.816
 4708SOL     OW15022   1.852   3.135   2.448
 4708SOL    HW115023   1.754   3.127   2.430
 4708SOL    HW215024   1.872   3.098   2.539
 4709SOL     OW15025   2.928   4.483   0.518
 4709SOL    HW115026   2.886   4.464   0.607
 4709SOL    HW215027   3.011   4.429   0.509
 4710SOL     OW15028   4.804   3.100   1.151
 4710SOL    HW115029   4.712   3.067   1.129
 4710SOL    HW215030   4.801   3.200   1.161
 4711SOL     OW15031   2.519   0.101   3.436
 4711SOL    HW115032   2.500   0.005   3.417
 4711SOL    HW215033   2.524   0.116   3.535
 4712SOL     OW15034   1.511   3.568   6.901
 4712SOL    HW115035   1.429   3.589   6.847
 4712SOL    HW215036   1.560   3.653   6.921
 4713SOL     OW15037   0.723   5.102   0.984
 4713SOL    HW115038   0.776   5.073   0.904
 4713SOL    HW215039   0.633   5.059   0.983
 4714SOL     OW15040   3.968   2.591   1.414
 4714SOL    HW115041   4.000   2.582   1.508
 4714SOL    HW215042   4.001   2.677   1.375
 4715SOL     OW15043   4.922   3.893   5.031
 4715SOL    HW115044   4.868   3.977   5.035
 4715SOL    HW215045   4.867   3.819   4.992
 4716SOL     OW15046   2.625   5.444   6.779
 4716SOL    HW115047   2.714   5.467   6.739
 4716SOL    HW215048   2.567   5.401   6.710
 4717SOL     OW15049   2.418   5.384   4.632
 4717SOL    HW115050   2.441   5.457   4.568
 4717SOL    HW215051   2.402   5.424   4.723
 4718SOL     OW15052   4.755   0.409   0.316
 4718SOL    HW115053   4.717   0.430   0.226
 4718SOL    HW215054   4.816   0.482   0.345
 4719SOL     OW15055   4.266   3.386   1.789
 4719SOL    HW115056   4.232   3.353   1.877
 4719SOL    HW215057   4.305   3.311   1.737
 4720SOL     OW15058   2.787   1.318   3.280
 4720SOL    HW115059   2.786   1.360   3.370
 4720SOL    HW215060   2.698   1.276   3.262
 4721SOL     OW15061   1.615   1.290   1.538
 4721SOL    HW115062   1.702   1.339   1.550
 4721SOL    HW215063   1.630   1.208   1.483
 4722SOL     OW15064   2.926   0.400   2.327
 4722SOL    HW115065   2.946   0.495   2.351
 4722SOL    HW215066   2.999   0.341   2.361
 4723SOL     OW15067   2.997   6.855   5.131
 4723SOL    HW115068   2.942   6.790   5.079
 4723SOL    HW215069   3.041   6.919   5.068
 4724SOL     OW15070   4.431   4.969   0.837
 4724SOL    HW115071   4.498   4.917   0.891
 4724SOL    HW215072   4.387   5.037   0.895
 4725SOL     OW15073   5.922   5.457   2.574
 4725SOL    HW115074   5.846   5.419   2.627
 4725SOL    HW215075   5.907   5.555   2.559
 4726SOL     OW15076   0.492   6.511   4.695
 4726SOL    HW115077   0.435   6.586   4.730
 4726SOL    HW215078   0.468   6.494   4.599
 4727SOL     OW15079   5.660   6.541   1.903
 4727SOL    HW115080   5.614   6.528   1.816
 4727SOL    HW215081   5.663   6.638   1.926
 4728SOL     OW15082   6.291   0.715   6.967
 4728SOL    HW115083   6.276   0.801   6.919
 4728SOL    HW215084   6.331   0.648   6.905
 4729SOL     OW15085   3.504   0.644   0.972
 4729SOL    HW115086   3.423   0.649   0.915
 4729SOL    HW215087   3.498   0.712   1.045
 4730SOL     OW15088   1.777   0.538   5.949
 4730SOL    HW115089   1.866   0.584   5.955
 4730SOL    HW215090   1.791   0.440   5.963
 4731SOL     OW15091   4.630   1.919   6.194
 4731SOL    HW115092   4.609   1.838   6.140
 4731SOL    HW215093   4.720   1.910   6.236
 4732SOL     OW15094   0.404   0.371   0.144
 4732SOL    HW115095   0.388   0.278   0.175
 4732SOL    HW215096   0.496   0.379   0.106
 4733SOL     OW15097   6.136   3.594   3.388
 4733SOL    HW115098   6.060   3.621   3.328
 4733SOL    HW215099   6.111   3.511   3.437
 4734SOL     OW15100   6.423   4.394   5.737
 4734SOL    HW115101   6.473   4.308   5.744
 4734SOL    HW215102   6.328   4.376   5.710
 4735SOL     OW15103   0.338   3.993   3.832
 4735SOL    HW115104   0.394   3.910   3.835
 4735SOL    HW215105   0.339   4.038   3.921
 4736SOL     OW15106   1.792   0.165   2.342
 4736SOL    HW115107   1.725   0.237   2.325
 4736SOL    HW215108   1.791   0.101   2.265
 4737SOL     OW15109   3.674   5.054   2.089
 4737SOL    HW115110   3.674   4.957   2.067
 4737SOL    HW215111   3.640   5.106   2.010
 4738SOL     OW15112   0.785   0.006   2.394
 4738SOL    HW115113   0.744   7.012   2.482
 4738SOL    HW215114   0.804   0.104   2.390
 4739SOL     OW15115   3.702   0.067   1.768
 4739SOL    HW115116   3.763   0.104   1.698
 4739SOL    HW215117   3.720   0.114   1.855
 4740SOL     OW15118   0.576   2.003   4.145
 4740SOL    HW115119   0.570   2.069   4.219
 4740SOL    HW215120   0.515   1.926   4.163
 4741SOL     OW15121   4.049   3.685   2.867
 4741SOL    HW115122   4.031   3.776   2.830
 4741SOL    HW215123   4.108   3.635   2.803
 4742SOL     OW15124   4.877   0.726   1.758
 4742SOL    HW115125   4.820   0.805   1.779
 4742SOL    HW215126   4.912   0.687   1.843
 4743SOL     OW15127   1.300   5.376   1.101
 4743SOL    HW115128   1.362   5.333   1.167
 4743SOL    HW215129   1.316   5.338   1.010
 4744SOL     OW15130   1.508   5.523   1.473
 4744SOL    HW115131   1.561   5.465   1.411
 4744SOL    HW215132   1.501   5.615   1.435
 4745SOL     OW15133   1.662   2.783   0.646
 4745SOL    HW115134   1.752   2.825   0.660
 4745SOL    HW215135   1.602   2.848   0.598
 4746SOL     OW15136   5.276   5.438   4.327
 4746SOL    HW115137   5.269   5.362   4.391
 4746SOL    HW215138   5.342   5.416   4.255
 4747SOL     OW15139   3.643   0.479   0.349
 4747SOL    HW115140   3.734   0.499   0.313
 4747SOL    HW215141   3.574   0.503   0.280
 4748SOL     OW15142   1.855   0.111   2.729
 4748SOL    HW115143   1.950   0.131   2.704
 4748SOL    HW215144   1.844   0.123   2.828
 4749SOL     OW15145   2.586   1.595   0.890
 4749SOL    HW115146   2.523   1.550   0.953
 4749SOL    HW215147   2.549   1.684   0.864
 4750SOL     OW15148   4.899   2.982   6.302
 4750SOL    HW115149   4.822   3.035   6.265
 4750SOL    HW215150   4.984   3.014   6.262
 4751SOL     OW15151   4.961   1.211   2.115
 4751SOL    HW115152   5.029   1.269   2.072
 4751SOL    HW215153   4.871   1.232   2.078
 4752SOL     OW15154   5.535   1.222   6.455
 4752SOL    HW115155   5.553   1.313   6.493
 4752SOL    HW215156   5.589   1.154   6.504
 4753SOL     OW15157   2.764   6.287   5.470
 4753SOL    HW115158   2.800   6.254   5.557
 4753SOL    HW215159   2.704   6.365   5.485
 4754SOL     OW15160   5.181   4.227   6.680
 4754SOL    HW115161   5.152   4.192   6.591
 4754SOL    HW215162   5.195   4.325   6.674
 4755SOL     OW15163   1.085   0.980   1.294
 4755SOL    HW115164   1.172   0.949   1.257
 4755SOL    HW215165   1.090   0.982   1.394
 4756SOL     OW15166   0.017   3.499   5.580
 4756SOL    HW115167   0.036   3.589   5.542
 4756SOL    HW215168   0.101   3.444   5.577
 4757SOL     OW15169   1.922   3.001   0.506
 4757SOL    HW115170   1.965   2.943   0.574
 4757SOL    HW215171   1.963   2.984   0.416
 4758SOL     OW15172   2.037   5.154   2.593
 4758SOL    HW115173   2.043   5.137   2.691
 4758SOL    HW215174   2.060   5.070   2.543
 4759SOL     OW15175   0.783   6.731   2.282
 4759SOL    HW115176   0.742   6.816   2.316
 4759SOL    HW215177   0.712   6.675   2.239
 4760SOL     OW15178   1.742   6.516   1.733
 4760SOL    HW115179   1.782   6.457   1.803
 4760SOL    HW215180   1.767   6.482   1.643
 4761SOL     OW15181   5.036   6.295   1.674
 4761SOL    HW115182   5.097   6.224   1.640
 4761SOL    HW215183   5.088   6.380   1.687
 4762SOL     OW15184   0.930   1.006   2.715
 4762SOL    HW115185   1.024   1.024   2.684
 4762SOL    HW215186   0.896   1.085   2.766
 4763SOL     OW15187   5.754   5.101   1.441
 4763SOL    HW115188   5.685   5.033   1.467
 4763SOL    HW215189   5.772   5.095   1.343
 4764SOL     OW15190   4.647   2.866   6.843
 4764SOL    HW115191   4.688   2.955   6.824
 4764SOL    HW215192   4.718   2.801   6.869
 4765SOL     OW15193   4.084   1.425   5.944
 4765SOL    HW115194   4.081   1.424   5.844
 4765SOL    HW215195   4.179   1.426   5.975
 4766SOL     OW15196   0.755   1.072   4.531
 4766SOL    HW115197   0.825   1.112   4.589
 4766SOL    HW215198   0.693   1.144   4.498
 4767SOL     OW15199   2.254   4.652   3.752
 4767SOL    HW115200   2.213   4.678   3.664
 4767SOL    HW215201   2.189   4.673   3.825
 4768SOL     OW15202   4.569   1.587   6.279
 4768SOL    HW115203   4.558   1.646   6.359
 4768SOL    HW215204   4.533   1.633   6.198
 4769SOL     OW15205   2.416   3.188   1.018
 4769SOL    HW115206   2.366   3.124   1.075
 4769SOL    HW215207   2.498   3.144   0.981
 4770SOL     OW15208   6.719   1.653   3.426
 4770SOL    HW115209   6.742   1.566   3.383
 4770SOL    HW215210   6.781   1.670   3.503
 4771SOL     OW15211   2.645   0.462   4.130
 4771SOL    HW115212   2.637   0.391   4.200
 4771SOL    HW215213   2.729   0.514   4.145
 4772SOL     OW15214   2.672   4.725   3.100
 4772SOL    HW115215   2.641   4.635   3.131
 4772SOL    HW215216   2.662   4.731   3.001
 4773SOL     OW15217   3.066   5.369   4.331
 4773SOL    HW115218   3.070   5.288   4.274
 4773SOL    HW215219   3.101   5.348   4.422
 4774SOL     OW15220   1.091   4.580   0.814
 4774SOL    HW115221   0.992   4.571   0.810
 4774SOL    HW215222   1.132   4.491   0.835
 4775SOL     OW15223   5.991   5.145   4.468
 4775SOL    HW115224   5.892   5.134   4.466
 4775SOL    HW215225   6.017   5.199   4.548
 4776SOL     OW15226   6.603   1.919   5.156
 4776SOL    HW115227   6.698   1.899   5.178
 4776SOL    HW215228   6.596   2.013   5.123
 4777SOL     OW15229   1.278   0.028   3.538
 4777SOL    HW115230   1.263   0.051   3.442
 4777SOL    HW215231   1.368   0.060   3.566
 4778SOL     OW15232   1.892   0.293   0.066
 4778SOL    HW115233   1.816   0.354   0.041
 4778SOL    HW215234   1.871   0.200   0.037
 4779SOL     OW15235   4.840   1.136   4.649
 4779SOL    HW115236   4.768   1.153   4.581
 4779SOL    HW215237   4.817   1.054   4.701
 4780SOL     OW15238   4.951   2.912   4.769
 4780SOL    HW115239   4.951   2.858   4.685
 4780SOL    HW215240   4.988   3.003   4.750
 4781SOL     OW15241   1.990   5.259   2.102
 4781SOL    HW115242   1.929   5.293   2.174
 4781SOL    HW215243   1.940   5.256   2.015
 4782SOL     OW15244   1.319   6.179   3.103
 4782SOL    HW115245   1.222   6.184   3.081
 4782SOL    HW215246   1.373   6.220   3.030
 4783SOL     OW15247   0.798   3.479   6.623
 4783SOL    HW115248   0.766   3.436   6.708
 4783SOL    HW215249   0.724   3.534   6.584
 4784SOL     OW15250   5.619   3.202   0.096
 4784SOL    HW115251   5.527   3.215   0.133
 4784SOL    HW215252   5.631   3.259   0.015
 4785SOL     OW15253   6.840   0.197   3.951
 4785SOL    HW115254   6.913   0.257   3.985
 4785SOL    HW215255   6.822   0.125   4.018
 4786SOL     OW15256   1.108   5.710   0.365
 4786SOL    HW115257   1.061   5.785   0.318
 4786SOL    HW215258   1.205   5.712   0.341
 4787SOL     OW15259   4.650   1.170   5.173
 4787SOL    HW115260   4.708   1.158   5.254
 4787SOL    HW215261   4.644   1.267   5.150
 4788SOL     OW15262   6.945   5.788   0.949
 4788SOL    HW115263   0.013   5.779   0.975
 4788SOL    HW215264   6.936   5.778   0.850
 4789SOL     OW15265   5.820   0.950   2.821
 4789SOL    HW115266   5.737   0.936   2.875
 4789SOL    HW215267   5.893   0.892   2.857
 4790SOL     OW15268   6.925   2.465   5.036
 4790SOL    HW115269   6.986   2.535   5.000
 4790SOL    HW215270   6.832   2.501   5.041
 4791SOL     OW15271   0.671   0.671   6.723
 4791SOL    HW115272   0.590   0.626   6.760
 4791SOL    HW215273   0.741   0.677   6.795
 4792SOL     OW15274   0.474   3.766   1.525
 4792SOL    HW115275   0.423   3.747   1.441
 4792SOL    HW215276   0.481   3.865   1.539
 4793SOL     OW15277   1.254   3.552   5.265
 4793SOL    HW115278   1.325   3.559   5.335
 4793SOL    HW215279   1.284   3.489   5.193
 4794SOL     OW15280   5.188   1.411   6.472
 4794SOL    HW115281   5.124   1.468   6.524
 4794SOL    HW215282   5.139   1.361   6.402
 4795SOL     OW15283   0.086   0.675   6.993
 4795SOL    HW115284   0.027   0.700   0.041
 4795SOL    HW215285   0.156   0.745   6.980
 4796SOL     OW15286   5.919   0.641   5.760
 4796SOL    HW115287   5.922   0.716   5.695
 4796SOL    HW215288   5.833   0.592   5.750
 4797SOL     OW15289   2.422   4.551   5.587
 4797SOL    HW115290   2.359   4.550   5.665
 4797SOL    HW215291   2.424   4.643   5.547
 4798SOL     OW15292   3.013   6.032   0.167
 4798SOL    HW115293   3.107   6.054   0.139
 4798SOL    HW215294   2.950   6.096   0.123
 4799SOL     OW15295   3.706   3.215   1.077
 4799SOL    HW115296   3.672   3.170   0.994
 4799SOL    HW215297   3.652   3.183   1.155
 4800SOL     OW15298   1.011   4.659   0.091
 4800SOL    HW115299   1.104   4.638   0.061
 4800SOL    HW215300   1.013   4.683   0.189
 4801SOL     OW15301   4.679   2.838   3.389
 4801SOL    HW115302   4.590   2.824   3.433
 4801SOL    HW215303   4.707   2.753   3.345
 4802SOL     OW15304   6.803   0.641   5.326
 4802SOL    HW115305   6.876   0.602   5.268
 4802SOL    HW215306   6.784   0.734   5.296
 4803SOL     OW15307   5.303   3.348   5.697
 4803SOL    HW115308   5.357   3.425   5.663
 4803SOL    HW215309   5.360   3.288   5.752
 4804SOL     OW15310   5.503   2.611   0.540
 4804SOL    HW115311   5.562   2.531   0.537
 4804SOL    HW215312   5.559   2.693   0.553
 4805SOL     OW15313   5.650   1.010   6.553
 4805SOL    HW115314   5.580   0.965   6.609
 4805SOL    HW215315   5.738   0.966   6.568
 4806SOL     OW15316   1.061   2.489   3.598
 4806SOL    HW115317   1.020   2.579   3.605
 4806SOL    HW215318   0.992   2.423   3.567
 4807SOL     OW15319   0.878   3.891   0.022
 4807SOL    HW115320   0.863   3.819   0.089
 4807SOL    HW215321   0.974   3.917   0.022
 4808SOL     OW15322   3.578   6.188   2.479
 4808SOL    HW115323   3.557   6.152   2.570
 4808SOL    HW215324   3.493   6.221   2.437
 4809SOL     OW15325   2.796   3.756   0.186
 4809SOL    HW115326   2.700   3.735   0.203
 4809SOL    HW215327   2.839   3.678   0.140
 4810SOL     OW15328   1.981   5.360   4.719
 4810SOL    HW115329   2.028   5.298   4.783
 4810SOL    HW215330   2.011   5.340   4.626
 4811SOL     OW15331   3.444   3.605   4.177
 4811SOL    HW115332   3.490   3.543   4.241
 4811SOL    HW215333   3.347   3.611   4.201
 4812SOL     OW15334   2.845   6.635   1.665
 4812SOL    HW115335   2.843   6.733   1.682
 4812SOL    HW215336   2.914   6.592   1.723
 4813SOL     OW15337   0.952   2.641   4.663
 4813SOL    HW115338   0.955   2.647   4.763
 4813SOL    HW215339   0.919   2.551   4.636
 4814SOL     OW15340   6.071   1.728   0.638
 4814SOL    HW115341   6.042   1.699   0.729
 4814SOL    HW215342   6.106   1.821   0.643
 4815SOL     OW15343   6.719   4.324   2.662
 4815SOL    HW115344   6.725   4.393   2.735
 4815SOL    HW215345   6.783   4.348   2.588
 4816SOL     OW15346   2.425   0.503   2.676
 4816SOL    HW115347   2.405   0.541   2.767
 4816SOL    HW215348   2.451   0.407   2.686
 4817SOL     OW15349   3.503   2.444   0.077
 4817SOL    HW115350   3.574   2.503   0.038
 4817SOL    HW215351   3.539   2.396   0.156
 4818SOL     OW15352   4.905   6.561   4.695
 4818SOL    HW115353   4.943   6.568   4.603
 4818SOL    HW215354   4.932   6.642   4.748
 4819SOL     OW15355   3.626   0.812   0.161
 4819SOL    HW115356   3.600   0.813   0.258
 4819SOL    HW215357   3.647   0.906   0.132
 4820SOL     OW15358   6.863   4.990   1.719
 4820SOL    HW115359   6.831   4.896   1.735
 4820SOL    HW215360   6.790   5.054   1.740
 4821SOL     OW15361   0.113   6.396   1.225
 4821SOL    HW115362   0.151   6.341   1.151
 4821SOL    HW215363   0.014   6.402   1.216
 4822SOL     OW15364   0.519   4.025   1.582
 4822SOL    HW115365   0.579   4.033   1.661
 4822SOL    HW215366   0.503   4.115   1.542
 4823SOL     OW15367   0.056   1.828   3.215
 4823SOL    HW115368   0.030   1.736   3.186
 4823SOL    HW215369   0.148   1.827   3.253
 4824SOL     OW15370   5.789   2.287   2.101
 4824SOL    HW115371   5.709   2.227   2.110
 4824SOL    HW215372   5.824   2.310   2.192
 4825SOL     OW15373   1.473   3.414   4.412
 4825SOL    HW115374   1.544   3.370   4.358
 4825SOL    HW215375   1.438   3.494   4.363
 4826SOL     OW15376   6.934   6.862   0.756
 4826SOL    HW115377   6.916   6.828   0.664
 4826SOL    HW215378   6.916   6.961   0.758
 4827SOL     OW15379   5.001   2.101   0.130
 4827SOL    HW115380   4.910   2.143   0.134
 4827SOL    HW215381   4.992   2.002   0.136
 4828SOL     OW15382   5.654   3.396   6.553
 4828SOL    HW115383   5.561   3.387   6.590
 4828SOL    HW215384   5.720   3.388   6.627
 4829SOL     OW15385   3.205   0.455   5.503
 4829SOL    HW115386   3.212   0.422   5.408
 4829SOL    HW215387   3.111   0.445   5.535
 4830SOL     OW15388   4.736   4.933   5.091
 4830SOL    HW115389   4.829   4.896   5.093
 4830SOL    HW215390   4.720   4.986   5.173
 4831SOL     OW15391   6.405   2.155   6.756
 4831SOL    HW115392   6.505   2.155   6.756
 4831SOL    HW215393   6.372   2.098   6.681
 4832SOL     OW15394   1.247   3.159   6.750
 4832SOL    HW115395   1.174   3.172   6.683
 4832SOL    HW215396   1.211   3.110   6.830
 4833SOL     OW15397   6.265   2.518   3.436
 4833SOL    HW115398   6.224   2.427   3.444
 4833SOL    HW215399   6.203   2.578   3.385
 4834SOL     OW15400   5.696   0.148   3.250
 4834SOL    HW115401   5.757   0.070   3.268
 4834SOL    HW215402   5.610   0.134   3.298
 4835SOL     OW15403   1.982   1.371   6.437
 4835SOL    HW115404   1.952   1.275   6.432
 4835SOL    HW215405   1.920   1.423   6.496
 4836SOL     OW15406   5.897   3.662   2.778
 4836SOL    HW115407   5.949   3.724   2.719
 4836SOL    HW215408   5.930   3.670   2.872
 4837SOL     OW15409   0.681   5.169   1.307
 4837SOL    HW115410   0.630   5.115   1.240
 4837SOL    HW215411   0.779   5.160   1.289
 4838SOL     OW15412   2.650   5.691   2.312
 4838SOL    HW115413   2.575   5.750   2.340
 4838SOL    HW215414   2.712   5.743   2.253
 4839SOL     OW15415   1.168   0.213   6.264
 4839SOL    HW115416   1.131   0.281   6.327
 4839SOL    HW215417   1.222   0.259   6.194
 4840SOL     OW15418   6.690   5.961   5.987
 4840SOL    HW115419   6.605   5.926   6.026
 4840SOL    HW215420   6.687   6.061   5.983
 4841SOL     OW15421   1.834   5.769   1.312
 4841SOL    HW115422   1.923   5.787   1.270
 4841SOL    HW215423   1.836   5.798   1.408
 4842SOL     OW15424   3.252   6.251   0.926
 4842SOL    HW115425   3.319   6.322   0.901
 4842SOL    HW215426   3.208   6.276   1.012
 4843SOL     OW15427   1.527   3.875   0.040
 4843SOL    HW115428   1.524   3.906   0.134
 4843SOL    HW215429   1.434   3.853   0.009
 4844SOL     OW15430   0.792   1.635   5.413
 4844SOL    HW115431   0.725   1.609   5.482
 4844SOL    HW215432   0.800   1.563   5.345
 4845SOL     OW15433   5.317   6.382   3.208
 4845SOL    HW115434   5.284   6.295   3.244
 4845SOL    HW215435   5.240   6.446   3.198
 4846SOL     OW15436   6.937   5.045   6.463
 4846SOL    HW115437   6.838   5.054   6.466
 4846SOL    HW215438   6.961   4.948   6.456
 4847SOL     OW15439   4.865   2.435   4.507
 4847SOL    HW115440   4.825   2.513   4.460
 4847SOL    HW215441   4.814   2.352   4.483
 4848SOL     OW15442   2.817   3.279   1.758
 4848SOL    HW115443   2.784   3.231   1.677
 4848SOL    HW215444   2.842   3.212   1.828
 4849SOL     OW15445   2.080   6.300   6.114
 4849SOL    HW115446   2.041   6.232   6.052
 4849SOL    HW215447   2.155   6.348   6.069
 4850SOL     OW15448   3.467   6.794   2.987
 4850SOL    HW115449   3.476   6.806   2.888
 4850SOL    HW215450   3.507   6.873   3.034
 4851SOL     OW15451   5.111   1.065   5.955
 4851SOL    HW115452   5.163   0.979   5.958
 4851SOL    HW215453   5.092   1.088   5.860
 4852SOL     OW15454   1.952   2.052   1.762
 4852SOL    HW115455   2.037   2.102   1.746
 4852SOL    HW215456   1.876   2.117   1.765
 4853SOL     OW15457   3.648   1.282   2.231
 4853SOL    HW115458   3.692   1.231   2.157
 4853SOL    HW215459   3.606   1.219   2.296
 4854SOL     OW15460   3.955   0.156   5.934
 4854SOL    HW115461   3.929   0.069   5.976
 4854SOL    HW215462   3.891   0.227   5.963
 4855SOL     OW15463   0.277   2.712   2.504
 4855SOL    HW115464   0.198   2.652   2.518
 4855SOL    HW215465   0.251   2.788   2.445
 4856SOL     OW15466   0.242   4.340   2.376
 4856SOL    HW115467   0.305   4.300   2.309
 4856SOL    HW215468   0.253   4.292   2.463
 4857SOL     OW15469   0.250   1.109   5.576
 4857SOL    HW115470   0.226   1.203   5.600
 4857SOL    HW215471   0.328   1.110   5.513
 4858SOL     OW15472   1.661   0.861   3.992
 4858SOL    HW115473   1.630   0.767   3.989
 4858SOL    HW215474   1.749   0.869   3.946
 4859SOL     OW15475   4.021   6.429   6.152
 4859SOL    HW115476   4.105   6.437   6.206
 4859SOL    HW215477   3.943   6.417   6.214
 4860SOL     OW15478   3.607   4.646   0.571
 4860SOL    HW115479   3.630   4.551   0.590
 4860SOL    HW215480   3.667   4.706   0.626
 4861SOL     OW15481   4.007   4.220   6.538
 4861SOL    HW115482   3.981   4.132   6.497
 4861SOL    HW215483   3.953   4.235   6.621
 4862SOL     OW15484   1.759   0.153   0.295
 4862SOL    HW115485   1.714   0.221   0.238
 4862SOL    HW215486   1.808   0.087   0.238
 4863SOL     OW15487   5.218   3.916   6.197
 4863SOL    HW115488   5.123   3.888   6.182
 4863SOL    HW215489   5.277   3.869   6.132
 4864SOL     OW15490   3.243   1.391   4.329
 4864SOL    HW115491   3.214   1.426   4.239
 4864SOL    HW215492   3.179   1.423   4.399
 4865SOL     OW15493   1.453   6.513   5.367
 4865SOL    HW115494   1.437   6.415   5.362
 4865SOL    HW215495   1.444   6.544   5.462
 4866SOL     OW15496   0.164   4.318   5.762
 4866SOL    HW115497   0.157   4.376   5.681
 4866SOL    HW215498   0.077   4.321   5.812
 4867SOL     OW15499   4.020   1.290   3.045
 4867SOL    HW115500   3.937   1.252   3.086
 4867SOL    HW215501   3.995   1.360   2.978
 4868SOL     OW15502   6.950   4.978   0.376
 4868SOL    HW115503   0.012   5.018   0.356
 4868SOL    HW215504   6.879   5.048   0.364
 4869SOL     OW15505   0.140   1.709   0.645
 4869SOL    HW115506   0.207   1.760   0.698
 4869SOL    HW215507   0.121   1.622   0.689
 4870SOL     OW15508   0.359   0.278   1.143
 4870SOL    HW115509   0.413   0.206   1.187
 4870SOL    HW215510   0.264   0.270   1.173
 4871SOL     OW15511   0.528   1.720   3.224
 4871SOL    HW115512   0.589   1.715   3.303
 4871SOL    HW215513   0.533   1.634   3.173
 4872SOL     OW15514   5.398   0.123   3.276
 4872SOL    HW115515   5.416   0.205   3.221
 4872SOL    HW215516   5.416   0.041   3.220
 4873SOL     OW15517   7.004   5.599   3.953
 4873SOL    HW115518   0.063   5.567   3.990
 4873SOL    HW215519   6.973   5.537   3.881
 4874SOL     OW15520   5.507   3.937   2.138
 4874SOL    HW115521   5.588   3.916   2.192
 4874SOL    HW215522   5.481   4.033   2.153
 4875SOL     OW15523   6.063   6.045   4.813
 4875SOL    HW115524   6.119   5.968   4.842
 4875SOL    HW215525   5.970   6.034   4.849
 4876SOL     OW15526   6.798   1.294   2.209
 4876SOL    HW115527   6.754   1.277   2.298
 4876SOL    HW215528   6.830   1.388   2.205
 4877SOL     OW15529   0.162   1.362   6.838
 4877SOL    HW115530   0.109   1.350   6.754
 4877SOL    HW215531   0.138   1.450   6.880
 4878SOL     OW15532   6.086   4.580   3.280
 4878SOL    HW115533   6.164   4.584   3.218
 4878SOL    HW215534   6.104   4.513   3.352
 4879SOL     OW15535   5.245   0.463   3.003
 4879SOL    HW115536   5.252   0.444   3.101
 4879SOL    HW215537   5.211   0.555   2.989
 4880SOL     OW15538   6.984   3.105   6.034
 4880SOL    HW115539   6.899   3.101   5.982
 4880SOL    HW215540   0.029   3.139   5.976
 4881SOL     OW15541   0.467   3.817   1.864
 4881SOL    HW115542   0.541   3.884   1.869
 4881SOL    HW215543   0.414   3.833   1.781
 4882SOL     OW15544   5.185   1.704   4.161
 4882SOL    HW115545   5.230   1.662   4.240
 4882SOL    HW215546   5.219   1.797   4.149
 4883SOL     OW15547   6.147   4.391   0.007
 4883SOL    HW115548   6.158   4.476   6.985
 4883SOL    HW215549   6.158   4.313   6.972
 4884SOL     OW15550   2.230   1.696   1.854
 4884SOL    HW115551   2.266   1.692   1.761
 4884SOL    HW215552   2.281   1.764   1.907
 4885SOL     OW15553   0.789   5.237   6.788
 4885SOL    HW115554   0.841   5.204   6.867
 4885SOL    HW215555   0.726   5.166   6.757
 4886SOL     OW15556   2.903   0.897   2.262
 4886SOL    HW115557   2.874   0.918   2.168
 4886SOL    HW215558   2.836   0.934   2.326
 4887SOL     OW15559   4.554   5.217   0.720
 4887SOL    HW115560   4.514   5.127   0.741
 4887SOL    HW215561   4.482   5.279   0.687
 4888SOL     OW15562   4.573   0.616   2.795
 4888SOL    HW115563   4.619   0.562   2.725
 4888SOL    HW215564   4.624   0.701   2.810
 4889SOL     OW15565   5.759   3.699   4.045
 4889SOL    HW115566   5.844   3.679   3.995
 4889SOL    HW215567   5.691   3.629   4.025
 4890SOL     OW15568   6.487   2.108   4.719
 4890SOL    HW115569   6.551   2.069   4.785
 4890SOL    HW215570   6.511   2.077   4.627
 4891SOL     OW15571   2.333   6.207   0.359
 4891SOL    HW115572   2.327   6.305   0.380
 4891SOL    HW215573   2.400   6.165   0.421
 4892SOL     OW15574   5.630   5.059   2.033
 4892SOL    HW115575   5.673   5.123   1.970
 4892SOL    HW215576   5.681   5.057   2.119
 4893SOL     OW15577   1.456   2.714   1.438
 4893SOL    HW115578   1.525   2.673   1.499
 4893SOL    HW215579   1.365   2.693   1.473
 4894SOL     OW15580   5.038   5.840   0.536
 4894SOL    HW115581   4.951   5.792   0.546
 4894SOL    HW215582   5.025   5.938   0.554
 4895SOL     OW15583   6.683   3.804   5.065
 4895SOL    HW115584   6.592   3.777   5.095
 4895SOL    HW215585   6.684   3.903   5.048
 4896SOL     OW15586   2.859   5.456   4.676
 4896SOL    HW115587   2.797   5.430   4.749
 4896SOL    HW215588   2.935   5.391   4.672
 4897SOL     OW15589   2.227   1.646   5.299
 4897SOL    HW115590   2.286   1.693   5.365
 4897SOL    HW215591   2.279   1.626   5.216
 4898SOL     OW15592   4.107   1.904   4.128
 4898SOL    HW115593   4.085   1.974   4.060
 4898SOL    HW215594   4.056   1.923   4.212
 4899SOL     OW15595   6.523   6.447   1.451
 4899SOL    HW115596   6.524   6.356   1.410
 4899SOL    HW215597   6.471   6.444   1.537
 4900SOL     OW15598   3.720   6.111   5.966
 4900SOL    HW115599   3.709   6.209   5.947
 4900SOL    HW215600   3.794   6.098   6.032
 4901SOL     OW15601   2.243   0.973   6.927
 4901SOL    HW115602   2.221   1.062   6.886
 4901SOL    HW215603   2.159   0.927   6.955
 4902SOL     OW15604   2.948   0.284   5.408
 4902SOL    HW115605   2.924   0.366   5.461
 4902SOL    HW215606   2.867   0.250   5.361
 4903SOL     OW15607   4.847   3.981   2.568
 4903SOL    HW115608   4.811   3.927   2.644
 4903SOL    HW215609   4.945   3.997   2.582
 4904SOL     OW15610   1.867   0.786   2.144
 4904SOL    HW115611   1.895   0.817   2.235
 4904SOL    HW215612   1.940   0.732   2.104
 4905SOL     OW15613   2.738   1.011   2.459
 4905SOL    HW115614   2.737   1.091   2.519
 4905SOL    HW215615   2.647   0.970   2.456
 4906SOL     OW15616   5.183   3.216   5.091
 4906SOL    HW115617   5.256   3.182   5.030
 4906SOL    HW215618   5.154   3.306   5.061
 4907SOL     OW15619   3.319   2.095   0.409
 4907SOL    HW115620   3.284   2.078   0.501
 4907SOL    HW215621   3.299   2.190   0.382
 4908SOL     OW15622   3.224   6.745   6.182
 4908SOL    HW115623   3.252   6.795   6.100
 4908SOL    HW215624   3.304   6.725   6.238
 4909SOL     OW15625   5.154   5.145   4.488
 4909SOL    HW115626   5.148   5.234   4.532
 4909SOL    HW215627   5.065   5.100   4.490
 4910SOL     OW15628   4.218   1.878   0.100
 4910SOL    HW115629   4.142   1.881   0.034
 4910SOL    HW215630   4.184   1.902   0.191
 4911SOL     OW15631   6.514   4.358   3.322
 4911SOL    HW115632   6.589   4.380   3.260
 4911SOL    HW215633   6.456   4.288   3.280
 4912SOL     OW15634   5.891   2.715   3.868
 4912SOL    HW115635   5.923   2.802   3.829
 4912SOL    HW215636   5.961   2.679   3.929
 4913SOL     OW15637   1.046   3.721   5.302
 4913SOL    HW115638   0.966   3.662   5.308
 4913SOL    HW215639   1.126   3.667   5.279
 4914SOL     OW15640   3.745   6.837   3.571
 4914SOL    HW115641   3.733   6.787   3.656
 4914SOL    HW215642   3.742   6.936   3.590
 4915SOL     OW15643   4.124   6.042   5.527
 4915SOL    HW115644   4.044   6.102   5.538
 4915SOL    HW215645   4.150   6.005   5.616
 4916SOL     OW15646   5.351   2.476   3.661
 4916SOL    HW115647   5.343   2.386   3.618
 4916SOL    HW215648   5.274   2.489   3.724
 4917SOL     OW15649   4.153   6.600   6.357
 4917SOL    HW115650   4.073   6.652   6.326
 4917SOL    HW215651   4.201   6.653   6.427
 4918SOL     OW15652   5.510   5.915   3.805
 4918SOL    HW115653   5.505   5.996   3.747
 4918SOL    HW215654   5.563   5.937   3.888
 4919SOL     OW15655   4.057   3.867   1.975
 4919SOL    HW115656   4.122   3.917   1.918
 4919SOL    HW215657   3.968   3.914   1.974
 4920SOL     OW15658   6.142   0.804   6.073
 4920SOL    HW115659   6.049   0.789   6.038
 4920SOL    HW215660   6.165   0.901   6.067
 4921SOL     OW15661   6.943   0.233   2.552
 4921SOL    HW115662   0.003   0.259   2.589
 4921SOL    HW215663   6.888   0.315   2.533
 4922SOL     OW15664   4.245   0.697   6.080
 4922SOL    HW115665   4.162   0.641   6.087
 4922SOL    HW215666   4.239   0.774   6.143
 4923SOL     OW15667   4.127   1.455   1.790
 4923SOL    HW115668   4.031   1.428   1.785
 4923SOL    HW215669   4.137   1.547   1.753
 4924SOL     OW15670   2.618   1.374   5.194
 4924SOL    HW115671   2.540   1.338   5.244
 4924SOL    HW215672   2.702   1.355   5.245
 4925SOL     OW15673   4.575   6.572   3.884
 4925SOL    HW115674   4.625   6.647   3.841
 4925SOL    HW215675   4.618   6.549   3.971
 4926SOL     OW15676   4.945   2.597   1.856
 4926SOL    HW115677   4.855   2.587   1.812
 4926SOL    HW215678   4.942   2.554   1.946
 4927SOL     OW15679   2.328   1.320   0.480
 4927SOL    HW115680   2.312   1.382   0.557
 4927SOL    HW215681   2.244   1.269   0.460
 4928SOL     OW15682   0.337   1.119   1.022
 4928SOL    HW115683   0.356   1.024   1.045
 4928SOL    HW215684   0.238   1.134   1.019
 4929SOL     OW15685   6.719   6.707   4.933
 4929SOL    HW115686   6.806   6.750   4.911
 4929SOL    HW215687   6.709   6.622   4.882
 4930SOL     OW15688   4.112   5.822   2.706
 4930SOL    HW115689   4.086   5.729   2.679
 4930SOL    HW215690   4.050   5.855   2.776
 4931SOL     OW15691   5.888   0.271   1.350
 4931SOL    HW115692   5.984   0.286   1.372
 4931SOL    HW215693   5.865   0.322   1.267
 4932SOL     OW15694   3.533   3.680   3.173
 4932SOL    HW115695   3.492   3.738   3.244
 4932SOL    HW215696   3.579   3.737   3.106
 4933SOL     OW15697   1.917   6.764   4.839
 4933SOL    HW115698   1.909   6.757   4.939
 4933SOL    HW215699   1.829   6.795   4.801
 4934SOL     OW15700   2.789   6.973   2.666
 4934SOL    HW115701   2.851   6.952   2.741
 4934SOL    HW215702   2.700   6.999   2.703
 4935SOL     OW15703   6.166   0.033   5.062
 4935SOL    HW115704   6.148   0.093   5.140
 4935SOL    HW215705   6.081   0.017   5.012
 4936SOL     OW15706   4.249   2.833   0.528
 4936SOL    HW115707   4.243   2.825   0.428
 4936SOL    HW215708   4.186   2.768   0.570
 4937SOL     OW15709   3.779   2.626   5.332
 4937SOL    HW115710   3.683   2.652   5.321
 4937SOL    HW215711   3.836   2.682   5.272
 4938SOL     OW15712   3.227   4.317   6.751
 4938SOL    HW115713   3.285   4.395   6.729
 4938SOL    HW215714   3.216   4.312   6.851
 4939SOL     OW15715   4.445   3.762   6.447
 4939SOL    HW115716   4.440   3.662   6.445
 4939SOL    HW215717   4.390   3.797   6.523
 4940SOL     OW15718   1.703   5.986   3.941
 4940SOL    HW115719   1.648   5.904   3.925
 4940SOL    HW215720   1.725   5.994   4.038
 4941SOL     OW15721   6.024   1.222   1.529
 4941SOL    HW115722   6.042   1.149   1.596
 4941SOL    HW215723   6.093   1.294   1.540
 4942SOL     OW15724   5.448   2.310   5.401
 4942SOL    HW115725   5.427   2.340   5.494
 4942SOL    HW215726   5.391   2.360   5.336
 4943SOL     OW15727   5.699   2.787   1.258
 4943SOL    HW115728   5.711   2.833   1.170
 4943SOL    HW215729   5.665   2.694   1.243
 4944SOL     OW15730   1.975   3.583   2.114
 4944SOL    HW115731   2.061   3.538   2.094
 4944SOL    HW215732   1.905   3.515   2.135
 4945SOL     OW15733   7.007   5.947   4.497
 4945SOL    HW115734   6.984   6.034   4.454
 4945SOL    HW215735   0.020   5.886   4.429
 4946SOL     OW15736   6.732   4.309   2.015
 4946SOL    HW115737   6.792   4.246   2.064
 4946SOL    HW215738   6.637   4.283   2.030
 4947SOL     OW15739   6.126   0.739   0.640
 4947SOL    HW115740   6.065   0.696   0.573
 4947SOL    HW215741   6.148   0.831   0.610
 4948SOL     OW15742   2.330   1.534   2.519
 4948SOL    HW115743   2.232   1.546   2.533
 4948SOL    HW215744   2.345   1.479   2.437
 4949SOL     OW15745   5.230   2.194   5.126
 4949SOL    HW115746   5.310   2.253   5.126
 4949SOL    HW215747   5.147   2.249   5.119
 4950SOL     OW15748   3.273   5.760   4.353
 4950SOL    HW115749   3.192   5.814   4.333
 4950SOL    HW215750   3.266   5.724   4.446
 4951SOL     OW15751   4.339   2.259   3.920
 4951SOL    HW115752   4.424   2.206   3.912
 4951SOL    HW215753   4.353   2.350   3.882
 4952SOL     OW15754   6.695   4.345   4.054
 4952SOL    HW115755   6.627   4.353   3.981
 4952SOL    HW215756   6.755   4.425   4.053
 4953SOL     OW15757   1.119   4.533   2.020
 4953SOL    HW115758   1.189   4.511   2.088
 4953SOL    HW215759   1.158   4.529   1.929
 4954SOL     OW15760   6.675   6.201   6.362
 4954SOL    HW115761   6.598   6.239   6.414
 4954SOL    HW215762   6.761   6.231   6.404
 4955SOL     OW15763   1.680   0.283   1.821
 4955SOL    HW115764   1.699   0.369   1.868
 4955SOL    HW215765   1.680   0.299   1.722
 4956SOL     OW15766   5.736   6.386   3.472
 4956SOL    HW115767   5.823   6.423   3.440
 4956SOL    HW215768   5.677   6.365   3.394
 4957SOL     OW15769   1.208   6.005   4.022
 4957SOL    HW115770   1.230   6.050   3.935
 4957SOL    HW215771   1.233   6.065   4.098
 4958SOL     OW15772   6.654   6.817   6.819
 4958SOL    HW115773   6.743   6.857   6.801
 4958SOL    HW215774   6.597   6.882   6.869
 4959SOL     OW15775   0.548   2.205   0.163
 4959SOL    HW115776   0.509   2.268   0.096
 4959SOL    HW215777   0.646   2.194   0.145
 4960SOL     OW15778   3.101   0.087   5.597
 4960SOL    HW115779   3.022   0.144   5.575
 4960SOL    HW215780   3.146   0.058   5.512
 4961SOL     OW15781   5.058   0.392   5.014
 4961SOL    HW115782   5.112   0.459   5.066
 4961SOL    HW215783   4.964   0.390   5.050
 4962SOL     OW15784   6.625   2.455   2.227
 4962SOL    HW115785   6.595   2.527   2.164
 4962SOL    HW215786   6.545   2.411   2.267
 4963SOL     OW15787   0.489   4.210   1.131
 4963SOL    HW115788   0.496   4.118   1.171
 4963SOL    HW215789   0.394   4.241   1.134
 4964SOL     OW15790   2.871   6.683   2.841
 4964SOL    HW115791   2.900   6.588   2.854
 4964SOL    HW215792   2.873   6.730   2.929
 4965SOL     OW15793   0.020   6.137   5.012
 4965SOL    HW115794   6.991   6.066   5.053
 4965SOL    HW215795   0.114   6.103   5.004
 4966SOL     OW15796   5.170   5.599   5.099
 4966SOL    HW115797   5.172   5.699   5.101
 4966SOL    HW215798   5.262   5.564   5.109
 4967SOL     OW15799   5.654   1.639   6.420
 4967SOL    HW115800   5.628   1.717   6.476
 4967SOL    HW215801   5.691   1.567   6.478
 4968SOL     OW15802   5.174   4.064   6.436
 4968SOL    HW115803   5.260   4.057   6.486
 4968SOL    HW215804   5.182   4.017   6.348
 4969SOL     OW15805   1.592   1.636   1.435
 4969SOL    HW115806   1.689   1.614   1.446
 4969SOL    HW215807   1.549   1.567   1.377
 4970SOL     OW15808   1.887   2.162   5.821
 4970SOL    HW115809   1.940   2.246   5.805
 4970SOL    HW215810   1.872   2.115   5.734
 4971SOL     OW15811   6.312   5.409   3.911
 4971SOL    HW115812   6.319   5.492   3.855
 4971SOL    HW215813   6.217   5.381   3.916
 4972SOL     OW15814   1.867   2.019   4.644
 4972SOL    HW115815   1.804   2.087   4.680
 4972SOL    HW215816   1.959   2.057   4.638
 4973SOL     OW15817   4.918   5.940   3.206
 4973SOL    HW115818   4.867   6.004   3.149
 4973SOL    HW215819   4.856   5.871   3.243
 4974SOL     OW15820   3.700   6.651   6.418
 4974SOL    HW115821   3.680   6.746   6.396
 4974SOL    HW215822   3.707   6.640   6.517
 4975SOL     OW15823   4.123   6.067   0.472
 4975SOL    HW115824   4.175   6.137   0.521
 4975SOL    HW215825   4.186   5.999   0.435
 4976SOL     OW15826   2.140   0.669   4.647
 4976SOL    HW115827   2.087   0.749   4.676
 4976SOL    HW215828   2.207   0.697   4.578
 4977SOL     OW15829   3.471   3.039   1.071
 4977SOL    HW115830   3.445   3.070   0.980
 4977SOL    HW215831   3.519   2.951   1.064
 4978SOL     OW15832   6.691   4.285   6.696
 4978SOL    HW115833   6.623   4.216   6.721
 4978SOL    HW215834   6.772   4.275   6.755
 4979SOL     OW15835   2.451   2.610   3.874
 4979SOL    HW115836   2.390   2.584   3.949
 4979SOL    HW215837   2.470   2.531   3.817
 4980SOL     OW15838   2.313   4.729   3.417
 4980SOL    HW115839   2.373   4.779   3.355
 4980SOL    HW215840   2.278   4.647   3.372
 4981SOL     OW15841   5.515   5.648   5.382
 4981SOL    HW115842   5.464   5.609   5.459
 4981SOL    HW215843   5.613   5.633   5.396
 4982SOL     OW15844   2.233   1.427   6.635
 4982SOL    HW115845   2.142   1.457   6.607
 4982SOL    HW215846   2.269   1.491   6.704
 4983SOL     OW15847   6.923   2.414   4.322
 4983SOL    HW115848   6.976   2.413   4.408
 4983SOL    HW215849   6.963   2.480   4.259
 4984SOL     OW15850   5.142   5.099   3.454
 4984SOL    HW115851   5.140   5.003   3.484
 4984SOL    HW215852   5.131   5.159   3.533
 4985SOL     OW15853   5.906   3.471   2.079
 4985SOL    HW115854   5.917   3.388   2.133
 4985SOL    HW215855   5.852   3.452   1.997
 4986SOL     OW15856   4.409   5.325   3.123
 4986SOL    HW115857   4.316   5.318   3.160
 4986SOL    HW215858   4.407   5.317   3.024
 4987SOL     OW15859   1.203   2.974   0.450
 4987SOL    HW115860   1.152   3.052   0.486
 4987SOL    HW215861   1.194   2.972   0.350
 4988SOL     OW15862   2.214   2.702   5.354
 4988SOL    HW115863   2.130   2.753   5.372
 4988SOL    HW215864   2.262   2.743   5.276
 4989SOL     OW15865   0.056   1.139   0.939
 4989SOL    HW115866   0.036   1.212   1.005
 4989SOL    HW215867   7.008   1.131   0.875
 4990SOL     OW15868   1.350   1.937   7.025
 4990SOL    HW115869   1.251   1.951   7.019
 4990SOL    HW215870   1.390   1.944   6.934
 4991SOL     OW15871   2.853   1.776   5.449
 4991SOL    HW115872   2.937   1.734   5.415
 4991SOL    HW215873   2.873   1.830   5.530
 4992SOL     OW15874   4.060   7.007   4.820
 4992SOL    HW115875   4.008   0.064   4.826
 4992SOL    HW215876   4.145   7.023   4.770
 4993SOL     OW15877   1.379   6.412   4.334
 4993SOL    HW115878   1.292   6.379   4.298
 4993SOL    HW215879   1.362   6.489   4.397
 4994SOL     OW15880   7.005   6.245   3.177
 4994SOL    HW115881   0.038   6.224   3.101
 4994SOL    HW215882   6.943   6.319   3.151
 4995SOL     OW15883   5.859   3.160   5.668
 4995SOL    HW115884   5.924   3.153   5.744
 4995SOL    HW215885   5.810   3.074   5.658
 4996SOL     OW15886   0.679   1.623   3.931
 4996SOL    HW115887   0.619   1.683   3.879
 4996SOL    HW215888   0.624   1.563   3.989
 4997SOL     OW15889   0.175   2.736   4.138
 4997SOL    HW115890   0.272   2.754   4.155
 4997SOL    HW215891   0.162   2.640   4.113
 4998SOL     OW15892   1.270   5.952   5.802
 4998SOL    HW115893   1.215   5.987   5.726
 4998SOL    HW215894   1.253   5.854   5.814
 4999SOL     OW15895   5.740   4.721   0.905
 4999SOL    HW115896   5.724   4.820   0.899
 4999SOL    HW215897   5.675   4.681   0.970
 5000SOL     OW15898   6.210   5.444   4.414
 5000SOL    HW115899   6.111   5.456   4.413
 5000SOL    HW215900   6.241   5.408   4.326
 5001SOL     OW15901   5.001   3.524   5.386
 5001SOL    HW115902   4.955   3.516   5.474
 5001SOL    HW215903   5.045   3.437   5.363
 5002SOL     OW15904   1.413   2.068   2.086
 5002SOL    HW115905   1.384   1.995   2.148
 5002SOL    HW215906   1.370   2.055   1.997
 5003SOL     OW15907   6.805   5.390   4.429
 5003SOL    HW115908   6.764   5.481   4.432
 5003SOL    HW215909   6.742   5.323   4.468
 5004SOL     OW15910   1.626   4.073   6.190
 5004SOL    HW115911   1.713   4.121   6.200
 5004SOL    HW215912   1.634   3.982   6.229
 5005SOL     OW15913   4.885   2.509   0.610
 5005SOL    HW115914   4.956   2.473   0.671
 5005SOL    HW215915   4.808   2.542   0.665
 5006SOL     OW15916   5.114   5.196   2.153
 5006SOL    HW115917   5.085   5.153   2.239
 5006SOL    HW215918   5.213   5.193   2.146
 5007SOL     OW15919   4.448   0.529   5.120
 5007SOL    HW115920   4.424   0.484   5.205
 5007SOL    HW215921   4.372   0.586   5.089
 5008SOL     OW15922   6.294   1.813   3.938
 5008SOL    HW115923   6.262   1.845   3.848
 5008SOL    HW215924   6.368   1.747   3.925
 5009SOL     OW15925   2.600   6.509   1.716
 5009SOL    HW115926   2.698   6.524   1.727
 5009SOL    HW215927   2.552   6.544   1.796
 5010SOL     OW15928   3.353   3.710   6.103
 5010SOL    HW115929   3.268   3.687   6.151
 5010SOL    HW215930   3.423   3.734   6.171
 5011SOL     OW15931   1.441   1.478   3.779
 5011SOL    HW115932   1.453   1.383   3.808
 5011SOL    HW215933   1.531   1.518   3.759
 5012SOL     OW15934   6.243   3.069   0.099
 5012SOL    HW115935   6.257   3.134   0.024
 5012SOL    HW215936   6.207   2.983   0.062
 5013SOL     OW15937   4.903   1.640   5.534
 5013SOL    HW115938   4.892   1.575   5.459
 5013SOL    HW215939   4.978   1.702   5.514
 5014SOL     OW15940   6.909   4.920   6.875
 5014SOL    HW115941   6.830   4.873   6.836
 5014SOL    HW215942   6.880   4.976   6.953
 5015SOL     OW15943   4.835   1.713   3.796
 5015SOL    HW115944   4.897   1.680   3.868
 5015SOL    HW215945   4.759   1.762   3.838
 5016SOL     OW15946   2.752   6.018   1.574
 5016SOL    HW115947   2.701   6.043   1.656
 5016SOL    HW215948   2.728   5.925   1.547
 5017SOL     OW15949   0.940   1.851   1.707
 5017SOL    HW115950   0.937   1.939   1.660
 5017SOL    HW215951   0.919   1.864   1.804
 5018SOL     OW15952   6.419   5.112   4.221
 5018SOL    HW115953   6.349   5.072   4.280
 5018SOL    HW215954   6.416   5.212   4.228
 5019SOL     OW15955   3.113   5.744   5.100
 5019SOL    HW115956   3.189   5.679   5.099
 5019SOL    HW215957   3.124   5.809   5.025
 5020SOL     OW15958   4.510   4.773   0.196
 5020SOL    HW115959   4.535   4.830   0.275
 5020SOL    HW215960   4.513   4.677   0.223
 5021SOL     OW15961   1.672   4.738   5.871
 5021SOL    HW115962   1.679   4.810   5.802
 5021SOL    HW215963   1.763   4.713   5.903
 5022SOL     OW15964   1.853   4.161   0.058
 5022SOL    HW115965   1.883   4.256   0.060
 5022SOL    HW215966   1.867   4.119   0.147
 5023SOL     OW15967   6.960   2.732   4.691
 5023SOL    HW115968   0.012   2.673   4.694
 5023SOL    HW215969   6.926   2.738   4.598
 5024SOL     OW15970   4.769   3.790   5.262
 5024SOL    HW115971   4.762   3.778   5.361
 5024SOL    HW215972   4.677   3.791   5.222
 5025SOL     OW15973   5.860   0.673   4.540
 5025SOL    HW115974   5.904   0.607   4.601
 5025SOL    HW215975   5.929   0.729   4.496
 5026SOL     OW15976   0.837   5.513   3.042
 5026SOL    HW115977   0.767   5.553   3.101
 5026SOL    HW215978   0.857   5.576   2.967
 5027SOL     OW15979   1.266   5.555   3.288
 5027SOL    HW115980   1.249   5.519   3.380
 5027SOL    HW215981   1.254   5.481   3.221
 5028SOL     OW15982   1.072   6.175   3.011
 5028SOL    HW115983   1.026   6.239   2.948
 5028SOL    HW215984   1.017   6.166   3.094
 5029SOL     OW15985   5.741   0.654   4.155
 5029SOL    HW115986   5.829   0.620   4.190
 5029SOL    HW215987   5.699   0.584   4.096
 5030SOL     OW15988   1.412   6.292   0.286
 5030SOL    HW115989   1.380   6.207   0.327
 5030SOL    HW215990   1.405   6.285   0.186
 5031SOL     OW15991   5.494   0.342   6.636
 5031SOL    HW115992   5.451   0.424   6.598
 5031SOL    HW215993   5.573   0.368   6.692
 5032SOL     OW15994   1.385   5.361   2.436
 5032SOL    HW115995   1.394   5.402   2.345
 5032SOL    HW215996   1.465   5.385   2.492
 5033SOL     OW15997   0.463   4.681   4.629
 5033SOL    HW115998   0.366   4.697   4.613
 5033SOL    HW215999   0.485   4.706   4.724
 5034SOL     OW16000   0.583   3.356   6.298
 5034SOL    HW116001   0.565   3.344   6.396
 5034SOL    HW216002   0.501   3.392   6.253
 5035SOL     OW16003   6.785   3.974   1.446
 5035SOL    HW116004   6.771   3.918   1.365
 5035SOL    HW216005   6.763   4.069   1.426
 5036SOL     OW16006   1.149   1.784   2.970
 5036SOL    HW116007   1.181   1.867   2.924
 5036SOL    HW216008   1.178   1.786   3.065
 5037SOL     OW16009   5.023   4.528   1.983
 5037SOL    HW116010   4.964   4.454   1.953
 5037SOL    HW216011   5.083   4.556   1.908
 5038SOL     OW16012   3.217   5.645   5.850
 5038SOL    HW116013   3.259   5.677   5.765
 5038SOL    HW216014   3.145   5.579   5.829
 5039SOL     OW16015   1.201   2.480   3.831
 5039SOL    HW116016   1.151   2.477   3.745
 5039SOL    HW216017   1.299   2.491   3.812
 5040SOL     OW16018   2.896   3.470   5.885
 5040SOL    HW116019   2.925   3.414   5.807
 5040SOL    HW216020   2.825   3.421   5.935
 5041SOL     OW16021   6.901   5.590   0.545
 5041SOL    HW116022   6.852   5.538   0.475
 5041SOL    HW216023   6.989   5.621   0.508
 5042SOL     OW16024   5.678   1.715   6.060
 5042SOL    HW116025   5.745   1.698   6.132
 5042SOL    HW216026   5.610   1.642   6.059
 5043SOL     OW16027   5.435   5.961   3.483
 5043SOL    HW116028   5.350   5.982   3.532
 5043SOL    HW216029   5.448   5.862   3.478
 5044SOL     OW16030   6.283   3.866   1.914
 5044SOL    HW116031   6.231   3.834   1.835
 5044SOL    HW216032   6.379   3.876   1.888
 5045SOL     OW16033   5.293   2.907   5.403
 5045SOL    HW116034   5.255   2.856   5.326
 5045SOL    HW216035   5.387   2.934   5.382
 5046SOL     OW16036   4.300   2.882   5.872
 5046SOL    HW116037   4.241   2.820   5.819
 5046SOL    HW216038   4.395   2.866   5.848
 5047SOL     OW16039   0.529   2.044   2.460
 5047SOL    HW116040   0.489   2.106   2.528
 5047SOL    HW216041   0.459   1.981   2.427
 5048SOL     OW16042   6.134   3.480   0.936
 5048SOL    HW116043   6.118   3.556   0.873
 5048SOL    HW216044   6.067   3.408   0.920
 5049SOL     OW16045   0.608   1.046   1.745
 5049SOL    HW116046   0.599   0.964   1.802
 5049SOL    HW216047   0.518   1.090   1.736
 5050SOL     OW16048   1.801   4.717   0.627
 5050SOL    HW116049   1.871   4.648   0.608
 5050SOL    HW216050   1.750   4.736   0.543
 5051SOL     OW16051   2.310   3.955   6.190
 5051SOL    HW116052   2.246   3.885   6.160
 5051SOL    HW216053   2.395   3.948   6.137
 5052SOL     OW16054   6.194   2.574   0.971
 5052SOL    HW116055   6.227   2.540   1.059
 5052SOL    HW216056   6.263   2.633   0.930
 5053SOL     OW16057   1.300   4.049   1.477
 5053SOL    HW116058   1.295   4.085   1.570
 5053SOL    HW216059   1.388   4.004   1.464
 5054SOL     OW16060   4.099   5.982   5.256
 5054SOL    HW116061   4.095   5.990   5.355
 5054SOL    HW216062   4.114   6.073   5.216
 5055SOL     OW16063   0.385   0.409   3.415
 5055SOL    HW116064   0.444   0.452   3.483
 5055SOL    HW216065   0.400   0.452   3.326
 5056SOL     OW16066   3.274   1.938   6.026
 5056SOL    HW116067   3.253   2.035   6.039
 5056SOL    HW216068   3.225   1.884   6.095
 5057SOL     OW16069   0.326   4.198   2.609
 5057SOL    HW116070   0.319   4.106   2.646
 5057SOL    HW216071   0.286   4.263   2.674
 5058SOL     OW16072   4.096   1.897   0.370
 5058SOL    HW116073   4.022   1.832   0.388
 5058SOL    HW216074   4.058   1.989   0.358
 5059SOL     OW16075   5.821   2.365   2.374
 5059SOL    HW116076   5.877   2.436   2.331
 5059SOL    HW216077   5.809   2.386   2.471
 5060SOL     OW16078   6.196   2.964   5.436
 5060SOL    HW116079   6.201   3.064   5.432
 5060SOL    HW216080   6.288   2.926   5.440
 5061SOL     OW16081   3.951   2.567   5.548
 5061SOL    HW116082   3.881   2.616   5.496
 5061SOL    HW216083   3.911   2.531   5.632
 5062SOL     OW16084   5.421   0.952   3.179
 5062SOL    HW116085   5.496   0.895   3.213
 5062SOL    HW216086   5.356   0.970   3.254
 5063SOL     OW16087   0.573   1.778   1.271
 5063SOL    HW116088   0.572   1.765   1.172
 5063SOL    HW216089   0.644   1.720   1.311
 5064SOL     OW16090   6.133   4.830   0.974
 5064SOL    HW116091   6.159   4.797   0.883
 5064SOL    HW216092   6.197   4.901   1.003
 5065SOL     OW16093   2.091   2.032   2.878
 5065SOL    HW116094   2.080   1.948   2.932
 5065SOL    HW216095   2.118   2.107   2.938
 5066SOL     OW16096   1.382   5.140   3.913
 5066SOL    HW116097   1.423   5.157   3.823
 5066SOL    HW216098   1.282   5.138   3.904
 5067SOL     OW16099   5.173   2.719   0.879
 5067SOL    HW116100   5.224   2.775   0.815
 5067SOL    HW216101   5.191   2.751   0.973
 5068SOL     OW16102   1.552   0.185   1.281
 5068SOL    HW116103   1.549   0.243   1.362
 5068SOL    HW216104   1.645   0.152   1.267
 5069SOL     OW16105   4.240   4.327   5.967
 5069SOL    HW116106   4.183   4.393   6.017
 5069SOL    HW216107   4.198   4.236   5.973
 5070SOL     OW16108   0.087   3.708   6.158
 5070SOL    HW116109   0.129   3.727   6.247
 5070SOL    HW216110   0.002   3.760   6.150
 5071SOL     OW16111   2.204   6.704   2.280
 5071SOL    HW116112   2.263   6.683   2.358
 5071SOL    HW216113   2.163   6.794   2.292
 5072SOL     OW16114   0.918   1.835   2.443
 5072SOL    HW116115   0.833   1.844   2.495
 5072SOL    HW216116   0.994   1.817   2.506
 5073SOL     OW16117   1.784   1.293   3.506
 5073SOL    HW116118   1.773   1.392   3.493
 5073SOL    HW216119   1.800   1.249   3.418
 5074SOL     OW16120   3.866   1.757   0.968
 5074SOL    HW116121   3.888   1.749   0.871
 5074SOL    HW216122   3.812   1.839   0.984
 5075SOL     OW16123   6.207   2.120   0.392
 5075SOL    HW116124   6.240   2.214   0.387
 5075SOL    HW216125   6.182   2.098   0.486
 5076SOL     OW16126   6.967   1.077   5.896
 5076SOL    HW116127   0.031   1.050   5.867
 5076SOL    HW216128   6.953   1.174   5.878
 5077SOL     OW16129   0.035   4.590   4.158
 5077SOL    HW116130   0.076   4.619   4.071
 5077SOL    HW216131   0.085   4.511   4.194
 5078SOL     OW16132   6.017   2.271   2.920
 5078SOL    HW116133   5.974   2.183   2.943
 5078SOL    HW216134   6.023   2.327   3.002
 5079SOL     OW16135   1.893   4.067   5.343
 5079SOL    HW116136   1.986   4.081   5.308
 5079SOL    HW216137   1.852   3.988   5.297
 5080SOL     OW16138   6.550   5.565   0.088
 5080SOL    HW116139   6.545   5.481   0.142
 5080SOL    HW216140   6.521   5.547   7.023
 5081SOL     OW16141   3.063   4.614   5.458
 5081SOL    HW116142   3.107   4.531   5.423
 5081SOL    HW216143   3.071   4.687   5.390
 5082SOL     OW16144   6.192   0.063   2.617
 5082SOL    HW116145   6.157   0.142   2.566
 5082SOL    HW216146   6.248   0.095   2.694
 5083SOL     OW16147   0.689   7.027   3.549
 5083SOL    HW116148   0.742   0.041   3.475
 5083SOL    HW216149   0.607   0.052   3.567
 5084SOL     OW16150   3.347   5.317   5.573
 5084SOL    HW116151   3.353   5.266   5.487
 5084SOL    HW216152   3.427   5.376   5.582
 5085SOL     OW16153   6.983   4.208   5.170
 5085SOL    HW116154   0.030   4.151   5.138
 5085SOL    HW216155   6.932   4.159   5.241
 5086SOL     OW16156   1.331   4.519   2.241
 5086SOL    HW116157   1.391   4.504   2.319
 5086SOL    HW216158   1.383   4.556   2.164
 5087SOL     OW16159   7.019   5.963   1.627
 5087SOL    HW116160   0.014   6.051   1.585
 5087SOL    HW216161   6.950   5.916   1.572
 5088SOL     OW16162   4.420   4.852   2.070
 5088SOL    HW116163   4.440   4.754   2.065
 5088SOL    HW216164   4.505   4.903   2.060
 5089SOL     OW16165   5.006   6.415   5.457
 5089SOL    HW116166   5.092   6.459   5.484
 5089SOL    HW216167   4.977   6.353   5.530
 5090SOL     OW16168   2.264   6.811   4.179
 5090SOL    HW116169   2.194   6.831   4.111
 5090SOL    HW216170   2.227   6.746   4.246
 5091SOL     OW16171   6.092   5.976   5.964
 5091SOL    HW116172   6.054   5.920   5.890
 5091SOL    HW216173   6.192   5.976   5.957
 5092SOL     OW16174   3.677   2.952   4.344
 5092SOL    HW116175   3.625   2.967   4.260
 5092SOL    HW216176   3.634   2.880   4.398
 5093SOL     OW16177   3.320   2.072   3.308
 5093SOL    HW116178   3.412   2.104   3.330
 5093SOL    HW216179   3.316   2.045   3.212
 5094SOL     OW16180   2.103   5.630   5.043
 5094SOL    HW116181   2.098   5.593   5.136
 5094SOL    HW216182   2.036   5.584   4.985
 5095SOL     OW16183   5.965   1.856   3.379
 5095SOL    HW116184   6.059   1.827   3.365
 5095SOL    HW216185   5.904   1.800   3.323
 5096SOL     OW16186   6.001   3.001   5.842
 5096SOL    HW116187   6.080   2.958   5.884
 5096SOL    HW216188   5.985   2.960   5.752
 5097SOL     OW16189   0.893   1.213   5.779
 5097SOL    HW116190   0.795   1.201   5.792
 5097SOL    HW216191   0.943   1.156   5.844
 5098SOL     OW16192   3.108   2.220   1.202
 5098SOL    HW116193   3.017   2.197   1.237
 5098SOL    HW216194   3.105   2.224   1.102
 5099SOL     OW16195   2.197   5.746   2.474
 5099SOL    HW116196   2.221   5.719   2.567
 5099SOL    HW216197   2.275   5.791   2.431
 5100SOL     OW16198   5.843   3.607   1.604
 5100SOL    HW116199   5.828   3.681   1.669
 5100SOL    HW216200   5.931   3.563   1.623
 5101SOL     OW16201   3.084   1.377   5.187
 5101SOL    HW116202   3.172   1.367   5.234
 5101SOL    HW216203   3.090   1.455   5.124
 5102SOL     OW16204   5.576   4.136   5.521
 5102SOL    HW116205   5.665   4.093   5.513
 5102SOL    HW216206   5.585   4.235   5.507
 5103SOL     OW16207   0.690   0.379   6.074
 5103SOL    HW116208   0.591   0.393   6.078
 5103SOL    HW216209   0.711   0.284   6.094
 5104SOL     OW16210   3.993   3.581   3.758
 5104SOL    HW116211   4.059   3.506   3.751
 5104SOL    HW216212   3.907   3.553   3.715
 5105SOL     OW16213   4.319   3.186   6.947
 5105SOL    HW116214   4.401   3.165   7.000
 5105SOL    HW216215   4.290   3.106   6.896
 5106SOL     OW16216   3.819   1.336   1.437
 5106SOL    HW116217   3.871   1.407   1.484
 5106SOL    HW216218   3.818   1.354   1.339
 5107SOL     OW16219   6.295   5.256   6.848
 5107SOL    HW116220   6.291   5.156   6.846
 5107SOL    HW216221   6.210   5.291   6.888
 5108SOL     OW16222   4.034   4.313   0.913
 5108SOL    HW116223   4.101   4.240   0.899
 5108SOL    HW216224   4.034   4.339   1.009
 5109SOL     OW16225   2.173   2.463   2.397
 5109SOL    HW116226   2.202   2.367   2.394
 5109SOL    HW216227   2.177   2.502   2.305
 5110SOL     OW16228   3.744   6.262   4.475
 5110SOL    HW116229   3.832   6.234   4.436
 5110SOL    HW216230   3.693   6.314   4.406
 5111SOL     OW16231   2.122   4.950   5.453
 5111SOL    HW116232   2.051   5.013   5.485
 5111SOL    HW216233   2.181   4.925   5.529
 5112SOL     OW16234   1.113   4.577   2.423
 5112SOL    HW116235   1.091   4.503   2.486
 5112SOL    HW216236   1.171   4.542   2.349
 5113SOL     OW16237   2.287   3.971   0.694
 5113SOL    HW116238   2.263   3.974   0.792
 5113SOL    HW216239   2.222   3.913   0.646
 5114SOL     OW16240   4.769   4.694   1.782
 5114SOL    HW116241   4.702   4.630   1.820
 5114SOL    HW216242   4.794   4.762   1.851
 5115SOL     OW16243   1.155   4.757   0.409
 5115SOL    HW116244   1.223   4.774   0.480
 5115SOL    HW216245   1.148   4.837   0.350
 5116SOL     OW16246   0.352   6.502   5.675
 5116SOL    HW116247   0.279   6.570   5.680
 5116SOL    HW216248   0.313   6.411   5.689
 5117SOL     OW16249   7.005   3.456   3.609
 5117SOL    HW116250   7.014   3.411   3.519
 5117SOL    HW216251   6.998   3.554   3.597
 5118SOL     OW16252   4.176   5.042   6.867
 5118SOL    HW116253   4.115   4.982   6.920
 5118SOL    HW216254   4.243   5.083   6.928
 5119SOL     OW16255   5.361   1.676   0.832
 5119SOL    HW116256   5.451   1.713   0.852
 5119SOL    HW216257   5.358   1.646   0.736
 5120SOL     OW16258   5.928   6.565   5.935
 5120SOL    HW116259   5.943   6.548   6.032
 5120SOL    HW216260   5.843   6.520   5.906
 5121SOL     OW16261   1.351   3.325   0.438
 5121SOL    HW116262   1.352   3.419   0.473
 5121SOL    HW216263   1.320   3.263   0.509
 5122SOL     OW16264   4.833   4.924   3.495
 5122SOL    HW116265   4.826   5.020   3.467
 5122SOL    HW216266   4.761   4.904   3.562
 5123SOL     OW16267   5.056   2.477   1.127
 5123SOL    HW116268   5.037   2.392   1.176
 5123SOL    HW216269   5.132   2.524   1.171
 5124SOL     OW16270   0.371   5.865   4.447
 5124SOL    HW116271   0.338   5.895   4.536
 5124SOL    HW216272   0.307   5.800   4.407
 5125SOL     OW16273   5.599   2.288   3.850
 5125SOL    HW116274   5.514   2.329   3.819
 5125SOL    HW216275   5.673   2.354   3.842
 5126SOL     OW16276   1.890   1.330   1.548
 5126SOL    HW116277   1.973   1.378   1.578
 5126SOL    HW216278   1.881   1.244   1.599
 5127SOL     OW16279   1.698   6.708   6.914
 5127SOL    HW116280   1.633   6.772   6.955
 5127SOL    HW216281   1.672   6.614   6.937
 5128SOL     OW16282   4.273   6.810   1.176
 5128SOL    HW116283   4.346   6.847   1.119
 5128SOL    HW216284   4.186   6.819   1.127
 5129SOL     OW16285   6.106   5.729   0.351
 5129SOL    HW116286   6.065   5.659   0.293
 5129SOL    HW216287   6.038   5.761   0.417
 5130SOL     OW16288   6.395   5.503   1.982
 5130SOL    HW116289   6.381   5.582   1.923
 5130SOL    HW216290   6.440   5.533   2.067
 5131SOL     OW16291   2.710   2.326   2.430
 5131SOL    HW116292   2.638   2.281   2.377
 5131SOL    HW216293   2.775   2.369   2.368
 5132SOL     OW16294   2.163   6.236   5.501
 5132SOL    HW116295   2.082   6.190   5.539
 5132SOL    HW216296   2.202   6.180   5.428
 5133SOL     OW16297   3.672   6.593   4.677
 5133SOL    HW116298   3.771   6.601   4.693
 5133SOL    HW216299   3.655   6.514   4.618
 5134SOL     OW16300   0.073   3.379   6.476
 5134SOL    HW116301   7.002   3.372   6.465
 5134SOL    HW216302   0.108   3.295   6.517
 5135SOL     OW16303   6.846   1.796   4.204
 5135SOL    HW116304   6.748   1.817   4.202
 5135SOL    HW216305   6.888   1.841   4.282
 5136SOL     OW16306   3.367   1.869   6.430
 5136SOL    HW116307   3.344   1.852   6.334
 5136SOL    HW216308   3.360   1.782   6.481
 5137SOL     OW16309   3.826   3.421   6.959
 5137SOL    HW116310   3.735   3.381   6.962
 5137SOL    HW216311   3.841   3.464   6.870
 5138SOL     OW16312   2.348   3.137   5.992
 5138SOL    HW116313   2.389   3.146   5.901
 5138SOL    HW216314   2.406   3.182   6.060
 5139SOL     OW16315   0.719   6.456   4.015
 5139SOL    HW116316   0.621   6.438   4.007
 5139SOL    HW216317   0.744   6.529   3.952
 5140SOL     OW16318   3.162   2.990   1.913
 5140SOL    HW116319   3.212   3.031   1.837
 5140SOL    HW216320   3.137   2.896   1.889
 5141SOL     OW16321   1.074   3.852   5.530
 5141SOL    HW116322   1.121   3.940   5.525
 5141SOL    HW216323   1.059   3.817   5.438
 5142SOL     OW16324   5.725   3.308   1.918
 5142SOL    HW116325   5.702   3.211   1.906
 5142SOL    HW216326   5.643   3.364   1.909
 5143SOL     OW16327   6.701   4.793   5.639
 5143SOL    HW116328   6.662   4.802   5.731
 5143SOL    HW216329   6.791   4.836   5.636
 5144SOL     OW16330   1.813   1.709   5.198
 5144SOL    HW116331   1.787   1.649   5.122
 5144SOL    HW216332   1.868   1.657   5.264
 5145SOL     OW16333   3.934   5.764   5.825
 5145SOL    HW116334   3.943   5.676   5.779
 5145SOL    HW216335   3.868   5.756   5.900
 5146SOL     OW16336   3.147   4.617   1.080
 5146SOL    HW116337   3.141   4.668   0.994
 5146SOL    HW216338   3.056   4.587   1.108
 5147SOL     OW16339   0.111   5.316   6.548
 5147SOL    HW116340   0.210   5.308   6.534
 5147SOL    HW216341   0.079   5.243   6.607
 5148SOL     OW16342   0.195   0.676   1.692
 5148SOL    HW116343   0.223   0.603   1.630
 5148SOL    HW216344   0.276   0.714   1.737
 5149SOL     OW16345   6.661   0.245   5.928
 5149SOL    HW116346   6.690   0.334   5.964
 5149SOL    HW216347   6.677   0.174   5.998
 5150SOL     OW16348   2.322   5.654   5.500
 5150SOL    HW116349   2.344   5.747   5.528
 5150SOL    HW216350   2.375   5.589   5.554
 5151SOL     OW16351   4.126   0.524   5.384
 5151SOL    HW116352   4.054   0.567   5.330
 5151SOL    HW216353   4.097   0.431   5.409
 5152SOL     OW16354   0.045   5.036   6.710
 5152SOL    HW116355   7.025   5.026   6.622
 5152SOL    HW216356   7.013   5.008   6.784
 5153SOL     OW16357   2.230   2.594   0.903
 5153SOL    HW116358   2.168   2.671   0.917
 5153SOL    HW216359   2.320   2.615   0.940
 5154SOL     OW16360   1.489   4.529   4.880
 5154SOL    HW116361   1.465   4.464   4.808
 5154SOL    HW216362   1.426   4.607   4.876
 5155SOL     OW16363   4.184   0.390   2.311
 5155SOL    HW116364   4.161   0.485   2.331
 5155SOL    HW216365   4.264   0.363   2.364
 5156SOL     OW16366   5.436   3.346   5.994
 5156SOL    HW116367   5.430   3.252   5.961
 5156SOL    HW216368   5.344   3.386   5.996
 5157SOL     OW16369   5.874   2.041   3.953
 5157SOL    HW116370   5.893   1.947   3.981
 5157SOL    HW216371   5.778   2.049   3.926
 5158SOL     OW16372   3.600   0.731   1.372
 5158SOL    HW116373   3.592   0.634   1.391
 5158SOL    HW216374   3.588   0.783   1.456
 5159SOL     OW16375   2.121   3.452   4.913
 5159SOL    HW116376   2.031   3.484   4.942
 5159SOL    HW216377   2.185   3.460   4.988
 5160SOL     OW16378   2.620   2.445   4.099
 5160SOL    HW116379   2.662   2.444   4.008
 5160SOL    HW216380   2.690   2.428   4.168
 5161SOL     OW16381   1.786   3.471   6.753
 5161SOL    HW116382   1.737   3.477   6.840
 5161SOL    HW216383   1.841   3.387   6.752
 5162SOL     OW16384   6.673   5.493   4.807
 5162SOL    HW116385   6.657   5.444   4.721
 5162SOL    HW216386   6.682   5.426   4.881
 5163SOL     OW16387   5.502   4.091   0.856
 5163SOL    HW116388   5.408   4.062   0.874
 5163SOL    HW216389   5.548   4.109   0.943
 5164SOL     OW16390   6.455   5.998   4.772
 5164SOL    HW116391   6.410   5.937   4.838
 5164SOL    HW216392   6.449   6.092   4.804
 5165SOL     OW16393   5.827   3.615   4.992
 5165SOL    HW116394   5.872   3.703   4.976
 5165SOL    HW216395   5.743   3.611   4.938
 5166SOL     OW16396   1.203   6.718   2.763
 5166SOL    HW116397   1.175   6.733   2.668
 5166SOL    HW216398   1.231   6.805   2.803
 5167SOL     OW16399   1.924   0.312   5.469
 5167SOL    HW116400   1.975   0.232   5.441
 5167SOL    HW216401   1.944   0.333   5.565
 5168SOL     OW16402   3.384   2.011   2.546
 5168SOL    HW116403   3.316   2.066   2.498
 5168SOL    HW216404   3.371   2.020   2.645
 5169SOL     OW16405   3.853   5.129   6.468
 5169SOL    HW116406   3.910   5.170   6.539
 5169SOL    HW216407   3.876   5.170   6.379
 5170SOL     OW16408   4.226   5.350   4.046
 5170SOL    HW116409   4.231   5.285   4.122
 5170SOL    HW216410   4.312   5.400   4.039
 5171SOL     OW16411   2.677   4.819   5.159
 5171SOL    HW116412   2.579   4.802   5.162
 5171SOL    HW216413   2.721   4.749   5.102
 5172SOL     OW16414   1.914   4.226   6.536
 5172SOL    HW116415   1.884   4.131   6.523
 5172SOL    HW216416   1.995   4.227   6.594
 5173SOL     OW16417   0.188   2.630   4.679
 5173SOL    HW116418   0.251   2.703   4.652
 5173SOL    HW216419   0.229   2.577   4.753
 5174SOL     OW16420   2.696   4.895   6.925
 5174SOL    HW116421   2.657   4.986   6.909
 5174SOL    HW216422   2.793   4.904   6.949
 5175SOL     OW16423   0.024   5.560   6.820
 5175SOL    HW116424   0.051   5.656   6.810
 5175SOL    HW216425   0.100   5.509   6.861
 5176SOL     OW16426   5.656   3.683   6.270
 5176SOL    HW116427   5.565   3.712   6.299
 5176SOL    HW216428   5.688   3.742   6.196
 5177SOL     OW16429   5.118   5.049   5.506
 5177SOL    HW116430   5.035   5.047   5.562
 5177SOL    HW216431   5.194   5.086   5.560
 5178SOL     OW16432   3.062   4.132   0.636
 5178SOL    HW116433   3.077   4.190   0.556
 5178SOL    HW216434   3.014   4.049   0.609
 5179SOL     OW16435   3.235   6.343   5.207
 5179SOL    HW116436   3.279   6.310   5.123
 5179SOL    HW216437   3.228   6.269   5.273
 5180SOL     OW16438   4.638   1.816   0.092
 5180SOL    HW116439   4.578   1.744   0.127
 5180SOL    HW216440   4.679   1.786   0.006
 5181SOL     OW16441   3.169   6.145   2.361
 5181SOL    HW116442   3.071   6.147   2.340
 5181SOL    HW216443   3.194   6.054   2.393
 5182SOL     OW16444   4.801   4.100   1.113
 5182SOL    HW116445   4.701   4.108   1.120
 5182SOL    HW216446   4.842   4.191   1.117
 5183SOL     OW16447   3.437   0.431   3.972
 5183SOL    HW116448   3.504   0.497   3.938
 5183SOL    HW216449   3.345   0.469   3.962
 5184SOL     OW16450   0.717   2.643   3.495
 5184SOL    HW116451   0.805   2.686   3.473
 5184SOL    HW216452   0.647   2.677   3.433
 5185SOL     OW16453   3.951   6.881   1.585
 5185SOL    HW116454   3.947   6.852   1.489
 5185SOL    HW216455   3.939   6.981   1.589
 5186SOL     OW16456   5.483   4.389   6.839
 5186SOL    HW116457   5.521   4.404   6.748
 5186SOL    HW216458   5.520   4.304   6.877
 5187SOL     OW16459   4.700   2.904   4.428
 5187SOL    HW116460   4.785   2.858   4.454
 5187SOL    HW216461   4.657   2.944   4.509
 5188SOL     OW16462   0.316   0.966   3.899
 5188SOL    HW116463   0.282   0.872   3.897
 5188SOL    HW216464   0.329   0.994   3.994
 5189SOL     OW16465   4.512   5.685   5.764
 5189SOL    HW116466   4.434   5.732   5.723
 5189SOL    HW216467   4.576   5.753   5.800
 5190SOL     OW16468   2.419   2.715   1.970
 5190SOL    HW116469   2.413   2.756   2.061
 5190SOL    HW216470   2.425   2.787   1.902
 5191SOL     OW16471   4.879   0.559   2.449
 5191SOL    HW116472   4.861   0.653   2.478
 5191SOL    HW216473   4.832   0.541   2.362
 5192SOL     OW16474   6.293   4.213   1.361
 5192SOL    HW116475   6.270   4.117   1.346
 5192SOL    HW216476   6.270   4.266   1.279
 5193SOL     OW16477   3.913   4.959   2.358
 5193SOL    HW116478   3.830   5.013   2.345
 5193SOL    HW216479   3.978   4.977   2.284
 5194SOL     OW16480   5.126   0.653   0.623
 5194SOL    HW116481   5.143   0.731   0.562
 5194SOL    HW216482   5.030   0.652   0.649
 5195SOL     OW16483   0.722   6.075   5.118
 5195SOL    HW116484   0.721   6.010   5.042
 5195SOL    HW216485   0.631   6.116   5.127
 5196SOL     OW16486   0.379   3.760   3.591
 5196SOL    HW116487   0.434   3.759   3.674
 5196SOL    HW216488   0.390   3.848   3.545
 5197SOL     OW16489   3.913   5.896   5.066
 5197SOL    HW116490   3.975   5.926   5.138
 5197SOL    HW216491   3.896   5.971   5.002
 5198SOL     OW16492   4.363   1.116   5.442
 5198SOL    HW116493   4.312   1.151   5.520
 5198SOL    HW216494   4.309   1.046   5.395
 5199SOL     OW16495   0.709   5.667   1.686
 5199SOL    HW116496   0.682   5.613   1.765
 5199SOL    HW216497   0.724   5.607   1.608
 5200SOL     OW16498   6.062   6.657   5.158
 5200SOL    HW116499   6.032   6.686   5.249
 5200SOL    HW216500   6.013   6.574   5.131
 5201SOL     OW16501   6.743   4.107   5.342
 5201SOL    HW116502   6.649   4.143   5.341
 5201SOL    HW216503   6.752   4.039   5.414
 5202SOL     OW16504   3.487   2.148   5.908
 5202SOL    HW116505   3.538   2.072   5.867
 5202SOL    HW216506   3.446   2.118   5.995
 5203SOL     OW16507   0.891   0.446   6.514
 5203SOL    HW116508   0.839   0.529   6.495
 5203SOL    HW216509   0.984   0.457   6.480
 5204SOL     OW16510   1.765   0.736   1.716
 5204SOL    HW116511   1.768   0.827   1.757
 5204SOL    HW216512   1.827   0.734   1.637
 5205SOL     OW16513   6.777   0.083   2.330
 5205SOL    HW116514   6.830   0.144   2.390
 5205SOL    HW216515   6.808   0.094   2.236
 5206SOL     OW16516   0.988   5.067   5.001
 5206SOL    HW116517   0.905   5.123   5.001
 5206SOL    HW216518   0.969   4.979   4.958
 5207SOL     OW16519   4.678   0.644   4.818
 5207SOL    HW116520   4.687   0.674   4.913
 5207SOL    HW216521   4.733   0.562   4.804
 5208SOL     OW16522   6.606   1.643   0.171
 5208SOL    HW116523   6.543   1.596   0.233
 5208SOL    HW216524   6.606   1.597   0.082
 5209SOL     OW16525   5.000   6.288   2.302
 5209SOL    HW116526   4.934   6.318   2.371
 5209SOL    HW216527   5.045   6.367   2.261
 5210SOL     OW16528   5.918   4.249   1.415
 5210SOL    HW116529   5.944   4.344   1.397
 5210SOL    HW216530   5.964   4.217   1.498
 5211SOL     OW16531   5.655   2.893   5.042
 5211SOL    HW116532   5.694   2.827   4.977
 5211SOL    HW216533   5.556   2.882   5.044
 5212SOL     OW16534   6.703   3.467   6.720
 5212SOL    HW116535   6.713   3.404   6.644
 5212SOL    HW216536   6.655   3.421   6.795
 5213SOL     OW16537   3.661   3.284   3.300
 5213SOL    HW116538   3.703   3.370   3.271
 5213SOL    HW216539   3.696   3.209   3.244
 5214SOL     OW16540   5.135   3.073   6.214
 5214SOL    HW116541   5.118   3.124   6.130
 5214SOL    HW216542   5.219   3.020   6.203
 5215SOL     OW16543   0.046   5.145   4.749
 5215SOL    HW116544   0.138   5.182   4.765
 5215SOL    HW216545   7.016   5.166   4.828
 5216SOL     OW16546   6.418   4.478   0.912
 5216SOL    HW116547   6.392   4.468   0.817
 5216SOL    HW216548   6.420   4.575   0.936
 5217SOL     OW16549   3.272   6.968   2.442
 5217SOL    HW116550   3.371   6.968   2.454
 5217SOL    HW216551   3.228   6.957   2.532
 5218SOL     OW16552   6.259   0.230   0.501
 5218SOL    HW116553   6.180   0.242   0.440
 5218SOL    HW216554   6.263   0.307   0.564
 5219SOL     OW16555   4.314   1.724   4.913
 5219SOL    HW116556   4.397   1.760   4.870
 5219SOL    HW216557   4.278   1.648   4.859
 5220SOL     OW16558   1.835   4.829   4.712
 5220SOL    HW116559   1.814   4.743   4.757
 5220SOL    HW216560   1.928   4.826   4.676
 5221SOL     OW16561   4.684   5.876   0.921
 5221SOL    HW116562   4.658   5.890   1.017
 5221SOL    HW216563   4.727   5.786   0.911
 5222SOL     OW16564   6.682   3.345   2.106
 5222SOL    HW116565   6.708   3.249   2.100
 5222SOL    HW216566   6.619   3.367   2.031
 5223SOL     OW16567   7.021   2.529   0.829
 5223SOL    HW116568   6.957   2.489   0.763
 5223SOL    HW216569   6.998   2.498   0.921
 5224SOL     OW16570   1.641   1.186   4.665
 5224SOL    HW116571   1.630   1.284   4.653
 5224SOL    HW216572   1.672   1.145   4.579
 5225SOL     OW16573   6.805   2.163   6.116
 5225SOL    HW116574   6.862   2.158   6.034
 5225SOL    HW216575   6.763   2.075   6.134
 5226SOL     OW16576   0.181   6.771   3.844
 5226SOL    HW116577   0.089   6.743   3.873
 5226SOL    HW216578   0.191   6.870   3.858
 5227SOL     OW16579   1.544   2.704   6.105
 5227SOL    HW116580   1.626   2.711   6.047
 5227SOL    HW216581   1.571   2.715   6.200
 5228SOL     OW16582   0.986   2.257   5.145
 5228SOL    HW116583   0.988   2.183   5.078
 5228SOL    HW216584   1.080   2.289   5.163
 5229SOL     OW16585   3.845   1.307   6.982
 5229SOL    HW116586   3.877   1.272   0.041
 5229SOL    HW216587   3.756   1.351   6.994
 5230SOL     OW16588   6.864   0.368   2.211
 5230SOL    HW116589   6.778   0.326   2.179
 5230SOL    HW216590   6.932   0.364   2.138
 5231SOL     OW16591   5.941   3.256   1.742
 5231SOL    HW116592   5.898   3.184   1.689
 5231SOL    HW216593   5.872   3.302   1.799
 5232SOL     OW16594   1.895   1.587   5.879
 5232SOL    HW116595   1.826   1.605   5.948
 5232SOL    HW216596   1.851   1.564   5.792
 5233SOL     OW16597   2.660   0.168   3.215
 5233SOL    HW116598   2.651   0.267   3.202
 5233SOL    HW216599   2.621   0.142   3.304
 5234SOL     OW16600   2.897   2.593   6.769
 5234SOL    HW116601   2.880   2.615   6.673
 5234SOL    HW216602   2.868   2.670   6.826
 5235SOL     OW16603   2.291   2.894   1.490
 5235SOL    HW116604   2.205   2.843   1.492
 5235SOL    HW216605   2.272   2.991   1.500
 5236SOL     OW16606   3.009   4.826   2.314
 5236SOL    HW116607   3.017   4.844   2.216
 5236SOL    HW216608   2.913   4.830   2.340
 5237SOL     OW16609   1.666   1.833   1.894
 5237SOL    HW116610   1.687   1.916   1.946
 5237SOL    HW216611   1.652   1.856   1.798
 5238SOL     OW16612   5.911   0.788   3.217
 5238SOL    HW116613   5.968   0.723   3.267
 5238SOL    HW216614   5.946   0.798   3.124
 5239SOL     OW16615   2.810   4.159   0.180
 5239SOL    HW116616   2.853   4.208   0.104
 5239SOL    HW216617   2.823   4.211   0.264
 5240SOL     OW16618   1.804   4.220   5.874
 5240SOL    HW116619   1.895   4.182   5.858
 5240SOL    HW216620   1.737   4.169   5.822
 5241SOL     OW16621   2.240   5.703   3.706
 5241SOL    HW116622   2.167   5.660   3.758
 5241SOL    HW216623   2.201   5.755   3.630
 5242SOL     OW16624   4.390   6.174   5.428
 5242SOL    HW116625   4.430   6.170   5.520
 5242SOL    HW216626   4.291   6.162   5.435
 5243SOL     OW16627   1.960   6.049   3.839
 5243SOL    HW116628   2.017   5.986   3.891
 5243SOL    HW216629   1.864   6.036   3.863
 5244SOL     OW16630   5.170   1.177   6.199
 5244SOL    HW116631   5.153   1.111   6.127
 5244SOL    HW216632   5.124   1.263   6.178
 5245SOL     OW16633   3.172   4.040   2.172
 5245SOL    HW116634   3.134   3.949   2.187
 5245SOL    HW216635   3.168   4.063   2.075
 5246SOL     OW16636   6.302   3.294   5.826
 5246SOL    HW116637   6.362   3.328   5.753
 5246SOL    HW216638   6.234   3.365   5.848
 5247SOL     OW16639   4.813   0.909   6.041
 5247SOL    HW116640   4.713   0.905   6.032
 5247SOL    HW216641   4.841   1.003   6.058
 5248SOL     OW16642   4.605   1.149   2.736
 5248SOL    HW116643   4.597   1.051   2.756
 5248SOL    HW216644   4.692   1.183   2.771
 5249SOL     OW16645   0.316   5.799   1.624
 5249SOL    HW116646   0.280   5.739   1.553
 5249SOL    HW216647   0.272   5.889   1.618
 5250SOL     OW16648   1.718   5.167   0.609
 5250SOL    HW116649   1.649   5.137   0.543
 5250SOL    HW216650   1.805   5.184   0.563
 5251SOL     OW16651   0.847   4.917   6.681
 5251SOL    HW116652   0.924   4.975   6.652
 5251SOL    HW216653   0.764   4.972   6.687
 5252SOL     OW16654   3.649   5.788   3.027
 5252SOL    HW116655   3.743   5.789   3.060
 5252SOL    HW216656   3.608   5.878   3.041
 5253SOL     OW16657   0.292   6.014   4.930
 5253SOL    HW116658   0.303   5.952   5.007
 5253SOL    HW216659   0.265   5.962   4.849
 5254SOL     OW16660   4.684   6.317   2.084
 5254SOL    HW116661   4.609   6.259   2.115
 5254SOL    HW216662   4.748   6.262   2.030
 5255SOL     OW16663   0.380   1.533   6.520
 5255SOL    HW116664   0.476   1.534   6.490
 5255SOL    HW216665   0.368   1.460   6.588
 5256SOL     OW16666   4.245   2.306   2.870
 5256SOL    HW116667   4.315   2.355   2.921
 5256SOL    HW216668   4.195   2.245   2.933
 5257SOL     OW16669   5.326   1.485   7.023
 5257SOL    HW116670   5.346   1.409   6.961
 5257SOL    HW216671   5.301   1.565   6.969
 5258SOL     OW16672   5.505   1.536   5.167
 5258SOL    HW116673   5.568   1.612   5.187
 5258SOL    HW216674   5.448   1.561   5.089
 5259SOL     OW16675   5.056   5.817   4.264
 5259SOL    HW116676   4.982   5.877   4.295
 5259SOL    HW216677   5.027   5.722   4.269
 5260SOL     OW16678   1.420   6.332   1.799
 5260SOL    HW116679   1.499   6.353   1.857
 5260SOL    HW216680   1.378   6.418   1.768
 5261SOL     OW16681   5.946   4.971   0.225
 5261SOL    HW116682   5.852   4.992   0.197
 5261SOL    HW216683   5.949   4.957   0.324
 5262SOL     OW16684   2.267   2.361   1.314
 5262SOL    HW116685   2.171   2.335   1.314
 5262SOL    HW216686   2.321   2.292   1.362
 5263SOL     OW16687   0.854   6.157   3.205
 5263SOL    HW116688   0.756   6.163   3.182
 5263SOL    HW216689   0.864   6.143   3.304
 5264SOL     OW16690   6.821   2.213   2.240
 5264SOL    HW116691   6.754   2.286   2.254
 5264SOL    HW216692   6.832   2.162   2.326
 5265SOL     OW16693   0.573   5.636   6.014
 5265SOL    HW116694   0.641   5.665   6.081
 5265SOL    HW216695   0.598   5.670   5.924
 5266SOL     OW16696   1.734   6.969   6.481
 5266SOL    HW116697   1.749   6.872   6.464
 5266SOL    HW216698   1.765   7.022   6.402
 5267SOL     OW16699   6.318   1.292   5.009
 5267SOL    HW116700   6.407   1.324   5.039
 5267SOL    HW216701   6.290   1.213   5.064
 5268SOL     OW16702   6.152   6.754   6.004
 5268SOL    HW116703   6.224   6.697   6.043
 5268SOL    HW216704   6.093   6.697   5.945
 5269SOL     OW16705   1.023   0.584   4.416
 5269SOL    HW116706   1.113   0.540   4.418
 5269SOL    HW216707   1.028   0.673   4.463
 5270SOL     OW16708   1.241   1.557   0.308
 5270SOL    HW116709   1.298   1.589   0.232
 5270SOL    HW216710   1.151   1.600   0.304
 5271SOL     OW16711   1.624   5.693   6.065
 5271SOL    HW116712   1.527   5.709   6.080
 5271SOL    HW216713   1.664   5.650   6.146
 5272SOL     OW16714   4.311   0.353   6.316
 5272SOL    HW116715   4.383   0.300   6.361
 5272SOL    HW216716   4.223   0.335   6.361
 5273SOL     OW16717   2.372   1.276   3.455
 5273SOL    HW116718   2.314   1.357   3.455
 5273SOL    HW216719   2.326   1.201   3.501
 5274SOL     OW16720   5.581   4.219   1.107
 5274SOL    HW116721   5.669   4.173   1.123
 5274SOL    HW216722   5.590   4.315   1.131
 5275SOL     OW16723   5.633   0.721   6.091
 5275SOL    HW116724   5.601   0.793   6.154
 5275SOL    HW216725   5.575   0.641   6.100
 5276SOL     OW16726   3.682   6.680   1.459
 5276SOL    HW116727   3.671   6.664   1.360
 5276SOL    HW216728   3.711   6.596   1.503
 5277SOL     OW16729   1.907   3.715   1.712
 5277SOL    HW116730   1.911   3.799   1.659
 5277SOL    HW216731   1.848   3.649   1.667
 5278SOL     OW16732   3.802   3.585   2.787
 5278SOL    HW116733   3.897   3.601   2.815
 5278SOL    HW216734   3.793   3.602   2.689
 5279SOL     OW16735   1.407   6.510   3.131
 5279SOL    HW116736   1.401   6.414   3.106
 5279SOL    HW216737   1.427   6.565   3.050
 5280SOL     OW16738   3.733   0.430   3.981
 5280SOL    HW116739   3.743   0.362   4.054
 5280SOL    HW216740   3.775   0.395   3.898
 5281SOL     OW16741   6.332   2.787   4.115
 5281SOL    HW116742   6.418   2.751   4.151
 5281SOL    HW216743   6.347   2.880   4.081
 5282SOL     OW16744   4.850   2.440   1.382
 5282SOL    HW116745   4.797   2.380   1.321
 5282SOL    HW216746   4.939   2.460   1.340
 5283SOL     OW16747   4.788   4.979   5.367
 5283SOL    HW116748   4.837   4.897   5.337
 5283SOL    HW216749   4.831   5.016   5.449
 5284SOL     OW16750   5.026   2.682   4.220
 5284SOL    HW116751   5.083   2.726   4.289
 5284SOL    HW216752   4.942   2.734   4.206
 5285SOL     OW16753   4.503   6.185   2.310
 5285SOL    HW116754   4.493   6.086   2.312
 5285SOL    HW216755   4.414   6.228   2.297
 5286SOL     OW16756   1.913   4.870   2.439
 5286SOL    HW116757   1.941   4.916   2.355
 5286SOL    HW216758   1.832   4.814   2.421
 5287SOL     OW16759   1.277   0.582   2.500
 5287SOL    HW116760   1.234   0.594   2.411
 5287SOL    HW216761   1.225   0.634   2.569
 5288SOL     OW16762   3.981   0.545   0.882
 5288SOL    HW116763   4.046   0.608   0.925
 5288SOL    HW216764   4.028   0.461   0.855
 5289SOL     OW16765   2.010   6.725   1.551
 5289SOL    HW116766   1.959   6.646   1.517
 5289SOL    HW216767   1.950   6.780   1.611
 5290SOL     OW16768   5.886   6.154   6.483
 5290SOL    HW116769   5.862   6.162   6.580
 5290SOL    HW216770   5.820   6.206   6.429
 5291SOL     OW16771   0.947   5.919   0.225
 5291SOL    HW116772   0.918   6.014   0.217
 5291SOL    HW216773   0.949   5.877   0.135
 5292SOL     OW16774   5.882   1.617   1.235
 5292SOL    HW116775   5.975   1.606   1.201
 5292SOL    HW216776   5.878   1.592   1.332
 5293SOL     OW16777   1.603   1.255   4.232
 5293SOL    HW116778   1.563   1.333   4.279
 5293SOL    HW216779   1.677   1.217   4.288
 5294SOL     OW16780   3.671   1.830   6.680
 5294SOL    HW116781   3.732   1.878   6.744
 5294SOL    HW216782   3.582   1.875   6.679
 5295SOL     OW16783   6.989   1.880   3.717
 5295SOL    HW116784   0.054   1.848   3.734
 5295SOL    HW216785   6.981   1.911   3.622
 5296SOL     OW16786   0.220   2.675   6.642
 5296SOL    HW116787   0.177   2.671   6.732
 5296SOL    HW216788   0.233   2.770   6.615
 5297SOL     OW16789   1.174   1.952   1.959
 5297SOL    HW116790   1.107   1.940   1.886
 5297SOL    HW216791   1.245   1.882   1.951
 5298SOL     OW16792   1.468   4.293   2.035
 5298SOL    HW116793   1.537   4.271   2.103
 5298SOL    HW216794   1.419   4.377   2.062
 5299SOL     OW16795   3.939   6.927   0.070
 5299SOL    HW116796   3.986   6.864   0.009
 5299SOL    HW216797   3.851   6.887   0.098
 5300SOL     OW16798   6.504   4.709   4.090
 5300SOL    HW116799   6.487   4.752   4.001
 5300SOL    HW216800   6.574   4.761   4.139
 5301SOL     OW16801   5.793   0.347   6.713
 5301SOL    HW116802   5.768   0.252   6.696
 5301SOL    HW216803   5.824   0.357   6.808
 5302SOL     OW16804   6.821   4.169   3.286
 5302SOL    HW116805   6.807   4.124   3.197
 5302SOL    HW216806   6.745   4.147   3.347
 5303SOL     OW16807   2.191   4.717   3.080
 5303SOL    HW116808   2.100   4.678   3.066
 5303SOL    HW216809   2.236   4.671   3.156
 5304SOL     OW16810   4.316   1.917   5.838
 5304SOL    HW116811   4.288   1.911   5.742
 5304SOL    HW216812   4.235   1.929   5.895
 5305SOL     OW16813   3.673   2.126   4.989
 5305SOL    HW116814   3.665   2.142   4.890
 5305SOL    HW216815   3.753   2.176   5.024
 5306SOL     OW16816   2.343   6.902   2.605
 5306SOL    HW116817   2.429   6.852   2.604
 5306SOL    HW216818   2.277   6.854   2.662
 5307SOL     OW16819   5.159   6.376   6.797
 5307SOL    HW116820   5.130   6.350   6.705
 5307SOL    HW216821   5.205   6.465   6.794
 5308SOL     OW16822   6.956   1.502   1.543
 5308SOL    HW116823   6.986   1.557   1.465
 5308SOL    HW216824   7.023   1.429   1.560
 5309SOL     OW16825   3.852   3.462   5.258
 5309SOL    HW116826   3.770   3.432   5.306
 5309SOL    HW216827   3.848   3.431   5.163
 5310SOL     OW16828   4.682   2.788   0.663
 5310SOL    HW116829   4.769   2.820   0.626
 5310SOL    HW216830   4.623   2.758   0.588
 5311SOL     OW16831   6.821   6.214   0.604
 5311SOL    HW116832   6.915   6.208   0.635
 5311SOL    HW216833   6.760   6.224   0.683
 5312SOL     OW16834   0.234   3.856   2.024
 5312SOL    HW116835   0.172   3.780   2.005
 5312SOL    HW216836   0.317   3.845   1.969
 5313SOL     OW16837   0.120   6.816   6.826
 5313SOL    HW116838   0.023   6.836   6.833
 5313SOL    HW216839   0.168   6.894   6.786
 5314SOL     OW16840   3.924   4.839   0.965
 5314SOL    HW116841   4.000   4.827   0.902
 5314SOL    HW216842   3.865   4.759   0.962
 5315SOL     OW16843   5.385   1.372   2.232
 5315SOL    HW116844   5.382   1.472   2.244
 5315SOL    HW216845   5.466   1.348   2.178
 5316SOL     OW16846   5.306   5.289   4.831
 5316SOL    HW116847   5.382   5.255   4.886
 5316SOL    HW216848   5.226   5.301   4.890
 5317SOL     OW16849   6.538   5.297   1.466
 5317SOL    HW116850   6.572   5.269   1.377
 5317SOL    HW216851   6.505   5.217   1.516
 5318SOL     OW16852   6.920   2.748   3.730
 5318SOL    HW116853   6.946   2.668   3.676
 5318SOL    HW216854   6.844   2.724   3.790
 5319SOL     OW16855   3.176   6.378   2.698
 5319SOL    HW116856   3.112   6.361   2.623
 5319SOL    HW216857   3.244   6.446   2.669
 5320SOL     OW16858   6.150   2.057   0.110
 5320SOL    HW116859   6.230   2.111   0.086
 5320SOL    HW216860   6.136   2.060   0.209
 5321SOL     OW16861   2.977   4.382   0.260
 5321SOL    HW116862   2.961   4.421   0.351
 5321SOL    HW216863   2.927   4.435   0.192
 5322SOL     OW16864   2.685   6.843   0.308
 5322SOL    HW116865   2.710   6.871   0.400
 5322SOL    HW216866   2.604   6.785   0.311
 5323SOL     OW16867   6.378   3.498   0.496
 5323SOL    HW116868   6.286   3.535   0.500
 5323SOL    HW216869   6.378   3.405   0.532
 5324SOL     OW16870   3.967   3.557   1.819
 5324SOL    HW116871   3.880   3.561   1.869
 5324SOL    HW216872   4.040   3.528   1.881
 5325SOL     OW16873   3.309   6.512   5.697
 5325SOL    HW116874   3.244   6.451   5.652
 5325SOL    HW216875   3.300   6.504   5.796
 5326SOL     OW16876   5.962   1.014   3.368
 5326SOL    HW116877   5.935   0.938   3.309
 5326SOL    HW216878   5.963   0.984   3.464
 5327SOL     OW16879   6.005   0.104   4.064
 5327SOL    HW116880   5.943   0.069   3.994
 5327SOL    HW216881   6.016   0.036   4.136
 5328SOL     OW16882   2.437   4.895   6.228
 5328SOL    HW116883   2.344   4.871   6.257
 5328SOL    HW216884   2.500   4.823   6.259
 5329SOL     OW16885   6.915   6.873   6.412
 5329SOL    HW116886   6.899   6.944   6.481
 5329SOL    HW216887   7.013   6.861   6.399
 5330SOL     OW16888   4.531   4.541   1.224
 5330SOL    HW116889   4.526   4.445   1.251
 5330SOL    HW216890   4.440   4.582   1.228
 5331SOL     OW16891   5.719   1.415   6.562
 5331SOL    HW116892   5.739   1.494   6.619
 5331SOL    HW216893   5.802   1.362   6.547
 5332SOL     OW16894   6.454   2.812   6.968
 5332SOL    HW116895   6.525   2.837   0.006
 5332SOL    HW216896   6.471   2.719   6.935
 5333SOL     OW16897   0.784   6.750   4.250
 5333SOL    HW116898   0.809   6.653   4.242
 5333SOL    HW216899   0.685   6.758   4.258
 5334SOL     OW16900   3.598   6.010   1.315
 5334SOL    HW116901   3.552   5.933   1.358
 5334SOL    HW216902   3.690   5.983   1.286
 5335SOL     OW16903   0.294   4.948   1.526
 5335SOL    HW116904   0.203   4.962   1.566
 5335SOL    HW216905   0.309   4.850   1.512
 5336SOL     OW16906   1.172   3.357   5.620
 5336SOL    HW116907   1.200   3.451   5.601
 5336SOL    HW216908   1.235   3.293   5.575
 5337SOL     OW16909   6.429   1.781   0.982
 5337SOL    HW116910   6.502   1.812   1.042
 5337SOL    HW216911   6.424   1.681   0.985
 5338SOL     OW16912   0.293   3.346   1.542
 5338SOL    HW116913   0.365   3.395   1.591
 5338SOL    HW216914   0.228   3.308   1.608
 5339SOL     OW16915   5.037   3.559   3.054
 5339SOL    HW116916   5.066   3.468   3.025
 5339SOL    HW216917   5.035   3.564   3.154
 5340SOL     OW16918   4.802   3.409   1.175
 5340SOL    HW116919   4.887   3.414   1.228
 5340SOL    HW216920   4.822   3.374   1.083
 5341SOL     OW16921   4.748   5.177   3.406
 5341SOL    HW116922   4.678   5.240   3.439
 5341SOL    HW216923   4.776   5.203   3.314
 5342SOL     OW16924   6.174   5.079   4.869
 5342SOL    HW116925   6.240   5.135   4.919
 5342SOL    HW216926   6.110   5.036   4.933
 5343SOL     OW16927   3.376   3.565   6.894
 5343SOL    HW116928   3.305   3.620   6.850
 5343SOL    HW216929   3.424   3.620   6.962
 5344SOL     OW16930   5.848   1.464   7.017
 5344SOL    HW116931   5.835   1.375   6.973
 5344SOL    HW216932   5.785   1.531   6.977
 5345SOL     OW16933   3.573   1.394   6.977
 5345SOL    HW116934   3.543   1.350   6.892
 5345SOL    HW216935   3.586   1.491   6.962
 5346SOL     OW16936   2.075   5.938   2.924
 5346SOL    HW116937   2.117   5.847   2.924
 5346SOL    HW216938   2.145   6.007   2.944
 5347SOL     OW16939   5.996   1.901   5.303
 5347SOL    HW116940   5.966   1.851   5.385
 5347SOL    HW216941   6.025   1.993   5.329
 5348SOL     OW16942   4.710   2.369   5.171
 5348SOL    HW116943   4.668   2.429   5.240
 5348SOL    HW216944   4.668   2.279   5.174
 5349SOL     OW16945   1.063   4.214   0.321
 5349SOL    HW116946   1.109   4.298   0.293
 5349SOL    HW216947   1.094   4.139   0.262
 5350SOL     OW16948   1.028   6.666   6.647
 5350SOL    HW116949   1.107   6.714   6.609
 5350SOL    HW216950   0.944   6.714   6.621
 5351SOL     OW16951   0.810   5.746   3.731
 5351SOL    HW116952   0.883   5.761   3.798
 5351SOL    HW216953   0.779   5.651   3.737
 5352SOL     OW16954   0.446   2.493   5.761
 5352SOL    HW116955   0.346   2.484   5.766
 5352SOL    HW216956   0.489   2.416   5.809
 5353SOL     OW16957   2.334   0.228   3.112
 5353SOL    HW116958   2.263   0.169   3.152
 5353SOL    HW216959   2.322   0.321   3.147
 5354SOL     OW16960   3.517   5.990   2.060
 5354SOL    HW116961   3.572   5.985   2.144
 5354SOL    HW216962   3.420   5.987   2.084
 5355SOL     OW16963   5.449   4.455   5.244
 5355SOL    HW116964   5.469   4.455   5.342
 5355SOL    HW216965   5.403   4.540   5.219
 5356SOL     OW16966   0.300   6.703   1.380
 5356SOL    HW116967   0.318   6.615   1.335
 5356SOL    HW216968   0.386   6.750   1.397
 5357SOL     OW16969   6.419   3.153   2.441
 5357SOL    HW116970   6.329   3.171   2.402
 5357SOL    HW216971   6.459   3.072   2.397
 5358SOL     OW16972   6.172   0.438   6.708
 5358SOL    HW116973   6.145   0.440   6.612
 5358SOL    HW216974   6.249   0.374   6.719
 5359SOL     OW16975   3.286   2.364   0.367
 5359SOL    HW116976   3.203   2.416   0.387
 5359SOL    HW216977   3.360   2.427   0.343
 5360SOL     OW16978   5.354   5.677   2.939
 5360SOL    HW116979   5.307   5.618   2.874
 5360SOL    HW216980   5.321   5.659   3.032
 5361SOL     OW16981   1.649   3.970   2.831
 5361SOL    HW116982   1.681   3.996   2.740
 5361SOL    HW216983   1.607   3.879   2.826
 5362SOL     OW16984   5.775   1.559   3.752
 5362SOL    HW116985   5.734   1.562   3.661
 5362SOL    HW216986   5.866   1.518   3.748
 5363SOL     OW16987   6.076   4.682   5.416
 5363SOL    HW116988   6.145   4.609   5.412
 5363SOL    HW216989   6.053   4.701   5.512
 5364SOL     OW16990   4.656   2.377   1.586
 5364SOL    HW116991   4.636   2.279   1.595
 5364SOL    HW216992   4.727   2.390   1.516
 5365SOL     OW16993   3.502   3.284   6.148
 5365SOL    HW116994   3.542   3.192   6.140
 5365SOL    HW216995   3.403   3.279   6.133
 5366SOL     OW16996   0.409   4.191   3.654
 5366SOL    HW116997   0.406   4.122   3.725
 5366SOL    HW216998   0.366   4.275   3.687
 5367SOL     OW16999   6.380   6.250   1.218
 5367SOL    HW117000   6.336   6.210   1.298
 5367SOL    HW217001   6.329   6.331   1.189
 5368SOL     OW17002   6.880   5.958   5.142
 5368SOL    HW117003   6.855   5.996   5.231
 5368SOL    HW217004   6.880   5.858   5.148
 5369SOL     OW17005   3.715   0.079   2.535
 5369SOL    HW117006   3.671   0.012   2.475
 5369SOL    HW217007   3.791   0.035   2.583
 5370SOL     OW17008   2.926   2.387   0.727
 5370SOL    HW117009   2.841   2.436   0.745
 5370SOL    HW217010   2.909   2.310   0.666
 5371SOL     OW17011   6.411   5.314   3.659
 5371SOL    HW117012   6.466   5.230   3.658
 5371SOL    HW217013   6.385   5.335   3.754
 5372SOL     OW17014   0.518   0.245   4.219
 5372SOL    HW117015   0.569   0.181   4.276
 5372SOL    HW217016   0.579   0.316   4.185
 5373SOL     OW17017   4.185   6.823   0.632
 5373SOL    HW117018   4.234   6.763   0.569
 5373SOL    HW217019   4.212   6.801   0.726
 5374SOL     OW17020   1.464   3.827   1.292
 5374SOL    HW117021   1.388   3.836   1.227
 5374SOL    HW217022   1.551   3.842   1.244
 5375SOL     OW17023   2.940   5.271   5.049
 5375SOL    HW117024   2.866   5.205   5.039
 5375SOL    HW217025   3.028   5.224   5.035
 5376SOL     OW17026   0.494   6.970   2.321
 5376SOL    HW117027   0.479   6.943   2.226
 5376SOL    HW217028   0.559   0.018   2.324
 5377SOL     OW17029   1.083   2.526   2.300
 5377SOL    HW117030   1.015   2.561   2.235
 5377SOL    HW217031   1.047   2.530   2.393
 5378SOL     OW17032   5.174   0.127   3.420
 5378SOL    HW117033   5.100   0.166   3.366
 5378SOL    HW217034   5.257   0.123   3.364
 5379SOL     OW17035   3.111   2.121   4.210
 5379SOL    HW117036   3.171   2.046   4.183
 5379SOL    HW217037   3.108   2.128   4.309
 5380SOL     OW17038   4.842   6.753   1.430
 5380SOL    HW117039   4.858   6.750   1.332
 5380SOL    HW217040   4.929   6.742   1.479
 5381SOL     OW17041   2.906   1.918   2.576
 5381SOL    HW117042   2.992   1.875   2.603
 5381SOL    HW217043   2.925   1.998   2.519
 5382SOL     OW17044   4.801   0.806   2.484
 5382SOL    HW117045   4.842   0.896   2.491
 5382SOL    HW217046   4.728   0.807   2.415
 5383SOL     OW17047   2.520   4.008   5.478
 5383SOL    HW117048   2.478   4.027   5.390
 5383SOL    HW217049   2.619   4.006   5.468
 5384SOL     OW17050   4.891   6.398   6.105
 5384SOL    HW117051   4.989   6.395   6.122
 5384SOL    HW217052   4.871   6.361   6.015
 5385SOL     OW17053   3.516   4.004   0.498
 5385SOL    HW117054   3.424   4.015   0.533
 5385SOL    HW217055   3.568   4.088   0.515
 5386SOL     OW17056   4.568   4.793   3.626
 5386SOL    HW117057   4.485   4.741   3.602
 5386SOL    HW217058   4.544   4.864   3.692
 5387SOL     OW17059   0.860   2.705   5.276
 5387SOL    HW117060   0.830   2.717   5.181
 5387SOL    HW217061   0.809   2.768   5.335
 5388SOL     OW17062   6.252   6.657   3.259
 5388SOL    HW117063   6.208   6.627   3.175
 5388SOL    HW217064   6.266   6.578   3.319
 5389SOL     OW17065   6.032   1.606   5.057
 5389SOL    HW117066   6.040   1.508   5.038
 5389SOL    HW217067   5.946   1.624   5.103
 5390SOL     OW17068   5.753   3.384   3.235
 5390SOL    HW117069   5.662   3.379   3.195
 5390SOL    HW217070   5.751   3.345   3.327
 5391SOL     OW17071   4.536   3.285   0.851
 5391SOL    HW117072   4.517   3.367   0.798
 5391SOL    HW217073   4.556   3.209   0.789
 5392SOL     OW17074   5.096   1.075   4.124
 5392SOL    HW117075   5.191   1.064   4.097
 5392SOL    HW217076   5.036   1.037   4.054
 5393SOL     OW17077   4.737   2.834   2.840
 5393SOL    HW117078   4.763   2.929   2.859
 5393SOL    HW217079   4.694   2.830   2.749
 5394SOL     OW17080   0.238   3.243   3.204
 5394SOL    HW117081   0.236   3.218   3.107
 5394SOL    HW217082   0.204   3.166   3.258
 5395SOL     OW17083   6.989   0.610   1.815
 5395SOL    HW117084   6.974   0.687   1.878
 5395SOL    HW217085   0.040   0.630   1.758
 5396SOL     OW17086   4.015   2.597   0.200
 5396SOL    HW117087   3.933   2.630   0.247
 5396SOL    HW217088   3.989   2.558   0.111
 5397SOL     OW17089   0.850   6.666   2.758
 5397SOL    HW117090   0.877   6.705   2.846
 5397SOL    HW217091   0.923   6.681   2.691
 5398SOL     OW17092   5.887   2.511   3.388
 5398SOL    HW117093   5.901   2.460   3.472
 5398SOL    HW217094   5.941   2.595   3.391
 5399SOL     OW17095   2.574   3.038   0.552
 5399SOL    HW117096   2.650   3.086   0.596
 5399SOL    HW217097   2.597   3.021   0.456
 5400SOL     OW17098   5.329   2.804   0.638
 5400SOL    HW117099   5.363   2.719   0.598
 5400SOL    HW217100   5.282   2.857   0.568
 5401SOL     OW17101   5.046   4.165   0.915
 5401SOL    HW117102   4.958   4.211   0.931
 5401SOL    HW217103   5.119   4.233   0.907
 5402SOL     OW17104   2.128   6.057   1.588
 5402SOL    HW117105   2.131   6.031   1.492
 5402SOL    HW217106   2.150   6.154   1.597
 5403SOL     OW17107   6.076   2.677   4.927
 5403SOL    HW117108   6.135   2.603   4.895
 5403SOL    HW217109   6.058   2.741   4.853
 5404SOL     OW17110   4.950   6.574   0.624
 5404SOL    HW117111   5.020   6.506   0.604
 5404SOL    HW217112   4.929   6.626   0.542
 5405SOL     OW17113   6.591   4.831   5.894
 5405SOL    HW117114   6.546   4.742   5.892
 5405SOL    HW217115   6.592   4.866   5.988
 5406SOL     OW17116   1.892   1.136   5.529
 5406SOL    HW117117   1.914   1.073   5.603
 5406SOL    HW217118   1.874   1.085   5.445
 5407SOL     OW17119   2.110   1.534   2.792
 5407SOL    HW117120   2.115   1.602   2.718
 5407SOL    HW217121   2.015   1.504   2.802
 5408SOL     OW17122   2.079   2.429   4.494
 5408SOL    HW117123   2.157   2.460   4.441
 5408SOL    HW217124   2.043   2.505   4.549
 5409SOL     OW17125   6.655   4.781   3.199
 5409SOL    HW117126   6.662   4.683   3.217
 5409SOL    HW217127   6.584   4.821   3.258
 5410SOL     OW17128   5.933   2.173   0.292
 5410SOL    HW117129   6.007   2.131   0.344
 5410SOL    HW217130   5.972   2.225   0.216
 5411SOL     OW17131   3.296   5.876   1.689
 5411SOL    HW117132   3.238   5.891   1.769
 5411SOL    HW217133   3.374   5.820   1.715
 5412SOL     OW17134   1.948   1.952   6.203
 5412SOL    HW117135   1.960   1.856   6.178
 5412SOL    HW217136   1.878   1.993   6.144
 5413SOL     OW17137   6.990   5.715   5.619
 5413SOL    HW117138   7.006   5.658   5.538
 5413SOL    HW217139   6.975   5.655   5.698
 5414SOL     OW17140   5.698   5.790   5.954
 5414SOL    HW117141   5.746   5.789   6.042
 5414SOL    HW217142   5.707   5.880   5.911
 5415SOL     OW17143   1.780   1.078   0.037
 5415SOL    HW117144   1.684   1.072   0.011
 5415SOL    HW217145   1.828   1.139   7.001
 5416SOL     OW17146   3.621   5.753   6.259
 5416SOL    HW117147   3.640   5.656   6.250
 5416SOL    HW217148   3.590   5.773   6.352
 5417SOL     OW17149   5.707   7.008   2.219
 5417SOL    HW117150   5.612   6.977   2.209
 5417SOL    HW217151   5.743   0.005   2.130
 5418SOL     OW17152   0.450   3.070   5.358
 5418SOL    HW117153   0.512   2.997   5.388
 5418SOL    HW217154   0.356   3.036   5.359
 5419SOL     OW17155   3.658   2.173   6.597
 5419SOL    HW117156   3.599   2.144   6.521
 5419SOL    HW217157   3.608   2.239   6.654
 5420SOL     OW17158   2.283   1.496   1.145
 5420SOL    HW117159   2.378   1.469   1.163
 5420SOL    HW217160   2.235   1.420   1.102
 5421SOL     OW17161   3.974   5.202   1.231
 5421SOL    HW117162   3.914   5.134   1.189
 5421SOL    HW217163   4.066   5.163   1.242
 5422SOL     OW17164   2.175   6.749   2.843
 5422SOL    HW117165   2.273   6.746   2.861
 5422SOL    HW217166   2.144   6.660   2.810
 5423SOL     OW17167   4.424   6.689   2.213
 5423SOL    HW117168   4.459   6.641   2.133
 5423SOL    HW217169   4.412   6.786   2.192
 5424SOL     OW17170   3.456   3.278   5.099
 5424SOL    HW117171   3.494   3.190   5.126
 5424SOL    HW217172   3.392   3.310   5.169
 5425SOL     OW17173   1.160   5.466   5.185
 5425SOL    HW117174   1.216   5.383   5.178
 5425SOL    HW217175   1.091   5.454   5.257
 5426SOL     OW17176   1.626   4.395   0.108
 5426SOL    HW117177   1.666   4.367   0.196
 5426SOL    HW217178   1.592   4.315   0.060
 5427SOL     OW17179   4.811   2.134   1.029
 5427SOL    HW117180   4.738   2.081   1.074
 5427SOL    HW217181   4.871   2.173   1.099
 5428SOL     OW17182   4.230   5.534   2.906
 5428SOL    HW117183   4.309   5.490   2.862
 5428SOL    HW217184   4.262   5.600   2.974
 5429SOL     OW17185   2.483   6.727   3.182
 5429SOL    HW117186   2.479   6.715   3.083
 5429SOL    HW217187   2.510   6.641   3.225
 5430SOL     OW17188   1.166   4.769   5.196
 5430SOL    HW117189   1.121   4.789   5.284
 5430SOL    HW217190   1.129   4.684   5.159
 5431SOL     OW17191   5.409   4.226   1.317
 5431SOL    HW117192   5.340   4.277   1.266
 5431SOL    HW217193   5.466   4.174   1.254
 5432SOL     OW17194   1.334   4.913   5.738
 5432SOL    HW117195   1.336   4.814   5.753
 5432SOL    HW217196   1.322   4.931   5.640
 5433SOL     OW17197   2.502   6.908   1.149
 5433SOL    HW117198   2.550   6.851   1.216
 5433SOL    HW217199   2.444   6.851   1.091
 5434SOL     OW17200   5.008   5.517   4.279
 5434SOL    HW117201   5.103   5.501   4.305
 5434SOL    HW217202   4.951   5.518   4.361
 5435SOL     OW17203   6.771   3.542   0.015
 5435SOL    HW117204   6.797   3.604   6.969
 5435SOL    HW217205   6.672   3.538   0.022
 5436SOL     OW17206   1.417   4.649   0.943
 5436SOL    HW117207   1.479   4.703   0.885
 5436SOL    HW217208   1.434   4.552   0.928
 5437SOL     OW17209   3.442   6.633   6.359
 5437SOL    HW117210   3.531   6.613   6.318
 5437SOL    HW217211   3.396   6.548   6.383
 5438SOL     OW17212   5.108   6.451   2.695
 5438SOL    HW117213   5.201   6.488   2.689
 5438SOL    HW217214   5.043   6.526   2.703
 5439SOL     OW17215   1.161   3.775   1.601
 5439SOL    HW117216   1.252   3.800   1.567
 5439SOL    HW217217   1.164   3.765   1.700
 5440SOL     OW17218   6.080   6.232   3.376
 5440SOL    HW117219   6.059   6.202   3.469
 5440SOL    HW217220   6.143   6.310   3.380
 5441SOL     OW17221   5.310   0.683   4.880
 5441SOL    HW117222   5.283   0.658   4.973
 5441SOL    HW217223   5.409   0.698   4.877
 5442SOL     OW17224   2.852   0.181   0.034
 5442SOL    HW117225   2.806   0.100   0.072
 5442SOL    HW217226   2.886   0.159   6.971
 5443SOL     OW17227   5.861   1.273   3.330
 5443SOL    HW117228   5.769   1.312   3.325
 5443SOL    HW217229   5.855   1.176   3.354
 5444SOL     OW17230   1.444   1.564   6.428
 5444SOL    HW117231   1.465   1.591   6.334
 5444SOL    HW217232   1.421   1.467   6.430
 5445SOL     OW17233   5.865   6.430   4.822
 5445SOL    HW117234   5.940   6.377   4.862
 5445SOL    HW217235   5.874   6.431   4.723
 5446SOL     OW17236   2.214   4.261   0.054
 5446SOL    HW117237   2.125   4.302   0.071
 5446SOL    HW217238   2.218   4.170   0.096
 5447SOL     OW17239   6.168   2.179   1.699
 5447SOL    HW117240   6.254   2.228   1.713
 5447SOL    HW217241   6.154   2.114   1.774
 5448SOL     OW17242   6.272   4.975   1.724
 5448SOL    HW117243   6.296   5.059   1.772
 5448SOL    HW217244   6.183   4.987   1.679
 5449SOL     OW17245   2.412   0.009   2.139
 5449SOL    HW117246   2.410   0.025   2.238
 5449SOL    HW217247   2.460   0.084   2.094
 5450SOL     OW17248   4.328   4.873   1.765
 5450SOL    HW117249   4.324   4.777   1.791
 5450SOL    HW217250   4.403   4.918   1.814
 5451SOL     OW17251   0.623   5.497   3.630
 5451SOL    HW117252   0.676   5.429   3.680
 5451SOL    HW217253   0.555   5.451   3.572
 5452SOL     OW17254   2.247   4.035   2.926
 5452SOL    HW117255   2.294   4.053   2.839
 5452SOL    HW217256   2.225   3.938   2.932
 5453SOL     OW17257   5.526   5.088   4.416
 5453SOL    HW117258   5.501   4.992   4.407
 5453SOL    HW217259   5.574   5.117   4.333
 5454SOL     OW17260   6.285   3.331   2.094
 5454SOL    HW117261   6.297   3.409   2.033
 5454SOL    HW217262   6.366   3.272   2.088
 5455SOL     OW17263   2.258   2.758   3.135
 5455SOL    HW117264   2.285   2.676   3.083
 5455SOL    HW217265   2.252   2.736   3.232
 5456SOL     OW17266   5.237   2.984   0.443
 5456SOL    HW117267   5.174   2.963   0.369
 5456SOL    HW217268   5.323   3.017   0.405
 5457SOL     OW17269   6.364   1.584   0.354
 5457SOL    HW117270   6.356   1.488   0.382
 5457SOL    HW217271   6.294   1.604   0.285
 5458SOL     OW17272   6.198   4.658   5.831
 5458SOL    HW117273   6.294   4.635   5.846
 5458SOL    HW217274   6.147   4.576   5.805
 5459SOL     OW17275   2.455   3.719   5.466
 5459SOL    HW117276   2.483   3.800   5.516
 5459SOL    HW217277   2.415   3.746   5.378
 5460SOL     OW17278   0.057   0.910   1.599
 5460SOL    HW117279   0.078   0.854   1.679
 5460SOL    HW217280   0.129   0.898   1.531
 5461SOL     OW17281   5.580   0.921   6.269
 5461SOL    HW117282   5.532   1.006   6.246
 5461SOL    HW217283   5.613   0.927   6.364
 5462SOL     OW17284   5.006   5.066   6.386
 5462SOL    HW117285   4.968   5.145   6.339
 5462SOL    HW217286   4.963   5.058   6.477
 5463SOL     OW17287   2.324   5.127   6.830
 5463SOL    HW117288   2.242   5.184   6.832
 5463SOL    HW217289   2.312   5.053   6.764
 5464SOL     OW17290   2.184   5.965   4.212
 5464SOL    HW117291   2.139   5.890   4.260
 5464SOL    HW217292   2.205   6.038   4.277
 5465SOL     OW17293   0.986   0.930   4.925
 5465SOL    HW117294   1.037   0.960   4.845
 5465SOL    HW217295   1.011   0.835   4.947
 5466SOL     OW17296   5.165   2.386   4.819
 5466SOL    HW117297   5.114   2.366   4.903
 5466SOL    HW217298   5.119   2.345   4.741
 5467SOL     OW17299   5.503   3.787   3.807
 5467SOL    HW117300   5.422   3.844   3.822
 5467SOL    HW217301   5.583   3.831   3.848
 5468SOL     OW17302   0.471   2.882   1.285
 5468SOL    HW117303   0.524   2.826   1.348
 5468SOL    HW217304   0.525   2.960   1.255
 5469SOL     OW17305   4.516   1.312   3.295
 5469SOL    HW117306   4.550   1.375   3.224
 5469SOL    HW217307   4.575   1.318   3.375
 5470SOL     OW17308   2.917   4.807   3.873
 5470SOL    HW117309   2.837   4.747   3.864
 5470SOL    HW217310   2.967   4.809   3.786
 5471SOL     OW17311   5.180   0.459   3.827
 5471SOL    HW117312   5.134   0.375   3.856
 5471SOL    HW217313   5.278   0.443   3.817
 5472SOL     OW17314   2.642   3.914   6.953
 5472SOL    HW117315   2.599   3.827   6.977
 5472SOL    HW217316   2.726   3.926   7.006
 5473SOL     OW17317   2.624   4.609   2.410
 5473SOL    HW117318   2.602   4.552   2.489
 5473SOL    HW217319   2.560   4.591   2.335
 5474SOL     OW17320   1.201   4.851   1.751
 5474SOL    HW117321   1.117   4.895   1.779
 5474SOL    HW217322   1.244   4.903   1.677
 5475SOL     OW17323   0.669   0.971   5.397
 5475SOL    HW117324   0.681   0.899   5.329
 5475SOL    HW217325   0.757   0.990   5.442
 5476SOL     OW17326   2.466   0.932   5.294
 5476SOL    HW117327   2.480   0.990   5.213
 5476SOL    HW217328   2.457   0.990   5.375
 5477SOL     OW17329   2.140   3.717   3.218
 5477SOL    HW117330   2.172   3.809   3.195
 5477SOL    HW217331   2.134   3.662   3.135
 5478SOL     OW17332   6.795   3.511   5.379
 5478SOL    HW117333   6.825   3.446   5.448
 5478SOL    HW217334   6.785   3.464   5.291
 5479SOL     OW17335   5.195   3.718   4.376
 5479SOL    HW117336   5.105   3.719   4.421
 5479SOL    HW217337   5.238   3.807   4.386
 5480SOL     OW17338   1.647   3.179   5.981
 5480SOL    HW117339   1.641   3.127   5.895
 5480SOL    HW217340   1.728   3.237   5.978
 5481SOL     OW17341   4.624   1.306   0.288
 5481SOL    HW117342   4.617   1.402   0.260
 5481SOL    HW217343   4.567   1.250   0.228
 5482SOL     OW17344   5.356   4.728   2.408
 5482SOL    HW117345   5.397   4.799   2.351
 5482SOL    HW217346   5.269   4.700   2.368
 5483SOL     OW17347   5.716   2.424   0.486
 5483SOL    HW117348   5.748   2.480   0.410
 5483SOL    HW217349   5.790   2.366   0.519
 5484SOL     OW17350   6.334   0.857   5.764
 5484SOL    HW117351   6.286   0.779   5.722
 5484SOL    HW217352   6.274   0.937   5.762
 5485SOL     OW17353   2.745   0.798   4.184
 5485SOL    HW117354   2.772   0.855   4.106
 5485SOL    HW217355   2.808   0.721   4.193
 5486SOL     OW17356   0.085   0.210   3.781
 5486SOL    HW117357   0.113   0.306   3.781
 5486SOL    HW217358   7.021   0.203   3.820
 5487SOL     OW17359   4.456   5.306   1.229
 5487SOL    HW117360   4.519   5.346   1.295
 5487SOL    HW217361   4.424   5.377   1.167
 5488SOL     OW17362   5.151   0.435   6.230
 5488SOL    HW117363   5.107   0.440   6.140
 5488SOL    HW217364   5.081   0.440   6.302
 5489SOL     OW17365   6.580   3.865   2.579
 5489SOL    HW117366   6.626   3.933   2.636
 5489SOL    HW217367   6.506   3.908   2.527
 5490SOL     OW17368   3.046   1.568   6.452
 5490SOL    HW117369   2.994   1.486   6.476
 5490SOL    HW217370   3.139   1.560   6.486
 5491SOL     OW17371   6.676   6.097   2.382
 5491SOL    HW117372   6.752   6.133   2.436
 5491SOL    HW217373   6.661   6.156   2.302
 5492SOL     OW17374   1.013   1.248   4.590
 5492SOL    HW117375   1.026   1.286   4.499
 5492SOL    HW217376   0.996   1.321   4.656
 5493SOL     OW17377   4.489   1.620   0.255
 5493SOL    HW117378   4.466   1.699   0.312
 5493SOL    HW217379   4.417   1.606   0.187
 5494SOL     OW17380   5.202   3.244   2.411
 5494SOL    HW117381   5.157   3.330   2.434
 5494SOL    HW217382   5.182   3.176   2.482
 5495SOL     OW17383   3.348   2.867   3.909
 5495SOL    HW117384   3.328   2.777   3.945
 5495SOL    HW217385   3.364   2.861   3.811
 5496SOL     OW17386   4.626   5.305   2.203
 5496SOL    HW117387   4.676   5.384   2.167
 5496SOL    HW217388   4.550   5.336   2.259
 5497SOL     OW17389   5.230   0.358   0.081
 5497SOL    HW117390   5.308   0.328   0.136
 5497SOL    HW217391   5.210   0.290   0.010
 5498SOL     OW17392   4.201   1.873   4.599
 5498SOL    HW117393   4.198   1.960   4.549
 5498SOL    HW217394   4.258   1.808   4.550
 5499SOL     OW17395   0.267   0.613   5.107
 5499SOL    HW117396   0.287   0.523   5.069
 5499SOL    HW217397   0.329   0.632   5.183
 5500SOL     OW17398   1.809   6.126   0.783
 5500SOL    HW117399   1.849   6.217   0.800
 5500SOL    HW217400   1.834   6.096   0.691
 5501SOL     OW17401   2.668   0.781   1.931
 5501SOL    HW117402   2.745   0.718   1.920
 5501SOL    HW217403   2.591   0.732   1.973
 5502SOL     OW17404   4.903   3.728   0.586
 5502SOL    HW117405   4.907   3.663   0.662
 5502SOL    HW217406   4.955   3.810   0.610
 5503SOL     OW17407   6.697   0.204   3.464
 5503SOL    HW117408   6.611   0.218   3.513
 5503SOL    HW217409   6.773   0.200   3.529
 5504SOL     OW17410   2.705   2.389   4.853
 5504SOL    HW117411   2.725   2.469   4.910
 5504SOL    HW217412   2.665   2.317   4.909
 5505SOL     OW17413   3.154   4.770   0.820
 5505SOL    HW117414   3.210   4.832   0.764
 5505SOL    HW217415   3.057   4.783   0.797
 5506SOL     OW17416   0.379   0.158   5.828
 5506SOL    HW117417   0.451   0.149   5.760
 5506SOL    HW217418   0.415   0.136   5.919
 5507SOL     OW17419   2.874   5.711   5.217
 5507SOL    HW117420   2.815   5.791   5.211
 5507SOL    HW217421   2.958   5.728   5.166
 5508SOL     OW17422   1.539   0.944   5.044
 5508SOL    HW117423   1.440   0.955   5.039
 5508SOL    HW217424   1.561   0.847   5.053
 5509SOL     OW17425   6.538   0.249   6.221
 5509SOL    HW117426   6.620   0.305   6.205
 5509SOL    HW217427   6.564   0.165   6.268
 5510SOL     OW17428   0.154   0.014   5.774
 5510SOL    HW117429   0.180   6.958   5.726
 5510SOL    HW217430   0.237   0.056   5.812
 5511SOL     OW17431   0.334   2.627   1.108
 5511SOL    HW117432   0.373   2.573   1.182
 5511SOL    HW217433   0.249   2.584   1.077
 5512SOL     OW17434   6.155   0.939   0.135
 5512SOL    HW117435   6.247   0.929   0.172
 5512SOL    HW217436   6.159   0.983   0.046
 5513SOL     OW17437   3.186   6.050   4.670
 5513SOL    HW117438   3.136   5.973   4.629
 5513SOL    HW217439   3.124   6.100   4.731
 5514SOL     OW17440   6.147   6.068   3.631
 5514SOL    HW117441   6.164   6.160   3.665
 5514SOL    HW217442   6.054   6.040   3.655
 5515SOL     OW17443   0.127   3.770   2.962
 5515SOL    HW117444   0.165   3.728   3.044
 5515SOL    HW217445   0.073   3.703   2.912
 5516SOL     OW17446   1.476   2.567   0.594
 5516SOL    HW117447   1.513   2.655   0.622
 5516SOL    HW217448   1.550   2.499   0.591
 5517SOL     OW17449   3.084   1.170   1.890
 5517SOL    HW117450   3.133   1.083   1.898
 5517SOL    HW217451   3.081   1.214   1.979
 5518SOL     OW17452   5.617   3.791   5.516
 5518SOL    HW117453   5.533   3.839   5.495
 5518SOL    HW217454   5.645   3.736   5.437
 5519SOL     OW17455   5.800   4.632   2.667
 5519SOL    HW117456   5.821   4.604   2.760
 5519SOL    HW217457   5.881   4.618   2.609
 5520SOL     OW17458   1.436   2.271   1.174
 5520SOL    HW117459   1.380   2.308   1.099
 5520SOL    HW217460   1.378   2.253   1.253
 5521SOL     OW17461   5.232   4.916   6.220
 5521SOL    HW117462   5.150   4.970   6.203
 5521SOL    HW217463   5.212   4.848   6.291
 5522SOL     OW17464   1.692   2.060   2.092
 5522SOL    HW117465   1.710   2.007   2.174
 5522SOL    HW217466   1.594   2.075   2.081
 5523SOL     OW17467   3.314   6.698   1.575
 5523SOL    HW117468   3.341   6.727   1.667
 5523SOL    HW217469   3.227   6.649   1.579
 5524SOL     OW17470   6.333   6.641   5.733
 5524SOL    HW117471   6.311   6.715   5.670
 5524SOL    HW217472   6.394   6.674   5.805
 5525SOL     OW17473   6.700   6.024   3.517
 5525SOL    HW117474   6.776   6.081   3.488
 5525SOL    HW217475   6.670   6.051   3.608
 5526SOL     OW17476   5.351   2.635   4.513
 5526SOL    HW117477   5.318   2.629   4.606
 5526SOL    HW217478   5.442   2.592   4.507
 5527SOL     OW17479   2.232   3.150   0.156
 5527SOL    HW117480   2.141   3.123   0.187
 5527SOL    HW217481   2.293   3.157   0.235
 5528SOL     OW17482   6.755   2.560   2.462
 5528SOL    HW117483   6.717   2.649   2.488
 5528SOL    HW217484   6.730   2.540   2.367
 5529SOL     OW17485   0.973   0.669   3.586
 5529SOL    HW117486   0.959   0.607   3.662
 5529SOL    HW217487   0.934   0.630   3.503
 5530SOL     OW17488   6.510   2.942   6.718
 5530SOL    HW117489   6.500   2.857   6.770
 5530SOL    HW217490   6.468   3.018   6.769
 5531SOL     OW17491   2.056   2.930   0.248
 5531SOL    HW117492   2.018   2.891   0.165
 5531SOL    HW217493   2.072   2.857   0.315
 5532SOL     OW17494   2.713   2.854   1.424
 5532SOL    HW117495   2.804   2.847   1.384
 5532SOL    HW217496   2.684   2.949   1.426
 5533SOL     OW17497   3.509   0.456   1.305
 5533SOL    HW117498   3.421   0.464   1.257
 5533SOL    HW217499   3.578   0.422   1.241
 5534SOL     OW17500   0.932   3.392   5.042
 5534SOL    HW117501   0.856   3.449   5.013
 5534SOL    HW217502   0.932   3.384   5.142
 5535SOL     OW17503   5.156   4.283   3.347
 5535SOL    HW117504   5.149   4.379   3.371
 5535SOL    HW217505   5.242   4.246   3.382
 5536SOL     OW17506   2.489   1.004   4.315
 5536SOL    HW117507   2.532   1.054   4.239
 5536SOL    HW217508   2.522   0.910   4.316
 5537SOL     OW17509   3.654   0.695   3.969
 5537SOL    HW117510   3.706   0.611   3.982
 5537SOL    HW217511   3.698   0.770   4.017
 5538SOL     OW17512   5.350   2.318   2.279
 5538SOL    HW117513   5.360   2.391   2.212
 5538SOL    HW217514   5.256   2.317   2.314
 5539SOL     OW17515   2.000   0.462   6.753
 5539SOL    HW117516   1.974   0.463   6.657
 5539SOL    HW217517   2.048   0.377   6.774
 5540SOL     OW17518   5.318   0.026   5.092
 5540SOL    HW117519   5.232   0.041   5.142
 5540SOL    HW217520   5.317   6.964   5.050
 5541SOL     OW17521   4.767   2.362   6.585
 5541SOL    HW117522   4.679   2.328   6.615
 5541SOL    HW217523   4.777   2.458   6.612
 5542SOL     OW17524   4.738   4.675   6.418
 5542SOL    HW117525   4.665   4.634   6.473
 5542SOL    HW217526   4.810   4.608   6.404
 5543SOL     OW17527   0.697   0.258   6.456
 5543SOL    HW117528   0.767   0.321   6.489
 5543SOL    HW217529   0.735   0.167   6.447
 5544SOL     OW17530   3.634   5.308   0.212
 5544SOL    HW117531   3.671   5.247   0.141
 5544SOL    HW217532   3.695   5.387   0.223
 5545SOL     OW17533   5.991   1.691   2.442
 5545SOL    HW117534   5.962   1.779   2.403
 5545SOL    HW217535   5.912   1.630   2.447
 5546SOL     OW17536   0.174   5.703   4.327
 5546SOL    HW117537   0.174   5.771   4.253
 5546SOL    HW217538   0.235   5.628   4.304
 5547SOL     OW17539   5.330   1.590   4.983
 5547SOL    HW117540   5.338   1.669   4.922
 5547SOL    HW217541   5.313   1.508   4.930
 5548SOL     OW17542   0.664   3.549   5.010
 5548SOL    HW117543   0.663   3.635   4.959
 5548SOL    HW217544   0.585   3.494   4.984
 5549SOL     OW17545   3.849   2.658   0.854
 5549SOL    HW117546   3.852   2.712   0.938
 5549SOL    HW217547   3.876   2.714   0.776
 5550SOL     OW17548   2.452   4.188   1.690
 5550SOL    HW117549   2.387   4.237   1.633
 5550SOL    HW217550   2.537   4.174   1.640
 5551SOL     OW17551   1.852   4.599   2.571
 5551SOL    HW117552   1.923   4.537   2.604
 5551SOL    HW217553   1.877   4.693   2.594
 5552SOL     OW17554   0.841   0.249   0.243
 5552SOL    HW117555   0.908   0.177   0.226
 5552SOL    HW217556   0.794   0.230   0.329
 5553SOL     OW17557   5.482   6.937   6.963
 5553SOL    HW117558   5.411   6.946   0.004
 5553SOL    HW217559   5.560   6.995   6.987
 5554SOL     OW17560   6.750   2.544   1.307
 5554SOL    HW117561   6.720   2.522   1.400
 5554SOL    HW217562   6.719   2.635   1.282
 5555SOL     OW17563   1.601   5.423   2.573
 5555SOL    HW117564   1.646   5.334   2.578
 5555SOL    HW217565   1.656   5.484   2.515
 5556SOL     OW17566   6.984   1.295   4.885
 5556SOL    HW117567   0.004   1.383   4.884
 5556SOL    HW217568   6.919   1.292   4.809
 5557SOL     OW17569   3.785   6.318   2.652
 5557SOL    HW117570   3.879   6.342   2.630
 5557SOL    HW217571   3.734   6.304   2.567
 5558SOL     OW17572   4.669   3.224   6.325
 5558SOL    HW117573   4.584   3.275   6.310
 5558SOL    HW217574   4.699   3.183   6.238
 5559SOL     OW17575   3.809   0.583   2.382
 5559SOL    HW117576   3.756   0.655   2.427
 5559SOL    HW217577   3.792   0.495   2.428
 5560SOL     OW17578   0.205   5.639   3.611
 5560SOL    HW117579   0.115   5.666   3.644
 5560SOL    HW217580   0.196   5.557   3.554
 5561SOL     OW17581   3.519   0.396   3.519
 5561SOL    HW117582   3.605   0.403   3.571
 5561SOL    HW217583   3.532   0.332   3.443
 5562SOL     OW17584   4.098   3.163   0.767
 5562SOL    HW117585   4.122   3.234   0.833
 5562SOL    HW217586   4.015   3.189   0.718
 5563SOL     OW17587   2.420   4.818   2.310
 5563SOL    HW117588   2.416   4.719   2.296
 5563SOL    HW217589   2.482   4.859   2.243
 5564SOL     OW17590   4.901   0.308   6.543
 5564SOL    HW117591   4.893   0.375   6.469
 5564SOL    HW217592   4.855   0.223   6.516
 5565SOL     OW17593   3.891   0.880   5.978
 5565SOL    HW117594   3.930   0.887   6.070
 5565SOL    HW217595   3.880   0.971   5.939
 5566SOL     OW17596   1.176   5.288   5.451
 5566SOL    HW117597   1.137   5.206   5.410
 5566SOL    HW217598   1.103   5.356   5.463
 5567SOL     OW17599   0.405   4.928   7.019
 5567SOL    HW117600   0.420   5.027   7.018
 5567SOL    HW217601   0.457   4.887   0.066
 5568SOL     OW17602   4.985   4.978   1.509
 5568SOL    HW117603   4.909   4.914   1.514
 5568SOL    HW217604   4.950   5.071   1.504
 5569SOL     OW17605   2.325   2.310   2.663
 5569SOL    HW117606   2.235   2.315   2.705
 5569SOL    HW217607   2.324   2.356   2.574
 5570SOL     OW17608   6.703   3.773   1.280
 5570SOL    HW117609   6.635   3.748   1.349
 5570SOL    HW217610   6.763   3.696   1.263
 5571SOL     OW17611   6.643   4.391   1.056
 5571SOL    HW117612   6.646   4.449   0.975
 5571SOL    HW217613   6.595   4.440   1.130
 5572SOL     OW17614   1.444   4.203   5.077
 5572SOL    HW117615   1.401   4.182   5.165
 5572SOL    HW217616   1.484   4.119   5.039
 5573SOL     OW17617   3.608   5.355   3.901
 5573SOL    HW117618   3.669   5.286   3.863
 5573SOL    HW217619   3.654   5.402   3.977
 5574SOL     OW17620   0.880   1.880   6.058
 5574SOL    HW117621   0.849   1.866   6.152
 5574SOL    HW217622   0.896   1.791   6.015
 5575SOL     OW17623   6.697   0.650   1.878
 5575SOL    HW117624   6.793   0.623   1.881
 5575SOL    HW217625   6.663   0.661   1.972
 5576SOL     OW17626   1.518   5.058   3.699
 5576SOL    HW117627   1.548   4.962   3.701
 5576SOL    HW217628   1.596   5.117   3.719
 5577SOL     OW17629   2.179   2.608   6.113
 5577SOL    HW117630   2.170   2.700   6.074
 5577SOL    HW217631   2.276   2.588   6.128
 5578SOL     OW17632   3.767   4.114   4.103
 5578SOL    HW117633   3.809   4.042   4.047
 5578SOL    HW217634   3.787   4.097   4.199
 5579SOL     OW17635   6.154   2.945   1.680
 5579SOL    HW117636   6.148   2.997   1.595
 5579SOL    HW217637   6.140   3.006   1.758
 5580SOL     OW17638   5.113   1.806   5.480
 5580SOL    HW117639   5.184   1.778   5.416
 5580SOL    HW217640   5.155   1.839   5.564
 5581SOL     OW17641   1.245   1.841   6.473
 5581SOL    HW117642   1.228   1.919   6.413
 5581SOL    HW217643   1.335   1.849   6.514
 5582SOL     OW17644   2.953   2.386   6.145
 5582SOL    HW117645   2.952   2.357   6.050
 5582SOL    HW217646   3.045   2.419   6.169
 5583SOL     OW17647   5.982   0.160   0.748
 5583SOL    HW117648   5.973   0.255   0.776
 5583SOL    HW217649   5.971   0.153   0.649
 5584SOL     OW17650   1.925   3.140   4.574
 5584SOL    HW117651   1.832   3.121   4.606
 5584SOL    HW217652   1.982   3.167   4.650
 5585SOL     OW17653   5.711   4.799   1.423
 5585SOL    HW117654   5.796   4.834   1.463
 5585SOL    HW217655   5.666   4.872   1.372
 5586SOL     OW17656   1.028   5.392   1.177
 5586SOL    HW117657   1.127   5.391   1.183
 5586SOL    HW217658   0.998   5.471   1.123
 5587SOL     OW17659   6.172   0.628   5.624
 5587SOL    HW117660   6.088   0.624   5.679
 5587SOL    HW217661   6.206   0.536   5.608
 5588SOL     OW17662   3.429   6.778   0.835
 5588SOL    HW117663   3.333   6.797   0.855
 5588SOL    HW217664   3.437   6.690   0.788
 5589SOL     OW17665   6.684   4.606   6.162
 5589SOL    HW117666   6.663   4.695   6.122
 5589SOL    HW217667   6.632   4.593   6.246
 5590SOL     OW17668   6.127   5.529   3.163
 5590SOL    HW117669   6.189   5.454   3.186
 5590SOL    HW217670   6.044   5.493   3.122
 5591SOL     OW17671   5.091   1.479   1.726
 5591SOL    HW117672   5.010   1.459   1.671
 5591SOL    HW217673   5.171   1.482   1.666
 5592SOL     OW17674   6.989   4.649   3.542
 5592SOL    HW117675   7.022   4.716   3.476
 5592SOL    HW217676   6.900   4.614   3.514
 5593SOL     OW17677   1.072   4.008   0.699
 5593SOL    HW117678   0.975   4.004   0.674
 5593SOL    HW217679   1.087   4.083   0.763
 5594SOL     OW17680   5.924   1.562   5.909
 5594SOL    HW117681   5.887   1.538   5.999
 5594SOL    HW217682   5.849   1.565   5.843
 5595SOL     OW17683   0.334   2.458   0.669
 5595SOL    HW117684   0.321   2.399   0.749
 5595SOL    HW217685   0.382   2.408   0.597
 5596SOL     OW17686   3.476   6.258   3.480
 5596SOL    HW117687   3.412   6.197   3.434
 5596SOL    HW217688   3.439   6.351   3.483
 5597SOL     OW17689   5.177   2.959   1.692
 5597SOL    HW117690   5.147   2.915   1.608
 5597SOL    HW217691   5.100   2.967   1.756
 5598SOL     OW17692   4.453   0.782   4.742
 5598SOL    HW117693   4.520   0.714   4.770
 5598SOL    HW217694   4.454   0.791   4.643
 5599SOL     OW17695   0.665   1.231   3.721
 5599SOL    HW117696   0.640   1.201   3.813
 5599SOL    HW217697   0.635   1.326   3.709
 5600SOL     OW17698   2.597   2.762   5.611
 5600SOL    HW117699   2.605   2.845   5.556
 5600SOL    HW217700   2.680   2.750   5.666
 5601SOL     OW17701   2.703   0.614   6.463
 5601SOL    HW117702   2.749   0.558   6.395
 5601SOL    HW217703   2.716   0.710   6.442
 5602SOL     OW17704   1.753   0.825   6.719
 5602SOL    HW117705   1.784   0.789   6.808
 5602SOL    HW217706   1.670   0.879   6.732
 5603SOL     OW17707   6.347   4.158   5.522
 5603SOL    HW117708   6.390   4.199   5.442
 5603SOL    HW217709   6.411   4.093   5.563
 5604SOL     OW17710   5.451   1.195   6.196
 5604SOL    HW117711   5.477   1.236   6.283
 5604SOL    HW217712   5.354   1.213   6.179
 5605SOL     OW17713   0.309   1.898   6.551
 5605SOL    HW117714   0.404   1.875   6.531
 5605SOL    HW217715   0.288   1.873   6.645
 5606SOL     OW17716   5.376   0.060   2.946
 5606SOL    HW117717   5.462   0.029   2.905
 5606SOL    HW217718   5.388   0.154   2.978
 5607SOL     OW17719   5.475   0.450   1.326
 5607SOL    HW117720   5.493   0.483   1.234
 5607SOL    HW217721   5.558   0.457   1.381
 5608SOL     OW17722   4.143   6.231   5.170
 5608SOL    HW117723   4.068   6.296   5.162
 5608SOL    HW217724   4.229   6.280   5.179
 5609SOL     OW17725   1.385   5.619   5.710
 5609SOL    HW117726   1.331   5.635   5.792
 5609SOL    HW217727   1.325   5.619   5.630
 5610SOL     OW17728   4.442   0.138   6.444
 5610SOL    HW117729   4.410   0.076   6.373
 5610SOL    HW217730   4.373   0.143   6.517
 5611SOL     OW17731   2.071   4.248   3.989
 5611SOL    HW117732   2.082   4.264   4.087
 5611SOL    HW217733   2.070   4.336   3.941
 5612SOL     OW17734   3.181   6.632   4.690
 5612SOL    HW117735   3.229   6.660   4.772
 5612SOL    HW217736   3.183   6.532   4.682
 5613SOL     OW17737   3.182   5.578   1.742
 5613SOL    HW117738   3.136   5.620   1.664
 5613SOL    HW217739   3.138   5.609   1.827
 5614SOL     OW17740   5.448   1.539   4.566
 5614SOL    HW117741   5.462   1.457   4.511
 5614SOL    HW217742   5.376   1.595   4.525
 5615SOL     OW17743   1.382   1.759   1.929
 5615SOL    HW117744   1.480   1.778   1.938
 5615SOL    HW217745   1.368   1.684   1.864
 5616SOL     OW17746   1.788   6.439   4.787
 5616SOL    HW117747   1.826   6.495   4.861
 5616SOL    HW217748   1.850   6.440   4.709
 5617SOL     OW17749   0.599   0.977   5.675
 5617SOL    HW117750   0.612   0.889   5.719
 5617SOL    HW217751   0.600   0.965   5.576
 5618SOL     OW17752   6.170   5.387   2.689
 5618SOL    HW117753   6.119   5.391   2.775
 5618SOL    HW217754   6.120   5.439   2.619
 5619SOL     OW17755   2.310   3.800   5.270
 5619SOL    HW117756   2.360   3.881   5.240
 5619SOL    HW217757   2.221   3.827   5.305
 5620SOL     OW17758   4.846   1.845   6.902
 5620SOL    HW117759   4.842   1.887   6.993
 5620SOL    HW217760   4.940   1.845   6.870
 5621SOL     OW17761   2.412   1.943   6.559
 5621SOL    HW117762   2.485   1.917   6.496
 5621SOL    HW217763   2.367   2.027   6.526
 5622SOL     OW17764   5.583   0.470   5.235
 5622SOL    HW117765   5.682   0.481   5.243
 5622SOL    HW217766   5.539   0.559   5.241
 5623SOL     OW17767   0.079   6.366   7.027
 5623SOL    HW117768   0.156   6.304   7.018
 5623SOL    HW217769   0.035   6.351   0.088
 5624SOL     OW17770   0.228   4.120   1.713
 5624SOL    HW117771   0.276   4.159   1.635
 5624SOL    HW217772   0.249   4.023   1.721
 5625SOL     OW17773   6.357   2.030   5.486
 5625SOL    HW117774   6.271   2.005   5.531
 5625SOL    HW217775   6.341   2.106   5.424
 5626SOL     OW17776   5.400   6.813   4.987
 5626SOL    HW117777   5.416   6.725   4.943
 5626SOL    HW217778   5.460   6.882   4.947
 5627SOL     OW17779   0.845   0.352   1.005
 5627SOL    HW117780   0.751   0.387   1.006
 5627SOL    HW217781   0.907   0.426   0.978
 5628SOL     OW17782   1.493   1.492   4.313
 5628SOL    HW117783   1.478   1.493   4.412
 5628SOL    HW217784   1.582   1.533   4.293
 5629SOL     OW17785   3.514   2.928   3.389
 5629SOL    HW117786   3.487   2.929   3.293
 5629SOL    HW217787   3.613   2.939   3.396
 5630SOL     OW17788   6.489   4.159   1.160
 5630SOL    HW117789   6.449   4.185   1.247
 5630SOL    HW217790   6.536   4.237   1.119
 5631SOL     OW17791   5.772   1.220   6.298
 5631SOL    HW117792   5.686   1.211   6.348
 5631SOL    HW217793   5.838   1.154   6.332
 5632SOL     OW17794   3.006   2.052   0.689
 5632SOL    HW117795   2.988   2.004   0.603
 5632SOL    HW217796   2.944   2.019   0.760
 5633SOL     OW17797   6.690   2.777   5.471
 5633SOL    HW117798   6.685   2.682   5.502
 5633SOL    HW217799   6.602   2.805   5.433
 5634SOL     OW17800   5.028   6.586   4.457
 5634SOL    HW117801   5.103   6.638   4.417
 5634SOL    HW217802   4.994   6.520   4.390
 5635SOL     OW17803   3.444   1.423   6.020
 5635SOL    HW117804   3.474   1.468   5.936
 5635SOL    HW217805   3.402   1.490   6.081
 5636SOL     OW17806   4.320   6.690   4.418
 5636SOL    HW117807   4.355   6.772   4.464
 5636SOL    HW217808   4.367   6.609   4.454
 5637SOL     OW17809   6.014   0.095   3.506
 5637SOL    HW117810   5.980   0.021   3.448
 5637SOL    HW217811   6.107   0.119   3.477
 5638SOL     OW17812   0.074   3.638   0.397
 5638SOL    HW117813   7.026   3.666   0.338
 5638SOL    HW217814   0.105   3.717   0.450
 5639SOL     OW17815   4.377   6.975   7.005
 5639SOL    HW117816   4.448   0.001   6.960
 5639SOL    HW217817   4.343   7.024   0.056
 5640SOL     OW17818   1.189   0.335   3.070
 5640SOL    HW117819   1.102   0.385   3.070
 5640SOL    HW217820   1.255   0.382   3.011
 5641SOL     OW17821   6.596   5.252   4.566
 5641SOL    HW117822   6.608   5.153   4.568
 5641SOL    HW217823   6.508   5.276   4.605
 5642SOL     OW17824   1.707   1.386   0.064
 5642SOL    HW117825   1.630   1.417   0.007
 5642SOL    HW217826   1.671   1.334   0.142
 5643SOL     OW17827   5.238   2.087   5.998
 5643SOL    HW117828   5.278   1.996   5.988
 5643SOL    HW217829   5.296   2.144   6.056
 5644SOL     OW17830   2.602   0.857   5.970
 5644SOL    HW117831   2.620   0.770   5.924
 5644SOL    HW217832   2.687   0.909   5.977
 5645SOL     OW17833   5.766   3.755   4.583
 5645SOL    HW117834   5.762   3.855   4.579
 5645SOL    HW217835   5.860   3.725   4.565
 5646SOL     OW17836   0.675   4.123   2.911
 5646SOL    HW117837   0.630   4.157   2.994
 5646SOL    HW217838   0.660   4.188   2.837
 5647SOL     OW17839   5.418   5.879   2.505
 5647SOL    HW117840   5.434   5.910   2.599
 5647SOL    HW217841   5.467   5.939   2.442
 5648SOL     OW17842   5.105   6.140   3.030
 5648SOL    HW117843   5.006   6.124   3.039
 5648SOL    HW217844   5.154   6.080   3.093
 5649SOL     OW17845   0.677   0.088   4.691
 5649SOL    HW117846   0.769   0.124   4.674
 5649SOL    HW217847   0.684   0.008   4.752
 5650SOL     OW17848   0.095   4.005   6.059
 5650SOL    HW117849   0.011   3.955   6.080
 5650SOL    HW217850   0.143   3.960   5.984
 5651SOL     OW17851   2.765   1.125   0.621
 5651SOL    HW117852   2.782   1.213   0.577
 5651SOL    HW217853   2.666   1.108   0.625
 5652SOL     OW17854   0.538   5.434   3.077
 5652SOL    HW117855   0.581   5.501   3.137
 5652SOL    HW217856   0.529   5.473   2.985
 5653SOL     OW17857   6.842   0.336   3.057
 5653SOL    HW117858   6.829   0.349   3.155
 5653SOL    HW217859   6.850   0.238   3.038
 5654SOL     OW17860   3.502   5.914   5.575
 5654SOL    HW117861   3.423   5.973   5.561
 5654SOL    HW217862   3.563   5.955   5.643
 5655SOL     OW17863   5.400   3.046   4.587
 5655SOL    HW117864   5.320   2.989   4.566
 5655SOL    HW217865   5.482   2.989   4.587
 5656SOL     OW17866   0.196   3.868   0.479
 5656SOL    HW117867   0.232   3.937   0.542
 5656SOL    HW217868   0.142   3.913   0.407
 5657SOL     OW17869   5.520   6.217   4.935
 5657SOL    HW117870   5.606   6.200   4.887
 5657SOL    HW217871   5.450   6.154   4.903
 5658SOL     OW17872   2.450   2.548   6.218
 5658SOL    HW117873   2.532   2.586   6.176
 5658SOL    HW217874   2.476   2.477   6.284
 5659SOL     OW17875   2.600   4.221   6.860
 5659SOL    HW117876   2.633   4.131   6.888
 5659SOL    HW217877   2.594   4.281   6.940
 5660SOL     OW17878   3.860   0.208   4.820
 5660SOL    HW117879   3.870   0.266   4.739
 5660SOL    HW217880   3.788   0.140   4.803
 5661SOL     OW17881   1.035   5.858   6.208
 5661SOL    HW117882   1.110   5.884   6.269
 5661SOL    HW217883   1.059   5.772   6.162
 5662SOL     OW17884   2.916   6.213   0.658
 5662SOL    HW117885   2.911   6.114   0.644
 5662SOL    HW217886   2.924   6.232   0.756
 5663SOL     OW17887   2.254   2.663   6.434
 5663SOL    HW117888   2.166   2.693   6.397
 5663SOL    HW217889   2.310   2.625   6.361
 5664SOL     OW17890   4.952   4.715   4.288
 5664SOL    HW117891   4.903   4.638   4.328
 5664SOL    HW217892   5.033   4.736   4.343
 5665SOL     OW17893   1.748   1.679   0.862
 5665SOL    HW117894   1.723   1.652   0.769
 5665SOL    HW217895   1.806   1.608   0.902
 5666SOL     OW17896   5.653   2.948   4.635
 5666SOL    HW117897   5.741   2.953   4.588
 5666SOL    HW217898   5.650   2.865   4.691
 5667SOL     OW17899   3.120   4.819   4.053
 5667SOL    HW117900   3.039   4.791   4.001
 5667SOL    HW217901   3.102   4.812   4.151
 5668SOL     OW17902   4.619   4.381   3.869
 5668SOL    HW117903   4.608   4.331   3.954
 5668SOL    HW217904   4.666   4.324   3.802
 5669SOL     OW17905   5.656   4.159   5.789
 5669SOL    HW117906   5.585   4.147   5.859
 5669SOL    HW217907   5.623   4.119   5.703
 5670SOL     OW17908   1.253   2.661   4.271
 5670SOL    HW117909   1.298   2.690   4.186
 5670SOL    HW217910   1.283   2.720   4.346
 5671SOL     OW17911   6.863   5.764   3.112
 5671SOL    HW117912   6.794   5.798   3.177
 5671SOL    HW217913   6.828   5.683   3.065
 5672SOL     OW17914   5.111   3.158   4.689
 5672SOL    HW117915   5.017   3.186   4.669
 5672SOL    HW217916   5.171   3.185   4.614
 5673SOL     OW17917   0.327   2.634   0.397
 5673SOL    HW117918   0.366   2.643   0.305
 5673SOL    HW217919   0.371   2.557   0.444
 5674SOL     OW17920   2.809   5.434   5.231
 5674SOL    HW117921   2.872   5.387   5.169
 5674SOL    HW217922   2.835   5.531   5.237
 5675SOL     OW17923   3.272   2.103   0.800
 5675SOL    HW117924   3.268   2.073   0.895
 5675SOL    HW217925   3.192   2.068   0.750
 5676SOL     OW17926   3.879   1.331   1.816
 5676SOL    HW117927   3.867   1.232   1.820
 5676SOL    HW217928   3.790   1.376   1.828
 5677SOL     OW17929   0.719   1.572   6.091
 5677SOL    HW117930   0.679   1.660   6.067
 5677SOL    HW217931   0.814   1.568   6.059
 5678SOL     OW17932   3.865   1.917   2.231
 5678SOL    HW117933   3.811   1.975   2.292
 5678SOL    HW217934   3.849   1.944   2.136
 5679SOL     OW17935   0.106   3.771   5.484
 5679SOL    HW117936   0.204   3.788   5.475
 5679SOL    HW217937   0.065   3.762   5.393
 5680SOL     OW17938   0.476   5.563   4.904
 5680SOL    HW117939   0.488   5.642   4.845
 5680SOL    HW217940   0.473   5.480   4.848
 5681SOL     OW17941   1.497   3.542   3.291
 5681SOL    HW117942   1.508   3.502   3.200
 5681SOL    HW217943   1.402   3.574   3.301
 5682SOL     OW17944   1.991   4.874   1.182
 5682SOL    HW117945   1.904   4.904   1.221
 5682SOL    HW217946   2.041   4.822   1.251
 5683SOL     OW17947   6.946   0.131   5.829
 5683SOL    HW117948   0.007   0.095   5.801
 5683SOL    HW217949   6.892   0.151   5.747
 5684SOL     OW17950   1.961   2.798   4.876
 5684SOL    HW117951   1.971   2.704   4.908
 5684SOL    HW217952   1.983   2.802   4.779
 5685SOL     OW17953   2.256   1.420   1.911
 5685SOL    HW117954   2.277   1.518   1.911
 5685SOL    HW217955   2.339   1.367   1.927
 5686SOL     OW17956   5.211   6.173   5.721
 5686SOL    HW117957   5.231   6.132   5.632
 5686SOL    HW217958   5.296   6.189   5.770
 5687SOL     OW17959   1.755   6.699   6.375
 5687SOL    HW117960   1.828   6.735   6.317
 5687SOL    HW217961   1.795   6.665   6.461
 5688SOL     OW17962   1.721   2.069   3.169
 5688SOL    HW117963   1.758   2.154   3.205
 5688SOL    HW217964   1.791   1.997   3.176
 5689SOL     OW17965   0.131   2.442   1.108
 5689SOL    HW117966   0.068   2.493   1.166
 5689SOL    HW217967   0.126   2.345   1.129
 5690SOL     OW17968   3.313   5.272   0.021
 5690SOL    HW117969   3.285   5.363   0.054
 5690SOL    HW217970   3.296   5.265   6.951
 5691SOL     OW17971   4.476   2.513   3.837
 5691SOL    HW117972   4.531   2.433   3.814
 5691SOL    HW217973   4.521   2.564   3.911
 5692SOL     OW17974   6.247   4.972   1.323
 5692SOL    HW117975   6.271   5.010   1.233
 5692SOL    HW217976   6.206   5.044   1.380
 5693SOL     OW17977   3.468   0.247   2.275
 5693SOL    HW117978   3.441   0.310   2.202
 5693SOL    HW217979   3.530   0.294   2.338
 5694SOL     OW17980   0.496   0.507   1.259
 5694SOL    HW117981   0.396   0.509   1.263
 5694SOL    HW217982   0.531   0.457   1.338
 5695SOL     OW17983   2.037   1.331   2.067
 5695SOL    HW117984   2.104   1.366   2.002
 5695SOL    HW217985   1.956   1.389   2.067
 5696SOL     OW17986   0.468   6.663   3.874
 5696SOL    HW117987   0.390   6.722   3.853
 5696SOL    HW217988   0.435   6.571   3.898
 5697SOL     OW17989   6.153   1.634   0.173
 5697SOL    HW117990   6.208   1.608   0.094
 5697SOL    HW217991   6.079   1.695   0.144
 5698SOL     OW17992   3.314   2.158   3.879
 5698SOL    HW117993   3.394   2.189   3.931
 5698SOL    HW217994   3.344   2.115   3.794
 5699SOL     OW17995   2.244   2.937   2.664
 5699SOL    HW117996   2.292   3.019   2.633
 5699SOL    HW217997   2.259   2.862   2.599
 5700SOL     OW17998   5.888   0.104   2.880
 5700SOL    HW117999   5.974   0.057   2.898
 5700SOL    HW218000   5.882   0.186   2.937
 5701SOL     OW18001   1.492   0.602   0.775
 5701SOL    HW118002   1.433   0.678   0.748
 5701SOL    HW218003   1.544   0.627   0.857
 5702SOL     OW18004   1.422   6.219   4.929
 5702SOL    HW118005   1.492   6.156   4.894
 5702SOL    HW218006   1.348   6.166   4.971
 5703SOL     OW18007   0.417   2.896   6.031
 5703SOL    HW118008   0.497   2.874   5.976
 5703SOL    HW218009   0.416   2.994   6.051
 5704SOL     OW18010   4.073   5.580   4.193
 5704SOL    HW118011   4.147   5.584   4.260
 5704SOL    HW218012   4.093   5.509   4.125
 5705SOL     OW18013   5.809   0.736   5.344
 5705SOL    HW118014   5.872   0.668   5.306
 5705SOL    HW218015   5.856   0.824   5.350
 5706SOL     OW18016   5.276   2.040   1.144
 5706SOL    HW118017   5.248   1.958   1.095
 5706SOL    HW218018   5.303   2.016   1.238
 5707SOL     OW18019   5.953   5.343   0.991
 5707SOL    HW118020   5.975   5.263   1.046
 5707SOL    HW218021   6.013   5.419   1.017
 5708SOL     OW18022   5.383   6.238   1.692
 5708SOL    HW118023   5.330   6.175   1.635
 5708SOL    HW218024   5.354   6.229   1.787
 5709SOL     OW18025   0.241   2.903   2.320
 5709SOL    HW118026   0.183   2.933   2.244
 5709SOL    HW218027   0.256   2.979   2.383
 5710SOL     OW18028   5.229   1.427   0.893
 5710SOL    HW118029   5.283   1.511   0.893
 5710SOL    HW218030   5.142   1.443   0.846
 5711SOL     OW18031   4.461   1.809   2.075
 5711SOL    HW118032   4.431   1.774   2.164
 5711SOL    HW218033   4.528   1.747   2.034
 5712SOL     OW18034   6.166   6.195   6.768
 5712SOL    HW118035   6.211   6.131   6.830
 5712SOL    HW218036   6.067   6.178   6.769
 5713SOL     OW18037   1.202   1.391   0.883
 5713SOL    HW118038   1.174   1.461   0.948
 5713SOL    HW218039   1.188   1.300   0.923
 5714SOL     OW18040   5.859   0.391   0.873
 5714SOL    HW118041   5.882   0.488   0.864
 5714SOL    HW218042   5.767   0.375   0.837
 5715SOL     OW18043   6.978   6.958   1.179
 5715SOL    HW118044   0.011   6.944   1.257
 5715SOL    HW218045   0.001   7.000   1.104
 5716SOL     OW18046   0.693   4.885   5.080
 5716SOL    HW118047   0.731   4.976   5.061
 5716SOL    HW218048   0.599   4.881   5.047
 5717SOL     OW18049   0.209   5.201   3.359
 5717SOL    HW118050   0.306   5.221   3.366
 5717SOL    HW218051   0.190   5.154   3.273
 5718SOL     OW18052   1.178   3.997   0.135
 5718SOL    HW118053   1.178   4.090   0.099
 5718SOL    HW218054   1.207   3.933   0.064
 5719SOL     OW18055   2.766   3.182   0.662
 5719SOL    HW118056   2.797   3.268   0.701
 5719SOL    HW218057   2.839   3.143   0.605
 5720SOL     OW18058   2.905   5.317   6.435
 5720SOL    HW118059   2.997   5.343   6.405
 5720SOL    HW218060   2.882   5.368   6.518
 5721SOL     OW18061   1.024   2.890   0.743
 5721SOL    HW118062   1.059   2.814   0.689
 5721SOL    HW218063   0.975   2.854   0.823
 5722SOL     OW18064   1.341   0.316   5.834
 5722SOL    HW118065   1.320   0.271   5.747
 5722SOL    HW218066   1.373   0.409   5.815
 5723SOL     OW18067   4.332   3.228   0.474
 5723SOL    HW118068   4.233   3.242   0.478
 5723SOL    HW218069   4.359   3.166   0.547
 5724SOL     OW18070   5.805   2.129   5.796
 5724SOL    HW118071   5.747   2.197   5.752
 5724SOL    HW218072   5.752   2.076   5.862
 5725SOL     OW18073   6.899   4.511   4.772
 5725SOL    HW118074   6.869   4.430   4.824
 5725SOL    HW218075   6.994   4.499   4.744
 5726SOL     OW18076   4.621   4.381   2.207
 5726SOL    HW118077   4.592   4.319   2.134
 5726SOL    HW218078   4.692   4.442   2.173
 5727SOL     OW18079   1.289   2.797   5.849
 5727SOL    HW118080   1.342   2.873   5.886
 5727SOL    HW218081   1.300   2.717   5.908
 5728SOL     OW18082   2.794   6.629   5.173
 5728SOL    HW118083   2.711   6.578   5.194
 5728SOL    HW218084   2.874   6.571   5.190
 5729SOL     OW18085   2.561   1.978   4.905
 5729SOL    HW118086   2.514   2.058   4.868
 5729SOL    HW218087   2.654   1.975   4.869
 5730SOL     OW18088   6.363   4.447   4.975
 5730SOL    HW118089   6.281   4.483   4.931
 5730SOL    HW218090   6.384   4.502   5.056
 5731SOL     OW18091   0.881   6.282   2.726
 5731SOL    HW118092   0.833   6.291   2.639
 5731SOL    HW218093   0.965   6.230   2.713
 5732SOL     OW18094   5.623   0.345   3.627
 5732SOL    HW118095   5.539   0.371   3.580
 5732SOL    HW218096   5.639   0.247   3.616
 5733SOL     OW18097   2.657   0.866   5.078
 5733SOL    HW118098   2.714   0.786   5.093
 5733SOL    HW218099   2.590   0.874   5.152
 5734SOL     OW18100   1.624   6.847   3.721
 5734SOL    HW118101   1.569   6.824   3.801
 5734SOL    HW218102   1.614   6.944   3.700
 5735SOL     OW18103   2.995   0.944   1.371
 5735SOL    HW118104   3.087   0.907   1.355
 5735SOL    HW218105   2.944   0.946   1.285
 5736SOL     OW18106   1.871   5.442   0.927
 5736SOL    HW118107   1.884   5.414   0.832
 5736SOL    HW218108   1.814   5.524   0.930
 5737SOL     OW18109   5.929   4.010   6.914
 5737SOL    HW118110   5.891   4.102   6.914
 5737SOL    HW218111   6.029   4.014   6.907
 5738SOL     OW18112   0.502   5.109   4.556
 5738SOL    HW118113   0.570   5.037   4.563
 5738SOL    HW218114   0.496   5.141   4.461
 5739SOL     OW18115   0.867   3.087   1.072
 5739SOL    HW118116   0.854   3.052   1.164
 5739SOL    HW218117   0.785   3.070   1.018
 5740SOL     OW18118   4.541   4.843   6.968
 5740SOL    HW118119   4.573   4.938   6.977
 5740SOL    HW218120   4.561   4.793   0.024
 5741SOL     OW18121   0.123   3.053   2.104
 5741SOL    HW118122   0.184   3.022   2.031
 5741SOL    HW218123   0.112   3.152   2.098
 5742SOL     OW18124   0.384   5.325   3.854
 5742SOL    HW118125   0.462   5.275   3.892
 5742SOL    HW218126   0.400   5.344   3.758
 5743SOL     OW18127   1.017   6.421   5.792
 5743SOL    HW118128   1.068   6.379   5.868
 5743SOL    HW218129   0.968   6.351   5.741
 5744SOL     OW18130   6.400   0.493   1.954
 5744SOL    HW118131   6.461   0.513   2.030
 5744SOL    HW218132   6.306   0.488   1.987
 5745SOL     OW18133   0.142   3.445   2.934
 5745SOL    HW118134   0.208   3.498   2.882
 5745SOL    HW218135   0.049   3.474   2.909
 5746SOL     OW18136   6.512   4.441   6.873
 5746SOL    HW118137   6.600   4.398   6.855
 5746SOL    HW218138   6.479   4.485   6.790
 5747SOL     OW18139   0.321   5.782   3.849
 5747SOL    HW118140   0.287   5.699   3.804
 5747SOL    HW218141   0.348   5.849   3.780
 5748SOL     OW18142   1.617   0.569   3.984
 5748SOL    HW118143   1.609   0.486   3.929
 5748SOL    HW218144   1.528   0.615   3.987
 5749SOL     OW18145   0.750   1.013   3.133
 5749SOL    HW118146   0.729   0.978   3.042
 5749SOL    HW218147   0.838   0.975   3.164
 5750SOL     OW18148   5.781   6.692   2.208
 5750SOL    HW118149   5.870   6.659   2.178
 5750SOL    HW218150   5.791   6.737   2.297
 5751SOL     OW18151   0.519   2.474   6.169
 5751SOL    HW118152   0.449   2.538   6.139
 5751SOL    HW218153   0.583   2.520   6.231
 5752SOL     OW18154   1.408   1.263   6.802
 5752SOL    HW118155   1.323   1.224   6.836
 5752SOL    HW218156   1.438   1.337   6.863
 5753SOL     OW18157   4.958   1.834   0.160
 5753SOL    HW118158   4.954   1.746   0.113
 5753SOL    HW218159   5.035   1.834   0.224
 5754SOL     OW18160   6.067   5.955   0.870
 5754SOL    HW118161   6.130   6.002   0.809
 5754SOL    HW218162   6.093   5.973   0.965
 5755SOL     OW18163   3.566   3.812   1.466
 5755SOL    HW118164   3.590   3.724   1.425
 5755SOL    HW218165   3.558   3.801   1.565
 5756SOL     OW18166   6.678   6.828   4.119
 5756SOL    HW118167   6.707   6.827   4.024
 5756SOL    HW218168   6.582   6.799   4.126
 5757SOL     OW18169   6.564   6.390   1.919
 5757SOL    HW118170   6.511   6.475   1.922
 5757SOL    HW218171   6.620   6.388   1.837
 5758SOL     OW18172   2.817   1.112   5.657
 5758SOL    HW118173   2.786   1.203   5.684
 5758SOL    HW218174   2.888   1.122   5.587
 5759SOL     OW18175   0.905   0.966   6.181
 5759SOL    HW118176   0.820   1.017   6.194
 5759SOL    HW218177   0.888   0.869   6.199
 5760SOL     OW18178   7.011   5.800   1.231
 5760SOL    HW118179   0.082   5.815   1.234
 5760SOL    HW218180   6.984   5.780   1.137
 5761SOL     OW18181   4.277   0.921   3.867
 5761SOL    HW118182   4.335   0.953   3.942
 5761SOL    HW218183   4.314   0.953   3.780
 5762SOL     OW18184   4.932   6.007   1.473
 5762SOL    HW118185   4.864   5.993   1.545
 5762SOL    HW218186   4.927   6.102   1.441
 5763SOL     OW18187   3.342   0.663   0.766
 5763SOL    HW118188   3.353   0.579   0.713
 5763SOL    HW218189   3.299   0.733   0.708
 5764SOL     OW18190   3.838   3.062   6.295
 5764SOL    HW118191   3.921   3.066   6.350
 5764SOL    HW218192   3.825   3.149   6.247
 5765SOL     OW18193   6.587   5.477   6.654
 5765SOL    HW118194   6.520   5.462   6.581
 5765SOL    HW218195   6.591   5.575   6.676
 5766SOL     OW18196   2.530   1.189   3.259
 5766SOL    HW118197   2.465   1.224   3.327
 5766SOL    HW218198   2.534   1.090   3.265
 5767SOL     OW18199   5.434   6.354   0.005
 5767SOL    HW118200   5.338   6.329   0.017
 5767SOL    HW218201   5.440   6.445   6.991
 5768SOL     OW18202   6.507   6.740   2.231
 5768SOL    HW118203   6.535   6.770   2.140
 5768SOL    HW218204   6.531   6.810   2.298
 5769SOL     OW18205   0.712   4.200   3.225
 5769SOL    HW118206   0.635   4.221   3.165
 5769SOL    HW218207   0.681   4.198   3.320
 5770SOL     OW18208   5.078   2.197   1.912
 5770SOL    HW118209   5.091   2.270   1.979
 5770SOL    HW218210   5.027   2.231   1.833
 5771SOL     OW18211   1.062   0.741   1.794
 5771SOL    HW118212   1.147   0.748   1.741
 5771SOL    HW218213   1.084   0.727   1.890
 5772SOL     OW18214   6.460   5.300   5.651
 5772SOL    HW118215   6.460   5.217   5.707
 5772SOL    HW218216   6.494   5.279   5.560
 5773SOL     OW18217   5.090   5.887   4.626
 5773SOL    HW118218   5.041   5.963   4.583
 5773SOL    HW218219   5.188   5.907   4.624
 5774SOL     OW18220   1.833   5.324   2.306
 5774SOL    HW118221   1.749   5.270   2.296
 5774SOL    HW218222   1.812   5.410   2.352
 5775SOL     OW18223   1.082   0.706   0.600
 5775SOL    HW118224   1.009   0.741   0.660
 5775SOL    HW218225   1.052   0.712   0.505
 5776SOL     OW18226   5.338   0.861   6.018
 5776SOL    HW118227   5.334   0.782   6.081
 5776SOL    HW218228   5.422   0.912   6.033
 5777SOL     OW18229   5.716   6.148   4.717
 5777SOL    HW118230   5.748   6.068   4.768
 5777SOL    HW218231   5.789   6.182   4.658
 5778SOL     OW18232   2.855   0.036   3.970
 5778SOL    HW118233   2.777   0.092   3.942
 5778SOL    HW218234   2.883   7.005   3.895
 5779SOL     OW18235   3.974   0.356   1.906
 5779SOL    HW118236   3.966   0.262   1.942
 5779SOL    HW218237   3.953   0.421   1.979
 5780SOL     OW18238   6.315   4.451   0.653
 5780SOL    HW118239   6.233   4.395   0.646
 5780SOL    HW218240   6.351   4.470   0.562
 5781SOL     OW18241   4.151   4.033   5.402
 5781SOL    HW118242   4.166   4.128   5.374
 5781SOL    HW218243   4.154   3.973   5.322
 5782SOL     OW18244   4.804   2.008   2.679
 5782SOL    HW118245   4.878   2.026   2.743
 5782SOL    HW218246   4.793   2.087   2.618
 5783SOL     OW18247   3.526   6.031   3.010
 5783SOL    HW118248   3.530   6.080   3.097
 5783SOL    HW218249   3.461   6.077   2.949
 5784SOL     OW18250   1.210   6.155   1.093
 5784SOL    HW118251   1.162   6.070   1.116
 5784SOL    HW218252   1.144   6.222   1.061
 5785SOL     OW18253   2.260   1.713   6.605
 5785SOL    HW118254   2.309   1.798   6.591
 5785SOL    HW218255   2.163   1.727   6.585
 5786SOL     OW18256   1.767   1.634   6.452
 5786SOL    HW118257   1.724   1.717   6.416
 5786SOL    HW218258   1.704   1.589   6.515
 5787SOL     OW18259   0.922   2.314   5.420
 5787SOL    HW118260   0.835   2.328   5.372
 5787SOL    HW218261   0.984   2.263   5.361
 5788SOL     OW18262   0.646   2.458   2.093
 5788SOL    HW118263   0.739   2.428   2.071
 5788SOL    HW218264   0.629   2.444   2.191
 5789SOL     OW18265   2.928   6.938   0.216
 5789SOL    HW118266   2.971   6.982   0.294
 5789SOL    HW218267   2.832   6.920   0.236
 5790SOL     OW18268   6.890   6.351   2.304
 5790SOL    HW118269   6.877   6.275   2.368
 5790SOL    HW218270   6.801   6.385   2.274
 5791SOL     OW18271   4.246   0.671   1.298
 5791SOL    HW118272   4.309   0.744   1.272
 5791SOL    HW218273   4.233   0.673   1.397
 5792SOL     OW18274   4.568   2.432   2.780
 5792SOL    HW118275   4.519   2.432   2.867
 5792SOL    HW218276   4.507   2.400   2.707
 5793SOL     OW18277   4.423   2.255   0.345
 5793SOL    HW118278   4.419   2.242   0.444
 5793SOL    HW218279   4.466   2.174   0.303
 5794SOL     OW18280   2.906   6.278   0.021
 5794SOL    HW118281   2.854   6.363   0.024
 5794SOL    HW218282   2.995   6.294   7.006
 5795SOL     OW18283   1.399   0.972   1.412
 5795SOL    HW118284   1.381   1.018   1.499
 5795SOL    HW218285   1.493   0.990   1.383
 5796SOL     OW18286   4.731   0.374   5.858
 5796SOL    HW118287   4.686   0.343   5.942
 5796SOL    HW218288   4.677   0.445   5.815
 5797SOL     OW18289   5.920   1.743   0.093
 5797SOL    HW118290   5.911   1.650   0.058
 5797SOL    HW218291   5.907   1.808   0.017
 5798SOL     OW18292   2.258   2.661   4.882
 5798SOL    HW118293   2.317   2.590   4.920
 5798SOL    HW218294   2.199   2.622   4.811
 5799SOL     OW18295   3.061   0.236   3.780
 5799SOL    HW118296   3.134   0.259   3.716
 5799SOL    HW218297   3.045   0.137   3.778
 5800SOL     OW18298   1.454   6.080   1.677
 5800SOL    HW118299   1.462   6.051   1.581
 5800SOL    HW218300   1.408   6.169   1.681
 5801SOL     OW18301   1.635   2.332   3.379
 5801SOL    HW118302   1.663   2.393   3.305
 5801SOL    HW218303   1.549   2.286   3.354
 5802SOL     OW18304   7.008   0.080   3.305
 5802SOL    HW118305   6.921   0.054   3.262
 5802SOL    HW218306   0.052   0.081   3.237
 5803SOL     OW18307   0.754   6.511   4.444
 5803SOL    HW118308   0.755   6.518   4.544
 5803SOL    HW218309   0.704   6.589   4.406
 5804SOL     OW18310   6.174   2.245   3.427
 5804SOL    HW118311   6.135   2.245   3.520
 5804SOL    HW218312   6.113   2.197   3.365
 5805SOL     OW18313   0.983   2.409   1.377
 5805SOL    HW118314   0.885   2.398   1.365
 5805SOL    HW218315   1.001   2.468   1.456
 5806SOL     OW18316   6.634   4.459   1.547
 5806SOL    HW118317   6.683   4.424   1.627
 5806SOL    HW218318   6.616   4.557   1.560
 5807SOL     OW18319   0.955   0.927   2.444
 5807SOL    HW118320   0.954   0.948   2.542
 5807SOL    HW218321   1.038   0.965   2.403
 5808SOL     OW18322   6.724   6.483   5.945
 5808SOL    HW118323   6.632   6.518   5.931
 5808SOL    HW218324   6.719   6.384   5.962
 5809SOL     OW18325   0.039   3.633   4.462
 5809SOL    HW118326   0.042   3.562   4.532
 5809SOL    HW218327   0.116   3.622   4.399
 5810SOL     OW18328   0.942   6.738   5.470
 5810SOL    HW118329   1.030   6.746   5.425
 5810SOL    HW218330   0.876   6.694   5.408
 5811SOL     OW18331   3.295   4.932   6.831
 5811SOL    HW118332   3.253   4.841   6.836
 5811SOL    HW218333   3.246   4.987   6.763
 5812SOL     OW18334   6.621   2.881   6.112
 5812SOL    HW118335   6.531   2.923   6.098
 5812SOL    HW218336   6.610   2.788   6.148
 5813SOL     OW18337   6.361   5.400   1.044
 5813SOL    HW118338   6.299   5.358   0.977
 5813SOL    HW218339   6.329   5.379   1.136
 5814SOL     OW18340   5.351   2.038   2.525
 5814SOL    HW118341   5.441   1.995   2.515
 5814SOL    HW218342   5.342   2.076   2.617
 5815SOL     OW18343   6.529   3.874   4.798
 5815SOL    HW118344   6.544   3.803   4.729
 5815SOL    HW218345   6.553   3.963   4.760
 5816SOL     OW18346   0.295   4.740   1.045
 5816SOL    HW118347   0.282   4.836   1.020
 5816SOL    HW218348   0.220   4.686   1.008
 5817SOL     OW18349   6.113   2.898   4.282
 5817SOL    HW118350   6.103   2.969   4.352
 5817SOL    HW218351   6.210   2.886   4.261
 5818SOL     OW18352   2.634   0.205   3.971
 5818SOL    HW118353   2.599   0.165   4.056
 5818SOL    HW218354   2.686   0.287   3.991
 5819SOL     OW18355   4.247   4.133   0.885
 5819SOL    HW118356   4.298   4.057   0.926
 5819SOL    HW218357   4.288   4.220   0.915
 5820SOL     OW18358   0.986   6.335   2.379
 5820SOL    HW118359   1.005   6.422   2.334
 5820SOL    HW218360   1.067   6.305   2.429
 5821SOL     OW18361   5.749   6.411   2.417
 5821SOL    HW118362   5.703   6.323   2.428
 5821SOL    HW218363   5.722   6.453   2.331
 5822SOL     OW18364   0.931   4.264   3.094
 5822SOL    HW118365   0.859   4.234   3.156
 5822SOL    HW218366   0.938   4.200   3.017
 5823SOL     OW18367   2.559   6.523   5.249
 5823SOL    HW118368   2.559   6.426   5.227
 5823SOL    HW218369   2.582   6.535   5.346
 5824SOL     OW18370   2.761   5.487   2.907
 5824SOL    HW118371   2.830   5.414   2.906
 5824SOL    HW218372   2.707   5.483   2.823
 5825SOL     OW18373   3.762   2.074   4.548
 5825SOL    HW118374   3.727   1.987   4.583
 5825SOL    HW218375   3.840   2.103   4.603
 5826SOL     OW18376   1.212   6.056   5.045
 5826SOL    HW118377   1.224   6.085   5.140
 5826SOL    HW218378   1.115   6.040   5.027
 5827SOL     OW18379   2.146   4.014   3.878
 5827SOL    HW118380   2.101   4.096   3.914
 5827SOL    HW218381   2.099   3.933   3.912
 5828SOL     OW18382   4.698   0.178   4.798
 5828SOL    HW118383   4.665   0.220   4.713
 5828SOL    HW218384   4.620   0.152   4.854
 5829SOL     OW18385   2.065   1.186   3.212
 5829SOL    HW118386   2.092   1.282   3.216
 5829SOL    HW218387   2.109   1.136   3.287
 5830SOL     OW18388   4.880   5.037   4.507
 5830SOL    HW118389   4.877   4.947   4.549
 5830SOL    HW218390   4.787   5.075   4.503
 5831SOL     OW18391   2.394   1.776   4.818
 5831SOL    HW118392   2.307   1.804   4.777
 5831SOL    HW218393   2.441   1.856   4.854
 5832SOL     OW18394   2.502   4.825   3.619
 5832SOL    HW118395   2.454   4.900   3.572
 5832SOL    HW218396   2.465   4.737   3.587
 5833SOL     OW18397   2.602   4.806   1.139
 5833SOL    HW118398   2.642   4.812   1.230
 5833SOL    HW218399   2.559   4.716   1.127
 5834SOL     OW18400   5.667   1.890   5.860
 5834SOL    HW118401   5.577   1.906   5.821
 5834SOL    HW218402   5.662   1.820   5.930
 5835SOL     OW18403   3.690   1.110   3.814
 5835SOL    HW118404   3.790   1.123   3.818
 5835SOL    HW218405   3.663   1.096   3.719
 5836SOL     OW18406   5.153   4.739   1.143
 5836SOL    HW118407   5.129   4.828   1.182
 5836SOL    HW218408   5.098   4.668   1.188
 5837SOL     OW18409   2.132   4.625   0.181
 5837SOL    HW118410   2.218   4.611   0.230
 5837SOL    HW218411   2.147   4.686   0.103
 5838SOL     OW18412   2.904   3.596   0.436
 5838SOL    HW118413   2.878   3.685   0.399
 5838SOL    HW218414   3.001   3.596   0.459
 5839SOL     OW18415   2.784   1.513   1.061
 5839SOL    HW118416   2.792   1.571   0.980
 5839SOL    HW218417   2.832   1.427   1.045
 5840SOL     OW18418   6.508   3.349   2.607
 5840SOL    HW118419   6.452   3.427   2.579
 5840SOL    HW218420   6.482   3.268   2.555
 5841SOL     OW18421   5.543   2.652   0.863
 5841SOL    HW118422   5.514   2.576   0.922
 5841SOL    HW218423   5.501   2.641   0.773
 5842SOL     OW18424   4.021   2.170   2.665
 5842SOL    HW118425   4.075   2.202   2.587
 5842SOL    HW218426   4.013   2.243   2.732
 5843SOL     OW18427   3.180   2.479   1.075
 5843SOL    HW118428   3.147   2.405   1.132
 5843SOL    HW218429   3.205   2.444   0.985
 5844SOL     OW18430   6.745   5.457   5.323
 5844SOL    HW118431   6.733   5.549   5.362
 5844SOL    HW218432   6.684   5.393   5.370
 5845SOL     OW18433   2.092   6.280   3.022
 5845SOL    HW118434   2.121   6.237   3.108
 5845SOL    HW218435   2.005   6.328   3.038
 5846SOL     OW18436   0.595   4.138   4.939
 5846SOL    HW118437   0.516   4.200   4.944
 5846SOL    HW218438   0.672   4.179   4.987
 5847SOL     OW18439   1.856   4.169   6.282
 5847SOL    HW118440   1.866   4.206   6.374
 5847SOL    HW218441   1.946   4.157   6.241
 5848SOL     OW18442   3.133   6.519   1.638
 5848SOL    HW118443   3.210   6.492   1.696
 5848SOL    HW218444   3.068   6.443   1.633
 5849SOL     OW18445   3.308   5.568   6.879
 5849SOL    HW118446   3.382   5.505   6.905
 5849SOL    HW218447   3.272   5.612   6.961
 5850SOL     OW18448   5.028   2.088   1.439
 5850SOL    HW118449   5.009   2.165   1.500
 5850SOL    HW218450   5.117   2.048   1.463
 5851SOL     OW18451   1.257   3.207   5.391
 5851SOL    HW118452   1.178   3.146   5.394
 5851SOL    HW218453   1.339   3.155   5.367
 5852SOL     OW18454   4.526   5.030   3.112
 5852SOL    HW118455   4.545   4.954   3.050
 5852SOL    HW218456   4.537   4.999   3.207
 5853SOL     OW18457   4.403   4.402   0.338
 5853SOL    HW118458   4.460   4.323   0.314
 5853SOL    HW218459   4.462   4.483   0.350
 5854SOL     OW18460   2.686   4.520   5.276
 5854SOL    HW118461   2.663   4.579   5.354
 5854SOL    HW218462   2.763   4.560   5.226
 5855SOL     OW18463   1.436   1.783   4.790
 5855SOL    HW118464   1.389   1.861   4.749
 5855SOL    HW218465   1.533   1.806   4.803
 5856SOL     OW18466   0.606   0.572   2.456
 5856SOL    HW118467   0.515   0.561   2.496
 5856SOL    HW218468   0.664   0.626   2.517
 5857SOL     OW18469   6.301   5.546   6.580
 5857SOL    HW118470   6.324   5.510   6.489
 5857SOL    HW218471   6.202   5.544   6.592
 5858SOL     OW18472   3.070   1.721   2.207
 5858SOL    HW118473   3.133   1.645   2.192
 5858SOL    HW218474   3.083   1.789   2.135
 5859SOL     OW18475   5.930   4.742   1.599
 5859SOL    HW118476   5.939   4.646   1.626
 5859SOL    HW218477   6.001   4.765   1.532
 5860SOL     OW18478   1.648   3.483   1.916
 5860SOL    HW118479   1.625   3.578   1.938
 5860SOL    HW218480   1.568   3.425   1.933
 5861SOL     OW18481   5.601   7.006   4.867
 5861SOL    HW118482   5.620   0.068   4.906
 5861SOL    HW218483   5.593   7.013   4.767
 5862SOL     OW18484   6.929   4.541   1.942
 5862SOL    HW118485   6.857   4.487   1.985
 5862SOL    HW218486   6.890   4.595   1.867
 5863SOL     OW18487   4.111   6.721   6.049
 5863SOL    HW118488   4.200   6.681   6.068
 5863SOL    HW218489   4.039   6.657   6.078
 5864SOL     OW18490   3.860   2.934   3.560
 5864SOL    HW118491   3.863   2.864   3.489
 5864SOL    HW218492   3.794   2.907   3.630
 5865SOL     OW18493   6.923   6.488   1.482
 5865SOL    HW118494   6.901   6.539   1.399
 5865SOL    HW218495   7.016   6.511   1.511
 5866SOL     OW18496   3.553   3.310   3.994
 5866SOL    HW118497   3.536   3.249   3.917
 5866SOL    HW218498   3.519   3.402   3.973
 5867SOL     OW18499   5.097   1.230   1.057
 5867SOL    HW118500   5.098   1.210   0.959
 5867SOL    HW218501   5.067   1.324   1.072
 5868SOL     OW18502   1.474   1.140   0.974
 5868SOL    HW118503   1.460   1.060   0.916
 5868SOL    HW218504   1.396   1.150   1.036
 5869SOL     OW18505   2.001   5.395   3.791
 5869SOL    HW118506   1.974   5.325   3.726
 5869SOL    HW218507   1.973   5.485   3.758
 5870SOL     OW18508   4.234   6.593   3.679
 5870SOL    HW118509   4.311   6.653   3.657
 5870SOL    HW218510   4.158   6.612   3.617
 5871SOL     OW18511   3.960   3.141   3.803
 5871SOL    HW118512   3.928   3.058   3.848
 5871SOL    HW218513   3.883   3.189   3.761
 5872SOL     OW18514   3.110   5.510   1.232
 5872SOL    HW118515   3.092   5.413   1.213
 5872SOL    HW218516   3.066   5.535   1.319
 5873SOL     OW18517   4.173   6.889   2.008
 5873SOL    HW118518   4.269   6.914   2.023
 5873SOL    HW218519   4.161   6.854   1.916
 5874SOL     OW18520   0.120   4.235   4.788
 5874SOL    HW118521   0.089   4.226   4.882
 5874SOL    HW218522   0.096   4.152   4.737
 5875SOL     OW18523   4.069   2.385   0.773
 5875SOL    HW118524   4.052   2.477   0.807
 5875SOL    HW218525   4.160   2.355   0.802
 5876SOL     OW18526   2.921   3.356   2.909
 5876SOL    HW118527   2.892   3.451   2.917
 5876SOL    HW218528   2.858   3.307   2.848
 5877SOL     OW18529   5.001   4.131   1.906
 5877SOL    HW118530   4.938   4.100   1.978
 5877SOL    HW218531   5.005   4.062   1.834
 5878SOL     OW18532   0.745   3.686   1.545
 5878SOL    HW118533   0.760   3.590   1.522
 5878SOL    HW218534   0.647   3.707   1.540
 5879SOL     OW18535   1.746   4.620   4.916
 5879SOL    HW118536   1.799   4.548   4.870
 5879SOL    HW218537   1.649   4.601   4.907
 5880SOL     OW18538   3.020   5.003   6.752
 5880SOL    HW118539   3.031   5.102   6.767
 5880SOL    HW218540   3.014   4.985   6.654
 5881SOL     OW18541   1.850   6.686   3.699
 5881SOL    HW118542   1.891   6.695   3.789
 5881SOL    HW218543   1.768   6.744   3.693
 5882SOL     OW18544   4.485   0.422   2.968
 5882SOL    HW118545   4.514   0.486   2.897
 5882SOL    HW218546   4.412   0.464   3.022
 5883SOL     OW18547   1.671   3.246   5.565
 5883SOL    HW118548   1.682   3.266   5.467
 5883SOL    HW218549   1.600   3.176   5.576
 5884SOL     OW18550   7.009   0.609   3.171
 5884SOL    HW118551   7.018   0.513   3.200
 5884SOL    HW218552   0.012   0.669   3.245
 5885SOL     OW18553   5.452   6.396   0.282
 5885SOL    HW118554   5.407   6.318   0.326
 5885SOL    HW218555   5.469   6.374   0.186
 5886SOL     OW18556   5.711   1.384   6.091
 5886SOL    HW118557   5.660   1.331   6.023
 5886SOL    HW218558   5.751   1.322   6.158
 5887SOL     OW18559   3.506   6.709   2.716
 5887SOL    HW118560   3.557   6.634   2.759
 5887SOL    HW218561   3.525   6.711   2.618
 5888SOL     OW18562   6.690   6.093   1.667
 5888SOL    HW118563   6.719   6.188   1.674
 5888SOL    HW218564   6.644   6.079   1.579
 5889SOL     OW18565   2.924   6.736   0.437
 5889SOL    HW118566   2.926   6.823   0.486
 5889SOL    HW218567   2.872   6.747   0.352
 5890SOL     OW18568   3.947   5.474   6.099
 5890SOL    HW118569   4.012   5.550   6.093
 5890SOL    HW218570   3.910   5.454   6.008
 5891SOL     OW18571   1.682   3.191   6.523
 5891SOL    HW118572   1.639   3.229   6.605
 5891SOL    HW218573   1.641   3.232   6.442
 5892SOL     OW18574   2.807   5.823   2.079
 5892SOL    HW118575   2.851   5.786   1.997
 5892SOL    HW218576   2.728   5.878   2.053
 5893SOL     OW18577   1.255   2.830   2.582
 5893SOL    HW118578   1.322   2.756   2.579
 5893SOL    HW218579   1.288   2.902   2.643
 5894SOL     OW18580   1.277   3.738   3.768
 5894SOL    HW118581   1.340   3.666   3.741
 5894SOL    HW218582   1.228   3.772   3.688
 5895SOL     OW18583   5.600   4.862   2.627
 5895SOL    HW118584   5.528   4.849   2.694
 5895SOL    HW218585   5.684   4.819   2.660
 5896SOL     OW18586   4.730   1.830   5.677
 5896SOL    HW118587   4.756   1.927   5.674
 5896SOL    HW218588   4.798   1.777   5.627
 5897SOL     OW18589   4.591   4.290   1.012
 5897SOL    HW118590   4.492   4.303   1.011
 5897SOL    HW218591   4.621   4.254   0.924
 5898SOL     OW18592   1.884   6.426   3.150
 5898SOL    HW118593   1.802   6.368   3.147
 5898SOL    HW218594   1.911   6.439   3.245
 5899SOL     OW18595   5.077   0.495   3.323
 5899SOL    HW118596   5.123   0.532   3.404
 5899SOL    HW218597   5.042   0.570   3.267
 5900SOL     OW18598   3.899   4.893   1.940
 5900SOL    HW118599   3.817   4.845   1.974
 5900SOL    HW218600   3.976   4.874   2.001
 5901SOL     OW18601   2.784   6.111   4.104
 5901SOL    HW118602   2.685   6.095   4.115
 5901SOL    HW218603   2.800   6.208   4.087
 5902SOL     OW18604   6.006   2.831   0.546
 5902SOL    HW118605   5.965   2.890   0.616
 5902SOL    HW218606   6.106   2.841   0.549
 5903SOL     OW18607   0.675   2.041   6.714
 5903SOL    HW118608   0.648   1.980   6.639
 5903SOL    HW218609   0.726   1.989   6.782
 5904SOL     OW18610   1.589   3.444   2.250
 5904SOL    HW118611   1.687   3.429   2.239
 5904SOL    HW218612   1.549   3.368   2.301
 5905SOL     OW18613   0.061   3.586   1.915
 5905SOL    HW118614   0.056   3.613   1.819
 5905SOL    HW218615   7.002   3.606   1.960
 5906SOL     OW18616   6.789   1.001   3.512
 5906SOL    HW118617   6.836   1.077   3.468
 5906SOL    HW218618   6.762   1.027   3.604
 5907SOL     OW18619   1.930   1.194   2.981
 5907SOL    HW118620   1.993   1.205   2.904
 5907SOL    HW218621   1.982   1.188   3.066
 5908SOL     OW18622   0.766   3.030   5.666
 5908SOL    HW118623   0.668   3.043   5.678
 5908SOL    HW218624   0.813   3.045   5.753
 5909SOL     OW18625   6.699   4.774   6.750
 5909SOL    HW118626   6.625   4.740   6.808
 5909SOL    HW218627   6.744   4.697   6.706
 5910SOL     OW18628   1.281   1.507   3.411
 5910SOL    HW118629   1.281   1.605   3.435
 5910SOL    HW218630   1.264   1.453   3.494
 5911SOL     OW18631   6.573   5.949   6.929
 5911SOL    HW118632   6.487   5.942   6.979
 5911SOL    HW218633   6.570   6.028   6.868
 5912SOL     OW18634   0.523   1.088   3.258
 5912SOL    HW118635   0.609   1.060   3.214
 5912SOL    HW218636   0.458   1.117   3.188
 5913SOL     OW18637   6.630   2.781   1.370
 5913SOL    HW118638   6.545   2.731   1.354
 5913SOL    HW218639   6.633   2.861   1.311
 5914SOL     OW18640   1.613   0.129   0.584
 5914SOL    HW118641   1.703   0.110   0.544
 5914SOL    HW218642   1.598   0.228   0.586
 5915SOL     OW18643   3.740   0.147   5.275
 5915SOL    HW118644   3.686   0.078   5.227
 5915SOL    HW218645   3.680   0.200   5.335
 5916SOL     OW18646   1.363   0.289   2.332
 5916SOL    HW118647   1.281   0.255   2.287
 5916SOL    HW218648   1.348   0.382   2.364
 5917SOL     OW18649   3.039   3.106   0.750
 5917SOL    HW118650   3.099   3.042   0.798
 5917SOL    HW218651   2.956   3.120   0.803
 5918SOL     OW18652   3.549   6.846   4.161
 5918SOL    HW118653   3.532   6.860   4.258
 5918SOL    HW218654   3.539   6.749   4.139
 5919SOL     OW18655   3.213   4.118   4.900
 5919SOL    HW118656   3.227   4.196   4.840
 5919SOL    HW218657   3.290   4.111   4.964
 5920SOL     OW18658   0.958   0.533   5.703
 5920SOL    HW118659   1.008   0.617   5.680
 5920SOL    HW218660   1.003   0.455   5.660
 5921SOL     OW18661   2.457   5.279   0.738
 5921SOL    HW118662   2.525   5.342   0.701
 5921SOL    HW218663   2.396   5.249   0.665
 5922SOL     OW18664   4.984   2.450   2.548
 5922SOL    HW118665   5.020   2.367   2.590
 5922SOL    HW218666   4.897   2.475   2.591
 5923SOL     OW18667   5.543   0.892   2.893
 5923SOL    HW118668   5.507   0.916   2.984
 5923SOL    HW218669   5.534   0.794   2.879
 5924SOL     OW18670   6.948   6.551   3.471
 5924SOL    HW118671   6.938   6.650   3.463
 5924SOL    HW218672   0.011   6.530   3.506
 5925SOL     OW18673   5.044   0.968   1.123
 5925SOL    HW118674   5.116   0.915   1.168
 5925SOL    HW218675   5.072   1.064   1.116
 5926SOL     OW18676   5.313   3.139   3.074
 5926SOL    HW118677   5.264   3.153   3.160
 5926SOL    HW218678   5.253   3.091   3.009
 5927SOL     OW18679   0.683   6.536   1.313
 5927SOL    HW118680   0.625   6.519   1.234
 5927SOL    HW218681   0.629   6.577   1.386
 5928SOL     OW18682   3.166   0.214   0.213
 5928SOL    HW118683   3.160   0.140   0.280
 5928SOL    HW218684   3.083   0.268   0.215
 5929SOL     OW18685   1.337   0.814   1.709
 5929SOL    HW118686   1.397   0.739   1.680
 5929SOL    HW218687   1.392   0.887   1.749
 5930SOL     OW18688   0.971   4.421   1.601
 5930SOL    HW118689   1.033   4.351   1.636
 5930SOL    HW218690   0.897   4.436   1.667
 5931SOL     OW18691   4.872   6.012   4.267
 5931SOL    HW118692   4.891   6.077   4.193
 5931SOL    HW218693   4.806   6.052   4.331
 5932SOL     OW18694   3.953   5.725   0.220
 5932SOL    HW118695   3.864   5.697   0.183
 5932SOL    HW218696   3.970   5.821   0.197
 5933SOL     OW18697   6.765   5.646   4.432
 5933SOL    HW118698   6.794   5.656   4.336
 5933SOL    HW218699   6.808   5.718   4.487
 5934SOL     OW18700   3.183   4.105   0.035
 5934SOL    HW118701   3.162   4.203   0.030
 5934SOL    HW218702   3.098   4.053   0.047
 5935SOL     OW18703   1.282   0.240   5.524
 5935SOL    HW118704   1.203   0.300   5.514
 5935SOL    HW218705   1.351   0.264   5.455
 5936SOL     OW18706   3.629   2.856   2.188
 5936SOL    HW118707   3.682   2.775   2.213
 5936SOL    HW218708   3.691   2.928   2.156
 5937SOL     OW18709   0.768   3.050   0.450
 5937SOL    HW118710   0.784   2.952   0.452
 5937SOL    HW218711   0.848   3.098   0.486
 5938SOL     OW18712   1.261   3.255   4.494
 5938SOL    HW118713   1.345   3.308   4.479
 5938SOL    HW218714   1.198   3.309   4.550
 5939SOL     OW18715   4.898   0.692   5.898
 5939SOL    HW118716   4.821   0.658   5.844
 5939SOL    HW218717   4.867   0.765   5.959
 5940SOL     OW18718   5.352   4.865   0.995
 5940SOL    HW118719   5.348   4.830   0.902
 5940SOL    HW218720   5.269   4.838   1.044
 5941SOL     OW18721   0.638   1.524   3.687
 5941SOL    HW118722   0.696   1.582   3.628
 5941SOL    HW218723   0.644   1.556   3.781
 5942SOL     OW18724   4.973   2.078   6.072
 5942SOL    HW118725   4.995   2.079   6.170
 5942SOL    HW218726   5.057   2.080   6.018
 5943SOL     OW18727   2.077   4.661   2.112
 5943SOL    HW118728   2.010   4.636   2.182
 5943SOL    HW218729   2.085   4.760   2.107
 5944SOL     OW18730   6.546   3.759   5.946
 5944SOL    HW118731   6.473   3.781   6.010
 5944SOL    HW218732   6.588   3.843   5.912
 5945SOL     OW18733   0.085   6.720   4.206
 5945SOL    HW118734   0.108   6.717   4.109
 5945SOL    HW218735   7.015   6.705   4.218
 5946SOL     OW18736   3.009   2.862   6.859
 5946SOL    HW118737   3.064   2.945   6.864
 5946SOL    HW218738   3.053   2.796   6.798
 5947SOL     OW18739   3.226   3.150   4.877
 5947SOL    HW118740   3.253   3.063   4.917
 5947SOL    HW218741   3.169   3.134   4.797
 5948SOL     OW18742   4.632   4.043   1.415
 5948SOL    HW118743   4.702   3.974   1.398
 5948SOL    HW218744   4.605   4.040   1.511
 5949SOL     OW18745   0.966   4.242   3.978
 5949SOL    HW118746   0.916   4.329   3.976
 5949SOL    HW218747   0.990   4.219   4.072
 5950SOL     OW18748   2.390   6.895   4.906
 5950SOL    HW118749   2.391   6.843   4.991
 5950SOL    HW218750   2.326   6.972   4.915
 5951SOL     OW18751   6.999   2.715   6.194
 5951SOL    HW118752   7.001   2.749   6.100
 5951SOL    HW218753   6.917   2.748   6.240
 5952SOL     OW18754   3.808   4.245   1.619
 5952SOL    HW118755   3.783   4.165   1.674
 5952SOL    HW218756   3.754   4.324   1.648
 5953SOL     OW18757   6.680   2.619   0.067
 5953SOL    HW118758   6.672   2.713   0.099
 5953SOL    HW218759   6.774   2.603   0.035
 5954SOL     OW18760   1.901   4.957   3.914
 5954SOL    HW118761   1.806   4.987   3.923
 5954SOL    HW218762   1.926   4.954   3.818
 5955SOL     OW18763   3.850   2.999   0.342
 5955SOL    HW118764   3.814   2.961   0.256
 5955SOL    HW218765   3.926   3.060   0.321
 5956SOL     OW18766   4.461   2.602   6.664
 5956SOL    HW118767   4.462   2.556   6.753
 5956SOL    HW218768   4.536   2.667   6.660
 5957SOL     OW18769   6.738   2.344   3.828
 5957SOL    HW118770   6.738   2.270   3.895
 5957SOL    HW218771   6.823   2.341   3.775
 5958SOL     OW18772   2.583   6.088   2.404
 5958SOL    HW118773   2.526   6.148   2.347
 5958SOL    HW218774   2.679   6.099   2.377
 5959SOL     OW18775   5.184   4.122   3.134
 5959SOL    HW118776   5.138   4.128   3.046
 5959SOL    HW218777   5.136   4.177   3.202
 5960SOL     OW18778   6.041   0.241   6.500
 5960SOL    HW118779   6.080   0.321   6.455
 5960SOL    HW218780   5.963   0.269   6.557
 5961SOL     OW18781   2.814   2.032   4.107
 5961SOL    HW118782   2.732   2.026   4.050
 5961SOL    HW218783   2.887   2.077   4.055
 5962SOL     OW18784   5.075   4.705   0.332
 5962SOL    HW118785   4.977   4.706   0.312
 5962SOL    HW218786   5.124   4.669   0.253
 5963SOL     OW18787   1.672   4.153   0.341
 5963SOL    HW118788   1.601   4.081   0.339
 5963SOL    HW218789   1.762   4.110   0.340
 5964SOL     OW18790   1.687   0.013   3.173
 5964SOL    HW118791   1.676   6.945   3.146
 5964SOL    HW218792   1.766   0.052   3.127
 5965SOL     OW18793   2.357   0.571   1.226
 5965SOL    HW118794   2.284   0.624   1.268
 5965SOL    HW218795   2.377   0.609   1.135
 5966SOL     OW18796   3.146   1.481   4.839
 5966SOL    HW118797   3.074   1.441   4.896
 5966SOL    HW218798   3.205   1.538   4.896
 5967SOL     OW18799   4.578   2.472   5.384
 5967SOL    HW118800   4.505   2.533   5.354
 5967SOL    HW218801   4.540   2.400   5.442
 5968SOL     OW18802   6.207   2.067   3.032
 5968SOL    HW118803   6.168   2.070   3.124
 5968SOL    HW218804   6.224   1.972   3.006
 5969SOL     OW18805   5.275   6.781   1.261
 5969SOL    HW118806   5.340   6.794   1.186
 5969SOL    HW218807   5.184   6.811   1.231
 5970SOL     OW18808   6.271   2.584   0.237
 5970SOL    HW118809   6.255   2.551   0.144
 5970SOL    HW218810   6.234   2.676   0.248
 5971SOL     OW18811   6.682   5.287   3.879
 5971SOL    HW118812   6.651   5.374   3.841
 5971SOL    HW218813   6.765   5.257   3.833
 5972SOL     OW18814   5.676   5.167   0.683
 5972SOL    HW118815   5.678   5.068   0.669
 5972SOL    HW218816   5.582   5.197   0.700
 5973SOL     OW18817   3.698   0.852   2.711
 5973SOL    HW118818   3.678   0.780   2.645
 5973SOL    HW218819   3.777   0.826   2.767
 5974SOL     OW18820   5.563   1.111   4.603
 5974SOL    HW118821   5.612   1.024   4.596
 5974SOL    HW218822   5.544   1.131   4.699
 5975SOL     OW18823   3.661   4.951   0.639
 5975SOL    HW118824   3.761   4.958   0.647
 5975SOL    HW218825   3.621   4.939   0.730
 5976SOL     OW18826   1.574   3.267   6.239
 5976SOL    HW118827   1.606   3.205   6.166
 5976SOL    HW218828   1.632   3.348   6.241
 5977SOL     OW18829   0.458   5.493   1.325
 5977SOL    HW118830   0.435   5.416   1.265
 5977SOL    HW218831   0.539   5.471   1.378
 5978SOL     OW18832   2.955   3.749   5.963
 5978SOL    HW118833   2.910   3.688   5.897
 5978SOL    HW218834   2.995   3.694   6.037
 5979SOL     OW18835   5.784   0.381   1.141
 5979SOL    HW118836   5.767   0.474   1.174
 5979SOL    HW218837   5.806   0.384   1.044
 5980SOL     OW18838   3.338   2.756   1.035
 5980SOL    HW118839   3.270   2.685   1.015
 5980SOL    HW218840   3.347   2.766   1.134
 5981SOL     OW18841   3.243   2.768   0.640
 5981SOL    HW118842   3.245   2.799   0.545
 5981SOL    HW218843   3.298   2.685   0.650
 5982SOL     OW18844   5.654   2.534   1.261
 5982SOL    HW118845   5.671   2.504   1.355
 5982SOL    HW218846   5.697   2.470   1.197
 5983SOL     OW18847   6.738   1.413   3.770
 5983SOL    HW118848   6.770   1.352   3.698
 5983SOL    HW218849   6.776   1.504   3.756
 5984SOL     OW18850   6.057   6.426   2.432
 5984SOL    HW118851   6.082   6.345   2.485
 5984SOL    HW218852   5.958   6.435   2.430
 5985SOL     OW18853   6.347   4.892   2.749
 5985SOL    HW118854   6.270   4.836   2.781
 5985SOL    HW218855   6.311   4.968   2.694
 5986SOL     OW18856   3.880   3.113   2.846
 5986SOL    HW118857   3.782   3.117   2.864
 5986SOL    HW218858   3.903   3.176   2.772
 5987SOL     OW18859   6.898   6.172   4.376
 5987SOL    HW118860   6.985   6.178   4.328
 5987SOL    HW218861   6.823   6.187   4.311
 5988SOL     OW18862   1.434   2.019   0.284
 5988SOL    HW118863   1.399   2.001   0.192
 5988SOL    HW218864   1.528   1.984   0.291
 5989SOL     OW18865   2.375   6.342   5.643
 5989SOL    HW118866   2.293   6.328   5.587
 5989SOL    HW218867   2.370   6.284   5.724
 5990SOL     OW18868   2.368   3.927   1.734
 5990SOL    HW118869   2.302   3.920   1.808
 5990SOL    HW218870   2.399   4.022   1.726
 5991SOL     OW18871   5.468   1.259   0.622
 5991SOL    HW118872   5.559   1.240   0.586
 5991SOL    HW218873   5.465   1.237   0.720
 5992SOL     OW18874   2.713   4.680   3.461
 5992SOL    HW118875   2.680   4.707   3.551
 5992SOL    HW218876   2.805   4.641   3.470
 5993SOL     OW18877   5.627   2.512   0.135
 5993SOL    HW118878   5.616   2.611   0.138
 5993SOL    HW218879   5.701   2.484   0.196
 5994SOL     OW18880   0.207   4.566   0.497
 5994SOL    HW118881   0.229   4.528   0.587
 5994SOL    HW218882   0.224   4.497   0.427
 5995SOL     OW18883   5.429   3.488   0.958
 5995SOL    HW118884   5.400   3.546   0.881
 5995SOL    HW218885   5.519   3.449   0.938
 5996SOL     OW18886   2.225   0.565   2.185
 5996SOL    HW118887   2.160   0.528   2.118
 5996SOL    HW218888   2.196   0.538   2.277
 5997SOL     OW18889   6.479   0.238   4.716
 5997SOL    HW118890   6.492   0.225   4.618
 5997SOL    HW218891   6.563   0.273   4.756
 5998SOL     OW18892   5.976   6.235   5.960
 5998SOL    HW118893   5.989   6.261   5.864
 5998SOL    HW218894   6.025   6.150   5.979
 5999SOL     OW18895   5.262   3.550   1.208
 5999SOL    HW118896   5.292   3.645   1.203
 5999SOL    HW218897   5.317   3.494   1.147
 6000SOL     OW18898   1.244   4.594   1.778
 6000SOL    HW118899   1.341   4.574   1.789
 6000SOL    HW218900   1.231   4.692   1.766
 6001SOL     OW18901   0.119   6.065   5.476
 6001SOL    HW118902   0.106   5.977   5.430
 6001SOL    HW218903   0.052   6.131   5.440
 6002SOL     OW18904   5.579   4.234   5.126
 6002SOL    HW118905   5.586   4.244   5.027
 6002SOL    HW218906   5.542   4.318   5.165
 6003SOL     OW18907   2.753   1.512   5.533
 6003SOL    HW118908   2.739   1.603   5.494
 6003SOL    HW218909   2.667   1.462   5.534
 6004SOL     OW18910   5.655   3.161   5.129
 6004SOL    HW118911   5.654   3.073   5.083
 6004SOL    HW218912   5.749   3.190   5.144
 6005SOL     OW18913   3.771   4.128   0.551
 6005SOL    HW118914   3.858   4.117   0.503
 6005SOL    HW218915   3.788   4.161   0.643
 6006SOL     OW18916   3.052   6.198   6.325
 6006SOL    HW118917   3.065   6.247   6.411
 6006SOL    HW218918   3.121   6.126   6.316
 6007SOL     OW18919   2.631   6.662   4.602
 6007SOL    HW118920   2.724   6.631   4.622
 6007SOL    HW218921   2.590   6.603   4.533
 6008SOL     OW18922   2.426   3.972   6.746
 6008SOL    HW118923   2.381   4.055   6.777
 6008SOL    HW218924   2.469   3.926   6.823
 6009SOL     OW18925   2.639   5.423   3.163
 6009SOL    HW118926   2.714   5.395   3.223
 6009SOL    HW218927   2.677   5.455   3.076
 6010SOL     OW18928   0.195   5.064   5.773
 6010SOL    HW118929   0.234   5.125   5.704
 6010SOL    HW218930   0.115   5.018   5.735
 6011SOL     OW18931   5.589   1.767   2.922
 6011SOL    HW118932   5.499   1.729   2.901
 6011SOL    HW218933   5.646   1.766   2.840
 6012SOL     OW18934   6.480   1.046   6.116
 6012SOL    HW118935   6.572   1.082   6.128
 6012SOL    HW218936   6.485   0.954   6.077
 6013SOL     OW18937   5.765   1.508   2.518
 6013SOL    HW118938   5.670   1.513   2.550
 6013SOL    HW218939   5.790   1.412   2.506
 6014SOL     OW18940   3.752   3.434   4.180
 6014SOL    HW118941   3.825   3.367   4.180
 6014SOL    HW218942   3.682   3.407   4.113
 6015SOL     OW18943   6.436   0.193   3.623
 6015SOL    HW118944   6.350   0.228   3.660
 6015SOL    HW218945   6.509   0.205   3.691
 6016SOL     OW18946   4.416   2.134   4.621
 6016SOL    HW118947   4.481   2.207   4.644
 6016SOL    HW218948   4.387   2.087   4.704
 6017SOL     OW18949   1.646   1.773   5.470
 6017SOL    HW118950   1.586   1.851   5.490
 6017SOL    HW218951   1.741   1.804   5.464
 6018SOL     OW18952   2.219   1.528   3.468
 6018SOL    HW118953   2.189   1.545   3.562
 6018SOL    HW218954   2.301   1.581   3.449
 6019SOL     OW18955   6.896   3.892   6.146
 6019SOL    HW118956   6.846   3.972   6.179
 6019SOL    HW218957   6.833   3.830   6.100
 6020SOL     OW18958   0.675   5.505   5.111
 6020SOL    HW118959   0.728   5.582   5.145
 6020SOL    HW218960   0.644   5.524   5.017
 6021SOL     OW18961   4.955   0.228   3.256
 6021SOL    HW118962   4.855   0.239   3.251
 6021SOL    HW218963   4.999   0.316   3.240
 6022SOL     OW18964   6.821   2.964   1.770
 6022SOL    HW118965   6.741   2.931   1.720
 6022SOL    HW218966   6.904   2.928   1.728
 6023SOL     OW18967   4.465   6.603   2.473
 6023SOL    HW118968   4.450   6.619   2.376
 6023SOL    HW218969   4.450   6.507   2.494
 6024SOL     OW18970   0.503   6.389   0.114
 6024SOL    HW118971   0.572   6.423   0.178
 6024SOL    HW218972   0.422   6.447   0.119
 6025SOL     OW18973   3.310   0.289   5.717
 6025SOL    HW118974   3.243   0.284   5.643
 6025SOL    HW218975   3.354   0.200   5.728
 6026SOL     OW18976   5.888   6.028   3.667
 6026SOL    HW118977   5.885   6.128   3.664
 6026SOL    HW218978   5.826   5.991   3.598
 6027SOL     OW18979   6.125   4.400   5.820
 6027SOL    HW118980   6.075   4.329   5.770
 6027SOL    HW218981   6.142   4.369   5.913
 6028SOL     OW18982   5.932   5.578   6.359
 6028SOL    HW118983   6.029   5.576   6.333
 6028SOL    HW218984   5.889   5.657   6.317
 6029SOL     OW18985   2.866   1.868   2.871
 6029SOL    HW118986   2.866   1.901   2.776
 6029SOL    HW218987   2.790   1.804   2.883
 6030SOL     OW18988   5.904   3.151   4.242
 6030SOL    HW118989   5.892   3.204   4.327
 6030SOL    HW218990   5.849   3.068   4.247
 6031SOL     OW18991   6.951   0.096   3.573
 6031SOL    HW118992   6.981   0.075   3.480
 6031SOL    HW218993   7.011   0.165   3.613
 6032SOL     OW18994   3.006   6.936   3.534
 6032SOL    HW118995   2.976   7.026   3.501
 6032SOL    HW218996   3.035   6.881   3.456
 6033SOL     OW18997   0.904   1.490   2.749
 6033SOL    HW118998   0.853   1.573   2.770
 6033SOL    HW218999   0.959   1.505   2.667
 6034SOL     OW19000   0.794   0.768   0.448
 6034SOL    HW119001   0.820   0.864   0.445
 6034SOL    HW219002   0.760   0.745   0.540
 6035SOL     OW19003   1.768   1.080   2.323
 6035SOL    HW119004   1.767   1.056   2.420
 6035SOL    HW219005   1.701   1.153   2.306
 6036SOL     OW19006   6.865   3.390   0.345
 6036SOL    HW119007   6.940   3.456   0.351
 6036SOL    HW219008   6.778   3.438   0.356
 6037SOL     OW19009   4.812   0.615   6.586
 6037SOL    HW119010   4.899   0.616   6.536
 6037SOL    HW219011   4.806   0.533   6.642
 6038SOL     OW19012   1.677   1.396   6.628
 6038SOL    HW119013   1.699   1.307   6.668
 6038SOL    HW219014   1.580   1.399   6.605
 6039SOL     OW19015   3.530   2.938   4.098
 6039SOL    HW119016   3.483   3.017   4.137
 6039SOL    HW219017   3.472   2.895   4.029
 6040SOL     OW19018   0.186   1.714   0.132
 6040SOL    HW119019   0.192   1.673   0.223
 6040SOL    HW219020   0.163   1.811   0.141
 6041SOL     OW19021   0.945   2.981   5.124
 6041SOL    HW119022   0.897   3.001   5.038
 6041SOL    HW219023   1.033   2.938   5.103
 6042SOL     OW19024   2.539   6.206   3.922
 6042SOL    HW119025   2.581   6.191   3.833
 6042SOL    HW219026   2.528   6.119   3.970
 6043SOL     OW19027   2.415   5.861   2.341
 6043SOL    HW119028   2.380   5.887   2.251
 6043SOL    HW219029   2.463   5.939   2.381
 6044SOL     OW19030   6.841   3.272   0.623
 6044SOL    HW119031   6.893   3.327   0.559
 6044SOL    HW219032   6.872   3.290   0.717
 6045SOL     OW19033   5.144   1.270   4.400
 6045SOL    HW119034   5.090   1.298   4.321
 6045SOL    HW219035   5.122   1.176   4.425
 6046SOL     OW19036   3.698   3.866   3.033
 6046SOL    HW119037   3.792   3.857   2.999
 6046SOL    HW219038   3.672   3.963   3.035
 6047SOL     OW19039   0.096   1.273   0.080
 6047SOL    HW119040   0.087   1.252   7.011
 6047SOL    HW219041   0.183   1.237   0.114
 6048SOL     OW19042   5.918   5.479   3.002
 6048SOL    HW119043   5.827   5.466   3.041
 6048SOL    HW219044   5.957   5.391   2.978
 6049SOL     OW19045   4.950   5.059   6.071
 6049SOL    HW119046   4.923   4.996   5.998
 6049SOL    HW219047   5.016   5.125   6.035
 6050SOL     OW19048   2.392   5.361   3.090
 6050SOL    HW119049   2.476   5.366   3.143
 6050SOL    HW219050   2.327   5.430   3.123
 6051SOL     OW19051   0.648   0.964   2.351
 6051SOL    HW119052   0.742   0.937   2.372
 6051SOL    HW219053   0.649   1.037   2.283
 6052SOL     OW19054   5.683   5.964   6.877
 6052SOL    HW119055   5.596   6.013   6.883
 6052SOL    HW219056   5.679   5.897   6.803
 6053SOL     OW19057   3.806   2.430   5.761
 6053SOL    HW119058   3.853   2.342   5.768
 6053SOL    HW219059   3.723   2.419   5.707
 6054SOL     OW19060   4.151   3.544   0.227
 6054SOL    HW119061   4.243   3.574   0.203
 6054SOL    HW219062   4.131   3.570   0.321
 6055SOL     OW19063   3.023   4.768   1.577
 6055SOL    HW119064   2.977   4.682   1.557
 6055SOL    HW219065   3.120   4.760   1.556
 6056SOL     OW19066   4.910   6.117   2.745
 6056SOL    HW119067   4.945   6.027   2.718
 6056SOL    HW219068   4.920   6.129   2.843
 6057SOL     OW19069   5.738   1.325   4.014
 6057SOL    HW119070   5.743   1.402   3.951
 6057SOL    HW219071   5.709   1.357   4.104
 6058SOL     OW19072   0.163   2.469   5.776
 6058SOL    HW119073   0.122   2.483   5.866
 6058SOL    HW219074   0.109   2.402   5.724
 6059SOL     OW19075   4.071   2.003   6.877
 6059SOL    HW119076   4.013   2.078   6.847
 6059SOL    HW219077   4.167   2.032   6.873
 6060SOL     OW19078   1.845   2.520   1.267
 6060SOL    HW119079   1.908   2.487   1.197
 6060SOL    HW219080   1.752   2.517   1.233
 6061SOL     OW19081   2.505   4.560   6.518
 6061SOL    HW119082   2.439   4.485   6.509
 6061SOL    HW219083   2.566   4.541   6.595
 6062SOL     OW19084   2.294   1.931   6.066
 6062SOL    HW119085   2.290   1.914   6.165
 6062SOL    HW219086   2.376   1.886   6.028
 6063SOL     OW19087   4.706   4.086   6.108
 6063SOL    HW119088   4.647   4.166   6.093
 6063SOL    HW219089   4.786   4.093   6.048
 6064SOL     OW19090   5.660   6.150   0.640
 6064SOL    HW119091   5.590   6.186   0.701
 6064SOL    HW219092   5.694   6.223   0.581
 6065SOL     OW19093   2.172   5.937   1.357
 6065SOL    HW119094   2.252   5.957   1.300
 6065SOL    HW219095   2.163   5.838   1.368
 6066SOL     OW19096   6.219   5.881   2.042
 6066SOL    HW119097   6.291   5.946   2.018
 6066SOL    HW219098   6.256   5.812   2.105
 6067SOL     OW19099   0.222   5.037   5.330
 6067SOL    HW119100   0.258   4.970   5.396
 6067SOL    HW219101   0.278   5.036   5.248
 6068SOL     OW19102   4.199   1.617   4.050
 6068SOL    HW119103   4.117   1.562   4.067
 6068SOL    HW219104   4.176   1.714   4.051
 6069SOL     OW19105   0.401   5.076   5.118
 6069SOL    HW119106   0.432   5.170   5.134
 6069SOL    HW219107   0.432   5.046   5.028
 6070SOL     OW19108   2.960   0.810   0.888
 6070SOL    HW119109   2.900   0.761   0.825
 6070SOL    HW219110   3.025   0.746   0.929
 6071SOL     OW19111   5.678   0.419   6.210
 6071SOL    HW119112   5.611   0.373   6.268
 6071SOL    HW219113   5.724   0.490   6.263
 6072SOL     OW19114   6.927   2.979   0.554
 6072SOL    HW119115   6.926   3.040   0.475
 6072SOL    HW219116   6.902   3.031   0.636
 6073SOL     OW19117   5.016   3.981   0.721
 6073SOL    HW119118   4.978   4.036   0.646
 6073SOL    HW219119   5.022   4.037   0.804
 6074SOL     OW19120   1.292   6.268   2.742
 6074SOL    HW119121   1.224   6.195   2.732
 6074SOL    HW219122   1.282   6.334   2.668
 6075SOL     OW19123   6.339   6.786   6.854
 6075SOL    HW119124   6.401   6.864   6.865
 6075SOL    HW219125   6.348   6.750   6.761
 6076SOL     OW19126   0.188   6.616   3.623
 6076SOL    HW119127   0.245   6.536   3.639
 6076SOL    HW219128   0.197   6.679   3.701
 6077SOL     OW19129   5.107   6.153   2.524
 6077SOL    HW119130   5.085   6.179   2.430
 6077SOL    HW219131   5.023   6.142   2.576
 6078SOL     OW19132   5.270   4.430   0.003
 6078SOL    HW119133   5.200   4.499   7.016
 6078SOL    HW219134   5.343   4.440   6.964
 6079SOL     OW19135   3.536   1.938   0.435
 6079SOL    HW119136   3.449   1.982   0.410
 6079SOL    HW219137   3.612   1.989   0.395
 6080SOL     OW19138   0.168   3.044   5.425
 6080SOL    HW119139   0.164   2.948   5.399
 6080SOL    HW219140   0.142   3.101   5.347
 6081SOL     OW19141   2.065   4.038   4.291
 6081SOL    HW119142   2.145   4.064   4.346
 6081SOL    HW219143   2.032   4.118   4.241
 6082SOL     OW19144   5.030   1.144   1.422
 6082SOL    HW119145   5.097   1.070   1.424
 6082SOL    HW219146   5.067   1.222   1.371
 6083SOL     OW19147   5.377   6.530   6.448
 6083SOL    HW119148   5.441   6.582   6.505
 6083SOL    HW219149   5.384   6.561   6.353
 6084SOL     OW19150   6.300   5.379   3.408
 6084SOL    HW119151   6.232   5.450   3.429
 6084SOL    HW219152   6.331   5.338   3.494
 6085SOL     OW19153   0.562   6.668   1.042
 6085SOL    HW119154   0.469   6.670   1.076
 6085SOL    HW219155   0.595   6.762   1.028
 6086SOL     OW19156   3.764   3.466   0.739
 6086SOL    HW119157   3.685   3.520   0.709
 6086SOL    HW219158   3.809   3.513   0.815
 6087SOL     OW19159   4.115   0.286   0.822
 6087SOL    HW119160   4.093   0.288   0.724
 6087SOL    HW219161   4.039   0.246   0.873
 6088SOL     OW19162   4.188   5.874   1.974
 6088SOL    HW119163   4.251   5.858   2.049
 6088SOL    HW219164   4.138   5.790   1.953
 6089SOL     OW19165   6.100   4.805   3.455
 6089SOL    HW119166   6.069   4.859   3.533
 6089SOL    HW219167   6.097   4.861   3.372
 6090SOL     OW19168   3.863   6.160   4.965
 6090SOL    HW119169   3.853   6.241   5.023
 6090SOL    HW219170   3.798   6.166   4.889
 6091SOL     OW19171   1.079   2.665   2.879
 6091SOL    HW119172   1.098   2.762   2.865
 6091SOL    HW219173   1.141   2.629   2.948
 6092SOL     OW19174   2.001   6.929   1.356
 6092SOL    HW119175   2.003   6.850   1.417
 6092SOL    HW219176   2.094   6.951   1.326
 6093SOL     OW19177   3.088   2.864   1.685
 6093SOL    HW119178   3.058   2.941   1.628
 6093SOL    HW219179   3.009   2.812   1.715
 6094SOL     OW19180   1.218   0.038   5.689
 6094SOL    HW119181   1.246   0.115   5.631
 6094SOL    HW219182   1.298   7.010   5.710
 6095SOL     OW19183   5.370   5.154   1.965
 6095SOL    HW119184   5.442   5.099   2.006
 6095SOL    HW219185   5.378   5.249   1.996
 6096SOL     OW19186   4.728   5.936   2.579
 6096SOL    HW119187   4.782   5.859   2.546
 6096SOL    HW219188   4.750   6.017   2.525
 6097SOL     OW19189   2.555   5.257   2.146
 6097SOL    HW119190   2.475   5.197   2.146
 6097SOL    HW219191   2.525   5.351   2.158
 6098SOL     OW19192   6.017   1.214   5.341
 6098SOL    HW119193   6.003   1.232   5.243
 6098SOL    HW219194   5.953   1.269   5.394
 6099SOL     OW19195   3.760   6.695   5.372
 6099SOL    HW119196   3.775   6.786   5.411
 6099SOL    HW219197   3.841   6.639   5.385
 6100SOL     OW19198   0.319   5.863   5.438
 6100SOL    HW119199   0.299   5.892   5.345
 6100SOL    HW219200   0.247   5.895   5.500
 6101SOL     OW19201   0.633   2.684   1.457
 6101SOL    HW119202   0.632   2.699   1.556
 6101SOL    HW219203   0.560   2.622   1.431
 6102SOL     OW19204   3.140   0.140   2.871
 6102SOL    HW119205   3.065   0.131   2.937
 6102SOL    HW219206   3.147   0.057   2.816
 6103SOL     OW19207   5.340   1.113   2.281
 6103SOL    HW119208   5.361   1.210   2.267
 6103SOL    HW219209   5.243   1.103   2.302
 6104SOL     OW19210   6.644   0.471   5.126
 6104SOL    HW119211   6.546   0.481   5.144
 6104SOL    HW219212   6.695   0.477   5.212
 6105SOL     OW19213   3.847   4.457   5.578
 6105SOL    HW119214   3.891   4.411   5.655
 6105SOL    HW219215   3.871   4.410   5.493
 6106SOL     OW19216   6.410   3.766   5.018
 6106SOL    HW119217   6.472   3.819   4.960
 6106SOL    HW219218   6.318   3.767   4.978
 6107SOL     OW19219   5.722   4.474   5.012
 6107SOL    HW119220   5.729   4.412   4.934
 6107SOL    HW219221   5.797   4.456   5.075
 6108SOL     OW19222   3.360   1.024   6.169
 6108SOL    HW119223   3.424   0.949   6.151
 6108SOL    HW219224   3.331   1.064   6.082
 6109SOL     OW19225   6.978   6.676   3.927
 6109SOL    HW119226   6.901   6.709   3.873
 6109SOL    HW219227   6.958   6.584   3.960
 6110SOL     OW19228   1.364   1.942   3.822
 6110SOL    HW119229   1.314   1.988   3.895
 6110SOL    HW219230   1.412   2.010   3.767
 6111SOL     OW19231   2.596   3.008   0.885
 6111SOL    HW119232   2.620   3.087   0.829
 6111SOL    HW219233   2.675   2.949   0.895
 6112SOL     OW19234   4.845   6.396   3.683
 6112SOL    HW119235   4.920   6.360   3.628
 6112SOL    HW219236   4.799   6.321   3.730
 6113SOL     OW19237   3.031   5.540   0.924
 6113SOL    HW119238   3.028   5.547   1.024
 6113SOL    HW219239   3.116   5.582   0.891
 6114SOL     OW19240   4.842   3.395   1.739
 6114SOL    HW119241   4.884   3.353   1.658
 6114SOL    HW219242   4.764   3.451   1.710
 6115SOL     OW19243   6.527   0.662   5.398
 6115SOL    HW119244   6.623   0.636   5.401
 6115SOL    HW219245   6.519   0.760   5.417
 6116SOL     OW19246   6.459   3.463   0.141
 6116SOL    HW119247   6.500   3.500   0.225
 6116SOL    HW219248   6.384   3.402   0.165
 6117SOL     OW19249   2.179   2.585   1.185
 6117SOL    HW119250   2.254   2.633   1.139
 6117SOL    HW219251   2.215   2.503   1.231
 6118SOL     OW19252   5.961   0.958   1.912
 6118SOL    HW119253   5.996   0.916   1.828
 6118SOL    HW219254   6.036   1.005   1.959
 6119SOL     OW19255   0.403   1.244   6.393
 6119SOL    HW119256   0.458   1.305   6.450
 6119SOL    HW219257   0.435   1.150   6.405
 6120SOL     OW19258   2.875   0.922   3.990
 6120SOL    HW119259   2.956   0.863   3.995
 6120SOL    HW219260   2.872   0.967   3.901
 6121SOL     OW19261   2.435   1.608   5.107
 6121SOL    HW119262   2.495   1.529   5.117
 6121SOL    HW219263   2.489   1.692   5.105
 6122SOL     OW19264   4.766   4.718   4.875
 6122SOL    HW119265   4.753   4.800   4.930
 6122SOL    HW219266   4.680   4.666   4.872
 6123SOL     OW19267   6.612   1.553   5.210
 6123SOL    HW119268   6.611   1.582   5.306
 6123SOL    HW219269   6.568   1.623   5.154
 6124SOL     OW19270   2.489   6.497   3.941
 6124SOL    HW119271   2.504   6.400   3.958
 6124SOL    HW219272   2.485   6.546   4.028
 6125SOL     OW19273   3.800   1.362   5.107
 6125SOL    HW119274   3.711   1.354   5.061
 6125SOL    HW219275   3.793   1.326   5.199
 6126SOL     OW19276   5.993   2.752   6.457
 6126SOL    HW119277   5.968   2.831   6.514
 6126SOL    HW219278   6.061   2.780   6.390
 6127SOL     OW19279   5.963   2.152   2.671
 6127SOL    HW119280   5.992   2.218   2.740
 6127SOL    HW219281   5.863   2.150   2.667
 6128SOL     OW19282   5.985   5.778   5.824
 6128SOL    HW119283   6.076   5.739   5.817
 6128SOL    HW219284   5.920   5.706   5.851
 6129SOL     OW19285   2.332   5.820   3.113
 6129SOL    HW119286   2.419   5.772   3.125
 6129SOL    HW219287   2.258   5.754   3.102
 6130SOL     OW19288   5.800   3.308   0.287
 6130SOL    HW119289   5.742   3.271   0.215
 6130SOL    HW219290   5.859   3.236   0.323
 6131SOL     OW19291   6.604   2.704   3.203
 6131SOL    HW119292   6.688   2.718   3.151
 6131SOL    HW219293   6.531   2.675   3.140
 6132SOL     OW19294   4.328   6.229   6.442
 6132SOL    HW119295   4.242   6.237   6.493
 6132SOL    HW219296   4.405   6.233   6.505
 6133SOL     OW19297   0.644   2.179   3.505
 6133SOL    HW119298   0.660   2.259   3.563
 6133SOL    HW219299   0.616   2.209   3.414
 6134SOL     OW19300   0.036   6.595   5.512
 6134SOL    HW119301   0.076   6.652   5.441
 6134SOL    HW219302   0.062   6.500   5.497
 6135SOL     OW19303   6.161   6.457   0.383
 6135SOL    HW119304   6.243   6.443   0.438
 6135SOL    HW219305   6.157   6.390   0.310
 6136SOL     OW19306   1.179   2.021   3.604
 6136SOL    HW119307   1.229   2.103   3.576
 6136SOL    HW219308   1.177   2.017   3.704
 6137SOL     OW19309   6.557   4.995   1.053
 6137SOL    HW119310   6.564   5.029   0.959
 6137SOL    HW219311   6.612   4.911   1.062
 6138SOL     OW19312   5.407   0.842   1.946
 6138SOL    HW119313   5.401   0.837   1.846
 6138SOL    HW219314   5.442   0.932   1.973
 6139SOL     OW19315   1.744   2.073   5.018
 6139SOL    HW119316   1.701   2.113   4.937
 6139SOL    HW219317   1.827   2.124   5.040
 6140SOL     OW19318   2.038   0.495   3.392
 6140SOL    HW119319   1.973   0.554   3.440
 6140SOL    HW219320   2.033   0.402   3.430
 6141SOL     OW19321   1.041   0.683   0.107
 6141SOL    HW119322   1.091   0.621   0.046
 6141SOL    HW219323   1.020   0.636   0.193
 6142SOL     OW19324   0.225   0.394   1.576
 6142SOL    HW119325   0.209   0.296   1.571
 6142SOL    HW219326   0.196   0.437   1.490
 6143SOL     OW19327   0.921   3.207   5.518
 6143SOL    HW119328   0.891   3.134   5.579
 6143SOL    HW219329   1.011   3.240   5.547
 6144SOL     OW19330   3.428   5.617   2.609
 6144SOL    HW119331   3.476   5.683   2.550
 6144SOL    HW219332   3.464   5.623   2.702
 6145SOL     OW19333   4.978   3.159   4.042
 6145SOL    HW119334   4.941   3.089   3.981
 6145SOL    HW219335   5.041   3.218   3.991
 6146SOL     OW19336   5.982   0.533   5.262
 6146SOL    HW119337   6.080   0.545   5.276
 6146SOL    HW219338   5.943   0.484   5.340
 6147SOL     OW19339   1.202   2.077   5.775
 6147SOL    HW119340   1.288   2.027   5.783
 6147SOL    HW219341   1.222   2.172   5.751
 6148SOL     OW19342   3.903   4.943   0.148
 6148SOL    HW119343   3.920   4.883   0.070
 6148SOL    HW219344   3.849   4.894   0.217
 6149SOL     OW19345   3.894   1.953   1.380
 6149SOL    HW119346   3.906   1.897   1.462
 6149SOL    HW219347   3.807   2.002   1.386
 6150SOL     OW19348   0.273   4.721   4.303
 6150SOL    HW119349   0.320   4.809   4.310
 6150SOL    HW219350   0.175   4.734   4.320
 6151SOL     OW19351   3.924   5.264   3.057
 6151SOL    HW119352   3.879   5.352   3.042
 6151SOL    HW219353   3.862   5.190   3.030
 6152SOL     OW19354   0.876   3.577   2.836
 6152SOL    HW119355   0.887   3.638   2.914
 6152SOL    HW219356   0.909   3.485   2.860
 6153SOL     OW19357   5.007   6.372   0.838
 6153SOL    HW119358   5.045   6.383   0.746
 6153SOL    HW219359   4.907   6.370   0.833
 6154SOL     OW19360   4.679   4.370   2.704
 6154SOL    HW119361   4.714   4.452   2.658
 6154SOL    HW219362   4.641   4.307   2.636
 6155SOL     OW19363   1.909   1.149   3.887
 6155SOL    HW119364   1.929   1.246   3.879
 6155SOL    HW219365   1.810   1.135   3.885
 6156SOL     OW19366   4.809   4.031   2.062
 6156SOL    HW119367   4.811   4.059   2.158
 6156SOL    HW219368   4.721   4.056   2.022
 6157SOL     OW19369   0.603   3.125   1.203
 6157SOL    HW119370   0.526   3.169   1.157
 6157SOL    HW219371   0.623   3.174   1.288
 6158SOL     OW19372   2.810   1.022   5.916
 6158SOL    HW119373   2.825   1.039   5.819
 6158SOL    HW219374   2.839   1.102   5.969
 6159SOL     OW19375   5.831   2.612   0.328
 6159SOL    HW119376   5.906   2.647   0.384
 6159SOL    HW219377   5.764   2.685   0.312
 6160SOL     OW19378   0.838   6.931   1.200
 6160SOL    HW119379   0.934   6.901   1.201
 6160SOL    HW219380   0.835   0.003   1.202
 6161SOL     OW19381   4.948   4.056   6.574
 6161SOL    HW119382   4.872   4.102   6.528
 6161SOL    HW219383   5.029   4.061   6.516
 6162SOL     OW19384   6.316   5.704   1.128
 6162SOL    HW119385   6.308   5.605   1.117
 6162SOL    HW219386   6.408   5.727   1.159
 6163SOL     OW19387   6.471   6.108   3.196
 6163SOL    HW119388   6.402   6.036   3.187
 6163SOL    HW219389   6.426   6.195   3.217
 6164SOL     OW19390   3.397   3.858   4.192
 6164SOL    HW119391   3.429   3.907   4.111
 6164SOL    HW219392   3.411   3.760   4.180
 6165SOL     OW19393   3.977   0.968   0.029
 6165SOL    HW119394   3.989   0.869   0.038
 6165SOL    HW219395   3.973   0.992   6.960
 6166SOL     OW19396   3.407   1.229   5.639
 6166SOL    HW119397   3.403   1.233   5.539
 6166SOL    HW219398   3.456   1.309   5.674
 6167SOL     OW19399   1.577   3.460   3.044
 6167SOL    HW119400   1.532   3.447   2.955
 6167SOL    HW219401   1.673   3.484   3.030
 6168SOL     OW19402   0.231   3.618   4.283
 6168SOL    HW119403   0.302   3.644   4.348
 6168SOL    HW219404   0.265   3.629   4.190
 6169SOL     OW19405   2.950   0.580   0.326
 6169SOL    HW119406   2.928   0.491   0.285
 6169SOL    HW219407   3.020   0.567   0.396
 6170SOL     OW19408   2.852   4.588   1.500
 6170SOL    HW119409   2.805   4.554   1.581
 6170SOL    HW219410   2.786   4.634   1.440
 6171SOL     OW19411   2.102   4.214   1.564
 6171SOL    HW119412   2.071   4.307   1.585
 6171SOL    HW219413   2.197   4.217   1.533
 6172SOL     OW19414   2.821   5.436   1.600
 6172SOL    HW119415   2.860   5.397   1.683
 6172SOL    HW219416   2.807   5.364   1.533
 6173SOL     OW19417   1.417   5.569   2.132
 6173SOL    HW119418   1.463   5.480   2.120
 6173SOL    HW219419   1.485   5.638   2.156
 6174SOL     OW19420   5.578   4.243   1.815
 6174SOL    HW119421   5.580   4.247   1.715
 6174SOL    HW219422   5.632   4.165   1.846
 6175SOL     OW19423   4.665   0.445   3.791
 6175SOL    HW119424   4.596   0.501   3.747
 6175SOL    HW219425   4.673   0.471   3.888
 6176SOL     OW19426   5.095   3.111   0.064
 6176SOL    HW119427   5.193   3.104   0.079
 6176SOL    HW219428   5.072   3.205   0.036
 6177SOL     OW19429   6.603   2.787   2.507
 6177SOL    HW119430   6.505   2.782   2.527
 6177SOL    HW219431   6.650   2.835   2.581
 6178SOL     OW19432   5.903   3.690   1.336
 6178SOL    HW119433   5.871   3.671   1.429
 6178SOL    HW219434   5.849   3.638   1.271
 6179SOL     OW19435   0.347   1.937   5.161
 6179SOL    HW119436   0.320   1.896   5.074
 6179SOL    HW219437   0.358   1.865   5.229
 6180SOL     OW19438   3.535   0.126   5.965
 6180SOL    HW119439   3.533   0.097   5.869
 6180SOL    HW219440   3.610   0.189   5.979
 6181SOL     OW19441   4.350   5.969   6.848
 6181SOL    HW119442   4.278   5.932   6.907
 6181SOL    HW219443   4.333   5.941   6.754
 6182SOL     OW19444   5.024   0.092   5.873
 6182SOL    HW119445   4.941   0.086   5.816
 6182SOL    HW219446   4.999   0.079   5.969
 6183SOL     OW19447   3.612   0.343   2.546
 6183SOL    HW119448   3.697   0.386   2.576
 6183SOL    HW219449   3.629   0.246   2.526
 6184SOL     OW19450   6.083   7.003   6.284
 6184SOL    HW119451   6.141   6.965   6.211
 6184SOL    HW219452   6.097   0.074   6.290
 6185SOL     OW19453   1.834   2.779   6.621
 6185SOL    HW119454   1.777   2.704   6.588
 6185SOL    HW219455   1.899   2.744   6.688
 6186SOL     OW19456   4.780   0.662   4.249
 6186SOL    HW119457   4.749   0.756   4.259
 6186SOL    HW219458   4.879   0.657   4.266
 6187SOL     OW19459   3.200   5.234   4.969
 6187SOL    HW119460   3.171   5.295   4.895
 6187SOL    HW219461   3.247   5.155   4.930
 6188SOL     OW19462   3.033   6.968   1.493
 6188SOL    HW119463   2.954   6.950   1.552
 6188SOL    HW219464   3.013   6.937   1.400
 6189SOL     OW19465   4.876   4.838   3.020
 6189SOL    HW119466   4.815   4.801   3.090
 6189SOL    HW219467   4.935   4.764   2.985
 6190SOL     OW19468   4.992   2.520   5.901
 6190SOL    HW119469   4.983   2.614   5.869
 6190SOL    HW219470   5.064   2.474   5.849
 6191SOL     OW19471   6.611   1.766   6.484
 6191SOL    HW119472   6.541   1.814   6.429
 6191SOL    HW219473   6.582   1.763   6.579
 6192SOL     OW19474   3.386   2.545   0.721
 6192SOL    HW119475   3.478   2.521   0.752
 6192SOL    HW219476   3.320   2.479   0.759
 6193SOL     OW19477   6.289   0.319   1.413
 6193SOL    HW119478   6.215   0.369   1.457
 6193SOL    HW219479   6.318   0.243   1.471
 6194SOL     OW19480   2.270   0.675   0.487
 6194SOL    HW119481   2.257   0.624   0.401
 6194SOL    HW219482   2.188   0.729   0.506
 6195SOL     OW19483   2.159   6.775   5.568
 6195SOL    HW119484   2.102   6.719   5.508
 6195SOL    HW219485   2.101   6.825   5.632
 6196SOL     OW19486   0.566   1.836   5.760
 6196SOL    HW119487   0.514   1.801   5.682
 6196SOL    HW219488   0.556   1.935   5.765
 6197SOL     OW19489   2.276   2.996   1.185
 6197SOL    HW119490   2.345   3.020   1.253
 6197SOL    HW219491   2.185   3.012   1.223
 6198SOL     OW19492   3.408   5.258   2.637
 6198SOL    HW119493   3.404   5.170   2.589
 6198SOL    HW219494   3.325   5.310   2.617
 6199SOL     OW19495   0.699   0.620   6.455
 6199SOL    HW119496   0.619   0.568   6.425
 6199SOL    HW219497   0.696   0.632   6.554
 6200SOL     OW19498   4.003   0.572   6.027
 6200SOL    HW119499   3.912   0.539   6.001
 6200SOL    HW219500   4.069   0.498   6.016
 6201SOL     OW19501   2.041   4.725   3.971
 6201SOL    HW119502   1.992   4.810   3.951
 6201SOL    HW219503   2.133   4.747   4.006
 6202SOL     OW19504   2.687   2.573   1.449
 6202SOL    HW119505   2.595   2.562   1.485
 6202SOL    HW219506   2.719   2.667   1.467
 6203SOL     OW19507   5.578   1.858   4.593
 6203SOL    HW119508   5.529   1.808   4.522
 6203SOL    HW219509   5.669   1.817   4.606
 6204SOL     OW19510   1.403   6.353   5.856
 6204SOL    HW119511   1.337   6.307   5.915
 6204SOL    HW219512   1.386   6.452   5.858
 6205SOL     OW19513   5.443   6.067   6.924
 6205SOL    HW119514   5.389   6.057   7.007
 6205SOL    HW219515   5.436   6.160   6.890
 6206SOL     OW19516   5.237   6.944   3.580
 6206SOL    HW119517   5.232   7.013   3.507
 6206SOL    HW219518   5.183   6.864   3.554
 6207SOL     OW19519   2.283   4.128   4.410
 6207SOL    HW119520   2.343   4.199   4.374
 6207SOL    HW219521   2.317   4.097   4.499
 6208SOL     OW19522   5.797   5.593   5.410
 6208SOL    HW119523   5.867   5.578   5.341
 6208SOL    HW219524   5.835   5.574   5.501
 6209SOL     OW19525   2.624   4.950   0.911
 6209SOL    HW119526   2.533   4.947   0.871
 6209SOL    HW219527   2.620   4.920   1.006
 6210SOL     OW19528   6.773   5.236   3.015
 6210SOL    HW119529   6.689   5.227   2.961
 6210SOL    HW219530   6.787   5.154   3.070
 6211SOL     OW19531   2.431   0.633   5.076
 6211SOL    HW119532   2.355   0.639   5.140
 6211SOL    HW219533   2.427   0.709   5.011
 6212SOL     OW19534   6.477   0.667   3.463
 6212SOL    HW119535   6.378   0.655   3.456
 6212SOL    HW219536   6.502   0.759   3.434
 6213SOL     OW19537   6.796   0.407   0.446
 6213SOL    HW119538   6.842   0.334   0.396
 6213SOL    HW219539   6.830   0.496   0.415
 6214SOL     OW19540   5.623   4.734   2.065
 6214SOL    HW119541   5.636   4.826   2.030
 6214SOL    HW219542   5.652   4.729   2.161
 6215SOL     OW19543   2.659   4.793   1.417
 6215SOL    HW119544   2.684   4.890   1.420
 6215SOL    HW219545   2.611   4.768   1.501
 6216SOL     OW19546   6.599   2.002   2.438
 6216SOL    HW119547   6.521   1.940   2.443
 6216SOL    HW219548   6.576   2.082   2.383
 6217SOL     OW19549   5.171   1.622   1.289
 6217SOL    HW119550   5.167   1.676   1.373
 6217SOL    HW219551   5.100   1.654   1.225
 6218SOL     OW19552   4.416   5.001   3.961
 6218SOL    HW119553   4.332   4.971   3.915
 6218SOL    HW219554   4.450   5.084   3.918
 6219SOL     OW19555   6.807   1.325   4.676
 6219SOL    HW119556   6.748   1.405   4.687
 6219SOL    HW219557   6.809   1.298   4.580
 6220SOL     OW19558   1.772   3.456   5.711
 6220SOL    HW119559   1.710   3.529   5.686
 6220SOL    HW219560   1.732   3.368   5.685
 6221SOL     OW19561   4.407   5.044   4.575
 6221SOL    HW119562   4.476   5.066   4.643
 6221SOL    HW219563   4.451   5.031   4.486
 6222SOL     OW19564   0.267   1.576   1.412
 6222SOL    HW119565   0.323   1.657   1.432
 6222SOL    HW219566   0.176   1.606   1.383
 6223SOL     OW19567   4.980   4.071   4.248
 6223SOL    HW119568   4.923   4.110   4.319
 6223SOL    HW219569   4.936   3.991   4.209
 6224SOL     OW19570   2.638   0.128   4.682
 6224SOL    HW119571   2.618   0.068   4.759
 6224SOL    HW219572   2.564   0.195   4.672
 6225SOL     OW19573   3.818   2.258   7.013
 6225SOL    HW119574   3.719   2.254   7.025
 6225SOL    HW219575   3.842   2.220   6.923
 6226SOL     OW19576   6.846   6.673   4.285
 6226SOL    HW119577   6.846   6.715   4.376
 6226SOL    HW219578   6.789   6.727   4.224
 6227SOL     OW19579   2.946   4.097   6.807
 6227SOL    HW119580   2.900   4.030   6.749
 6227SOL    HW219581   3.044   4.078   6.807
 6228SOL     OW19582   0.004   2.149   2.947
 6228SOL    HW119583   6.961   2.096   2.902
 6228SOL    HW219584   0.067   2.185   2.878
 6229SOL     OW19585   1.767   2.243   1.830
 6229SOL    HW119586   1.745   2.197   1.917
 6229SOL    HW219587   1.694   2.308   1.808
 6230SOL     OW19588   2.085   2.078   4.272
 6230SOL    HW119589   2.075   2.020   4.192
 6230SOL    HW219590   2.028   2.043   4.346
 6231SOL     OW19591   7.017   5.460   1.457
 6231SOL    HW119592   6.948   5.520   1.416
 6231SOL    HW219593   6.989   5.436   1.550
 6232SOL     OW19594   0.799   1.205   7.027
 6232SOL    HW119595   0.810   1.244   0.091
 6232SOL    HW219596   0.870   1.243   6.967
 6233SOL     OW19597   4.455   0.941   6.654
 6233SOL    HW119598   4.486   0.846   6.663
 6233SOL    HW219599   4.480   0.992   6.736
 6234SOL     OW19600   2.049   2.612   3.795
 6234SOL    HW119601   2.068   2.632   3.699
 6234SOL    HW219602   1.973   2.670   3.827
 6235SOL     OW19603   2.207   6.167   2.640
 6235SOL    HW119604   2.162   6.202   2.722
 6235SOL    HW219605   2.275   6.098   2.667
 6236SOL     OW19606   6.967   3.916   0.059
 6236SOL    HW119607   0.004   3.890   7.016
 6236SOL    HW219608   6.887   3.959   0.018
 6237SOL     OW19609   3.798   6.181   6.711
 6237SOL    HW119610   3.777   6.086   6.689
 6237SOL    HW219611   3.731   6.242   6.667
 6238SOL     OW19612   5.486   3.594   0.501
 6238SOL    HW119613   5.557   3.665   0.495
 6238SOL    HW219614   5.524   3.506   0.473
 6239SOL     OW19615   2.471   6.882   3.398
 6239SOL    HW119616   2.453   6.829   3.315
 6239SOL    HW219617   2.531   6.831   3.458
 6240SOL     OW19618   2.245   3.602   0.169
 6240SOL    HW119619   2.336   3.621   0.206
 6240SOL    HW219620   2.182   3.582   0.244
 6241SOL     OW19621   4.988   0.028   1.616
 6241SOL    HW119622   5.074   7.018   1.585
 6241SOL    HW219623   4.920   0.023   1.543
 6242SOL     OW19624   4.065   2.215   3.263
 6242SOL    HW119625   4.041   2.247   3.171
 6242SOL    HW219626   3.994   2.243   3.327
 6243SOL     OW19627   5.976   5.735   2.885
 6243SOL    HW119628   5.936   5.650   2.919
 6243SOL    HW219629   6.075   5.723   2.872
 6244SOL     OW19630   1.799   1.882   2.328
 6244SOL    HW119631   1.800   1.801   2.269
 6244SOL    HW219632   1.888   1.893   2.370
 6245SOL     OW19633   1.897   4.128   0.749
 6245SOL    HW119634   1.894   4.043   0.801
 6245SOL    HW219635   1.831   4.193   0.786
 6246SOL     OW19636   4.358   0.136   0.195
 6246SOL    HW119637   4.379   0.151   0.292
 6246SOL    HW219638   4.259   0.132   0.183
 6247SOL     OW19639   0.017   6.701   2.917
 6247SOL    HW119640   7.014   6.734   3.006
 6247SOL    HW219641   0.060   6.611   2.927
 6248SOL     OW19642   1.115   5.902   1.142
 6248SOL    HW119643   1.172   5.820   1.130
 6248SOL    HW219644   1.020   5.879   1.124
 6249SOL     OW19645   6.556   3.649   6.562
 6249SOL    HW119646   6.499   3.715   6.611
 6249SOL    HW219647   6.614   3.599   6.626
 6250SOL     OW19648   6.532   4.502   5.510
 6250SOL    HW119649   6.516   4.470   5.603
 6250SOL    HW219650   6.575   4.592   5.512
 6251SOL     OW19651   4.715   1.685   1.184
 6251SOL    HW119652   4.750   1.678   1.278
 6251SOL    HW219653   4.615   1.681   1.185
 6252SOL     OW19654   2.089   6.394   5.252
 6252SOL    HW119655   2.096   6.345   5.165
 6252SOL    HW219656   2.115   6.333   5.326
 6253SOL     OW19657   2.921   4.082   1.683
 6253SOL    HW119658   2.977   4.163   1.701
 6253SOL    HW219659   2.978   4.009   1.647
 6254SOL     OW19660   5.468   0.305   0.230
 6254SOL    HW119661   5.447   0.347   0.319
 6254SOL    HW219662   5.543   0.355   0.186
 6255SOL     OW19663   6.845   2.891   3.308
 6255SOL    HW119664   6.754   2.854   3.327
 6255SOL    HW219665   6.872   2.950   3.384
 6256SOL     OW19666   4.054   5.192   3.897
 6256SOL    HW119667   4.111   5.257   3.946
 6256SOL    HW219668   4.112   5.124   3.852
 6257SOL     OW19669   4.269   2.837   6.960
 6257SOL    HW119670   4.326   2.890   6.898
 6257SOL    HW219671   4.276   2.740   6.937
 6258SOL     OW19672   4.443   2.424   3.017
 6258SOL    HW119673   4.397   2.403   3.104
 6258SOL    HW219674   4.505   2.501   3.030
 6259SOL     OW19675   2.996   2.048   1.534
 6259SOL    HW119676   3.079   2.009   1.572
 6259SOL    HW219677   2.939   2.083   1.608
 6260SOL     OW19678   3.225   4.380   1.202
 6260SOL    HW119679   3.160   4.305   1.195
 6260SOL    HW219680   3.189   4.460   1.152
 6261SOL     OW19681   4.594   6.792   6.683
 6261SOL    HW119682   4.678   6.839   6.712
 6261SOL    HW219683   4.618   6.706   6.638
 6262SOL     OW19684   0.715   6.103   5.413
 6262SOL    HW119685   0.710   6.066   5.321
 6262SOL    HW219686   0.628   6.150   5.435
 6263SOL     OW19687   5.953   0.953   1.427
 6263SOL    HW119688   5.974   1.048   1.450
 6263SOL    HW219689   6.022   0.917   1.364
 6264SOL     OW19690   2.276   1.765   0.375
 6264SOL    HW119691   2.212   1.714   0.431
 6264SOL    HW219692   2.367   1.723   0.380
 6265SOL     OW19693   5.836   3.561   0.555
 6265SOL    HW119694   5.813   3.630   0.624
 6265SOL    HW219695   5.810   3.594   0.464
 6266SOL     OW19696   2.497   0.579   2.287
 6266SOL    HW119697   2.574   0.537   2.240
 6266SOL    HW219698   2.418   0.582   2.225
 6267SOL     OW19699   2.516   0.117   0.035
 6267SOL    HW119700   2.559   0.160   0.115
 6267SOL    HW219701   2.417   0.122   0.043
 6268SOL     OW19702   2.380   6.015   2.931
 6268SOL    HW119703   2.405   5.930   2.976
 6268SOL    HW219704   2.397   6.008   2.833
 6269SOL     OW19705   6.144   4.441   0.286
 6269SOL    HW119706   6.142   4.355   0.337
 6269SOL    HW219707   6.123   4.422   0.190
 6270SOL     OW19708   0.418   1.050   4.119
 6270SOL    HW119709   0.402   1.095   4.207
 6270SOL    HW219710   0.496   0.988   4.127
 6271SOL     OW19711   6.432   1.492   1.041
 6271SOL    HW119712   6.461   1.497   1.137
 6271SOL    HW219713   6.347   1.441   1.035
 6272SOL     OW19714   2.139   2.373   3.882
 6272SOL    HW119715   2.112   2.460   3.840
 6272SOL    HW219716   2.117   2.375   3.979
 6273SOL     OW19717   4.496   0.849   2.396
 6273SOL    HW119718   4.510   0.768   2.339
 6273SOL    HW219719   4.437   0.825   2.473
 6274SOL     OW19720   2.740   6.236   6.711
 6274SOL    HW119721   2.744   6.136   6.705
 6274SOL    HW219722   2.668   6.262   6.775
 6275SOL     OW19723   3.270   0.853   4.430
 6275SOL    HW119724   3.272   0.943   4.473
 6275SOL    HW219725   3.196   0.851   4.363
 6276SOL     OW19726   1.434   5.496   3.615
 6276SOL    HW119727   1.414   5.486   3.712
 6276SOL    HW219728   1.523   5.541   3.604
 6277SOL     OW19729   5.666   3.258   3.971
 6277SOL    HW119730   5.729   3.188   3.938
 6277SOL    HW219731   5.713   3.317   4.037
 6278SOL     OW19732   4.425   0.700   3.598
 6278SOL    HW119733   4.392   0.682   3.691
 6278SOL    HW219734   4.433   0.613   3.548
 6279SOL     OW19735   4.874   2.116   6.596
 6279SOL    HW119736   4.849   2.212   6.585
 6279SOL    HW219737   4.863   2.089   6.692
 6280SOL     OW19738   1.241   5.688   5.939
 6280SOL    HW119739   1.163   5.627   5.953
 6280SOL    HW219740   1.278   5.716   6.028
 6281SOL     OW19741   3.056   6.755   4.495
 6281SOL    HW119742   3.032   6.850   4.512
 6281SOL    HW219743   3.108   6.719   4.572
 6282SOL     OW19744   0.775   0.170   4.005
 6282SOL    HW119745   0.808   0.133   3.919
 6282SOL    HW219746   0.736   0.261   3.990
 6283SOL     OW19747   1.359   3.312   5.143
 6283SOL    HW119748   1.317   3.283   5.229
 6283SOL    HW219749   1.456   3.287   5.143
 6284SOL     OW19750   2.611   4.708   6.307
 6284SOL    HW119751   2.690   4.746   6.354
 6284SOL    HW219752   2.551   4.662   6.373
 6285SOL     OW19753   1.985   4.287   2.769
 6285SOL    HW119754   2.035   4.366   2.732
 6285SOL    HW219755   2.002   4.280   2.867
 6286SOL     OW19756   6.294   6.028   4.534
 6286SOL    HW119757   6.367   6.013   4.600
 6286SOL    HW219758   6.221   5.962   4.550
 6287SOL     OW19759   3.565   4.888   2.641
 6287SOL    HW119760   3.568   4.919   2.736
 6287SOL    HW219761   3.643   4.828   2.623
 6288SOL     OW19762   5.811   3.069   1.007
 6288SOL    HW119763   5.805   2.972   0.985
 6288SOL    HW219764   5.731   3.097   1.061
 6289SOL     OW19765   1.094   6.476   2.674
 6289SOL    HW119766   1.003   6.436   2.685
 6289SOL    HW219767   1.100   6.561   2.726
 6290SOL     OW19768   5.887   4.235   3.510
 6290SOL    HW119769   5.838   4.273   3.431
 6290SOL    HW219770   5.849   4.272   3.594
 6291SOL     OW19771   3.910   3.968   3.494
 6291SOL    HW119772   4.004   3.976   3.460
 6291SOL    HW219773   3.855   3.916   3.429
 6292SOL     OW19774   0.071   1.409   2.050
 6292SOL    HW119775   0.031   1.406   1.959
 6292SOL    HW219776   0.146   1.342   2.056
 6293SOL     OW19777   5.672   5.262   6.793
 6293SOL    HW119778   5.616   5.338   6.825
 6293SOL    HW219779   5.629   5.175   6.819
 6294SOL     OW19780   3.779   5.917   1.997
 6294SOL    HW119781   3.837   5.982   2.047
 6294SOL    HW219782   3.683   5.942   2.009
 6295SOL     OW19783   0.178   5.833   5.681
 6295SOL    HW119784   0.100   5.773   5.665
 6295SOL    HW219785   0.206   5.827   5.777
 6296SOL     OW19786   6.508   1.369   3.199
 6296SOL    HW119787   6.434   1.414   3.149
 6296SOL    HW219788   6.477   1.350   3.293
 6297SOL     OW19789   5.636   0.924   5.591
 6297SOL    HW119790   5.611   0.912   5.687
 6297SOL    HW219791   5.604   0.845   5.538
 6298SOL     OW19792   6.341   2.000   4.136
 6298SOL    HW119793   6.341   1.939   4.057
 6298SOL    HW219794   6.294   1.956   4.213
 6299SOL     OW19795   6.596   3.141   0.583
 6299SOL    HW119796   6.682   3.192   0.577
 6299SOL    HW219797   6.601   3.077   0.660
 6300SOL     OW19798   5.621   1.421   3.237
 6300SOL    HW119799   5.614   1.413   3.138
 6300SOL    HW219800   5.581   1.340   3.280
 6301SOL     OW19801   3.781   0.829   0.713
 6301SOL    HW119802   3.769   0.738   0.674
 6301SOL    HW219803   3.772   0.824   0.812
 6302SOL     OW19804   6.305   0.722   2.650
 6302SOL    HW119805   6.390   0.768   2.673
 6302SOL    HW219806   6.302   0.705   2.551
 6303SOL     OW19807   2.429   5.983   5.022
 6303SOL    HW119808   2.452   5.899   4.973
 6303SOL    HW219809   2.337   5.974   5.061
 6304SOL     OW19810   3.935   0.969   4.590
 6304SOL    HW119811   4.030   1.000   4.591
 6304SOL    HW219812   3.927   0.886   4.534
 6305SOL     OW19813   5.506   0.908   2.368
 6305SOL    HW119814   5.447   0.976   2.325
 6305SOL    HW219815   5.484   0.900   2.465
 6306SOL     OW19816   5.933   2.674   4.205
 6306SOL    HW119817   6.018   2.695   4.156
 6306SOL    HW219818   5.955   2.649   4.300
 6307SOL     OW19819   2.020   4.863   0.472
 6307SOL    HW119820   1.944   4.832   0.529
 6307SOL    HW219821   2.104   4.817   0.500
 6308SOL     OW19822   3.994   2.485   6.290
 6308SOL    HW119823   3.905   2.452   6.322
 6308SOL    HW219824   4.058   2.491   6.366
 6309SOL     OW19825   5.629   2.121   5.092
 6309SOL    HW119826   5.661   2.216   5.102
 6309SOL    HW219827   5.649   2.090   4.999
 6310SOL     OW19828   0.036   5.606   4.768
 6310SOL    HW119829   0.040   5.569   4.675
 6310SOL    HW219830   0.009   5.534   4.832
 6311SOL     OW19831   5.969   6.949   4.316
 6311SOL    HW119832   6.058   6.963   4.360
 6311SOL    HW219833   5.900   7.006   4.362
 6312SOL     OW19834   5.308   4.175   5.585
 6312SOL    HW119835   5.285   4.261   5.630
 6312SOL    HW219836   5.403   4.177   5.556
 6313SOL     OW19837   2.342   5.103   3.948
 6313SOL    HW119838   2.246   5.128   3.942
 6313SOL    HW219839   2.397   5.185   3.962
 6314SOL     OW19840   1.240   0.651   3.485
 6314SOL    HW119841   1.306   0.682   3.554
 6314SOL    HW219842   1.148   0.677   3.514
 6315SOL     OW19843   1.934   4.018   0.263
 6315SOL    HW119844   2.026   4.046   0.290
 6315SOL    HW219845   1.923   3.920   0.278
 6316SOL     OW19846   4.257   0.880   5.344
 6316SOL    HW119847   4.334   0.886   5.280
 6316SOL    HW219848   4.278   0.814   5.415
 6317SOL     OW19849   6.187   4.912   4.660
 6317SOL    HW119850   6.185   4.994   4.718
 6317SOL    HW219851   6.252   4.846   4.698
 6318SOL     OW19852   1.908   1.925   4.380
 6318SOL    HW119853   1.854   1.941   4.462
 6318SOL    HW219854   1.960   1.840   4.391
 6319SOL     OW19855   0.994   2.018   2.756
 6319SOL    HW119856   1.093   2.017   2.747
 6319SOL    HW219857   0.954   2.059   2.674
 6320SOL     OW19858   0.391   2.294   2.650
 6320SOL    HW119859   0.387   2.325   2.555
 6320SOL    HW219860   0.465   2.343   2.697
 6321SOL     OW19861   2.653   3.820   5.810
 6321SOL    HW119862   2.741   3.861   5.789
 6321SOL    HW219863   2.630   3.752   5.740
 6322SOL     OW19864   2.556   0.489   0.170
 6322SOL    HW119865   2.617   0.569   0.169
 6322SOL    HW219866   2.524   0.472   0.077
 6323SOL     OW19867   4.001   1.541   1.486
 6323SOL    HW119868   4.084   1.566   1.435
 6323SOL    HW219869   3.960   1.624   1.525
 6324SOL     OW19870   3.681   1.608   6.887
 6324SOL    HW119871   3.737   1.691   6.891
 6324SOL    HW219872   3.689   1.567   6.796
 6325SOL     OW19873   1.456   3.242   2.590
 6325SOL    HW119874   1.451   3.150   2.552
 6325SOL    HW219875   1.547   3.280   2.574
 6326SOL     OW19876   4.582   6.620   1.300
 6326SOL    HW119877   4.534   6.533   1.288
 6326SOL    HW219878   4.520   6.687   1.340
 6327SOL     OW19879   3.770   5.558   5.479
 6327SOL    HW119880   3.799   5.600   5.393
 6327SOL    HW219881   3.836   5.486   5.504
 6328SOL     OW19882   2.548   4.661   6.914
 6328SOL    HW119883   2.623   4.727   6.908
 6328SOL    HW219884   2.461   4.710   6.922
 6329SOL     OW19885   0.460   1.726   2.742
 6329SOL    HW119886   0.456   1.765   2.834
 6329SOL    HW219887   0.380   1.667   2.727
 6330SOL     OW19888   3.642   0.197   0.420
 6330SOL    HW119889   3.658   0.294   0.403
 6330SOL    HW219890   3.565   0.186   0.483
 6331SOL     OW19891   4.911   3.221   1.928
 6331SOL    HW119892   4.873   3.258   1.844
 6331SOL    HW219893   4.847   3.154   1.967
 6332SOL     OW19894   5.099   6.493   2.073
 6332SOL    HW119895   5.175   6.531   2.019
 6332SOL    HW219896   5.014   6.502   2.021
 6333SOL     OW19897   2.113   4.964   3.137
 6333SOL    HW119898   2.018   4.934   3.133
 6333SOL    HW219899   2.174   4.885   3.126
 6334SOL     OW19900   2.586   1.402   2.841
 6334SOL    HW119901   2.536   1.486   2.861
 6334SOL    HW219902   2.570   1.336   2.915
 6335SOL     OW19903   6.892   1.375   0.167
 6335SOL    HW119904   6.909   1.470   0.142
 6335SOL    HW219905   6.971   1.319   0.139
 6336SOL     OW19906   1.036   3.151   4.866
 6336SOL    HW119907   0.948   3.109   4.843
 6336SOL    HW219908   1.021   3.229   4.926
 6337SOL     OW19909   0.282   4.915   4.826
 6337SOL    HW119910   0.225   4.883   4.750
 6337SOL    HW219911   0.237   4.993   4.870
 6338SOL     OW19912   3.749   1.284   4.253
 6338SOL    HW119913   3.788   1.245   4.337
 6338SOL    HW219914   3.668   1.338   4.276
 6339SOL     OW19915   0.371   2.809   4.575
 6339SOL    HW119916   0.405   2.893   4.533
 6339SOL    HW219917   0.434   2.734   4.555
 6340SOL     OW19918   2.552   5.892   4.372
 6340SOL    HW119919   2.647   5.870   4.395
 6340SOL    HW219920   2.501   5.910   4.456
 6341SOL     OW19921   6.425   5.508   2.265
 6341SOL    HW119922   6.331   5.542   2.268
 6341SOL    HW219923   6.487   5.580   2.296
 6342SOL     OW19924   1.357   3.669   0.485
 6342SOL    HW119925   1.286   3.729   0.448
 6342SOL    HW219926   1.371   3.690   0.582
 6343SOL     OW19927   4.801   1.251   0.494
 6343SOL    HW119928   4.797   1.340   0.541
 6343SOL    HW219929   4.758   1.259   0.405
 6344SOL     OW19930   6.090   4.674   4.479
 6344SOL    HW119931   6.108   4.700   4.384
 6344SOL    HW219932   6.040   4.747   4.525
 6345SOL     OW19933   2.066   2.308   1.656
 6345SOL    HW119934   2.077   2.292   1.754
 6345SOL    HW219935   2.098   2.400   1.633
 6346SOL     OW19936   0.766   5.321   4.290
 6346SOL    HW119937   0.770   5.383   4.212
 6346SOL    HW219938   0.715   5.364   4.364
 6347SOL     OW19939   3.214   0.034   0.738
 6347SOL    HW119940   3.208   6.967   0.707
 6347SOL    HW219941   3.226   0.036   0.837
 6348SOL     OW19942   0.545   2.559   3.947
 6348SOL    HW119943   0.518   2.574   4.042
 6348SOL    HW219944   0.551   2.461   3.929
 6349SOL     OW19945   1.338   0.774   0.631
 6349SOL    HW119946   1.253   0.739   0.590
 6349SOL    HW219947   1.393   0.818   0.560
 6350SOL     OW19948   0.175   5.826   3.300
 6350SOL    HW119949   0.193   5.731   3.274
 6350SOL    HW219950   0.124   5.871   3.227
 6351SOL     OW19951   0.049   2.105   3.198
 6351SOL    HW119952   0.028   2.127   3.103
 6351SOL    HW219953   0.081   2.010   3.204
 6352SOL     OW19954   0.307   4.837   2.274
 6352SOL    HW119955   0.225   4.889   2.298
 6352SOL    HW219956   0.352   4.879   2.196
 6353SOL     OW19957   0.584   6.592   1.632
 6353SOL    HW119958   0.591   6.492   1.624
 6353SOL    HW219959   0.506   6.616   1.689
 6354SOL     OW19960   0.163   6.797   4.502
 6354SOL    HW119961   0.163   6.749   4.414
 6354SOL    HW219962   0.117   6.742   4.571
 6355SOL     OW19963   1.554   2.396   1.755
 6355SOL    HW119964   1.496   2.432   1.828
 6355SOL    HW219965   1.517   2.309   1.722
 6356SOL     OW19966   3.430   3.651   1.150
 6356SOL    HW119967   3.500   3.604   1.204
 6356SOL    HW219968   3.457   3.653   1.054
 6357SOL     OW19969   5.590   2.264   1.390
 6357SOL    HW119970   5.497   2.293   1.415
 6357SOL    HW219971   5.607   2.287   1.295
 6358SOL     OW19972   1.439   3.032   5.058
 6358SOL    HW119973   1.497   2.953   5.037
 6358SOL    HW219974   1.438   3.047   5.157
 6359SOL     OW19975   6.826   1.325   6.363
 6359SOL    HW119976   6.922   1.316   6.389
 6359SOL    HW219977   6.805   1.422   6.346
 6360SOL     OW19978   2.546   5.572   4.152
 6360SOL    HW119979   2.579   5.580   4.247
 6360SOL    HW219980   2.456   5.529   4.152
 6361SOL     OW19981   2.864   6.580   5.763
 6361SOL    HW119982   2.772   6.608   5.734
 6361SOL    HW219983   2.874   6.482   5.752
 6362SOL     OW19984   6.541   4.954   6.133
 6362SOL    HW119985   6.514   5.050   6.128
 6362SOL    HW219986   6.473   4.902   6.185
 6363SOL     OW19987   0.816   5.554   4.143
 6363SOL    HW119988   0.795   5.650   4.163
 6363SOL    HW219989   0.809   5.538   4.044
 6364SOL     OW19990   2.154   2.141   6.636
 6364SOL    HW119991   2.208   2.193   6.701
 6364SOL    HW219992   2.203   2.134   6.549
 6365SOL     OW19993   4.260   5.104   2.411
 6365SOL    HW119994   4.251   5.116   2.312
 6365SOL    HW219995   4.174   5.127   2.456
 6366SOL     OW19996   0.849   4.431   5.418
 6366SOL    HW119997   0.779   4.497   5.445
 6366SOL    HW219998   0.867   4.440   5.320
 6367SOL     OW19999   5.559   6.069   2.373
 6367SOL    HW120000   5.500   6.130   2.425
 6367SOL    HW220001   5.557   6.095   2.276
 6368SOL     OW20002   3.167   0.949   3.129
 6368SOL    HW120003   3.173   0.883   3.054
 6368SOL    HW220004   3.101   0.915   3.197
 6369SOL     OW20005   2.227   5.866   5.158
 6369SOL    HW120006   2.162   5.899   5.227
 6369SOL    HW220007   2.186   5.790   5.107
 6370SOL     OW20008   5.388   3.104   1.967
 6370SOL    HW120009   5.308   3.118   2.026
 6370SOL    HW220010   5.360   3.107   1.871
 6371SOL     OW20011   4.538   1.159   3.792
 6371SOL    HW120012   4.548   1.124   3.885
 6371SOL    HW220013   4.480   1.097   3.739
 6372SOL     OW20014   2.678   0.321   2.233
 6372SOL    HW120015   2.773   0.349   2.248
 6372SOL    HW220016   2.657   0.241   2.290
 6373SOL     OW20017   3.494   4.695   0.157
 6373SOL    HW120018   3.497   4.761   0.082
 6373SOL    HW220019   3.512   4.603   0.121
 6374SOL     OW20020   2.892   3.391   3.357
 6374SOL    HW120021   2.910   3.431   3.447
 6374SOL    HW220022   2.932   3.300   3.352
 6375SOL     OW20023   2.094   5.753   2.200
 6375SOL    HW120024   2.051   5.676   2.154
 6375SOL    HW220025   2.117   5.728   2.294
 6376SOL     OW20026   1.175   1.807   5.471
 6376SOL    HW120027   1.263   1.853   5.460
 6376SOL    HW220028   1.144   1.816   5.566
 6377SOL     OW20029   1.134   1.680   3.954
 6377SOL    HW120030   1.222   1.705   3.993
 6377SOL    HW220031   1.092   1.609   4.011
 6378SOL     OW20032   4.026   5.348   3.488
 6378SOL    HW120033   4.003   5.433   3.535
 6378SOL    HW220034   3.956   5.328   3.419
 6379SOL     OW20035   2.576   4.909   2.087
 6379SOL    HW120036   2.562   4.820   2.043
 6379SOL    HW220037   2.598   4.977   2.018
 6380SOL     OW20038   1.421   0.966   5.984
 6380SOL    HW120039   1.400   1.064   5.982
 6380SOL    HW220040   1.515   0.952   5.951
 6381SOL     OW20041   3.451   3.492   2.074
 6381SOL    HW120042   3.363   3.444   2.071
 6381SOL    HW220043   3.467   3.537   1.986
 6382SOL     OW20044   1.362   4.885   4.526
 6382SOL    HW120045   1.461   4.897   4.526
 6382SOL    HW220046   1.324   4.920   4.440
 6383SOL     OW20047   3.425   1.519   4.038
 6383SOL    HW120048   3.474   1.432   4.029
 6383SOL    HW220049   3.490   1.593   4.052
 6384SOL     OW20050   6.842   4.552   2.303
 6384SOL    HW120051   6.801   4.598   2.224
 6384SOL    HW220052   6.799   4.462   2.315
 6385SOL     OW20053   1.506   5.794   5.541
 6385SOL    HW120054   1.485   5.719   5.604
 6385SOL    HW220055   1.459   5.778   5.454
 6386SOL     OW20056   2.351   5.325   2.603
 6386SOL    HW120057   2.324   5.288   2.692
 6386SOL    HW220058   2.434   5.278   2.572
 6387SOL     OW20059   6.238   1.053   5.106
 6387SOL    HW120060   6.147   1.029   5.075
 6387SOL    HW220061   6.271   0.985   5.171
 6388SOL     OW20062   1.889   5.150   3.291
 6388SOL    HW120063   1.797   5.109   3.292
 6388SOL    HW220064   1.950   5.093   3.236
 6389SOL     OW20065   1.473   4.140   1.231
 6389SOL    HW120066   1.541   4.082   1.187
 6389SOL    HW220067   1.383   4.096   1.226
 6390SOL     OW20068   1.023   2.552   4.357
 6390SOL    HW120069   1.036   2.497   4.439
 6390SOL    HW220070   1.108   2.600   4.337
 6391SOL     OW20071   3.809   0.612   0.133
 6391SOL    HW120072   3.749   0.688   0.159
 6391SOL    HW220073   3.904   0.644   0.129
 6392SOL     OW20074   1.287   5.823   4.440
 6392SOL    HW120075   1.362   5.764   4.471
 6392SOL    HW220076   1.325   5.907   4.402
 6393SOL     OW20077   4.944   1.572   7.004
 6393SOL    HW120078   5.017   1.523   0.023
 6393SOL    HW220079   4.874   1.508   6.975
 6394SOL     OW20080   3.270   4.934   1.701
 6394SOL    HW120081   3.307   4.999   1.634
 6394SOL    HW220082   3.320   4.944   1.787
 6395SOL     OW20083   5.811   2.359   6.816
 6395SOL    HW120084   5.726   2.328   6.858
 6395SOL    HW220085   5.866   2.280   6.787
 6396SOL     OW20086   6.404   3.537   6.353
 6396SOL    HW120087   6.497   3.565   6.380
 6396SOL    HW220088   6.353   3.511   6.435
 6397SOL     OW20089   6.038   0.893   0.960
 6397SOL    HW120090   5.939   0.881   0.956
 6397SOL    HW220091   6.062   0.985   0.928
 6398SOL     OW20092   3.869   1.074   1.533
 6398SOL    HW120093   3.909   1.038   1.448
 6398SOL    HW220094   3.845   1.170   1.520
 6399SOL     OW20095   1.462   6.360   6.816
 6399SOL    HW120096   1.433   6.455   6.827
 6399SOL    HW220097   1.488   6.345   6.720
 6400SOL     OW20098   2.749   5.073   5.118
 6400SOL    HW120099   2.734   5.117   5.206
 6400SOL    HW220100   2.730   4.975   5.126
 6401SOL     OW20101   0.719   4.669   4.831
 6401SOL    HW120102   0.634   4.687   4.880
 6401SOL    HW220103   0.728   4.570   4.815
 6402SOL     OW20104   1.974   2.959   3.366
 6402SOL    HW120105   1.952   3.048   3.325
 6402SOL    HW220106   1.918   2.888   3.323
 6403SOL     OW20107   1.026   6.109   1.845
 6403SOL    HW120108   1.000   6.012   1.835
 6403SOL    HW220109   1.057   6.144   1.756
 6404SOL     OW20110   5.080   1.045   2.348
 6404SOL    HW120111   5.034   1.056   2.436
 6404SOL    HW220112   5.044   1.113   2.283
 6405SOL     OW20113   3.644   0.439   1.876
 6405SOL    HW120114   3.713   0.511   1.879
 6405SOL    HW220115   3.643   0.397   1.785
 6406SOL     OW20116   2.776   1.967   3.319
 6406SOL    HW120117   2.741   1.995   3.409
 6406SOL    HW220118   2.872   1.995   3.311
 6407SOL     OW20119   4.563   6.185   6.603
 6407SOL    HW120120   4.606   6.227   6.683
 6407SOL    HW220121   4.616   6.105   6.575
 6408SOL     OW20122   5.808   2.543   0.723
 6408SOL    HW120123   5.780   2.508   0.812
 6408SOL    HW220124   5.759   2.493   0.651
 6409SOL     OW20125   0.828   5.314   1.768
 6409SOL    HW120126   0.849   5.360   1.682
 6409SOL    HW220127   0.750   5.360   1.812
 6410SOL     OW20128   0.733   0.831   2.117
 6410SOL    HW120129   0.660   0.818   2.049
 6410SOL    HW220130   0.696   0.881   2.195
 6411SOL     OW20131   1.265   1.318   3.615
 6411SOL    HW120132   1.298   1.394   3.669
 6411SOL    HW220133   1.330   1.242   3.619
 6412SOL     OW20134   5.557   2.295   4.224
 6412SOL    HW120135   5.477   2.304   4.283
 6412SOL    HW220136   5.545   2.351   4.142
 6413SOL     OW20137   0.492   5.026   0.869
 6413SOL    HW120138   0.517   4.935   0.836
 6413SOL    HW220139   0.406   5.021   0.920
 6414SOL     OW20140   6.103   0.594   3.256
 6414SOL    HW120141   6.103   0.497   3.230
 6414SOL    HW220142   6.174   0.642   3.205
 6415SOL     OW20143   1.555   1.647   2.256
 6415SOL    HW120144   1.475   1.705   2.252
 6415SOL    HW220145   1.594   1.636   2.164
 6416SOL     OW20146   2.589   6.412   6.538
 6416SOL    HW120147   2.657   6.362   6.592
 6416SOL    HW220148   2.559   6.355   6.462
 6417SOL     OW20149   0.365   6.002   4.218
 6417SOL    HW120150   0.374   5.970   4.312
 6417SOL    HW220151   0.389   5.929   4.154
 6418SOL     OW20152   6.726   5.291   2.180
 6418SOL    HW120153   6.637   5.280   2.136
 6418SOL    HW220154   6.767   5.201   2.196
 6419SOL     OW20155   2.152   3.299   0.586
 6419SOL    HW120156   2.068   3.351   0.595
 6419SOL    HW220157   2.226   3.347   0.634
 6420SOL     OW20158   0.496   3.076   6.712
 6420SOL    HW120159   0.576   3.026   6.745
 6420SOL    HW220160   0.444   3.111   6.790
 6421SOL     OW20161   5.513   1.980   0.309
 6421SOL    HW120162   5.605   1.974   0.271
 6421SOL    HW220163   5.508   1.927   0.394
 6422SOL     OW20164   5.956   2.735   2.580
 6422SOL    HW120165   5.968   2.834   2.571
 6422SOL    HW220166   6.029   2.698   2.637
 6423SOL     OW20167   5.401   3.942   0.208
 6423SOL    HW120168   5.451   4.014   0.257
 6423SOL    HW220169   5.314   3.979   0.175
 6424SOL     OW20170   6.506   4.292   5.331
 6424SOL    HW120171   6.494   4.301   5.232
 6424SOL    HW220172   6.526   4.381   5.371
 6425SOL     OW20173   0.398   5.528   0.941
 6425SOL    HW120174   0.395   5.453   1.006
 6425SOL    HW220175   0.353   5.501   0.856
 6426SOL     OW20176   6.274   2.896   3.064
 6426SOL    HW120177   6.318   2.926   3.148
 6426SOL    HW220178   6.343   2.884   2.993
 6427SOL     OW20179   0.523   3.065   5.724
 6427SOL    HW120180   0.431   3.025   5.734
 6427SOL    HW220181   0.529   3.148   5.778
 6428SOL     OW20182   6.500   3.581   4.143
 6428SOL    HW120183   6.428   3.557   4.208
 6428SOL    HW220184   6.514   3.680   4.144
 6429SOL     OW20185   1.124   1.363   5.116
 6429SOL    HW120186   1.056   1.289   5.115
 6429SOL    HW220187   1.214   1.325   5.139
 6430SOL     OW20188   6.221   3.327   0.205
 6430SOL    HW120189   6.225   3.229   0.225
 6430SOL    HW220190   6.184   3.376   0.284
 6431SOL     OW20191   6.212   1.551   2.814
 6431SOL    HW120192   6.152   1.474   2.791
 6431SOL    HW220193   6.248   1.539   2.906
 6432SOL     OW20194   6.209   3.862   0.559
 6432SOL    HW120195   6.281   3.931   0.547
 6432SOL    HW220196   6.159   3.880   0.643
 6433SOL     OW20197   2.225   3.675   1.627
 6433SOL    HW120198   2.273   3.762   1.614
 6433SOL    HW220199   2.131   3.683   1.592
 6434SOL     OW20200   1.375   5.695   0.257
 6434SOL    HW120201   1.435   5.621   0.227
 6434SOL    HW220202   1.430   5.770   0.294
 6435SOL     OW20203   4.905   3.618   0.829
 6435SOL    HW120204   4.968   3.649   0.901
 6435SOL    HW220205   4.905   3.518   0.827
 6436SOL     OW20206   2.154   2.568   1.582
 6436SOL    HW120207   2.060   2.575   1.549
 6436SOL    HW220208   2.161   2.611   1.672
 6437SOL     OW20209   0.040   0.779   0.933
 6437SOL    HW120210   0.127   0.763   0.887
 6437SOL    HW220211   7.018   0.851   0.884
 6438SOL     OW20212   0.998   3.531   4.574
 6438SOL    HW120213   1.088   3.528   4.617
 6438SOL    HW220214   1.007   3.511   4.476
 6439SOL     OW20215   0.351   6.420   2.277
 6439SOL    HW120216   0.262   6.460   2.253
 6439SOL    HW220217   0.365   6.429   2.376
 6440SOL     OW20218   0.499   0.613   2.191
 6440SOL    HW120219   0.446   0.687   2.231
 6440SOL    HW220220   0.558   0.572   2.260
 6441SOL     OW20221   4.588   1.526   2.497
 6441SOL    HW120222   4.680   1.554   2.470
 6441SOL    HW220223   4.583   1.520   2.596
 6442SOL     OW20224   2.685   0.591   3.496
 6442SOL    HW120225   2.638   0.662   3.547
 6442SOL    HW220226   2.660   0.598   3.399
 6443SOL     OW20227   2.426   0.754   1.035
 6443SOL    HW120228   2.407   0.848   1.007
 6443SOL    HW220229   2.495   0.714   0.974
 6444SOL     OW20230   0.894   1.648   3.057
 6444SOL    HW120231   0.983   1.675   3.094
 6444SOL    HW220232   0.886   1.680   2.963
 6445SOL     OW20233   3.314   4.043   5.818
 6445SOL    HW120234   3.307   3.982   5.739
 6445SOL    HW220235   3.222   4.066   5.851
 6446SOL     OW20236   6.877   1.228   0.384
 6446SOL    HW120237   6.837   1.306   0.337
 6446SOL    HW220238   6.820   1.203   0.462
 6447SOL     OW20239   1.387   0.817   3.644
 6447SOL    HW120240   1.464   0.870   3.607
 6447SOL    HW220241   1.306   0.875   3.649
 6448SOL     OW20242   6.882   2.310   3.079
 6448SOL    HW120243   6.938   2.238   3.036
 6448SOL    HW220244   6.789   2.276   3.093
 6449SOL     OW20245   3.853   2.873   0.611
 6449SOL    HW120246   3.849   2.947   0.544
 6449SOL    HW220247   3.948   2.851   0.631
 6450SOL     OW20248   6.622   2.911   0.812
 6450SOL    HW120249   6.645   2.857   0.731
 6450SOL    HW220250   6.699   2.971   0.835
 6451SOL     OW20251   2.497   6.855   4.031
 6451SOL    HW120252   2.488   6.787   3.958
 6451SOL    HW220253   2.410   6.861   4.081
 6452SOL     OW20254   3.692   6.165   4.732
 6452SOL    HW120255   3.602   6.125   4.716
 6452SOL    HW220256   3.718   6.221   4.654
 6453SOL     OW20257   1.731   5.269   6.640
 6453SOL    HW120258   1.790   5.211   6.696
 6453SOL    HW220259   1.731   5.362   6.678
 6454SOL     OW20260   3.565   0.471   4.686
 6454SOL    HW120261   3.654   0.446   4.648
 6454SOL    HW220262   3.540   0.563   4.655
 6455SOL     OW20263   6.348   3.148   6.825
 6455SOL    HW120264   6.290   3.084   6.776
 6455SOL    HW220265   6.322   3.242   6.801
 6456SOL     OW20266   6.772   1.768   4.955
 6456SOL    HW120267   6.701   1.698   4.947
 6456SOL    HW220268   6.730   1.859   4.947
 6457SOL     OW20269   5.906   2.607   2.308
 6457SOL    HW120270   5.907   2.677   2.381
 6457SOL    HW220271   5.817   2.608   2.263
 6458SOL     OW20272   0.865   6.092   3.490
 6458SOL    HW120273   0.913   6.140   3.563
 6458SOL    HW220274   0.899   5.998   3.484
 6459SOL     OW20275   5.465   4.306   0.682
 6459SOL    HW120276   5.479   4.221   0.732
 6459SOL    HW220277   5.548   4.361   0.683
 6460SOL     OW20278   3.609   5.047   1.720
 6460SOL    HW120279   3.667   5.126   1.741
 6460SOL    HW220280   3.533   5.077   1.661
 6461SOL     OW20281   3.307   6.162   5.515
 6461SOL    HW120282   3.293   6.120   5.425
 6461SOL    HW220283   3.259   6.249   5.519
 6462SOL     OW20284   2.147   3.518   3.041
 6462SOL    HW120285   2.236   3.479   3.066
 6462SOL    HW220286   2.077   3.447   3.045
 6463SOL     OW20287   1.531   3.570   5.657
 6463SOL    HW120288   1.443   3.610   5.681
 6463SOL    HW220289   1.527   3.535   5.563
 6464SOL     OW20290   1.483   5.112   2.175
 6464SOL    HW120291   1.405   5.102   2.114
 6464SOL    HW220292   1.478   5.042   2.247
 6465SOL     OW20293   5.972   0.555   2.739
 6465SOL    HW120294   5.896   0.508   2.784
 6465SOL    HW220295   5.975   0.528   2.643
 6466SOL     OW20296   6.528   2.057   4.447
 6466SOL    HW120297   6.512   1.973   4.395
 6466SOL    HW220298   6.523   2.136   4.386
 6467SOL     OW20299   3.473   0.613   6.344
 6467SOL    HW120300   3.533   0.692   6.354
 6467SOL    HW220301   3.418   0.602   6.427
 6468SOL     OW20302   5.882   4.196   2.227
 6468SOL    HW120303   5.838   4.167   2.143
 6468SOL    HW220304   5.829   4.164   2.306
 6469SOL     OW20305   5.936   1.652   5.517
 6469SOL    HW120306   5.973   1.666   5.608
 6469SOL    HW220307   6.002   1.601   5.461
 6470SOL     OW20308   6.556   5.755   4.561
 6470SOL    HW120309   6.469   5.749   4.511
 6470SOL    HW220310   6.628   5.711   4.508
 6471SOL     OW20311   6.664   6.134   5.106
 6471SOL    HW120312   6.728   6.067   5.067
 6471SOL    HW220313   6.713   6.219   5.124
 6472SOL     OW20314   1.812   6.518   1.472
 6472SOL    HW120315   1.756   6.527   1.390
 6472SOL    HW220316   1.841   6.423   1.483
 6473SOL     OW20317   2.215   0.498   5.427
 6473SOL    HW120318   2.118   0.487   5.450
 6473SOL    HW220319   2.227   0.578   5.369
 6474SOL     OW20320   2.057   3.151   6.328
 6474SOL    HW120321   2.004   3.084   6.380
 6474SOL    HW220322   2.135   3.106   6.285
 6475SOL     OW20323   4.258   5.534   3.537
 6475SOL    HW120324   4.327   5.489   3.594
 6475SOL    HW220325   4.194   5.465   3.503
 6476SOL     OW20326   5.164   5.456   2.279
 6476SOL    HW120327   5.112   5.387   2.229
 6476SOL    HW220328   5.262   5.445   2.261
 6477SOL     OW20329   6.407   6.331   0.120
 6477SOL    HW120330   6.369   6.422   0.103
 6477SOL    HW220331   6.479   6.312   0.053
 6478SOL     OW20332   4.783   5.648   1.288
 6478SOL    HW120333   4.723   5.684   1.217
 6478SOL    HW220334   4.867   5.702   1.292
 6479SOL     OW20335   3.563   6.003   2.696
 6479SOL    HW120336   3.533   5.951   2.776
 6479SOL    HW220337   3.632   5.951   2.646
 6480SOL     OW20338   2.832   0.841   1.178
 6480SOL    HW120339   2.766   0.786   1.228
 6480SOL    HW220340   2.788   0.883   1.099
 6481SOL     OW20341   4.575   0.427   0.757
 6481SOL    HW120342   4.559   0.422   0.659
 6481SOL    HW220343   4.596   0.522   0.783
 6482SOL     OW20344   6.715   6.972   6.250
 6482SOL    HW120345   6.781   6.934   6.314
 6482SOL    HW220346   6.741   6.949   6.157
 6483SOL     OW20347   2.256   5.433   1.821
 6483SOL    HW120348   2.190   5.376   1.773
 6483SOL    HW220349   2.254   5.526   1.782
 6484SOL     OW20350   4.912   6.844   2.962
 6484SOL    HW120351   5.001   6.873   2.998
 6484SOL    HW220352   4.910   6.856   2.863
 6485SOL     OW20353   0.525   3.117   3.049
 6485SOL    HW120354   0.452   3.137   2.983
 6485SOL    HW220355   0.500   3.036   3.102
 6486SOL     OW20356   1.394   2.512   3.269
 6486SOL    HW120357   1.373   2.532   3.364
 6486SOL    HW220358   1.428   2.595   3.224
 6487SOL     OW20359   5.951   5.314   3.397
 6487SOL    HW120360   6.007   5.286   3.475
 6487SOL    HW220361   5.939   5.236   3.335
 6488SOL     OW20362   3.254   5.298   4.613
 6488SOL    HW120363   3.337   5.245   4.632
 6488SOL    HW220364   3.279   5.381   4.563
 6489SOL     OW20365   2.708   1.721   6.741
 6489SOL    HW120366   2.751   1.654   6.802
 6489SOL    HW220367   2.779   1.781   6.704
 6490SOL     OW20368   4.973   1.980   0.853
 6490SOL    HW120369   5.057   1.956   0.902
 6490SOL    HW220370   4.926   2.054   0.902
 6491SOL     OW20371   5.075   0.741   5.548
 6491SOL    HW120372   5.145   0.722   5.479
 6491SOL    HW220373   5.118   0.752   5.637
 6492SOL     OW20374   6.347   5.914   5.807
 6492SOL    HW120375   6.319   5.997   5.757
 6492SOL    HW220376   6.439   5.926   5.844
 6493SOL     OW20377   1.022   6.989   5.268
 6493SOL    HW120378   1.025   7.002   5.367
 6493SOL    HW220379   1.114   6.991   5.230
 6494SOL     OW20380   0.404   1.558   3.517
 6494SOL    HW120381   0.488   1.590   3.561
 6494SOL    HW220382   0.427   1.494   3.444
 6495SOL     OW20383   5.995   4.495   1.716
 6495SOL    HW120384   5.906   4.452   1.730
 6495SOL    HW220385   6.067   4.427   1.730
 6496SOL     OW20386   0.180   6.192   2.987
 6496SOL    HW120387   0.142   6.146   2.908
 6496SOL    HW220388   0.259   6.140   3.021
 6497SOL     OW20389   0.633   6.887   0.733
 6497SOL    HW120390   0.558   6.821   0.729
 6497SOL    HW220391   0.601   6.976   0.703
 6498SOL     OW20392   1.525   4.478   3.924
 6498SOL    HW120393   1.479   4.402   3.878
 6498SOL    HW220394   1.469   4.509   4.001
 6499SOL     OW20395   6.256   1.740   3.407
 6499SOL    HW120396   6.332   1.729   3.471
 6499SOL    HW220397   6.208   1.654   3.397
 6500SOL     OW20398   6.057   4.917   2.151
 6500SOL    HW120399   6.137   4.977   2.149
 6500SOL    HW220400   6.085   4.826   2.180
 6501SOL     OW20401   6.701   4.098   0.676
 6501SOL    HW120402   6.756   4.066   0.599
 6501SOL    HW220403   6.691   4.197   0.672
 6502SOL     OW20404   0.985   4.901   1.180
 6502SOL    HW120405   1.054   4.929   1.112
 6502SOL    HW220406   0.966   4.977   1.241
 6503SOL     OW20407   4.507   0.160   4.274
 6503SOL    HW120408   4.549   0.216   4.346
 6503SOL    HW220409   4.577   0.105   4.229
 6504SOL     OW20410   1.928   1.529   1.014
 6504SOL    HW120411   2.002   1.469   0.983
 6504SOL    HW220412   1.876   1.483   1.086
 6505SOL     OW20413   5.749   5.419   0.421
 6505SOL    HW120414   5.780   5.439   0.514
 6505SOL    HW220415   5.721   5.505   0.376
 6506SOL     OW20416   2.133   1.292   1.021
 6506SOL    HW120417   2.170   1.240   1.098
 6506SOL    HW220418   2.190   1.277   0.940
 6507SOL     OW20419   3.107   0.910   1.875
 6507SOL    HW120420   3.064   0.892   1.786
 6507SOL    HW220421   3.053   0.867   1.947
 6508SOL     OW20422   2.030   2.093   2.158
 6508SOL    HW120423   2.098   2.023   2.179
 6508SOL    HW220424   1.957   2.053   2.101
 6509SOL     OW20425   1.246   2.872   3.927
 6509SOL    HW120426   1.313   2.806   3.960
 6509SOL    HW220427   1.291   2.957   3.902
 6510SOL     OW20428   6.173   4.900   6.536
 6510SOL    HW120429   6.129   4.901   6.626
 6510SOL    HW220430   6.253   4.961   6.538
 6511SOL     OW20431   6.830   6.936   5.988
 6511SOL    HW120432   6.860   7.025   5.953
 6511SOL    HW220433   6.901   6.868   5.971
 6512SOL     OW20434   5.241   6.121   3.317
 6512SOL    HW120435   5.170   6.060   3.352
 6512SOL    HW220436   5.322   6.067   3.293
 6513SOL     OW20437   1.146   6.809   3.558
 6513SOL    HW120438   1.203   6.888   3.578
 6513SOL    HW220439   1.084   6.792   3.634
 6514SOL     OW20440   3.026   0.407   3.386
 6514SOL    HW120441   3.007   0.473   3.459
 6514SOL    HW220442   3.103   0.439   3.331
 6515SOL     OW20443   0.552   0.641   3.271
 6515SOL    HW120444   0.565   0.561   3.212
 6515SOL    HW220445   0.483   0.701   3.232
 6516SOL     OW20446   1.626   1.079   5.826
 6516SOL    HW120447   1.535   1.084   5.787
 6516SOL    HW220448   1.659   1.171   5.848
 6517SOL     OW20449   2.498   2.045   0.950
 6517SOL    HW120450   2.512   1.964   1.008
 6517SOL    HW220451   2.425   2.101   0.989
 6518SOL     OW20452   5.625   6.247   1.141
 6518SOL    HW120453   5.652   6.185   1.067
 6518SOL    HW220454   5.539   6.292   1.116
 6519SOL     OW20455   1.274   1.822   4.213
 6519SOL    HW120456   1.369   1.852   4.204
 6519SOL    HW220457   1.222   1.890   4.265
 6520SOL     OW20458   5.673   5.452   1.306
 6520SOL    HW120459   5.746   5.400   1.349
 6520SOL    HW220460   5.636   5.400   1.229
 6521SOL     OW20461   1.426   2.144   5.542
 6521SOL    HW120462   1.472   2.115   5.626
 6521SOL    HW220463   1.358   2.213   5.564
 6522SOL     OW20464   2.737   5.224   4.354
 6522SOL    HW120465   2.749   5.133   4.313
 6522SOL    HW220466   2.796   5.232   4.434
 6523SOL     OW20467   1.656   2.342   0.274
 6523SOL    HW120468   1.708   2.416   0.315
 6523SOL    HW220469   1.687   2.255   0.312
 6524SOL     OW20470   4.223   2.714   5.620
 6524SOL    HW120471   4.149   2.735   5.556
 6524SOL    HW220472   4.207   2.625   5.662
 6525SOL     OW20473   0.394   2.483   4.442
 6525SOL    HW120474   0.429   2.394   4.412
 6525SOL    HW220475   0.431   2.505   4.532
 6526SOL     OW20476   1.643   5.558   3.936
 6526SOL    HW120477   1.642   5.647   3.890
 6526SOL    HW220478   1.644   5.571   4.035
 6527SOL     OW20479   2.481   1.367   4.069
 6527SOL    HW120480   2.480   1.274   4.108
 6527SOL    HW220481   2.388   1.394   4.045
 6528SOL     OW20482   0.494   0.084   3.108
 6528SOL    HW120483   0.586   0.091   3.148
 6528SOL    HW220484   0.437   0.027   3.167
 6529SOL     OW20485   6.786   2.923   2.657
 6529SOL    HW120486   6.851   2.913   2.582
 6529SOL    HW220487   6.783   3.019   2.687
 6530SOL     OW20488   0.547   1.813   0.456
 6530SOL    HW120489   0.518   1.717   0.449
 6530SOL    HW220490   0.636   1.824   0.412
 6531SOL     OW20491   4.992   2.303   5.047
 6531SOL    HW120492   4.973   2.208   5.023
 6531SOL    HW220493   4.915   2.341   5.098
 6532SOL     OW20494   0.904   1.960   0.063
 6532SOL    HW120495   0.835   1.915   0.005
 6532SOL    HW220496   0.859   2.017   0.131
 6533SOL     OW20497   4.446   0.478   1.222
 6533SOL    HW120498   4.387   0.550   1.260
 6533SOL    HW220499   4.537   0.484   1.264
 6534SOL     OW20500   2.315   2.647   7.019
 6534SOL    HW120501   2.255   2.600   0.055
 6534SOL    HW220502   2.283   2.633   6.926
 6535SOL     OW20503   2.082   3.394   5.340
 6535SOL    HW120504   2.066   3.306   5.296
 6535SOL    HW220505   2.132   3.454   5.277
 6536SOL     OW20506   6.810   1.954   6.903
 6536SOL    HW120507   6.826   2.014   6.981
 6536SOL    HW220508   6.801   2.009   6.820
 6537SOL     OW20509   1.039   0.748   6.636
 6537SOL    HW120510   0.991   0.701   6.709
 6537SOL    HW220511   1.042   0.690   6.554
 6538SOL     OW20512   2.815   2.769   5.799
 6538SOL    HW120513   2.811   2.812   5.889
 6538SOL    HW220514   2.840   2.673   5.808
 6539SOL     OW20515   3.336   1.639   6.551
 6539SOL    HW120516   3.363   1.671   6.642
 6539SOL    HW220517   3.391   1.558   6.527
 6540SOL     OW20518   3.726   2.000   3.624
 6540SOL    HW120519   3.694   1.983   3.717
 6540SOL    HW220520   3.680   1.939   3.561
 6541SOL     OW20521   3.033   2.551   5.537
 6541SOL    HW120522   3.041   2.496   5.455
 6541SOL    HW220523   2.968   2.626   5.521
 6542SOL     OW20524   5.500   4.108   2.821
 6542SOL    HW120525   5.599   4.095   2.818
 6542SOL    HW220526   5.473   4.176   2.752
 6543SOL     OW20527   1.002   6.134   5.724
 6543SOL    HW120528   1.026   6.041   5.695
 6543SOL    HW220529   0.943   6.176   5.656
 6544SOL     OW20530   0.279   6.271   2.628
 6544SOL    HW120531   0.327   6.344   2.579
 6544SOL    HW220532   0.204   6.309   2.681
 6545SOL     OW20533   5.977   3.200   6.491
 6545SOL    HW120534   5.929   3.117   6.521
 6545SOL    HW220535   5.985   3.199   6.392
 6546SOL     OW20536   3.088   4.765   6.144
 6546SOL    HW120537   3.003   4.734   6.101
 6546SOL    HW220538   3.165   4.740   6.086
 6547SOL     OW20539   5.204   0.557   6.667
 6547SOL    HW120540   5.301   0.577   6.653
 6547SOL    HW220541   5.151   0.606   6.598
 6548SOL     OW20542   5.055   4.067   5.664
 6548SOL    HW120543   5.008   4.104   5.583
 6548SOL    HW220544   5.154   4.078   5.652
 6549SOL     OW20545   2.798   2.261   2.692
 6549SOL    HW120546   2.779   2.280   2.596
 6549SOL    HW220547   2.890   2.223   2.701
 6550SOL     OW20548   0.906   5.737   2.706
 6550SOL    HW120549   0.998   5.774   2.716
 6550SOL    HW220550   0.863   5.728   2.796
 6551SOL     OW20551   3.211   5.132   2.179
 6551SOL    HW120552   3.201   5.163   2.085
 6551SOL    HW220553   3.259   5.045   2.182
 6552SOL     OW20554   4.087   5.021   6.029
 6552SOL    HW120555   4.106   4.923   6.021
 6552SOL    HW220556   3.991   5.035   6.051
 6553SOL     OW20557   7.027   3.370   3.335
 6553SOL    HW120558   7.022   3.470   3.338
 6553SOL    HW220559   0.074   3.342   3.277
 6554SOL     OW20560   6.898   3.861   4.525
 6554SOL    HW120561   6.965   3.797   4.488
 6554SOL    HW220562   6.880   3.838   4.621
 6555SOL     OW20563   0.554   1.241   1.488
 6555SOL    HW120564   0.572   1.337   1.507
 6555SOL    HW220565   0.633   1.186   1.516
 6556SOL     OW20566   3.568   0.174   3.367
 6556SOL    HW120567   3.530   0.111   3.300
 6556SOL    HW220568   3.622   0.122   3.434
 6557SOL     OW20569   5.573   5.715   0.620
 6557SOL    HW120570   5.627   5.788   0.579
 6557SOL    HW220571   5.482   5.750   0.643
 6558SOL     OW20572   0.007   6.075   5.773
 6558SOL    HW120573   0.069   6.038   5.705
 6558SOL    HW220574   7.025   6.010   5.848
 6559SOL     OW20575   3.350   3.433   1.407
 6559SOL    HW120576   3.283   3.431   1.332
 6559SOL    HW220577   3.383   3.340   1.425
 6560SOL     OW20578   4.421   1.715   1.206
 6560SOL    HW120579   4.394   1.644   1.141
 6560SOL    HW220580   4.380   1.802   1.179
 6561SOL     OW20581   3.830   4.029   4.381
 6561SOL    HW120582   3.925   4.025   4.412
 6561SOL    HW220583   3.787   3.940   4.393
 6562SOL     OW20584   0.064   4.572   5.033
 6562SOL    HW120585   0.039   4.607   4.943
 6562SOL    HW220586   7.009   4.555   5.086
 6563SOL     OW20587   0.657   5.595   2.521
 6563SOL    HW120588   0.625   5.507   2.486
 6563SOL    HW220589   0.580   5.660   2.523
 6564SOL     OW20590   1.386   5.113   2.929
 6564SOL    HW120591   1.295   5.072   2.932
 6564SOL    HW220592   1.378   5.212   2.919
 6565SOL     OW20593   6.907   3.172   5.006
 6565SOL    HW120594   6.873   3.095   4.952
 6565SOL    HW220595   6.837   3.200   5.072
 6566SOL     OW20596   4.494   1.219   0.520
 6566SOL    HW120597   4.559   1.235   0.446
 6566SOL    HW220598   4.418   1.283   0.513
 6567SOL     OW20599   6.411   2.683   0.841
 6567SOL    HW120600   6.428   2.585   0.837
 6567SOL    HW220601   6.493   2.733   0.812
 6568SOL     OW20602   4.777   3.692   1.158
 6568SOL    HW120603   4.809   3.738   1.075
 6568SOL    HW220604   4.767   3.594   1.139
 6569SOL     OW20605   0.971   4.467   5.842
 6569SOL    HW120606   0.880   4.433   5.818
 6569SOL    HW220607   0.962   4.548   5.900
 6570SOL     OW20608   6.690   3.969   1.856
 6570SOL    HW120609   6.633   3.892   1.826
 6570SOL    HW220610   6.777   3.967   1.806
 6571SOL     OW20611   1.958   6.312   3.803
 6571SOL    HW120612   1.962   6.212   3.806
 6571SOL    HW220613   2.019   6.349   3.873
 6572SOL     OW20614   1.723   3.845   6.313
 6572SOL    HW120615   1.814   3.841   6.355
 6572SOL    HW220616   1.678   3.756   6.322
 6573SOL     OW20617   1.681   1.955   1.658
 6573SOL    HW120618   1.679   1.987   1.563
 6573SOL    HW220619   1.776   1.938   1.685
 6574SOL     OW20620   2.215   4.451   4.648
 6574SOL    HW120621   2.214   4.351   4.650
 6574SOL    HW220622   2.128   4.485   4.684
 6575SOL     OW20623   1.797   1.688   2.906
 6575SOL    HW120624   1.833   1.767   2.858
 6575SOL    HW220625   1.792   1.707   3.004
 6576SOL     OW20626   0.406   6.406   3.988
 6576SOL    HW120627   0.399   6.360   4.077
 6576SOL    HW220628   0.401   6.338   3.915
 6577SOL     OW20629   0.453   3.699   5.240
 6577SOL    HW120630   0.434   3.788   5.282
 6577SOL    HW220631   0.535   3.707   5.183
 6578SOL     OW20632   6.633   5.552   3.853
 6578SOL    HW120633   6.602   5.636   3.897
 6578SOL    HW220634   6.657   5.571   3.758
 6579SOL     OW20635   6.942   4.123   3.735
 6579SOL    HW120636   6.991   4.042   3.771
 6579SOL    HW220637   6.959   4.201   3.795
 6580SOL     OW20638   5.497   3.045   0.371
 6580SOL    HW120639   5.573   2.984   0.352
 6580SOL    HW220640   5.501   3.076   0.466
 6581SOL     OW20641   2.568   2.248   5.790
 6581SOL    HW120642   2.493   2.313   5.801
 6581SOL    HW220643   2.586   2.201   5.876
 6582SOL     OW20644   6.733   0.557   2.729
 6582SOL    HW120645   6.729   0.512   2.640
 6582SOL    HW220646   6.691   0.647   2.723
 6583SOL     OW20647   6.606   1.616   5.997
 6583SOL    HW120648   6.638   1.637   5.905
 6583SOL    HW220649   6.685   1.593   6.055
 6584SOL     OW20650   5.711   2.785   0.603
 6584SOL    HW120651   5.784   2.722   0.632
 6584SOL    HW220652   5.695   2.853   0.675
 6585SOL     OW20653   2.738   0.917   1.721
 6585SOL    HW120654   2.745   1.013   1.748
 6585SOL    HW220655   2.700   0.864   1.796
 6586SOL     OW20656   5.963   1.955   6.961
 6586SOL    HW120657   6.023   2.008   7.021
 6586SOL    HW220658   5.878   2.005   6.946
 6587SOL     OW20659   2.033   6.150   1.833
 6587SOL    HW120660   2.011   6.088   1.908
 6587SOL    HW220661   2.065   6.098   1.754
 6588SOL     OW20662   3.064   2.515   0.350
 6588SOL    HW120663   2.993   2.564   0.401
 6588SOL    HW220664   3.057   2.538   0.253
 6589SOL     OW20665   4.742   1.669   5.904
 6589SOL    HW120666   4.816   1.725   5.942
 6589SOL    HW220667   4.716   1.704   5.814
 6590SOL     OW20668   6.123   1.515   5.396
 6590SOL    HW120669   6.145   1.474   5.308
 6590SOL    HW220670   6.207   1.540   5.444
 6591SOL     OW20671   5.107   0.287   2.833
 6591SOL    HW120672   5.163   0.336   2.899
 6591SOL    HW220673   5.117   0.330   2.743
 6592SOL     OW20674   6.465   5.560   5.011
 6592SOL    HW120675   6.522   5.603   5.082
 6592SOL    HW220676   6.520   5.542   4.930
 6593SOL     OW20677   5.157   0.886   2.731
 6593SOL    HW120678   5.146   0.985   2.729
 6593SOL    HW220679   5.160   0.850   2.638
 6594SOL     OW20680   5.626   1.089   6.871
 6594SOL    HW120681   5.617   0.991   6.853
 6594SOL    HW220682   5.579   1.112   6.956
 6595SOL     OW20683   3.180   2.699   6.696
 6595SOL    HW120684   3.144   2.729   6.608
 6595SOL    HW220685   3.161   2.601   6.708
 6596SOL     OW20686   2.964   6.418   5.261
 6596SOL    HW120687   3.049   6.369   5.245
 6596SOL    HW220688   2.898   6.358   5.306
 6597SOL     OW20689   6.990   4.124   6.484
 6597SOL    HW120690   0.060   4.128   6.465
 6597SOL    HW220691   6.970   4.175   6.568
 6598SOL     OW20692   2.383   6.096   4.783
 6598SOL    HW120693   2.400   6.056   4.873
 6598SOL    HW220694   2.457   6.159   4.761
 6599SOL     OW20695   4.363   3.483   6.488
 6599SOL    HW120696   4.384   3.413   6.556
 6599SOL    HW220697   4.367   3.442   6.397
 6600SOL     OW20698   4.326   5.079   4.918
 6600SOL    HW120699   4.343   5.024   4.837
 6600SOL    HW220700   4.313   5.020   4.997
 6601SOL     OW20701   0.425   0.746   1.854
 6601SOL    HW120702   0.507   0.756   1.797
 6601SOL    HW220703   0.419   0.651   1.887
 6602SOL     OW20704   6.538   1.349   1.471
 6602SOL    HW120705   6.486   1.270   1.439
 6602SOL    HW220706   6.624   1.319   1.512
 6603SOL     OW20707   2.824   1.684   2.078
 6603SOL    HW120708   2.904   1.691   2.138
 6603SOL    HW220709   2.848   1.630   1.997
 6604SOL     OW20710   4.224   5.950   4.453
 6604SOL    HW120711   4.196   5.969   4.359
 6604SOL    HW220712   4.288   5.873   4.454
 6605SOL     OW20713   5.050   6.399   0.341
 6605SOL    HW120714   5.012   6.306   0.341
 6605SOL    HW220715   4.976   6.465   0.338
 6606SOL     OW20716   0.400   2.310   3.178
 6606SOL    HW120717   0.307   2.334   3.207
 6606SOL    HW220718   0.396   2.255   3.095
 6607SOL     OW20719   1.069   3.257   2.580
 6607SOL    HW120720   1.004   3.272   2.654
 6607SOL    HW220721   1.123   3.339   2.565
 6608SOL     OW20722   4.941   4.558   5.077
 6608SOL    HW120723   4.987   4.471   5.061
 6608SOL    HW220724   4.865   4.568   5.012
 6609SOL     OW20725   5.402   2.186   0.138
 6609SOL    HW120726   5.307   2.201   0.165
 6609SOL    HW220727   5.449   2.135   0.209
 6610SOL     OW20728   3.920   1.345   0.727
 6610SOL    HW120729   3.855   1.298   0.667
 6610SOL    HW220730   3.899   1.442   0.728
 6611SOL     OW20731   5.531   3.654   3.192
 6611SOL    HW120732   5.588   3.717   3.139
 6611SOL    HW220733   5.549   3.560   3.161
 6612SOL     OW20734   0.983   6.106   6.462
 6612SOL    HW120735   0.969   6.023   6.516
 6612SOL    HW220736   1.081   6.124   6.454
 6613SOL     OW20737   5.627   4.900   0.679
 6613SOL    HW120738   5.689   4.833   0.638
 6613SOL    HW220739   5.548   4.852   0.718
 6614SOL     OW20740   5.593   4.454   6.012
 6614SOL    HW120741   5.670   4.427   6.070
 6614SOL    HW220742   5.566   4.548   6.033
 6615SOL     OW20743   0.239   3.475   5.263
 6615SOL    HW120744   0.280   3.441   5.348
 6615SOL    HW220745   0.295   3.550   5.227
 6616SOL     OW20746   4.502   1.006   4.010
 6616SOL    HW120747   4.551   1.084   4.048
 6616SOL    HW220748   4.566   0.934   3.987
 6617SOL     OW20749   4.450   0.179   5.019
 6617SOL    HW120750   4.374   0.233   5.055
 6617SOL    HW220751   4.420   0.085   5.003
 6618SOL     OW20752   6.949   4.796   1.068
 6618SOL    HW120753   7.012   4.809   1.145
 6618SOL    HW220754   6.991   4.832   0.985
 6619SOL     OW20755   0.217   6.044   1.441
 6619SOL    HW120756   0.130   6.074   1.403
 6619SOL    HW220757   0.221   6.068   1.538
 6620SOL     OW20758   4.535   3.146   5.402
 6620SOL    HW120759   4.529   3.242   5.375
 6620SOL    HW220760   4.629   3.124   5.426
 6621SOL     OW20761   2.558   3.357   0.376
 6621SOL    HW120762   2.484   3.300   0.411
 6621SOL    HW220763   2.600   3.313   0.297
 6622SOL     OW20764   6.194   5.535   0.747
 6622SOL    HW120765   6.126   5.606   0.762
 6622SOL    HW220766   6.164   5.474   0.674
 6623SOL     OW20767   3.705   4.084   2.716
 6623SOL    HW120768   3.654   4.112   2.798
 6623SOL    HW220769   3.785   4.032   2.743
 6624SOL     OW20770   4.492   5.128   4.206
 6624SOL    HW120771   4.393   5.143   4.217
 6624SOL    HW220772   4.512   5.103   4.111
 6625SOL     OW20773   6.004   6.825   6.939
 6625SOL    HW120774   6.072   6.803   7.010
 6625SOL    HW220775   5.972   6.740   6.896
 6626SOL     OW20776   3.062   4.872   3.594
 6626SOL    HW120777   3.135   4.911   3.538
 6626SOL    HW220778   2.974   4.912   3.567
 6627SOL     OW20779   1.852   6.775   1.806
 6627SOL    HW120780   1.921   6.754   1.875
 6627SOL    HW220781   1.813   6.689   1.771
 6628SOL     OW20782   4.205   5.959   3.642
 6628SOL    HW120783   4.168   5.866   3.640
 6628SOL    HW220784   4.164   6.013   3.569
 6629SOL     OW20785   3.198   3.832   0.313
 6629SOL    HW120786   3.130   3.903   0.295
 6629SOL    HW220787   3.242   3.805   0.227
 6630SOL     OW20788   3.834   0.926   6.562
 6630SOL    HW120789   3.878   1.016   6.555
 6630SOL    HW220790   3.753   0.924   6.504
 6631SOL     OW20791   3.853   0.220   1.306
 6631SOL    HW120792   3.881   0.162   1.230
 6631SOL    HW220793   3.900   0.309   1.299
 6632SOL     OW20794   6.321   2.779   2.485
 6632SOL    HW120795   6.279   2.755   2.398
 6632SOL    HW220796   6.254   2.826   2.542
 6633SOL     OW20797   0.724   6.073   2.150
 6633SOL    HW120798   0.660   6.029   2.086
 6633SOL    HW220799   0.802   6.109   2.098
 6634SOL     OW20800   6.587   2.465   5.969
 6634SOL    HW120801   6.664   2.515   5.928
 6634SOL    HW220802   6.606   2.366   5.964
 6635SOL     OW20803   4.481   4.927   3.395
 6635SOL    HW120804   4.387   4.909   3.424
 6635SOL    HW220805   4.543   4.863   3.441
 6636SOL     OW20806   1.845   3.554   3.786
 6636SOL    HW120807   1.866   3.525   3.880
 6636SOL    HW220808   1.928   3.549   3.731
 6637SOL     OW20809   6.361   2.661   1.319
 6637SOL    HW120810   6.375   2.599   1.243
 6637SOL    HW220811   6.266   2.654   1.351
 6638SOL     OW20812   1.852   0.731   6.487
 6638SOL    HW120813   1.817   0.805   6.430
 6638SOL    HW220814   1.820   0.742   6.581
 6639SOL     OW20815   4.213   5.645   6.176
 6639SOL    HW120816   4.278   5.702   6.126
 6639SOL    HW220817   4.248   5.551   6.183
 6640SOL     OW20818   5.672   2.887   3.176
 6640SOL    HW120819   5.637   2.932   3.094
 6640SOL    HW220820   5.644   2.791   3.176
 6641SOL     OW20821   2.074   5.243   6.809
 6641SOL    HW120822   2.070   5.339   6.780
 6641SOL    HW220823   1.995   5.223   6.868
 6642SOL     OW20824   6.924   5.847   6.049
 6642SOL    HW120825   6.829   5.865   6.022
 6642SOL    HW220826   6.925   5.789   6.131
 6643SOL     OW20827   3.975   5.222   6.716
 6643SOL    HW120828   4.044   5.160   6.754
 6643SOL    HW220829   4.017   5.278   6.645
 6644SOL     OW20830   0.798   4.008   2.014
 6644SOL    HW120831   0.742   3.995   2.096
 6644SOL    HW220832   0.882   4.057   2.039
 6645SOL     OW20833   6.213   4.421   5.370
 6645SOL    HW120834   6.297   4.412   5.316
 6645SOL    HW220835   6.172   4.330   5.382
 6646SOL     OW20836   1.498   5.883   3.576
 6646SOL    HW120837   1.529   5.968   3.534
 6646SOL    HW220838   1.466   5.820   3.506
 6647SOL     OW20839   4.171   1.837   1.988
 6647SOL    HW120840   4.254   1.827   2.043
 6647SOL    HW220841   4.099   1.777   2.023
 6648SOL     OW20842   4.174   5.497   1.588
 6648SOL    HW120843   4.080   5.471   1.566
 6648SOL    HW220844   4.205   5.568   1.525
 6649SOL     OW20845   4.515   1.344   6.492
 6649SOL    HW120846   4.529   1.364   6.395
 6649SOL    HW220847   4.483   1.426   6.539
 6650SOL     OW20848   3.168   1.018   3.922
 6650SOL    HW120849   3.122   1.073   3.991
 6650SOL    HW220850   3.265   1.044   3.918
 6651SOL     OW20851   0.457   1.762   0.773
 6651SOL    HW120852   0.468   1.664   0.759
 6651SOL    HW220853   0.494   1.811   0.695
 6652SOL     OW20854   0.772   5.137   3.270
 6652SOL    HW120855   0.790   5.180   3.359
 6652SOL    HW220856   0.832   5.058   3.258
 6653SOL     OW20857   3.488   3.551   3.501
 6653SOL    HW120858   3.511   3.562   3.405
 6653SOL    HW220859   3.463   3.640   3.540
 6654SOL     OW20860   1.868   3.776   1.121
 6654SOL    HW120861   1.904   3.868   1.102
 6654SOL    HW220862   1.825   3.775   1.211
 6655SOL     OW20863   1.457   0.591   0.104
 6655SOL    HW120864   1.444   0.597   0.203
 6655SOL    HW220865   1.387   0.645   0.057
 6656SOL     OW20866   0.263   2.774   2.032
 6656SOL    HW120867   0.316   2.851   1.997
 6656SOL    HW220868   0.274   2.768   2.131
 6657SOL     OW20869   3.462   5.106   5.340
 6657SOL    HW120870   3.391   5.036   5.339
 6657SOL    HW220871   3.529   5.086   5.411
 6658SOL     OW20872   6.481   6.894   6.335
 6658SOL    HW120873   6.574   6.924   6.311
 6658SOL    HW220874   6.462   6.806   6.291
 6659SOL     OW20875   1.434   2.948   6.619
 6659SOL    HW120876   1.434   3.045   6.646
 6659SOL    HW220877   1.360   2.932   6.555
 6660SOL     OW20878   0.848   6.395   2.973
 6660SOL    HW120879   0.860   6.347   2.886
 6660SOL    HW220880   0.832   6.493   2.955
 6661SOL     OW20881   6.750   6.793   3.825
 6661SOL    HW120882   6.698   6.709   3.807
 6661SOL    HW220883   6.747   6.851   3.744
 6662SOL     OW20884   1.244   3.663   5.632
 6662SOL    HW120885   1.180   3.719   5.581
 6662SOL    HW220886   1.251   3.697   5.726
 6663SOL     OW20887   0.518   4.985   2.145
 6663SOL    HW120888   0.518   4.937   2.057
 6663SOL    HW220889   0.488   5.079   2.132
 6664SOL     OW20890   0.160   2.136   2.255
 6664SOL    HW120891   0.128   2.041   2.246
 6664SOL    HW220892   0.117   2.177   2.335
 6665SOL     OW20893   2.281   0.274   2.384
 6665SOL    HW120894   2.345   0.197   2.388
 6665SOL    HW220895   2.201   0.248   2.329
 6666SOL     OW20896   5.278   1.265   0.393
 6666SOL    HW120897   5.367   1.235   0.428
 6666SOL    HW220898   5.286   1.360   0.362
 6667SOL     OW20899   5.820   4.684   4.797
 6667SOL    HW120900   5.747   4.752   4.792
 6667SOL    HW220901   5.824   4.646   4.889
 6668SOL     OW20902   6.889   6.470   1.151
 6668SOL    HW120903   6.908   6.540   1.082
 6668SOL    HW220904   6.819   6.503   1.214
 6669SOL     OW20905   0.939   4.940   2.745
 6669SOL    HW120906   0.863   4.978   2.797
 6669SOL    HW220907   0.921   4.844   2.724
 6670SOL     OW20908   4.323   4.559   0.053
 6670SOL    HW120909   4.308   4.627   7.009
 6670SOL    HW220910   4.258   4.575   0.128
 6671SOL     OW20911   0.650   2.886   5.460
 6671SOL    HW120912   0.592   2.813   5.498
 6671SOL    HW220913   0.703   2.928   5.534
 6672SOL     OW20914   0.191   0.624   5.562
 6672SOL    HW120915   0.143   0.539   5.584
 6672SOL    HW220916   0.128   0.701   5.566
 6673SOL     OW20917   5.021   5.667   1.044
 6673SOL    HW120918   5.077   5.746   1.018
 6673SOL    HW220919   5.030   5.651   1.142
 6674SOL     OW20920   0.787   6.915   5.678
 6674SOL    HW120921   0.689   6.899   5.685
 6674SOL    HW220922   0.827   6.851   5.613
 6675SOL     OW20923   6.819   6.049   0.363
 6675SOL    HW120924   6.736   6.074   0.313
 6675SOL    HW220925   6.810   6.078   0.459
 6676SOL     OW20926   0.273   1.892   0.942
 6676SOL    HW120927   0.315   1.976   0.975
 6676SOL    HW220928   0.343   1.835   0.897
 6677SOL     OW20929   0.351   4.804   0.348
 6677SOL    HW120930   0.317   4.712   0.366
 6677SOL    HW220931   0.446   4.798   0.316
 6678SOL     OW20932   0.997   3.098   4.462
 6678SOL    HW120933   0.995   3.137   4.370
 6678SOL    HW220934   1.092   3.090   4.493
 6679SOL     OW20935   1.714   1.023   4.859
 6679SOL    HW120936   1.685   1.100   4.801
 6679SOL    HW220937   1.636   0.994   4.915
 6680SOL     OW20938   2.966   0.689   6.345
 6680SOL    HW120939   3.018   0.750   6.284
 6680SOL    HW220940   2.912   0.625   6.290
 6681SOL     OW20941   5.493   5.746   6.452
 6681SOL    HW120942   5.466   5.770   6.545
 6681SOL    HW220943   5.579   5.791   6.429
 6682SOL     OW20944   6.801   5.387   1.902
 6682SOL    HW120945   6.764   5.357   1.990
 6682SOL    HW220946   6.725   5.407   1.840
 6683SOL     OW20947   4.785   1.874   4.636
 6683SOL    HW120948   4.742   1.951   4.589
 6683SOL    HW220949   4.838   1.907   4.714
 6684SOL     OW20950   1.569   1.459   2.693
 6684SOL    HW120951   1.586   1.494   2.785
 6684SOL    HW220952   1.589   1.530   2.626
 6685SOL     OW20953   5.759   2.955   6.921
 6685SOL    HW120954   5.826   2.908   6.978
 6685SOL    HW220955   5.713   2.888   6.862
 6686SOL     OW20956   5.974   4.152   3.991
 6686SOL    HW120957   5.960   4.060   3.955
 6686SOL    HW220958   5.989   4.215   3.915
 6687SOL     OW20959   0.248   0.546   0.300
 6687SOL    HW120960   0.313   0.491   0.247
 6687SOL    HW220961   0.298   0.606   0.362
 6688SOL     OW20962   0.647   5.018   2.475
 6688SOL    HW120963   0.604   5.108   2.467
 6688SOL    HW220964   0.745   5.027   2.455
 6689SOL     OW20965   4.884   4.554   6.974
 6689SOL    HW120966   4.926   4.592   6.891
 6689SOL    HW220967   4.785   4.559   6.966
 6690SOL     OW20968   0.503   1.512   0.702
 6690SOL    HW120969   0.475   1.418   0.721
 6690SOL    HW220970   0.525   1.521   0.605
 6691SOL     OW20971   1.302   5.184   0.854
 6691SOL    HW120972   1.392   5.140   0.856
 6691SOL    HW220973   1.269   5.190   0.759
 6692SOL     OW20974   4.368   4.103   6.252
 6692SOL    HW120975   4.427   4.047   6.309
 6692SOL    HW220976   4.310   4.044   6.196
 6693SOL     OW20977   4.426   3.684   5.772
 6693SOL    HW120978   4.387   3.595   5.797
 6693SOL    HW220979   4.359   3.736   5.719
 6694SOL     OW20980   2.685   6.061   6.964
 6694SOL    HW120981   2.619   6.061   0.012
 6694SOL    HW220982   2.764   6.117   6.989
 6695SOL     OW20983   1.513   1.488   6.953
 6695SOL    HW120984   1.487   1.547   0.002
 6695SOL    HW220985   1.554   1.544   6.881
 6696SOL     OW20986   1.767   2.891   1.412
 6696SOL    HW120987   1.704   2.859   1.342
 6696SOL    HW220988   1.851   2.836   1.408
 6697SOL     OW20989   5.181   3.208   4.386
 6697SOL    HW120990   5.229   3.152   4.319
 6697SOL    HW220991   5.219   3.301   4.386
 6698SOL     OW20992   2.512   4.036   6.429
 6698SOL    HW120993   2.413   4.024   6.423
 6698SOL    HW220994   2.539   4.118   6.378
 6699SOL     OW20995   1.378   3.445   6.586
 6699SOL    HW120996   1.404   3.382   6.659
 6699SOL    HW220997   1.449   3.515   6.575
 6700SOL     OW20998   0.358   6.503   6.485
 6700SOL    HW120999   0.271   6.461   6.513
 6700SOL    HW221000   0.417   6.433   6.446
 6701SOL     OW21001   0.709   2.283   0.769
 6701SOL    HW121002   0.631   2.319   0.821
 6701SOL    HW221003   0.697   2.304   0.672
 6702SOL     OW21004   1.915   3.476   0.616
 6702SOL    HW121005   1.863   3.411   0.562
 6702SOL    HW221006   1.855   3.550   0.647
 6703SOL     OW21007   0.145   2.376   6.651
 6703SOL    HW121008   0.181   2.294   6.696
 6703SOL    HW221009   0.216   2.447   6.649
 6704SOL     OW21010   4.917   3.252   3.099
 6704SOL    HW121011   4.912   3.161   3.139
 6704SOL    HW221012   4.922   3.320   3.172
 6705SOL     OW21013   5.941   1.170   1.119
 6705SOL    HW121014   5.871   1.199   1.185
 6705SOL    HW221015   6.027   1.154   1.166
 6706SOL     OW21016   1.100   6.050   6.931
 6706SOL    HW121017   1.016   5.995   6.935
 6706SOL    HW221018   1.156   6.030   7.011
 6707SOL     OW21019   1.042   5.152   2.584
 6707SOL    HW121020   0.998   5.111   2.664
 6707SOL    HW221021   1.002   5.242   2.567
 6708SOL     OW21022   1.977   6.176   1.301
 6708SOL    HW121023   1.930   6.246   1.247
 6708SOL    HW221024   1.960   6.192   1.398
 6709SOL     OW21025   5.629   1.671   3.535
 6709SOL    HW121026   5.587   1.723   3.459
 6709SOL    HW221027   5.594   1.578   3.534
 6710SOL     OW21028   1.624   1.941   0.668
 6710SOL    HW121029   1.702   1.883   0.646
 6710SOL    HW221030   1.545   1.885   0.693
 6711SOL     OW21031   5.377   3.455   6.346
 6711SOL    HW121032   5.436   3.411   6.278
 6711SOL    HW221033   5.402   3.424   6.437
 6712SOL     OW21034   3.508   6.574   1.195
 6712SOL    HW121035   3.490   6.529   1.283
 6712SOL    HW221036   3.591   6.536   1.154
 6713SOL     OW21037   1.483   2.123   3.629
 6713SOL    HW121038   1.518   2.081   3.545
 6713SOL    HW221039   1.430   2.204   3.607
 6714SOL     OW21040   6.763   0.123   5.163
 6714SOL    HW121041   6.772   0.200   5.226
 6714SOL    HW221042   6.790   0.152   5.071
 6715SOL     OW21043   5.936   2.098   1.111
 6715SOL    HW121044   6.033   2.097   1.137
 6715SOL    HW221045   5.899   2.005   1.116
 6716SOL     OW21046   3.654   6.350   0.991
 6716SOL    HW121047   3.737   6.333   0.939
 6716SOL    HW221048   3.653   6.292   1.072
 6717SOL     OW21049   4.279   1.355   6.864
 6717SOL    HW121050   4.207   1.420   6.891
 6717SOL    HW221051   4.241   1.287   6.802
 6718SOL     OW21052   3.702   0.487   6.733
 6718SOL    HW121053   3.704   0.579   6.770
 6718SOL    HW221054   3.697   0.491   6.633
 6719SOL     OW21055   0.663   2.089   5.372
 6719SOL    HW121056   0.672   2.160   5.442
 6719SOL    HW221057   0.737   2.023   5.382
 6720SOL     OW21058   1.721   4.941   1.299
 6720SOL    HW121059   1.679   4.968   1.213
 6720SOL    HW221060   1.668   4.867   1.340
 6721SOL     OW21061   6.829   6.088   2.864
 6721SOL    HW121062   6.824   6.170   2.921
 6721SOL    HW221063   6.739   6.044   2.862
 6722SOL     OW21064   4.609   4.776   6.723
 6722SOL    HW121065   4.691   4.830   6.706
 6722SOL    HW221066   4.572   4.800   6.813
 6723SOL     OW21067   3.994   1.180   2.706
 6723SOL    HW121068   3.900   1.171   2.675
 6723SOL    HW221069   4.042   1.092   2.695
 6724SOL     OW21070   3.684   4.513   5.292
 6724SOL    HW121071   3.642   4.440   5.238
 6724SOL    HW221072   3.784   4.504   5.288
 6725SOL     OW21073   0.382   5.310   1.104
 6725SOL    HW121074   0.300   5.359   1.132
 6725SOL    HW221075   0.378   5.216   1.138
 6726SOL     OW21076   2.418   2.886   1.766
 6726SOL    HW121077   2.421   2.841   1.676
 6726SOL    HW221078   2.440   2.983   1.756
 6727SOL     OW21079   3.341   4.049   0.687
 6727SOL    HW121080   3.246   4.076   0.670
 6727SOL    HW221081   3.342   3.958   0.729
 6728SOL     OW21082   4.432   1.423   4.227
 6728SOL    HW121083   4.452   1.453   4.320
 6728SOL    HW221084   4.333   1.410   4.218
 6729SOL     OW21085   4.943   6.075   3.440
 6729SOL    HW121086   4.948   6.022   3.355
 6729SOL    HW221087   4.997   6.028   3.510
 6730SOL     OW21088   1.389   6.912   2.339
 6730SOL    HW121089   1.345   6.990   2.294
 6730SOL    HW221090   1.395   6.836   2.274
 6731SOL     OW21091   1.893   3.993   1.580
 6731SOL    HW121092   1.918   4.035   1.667
 6731SOL    HW221093   1.923   4.053   1.505
 6732SOL     OW21094   3.030   5.593   0.469
 6732SOL    HW121095   2.990   5.542   0.546
 6732SOL    HW221096   3.091   5.664   0.503
 6733SOL     OW21097   6.301   5.686   4.456
 6733SOL    HW121098   6.221   5.744   4.439
 6733SOL    HW221099   6.275   5.590   4.444
 6734SOL     OW21100   2.478   3.420   6.411
 6734SOL    HW121101   2.420   3.400   6.489
 6734SOL    HW221102   2.470   3.517   6.387
 6735SOL     OW21103   0.737   6.519   6.281
 6735SOL    HW121104   0.688   6.490   6.363
 6735SOL    HW221105   0.722   6.453   6.207
 6736SOL     OW21106   2.568   4.656   1.961
 6736SOL    HW121107   2.508   4.581   1.933
 6736SOL    HW221108   2.661   4.639   1.927
 6737SOL     OW21109   1.807   6.766   1.045
 6737SOL    HW121110   1.757   6.805   1.122
 6737SOL    HW221111   1.860   6.687   1.076
 6738SOL     OW21112   4.716   1.757   1.474
 6738SOL    HW121113   4.670   1.671   1.496
 6738SOL    HW221114   4.750   1.799   1.558
 6739SOL     OW21115   4.315   6.568   5.550
 6739SOL    HW121116   4.236   6.561   5.490
 6739SOL    HW221117   4.318   6.659   5.592
 6740SOL     OW21118   5.786   2.508   5.523
 6740SOL    HW121119   5.796   2.527   5.426
 6740SOL    HW221120   5.711   2.562   5.561
 6741SOL     OW21121   6.993   0.365   5.981
 6741SOL    HW121122   0.058   0.373   5.945
 6741SOL    HW221123   6.949   0.285   5.941
 6742SOL     OW21124   6.339   5.783   4.940
 6742SOL    HW121125   6.252   5.778   4.891
 6742SOL    HW221126   6.400   5.711   4.906
 6743SOL     OW21127   5.776   2.324   1.734
 6743SOL    HW121128   5.807   2.326   1.829
 6743SOL    HW221129   5.678   2.304   1.732
 6744SOL     OW21130   4.640   7.018   4.092
 6744SOL    HW121131   4.725   6.969   4.075
 6744SOL    HW221132   4.563   6.962   4.063
 6745SOL     OW21133   0.424   3.578   2.922
 6745SOL    HW121134   0.419   3.549   3.017
 6745SOL    HW221135   0.484   3.659   2.915
 6746SOL     OW21136   6.188   0.992   0.516
 6746SOL    HW121137   6.204   1.067   0.580
 6746SOL    HW221138   6.111   1.015   0.456
 6747SOL     OW21139   4.856   5.517   6.952
 6747SOL    HW121140   4.780   5.469   6.910
 6747SOL    HW221141   4.832   5.613   6.967
 6748SOL     OW21142   0.076   6.494   2.243
 6748SOL    HW121143   7.024   6.434   2.236
 6748SOL    HW221144   0.048   6.589   2.226
 6749SOL     OW21145   2.665   5.478   1.000
 6749SOL    HW121146   2.655   5.379   1.011
 6749SOL    HW221147   2.752   5.499   0.955
 6750SOL     OW21148   2.299   3.079   5.375
 6750SOL    HW121149   2.340   3.154   5.427
 6750SOL    HW221150   2.364   3.047   5.306
 6751SOL     OW21151   4.096   2.291   5.856
 6751SOL    HW121152   4.064   2.208   5.810
 6751SOL    HW221153   4.077   2.285   5.954
 6752SOL     OW21154   6.863   1.698   6.893
 6752SOL    HW121155   6.880   1.669   6.987
 6752SOL    HW221156   6.812   1.784   6.894
 6753SOL     OW21157   6.538   1.211   6.768
 6753SOL    HW121158   6.554   1.306   6.796
 6753SOL    HW221159   6.555   1.203   6.669
 6754SOL     OW21160   4.600   0.275   6.706
 6754SOL    HW121161   4.641   0.217   6.635
 6754SOL    HW221162   4.671   0.333   6.747
 6755SOL     OW21163   5.312   1.493   3.484
 6755SOL    HW121164   5.272   1.532   3.401
 6755SOL    HW221165   5.252   1.421   3.519
 6756SOL     OW21166   4.786   4.606   3.625
 6756SOL    HW121167   4.704   4.662   3.615
 6756SOL    HW221168   4.841   4.640   3.701
 6757SOL     OW21169   6.008   4.532   1.343
 6757SOL    HW121170   5.995   4.579   1.255
 6757SOL    HW221171   6.080   4.577   1.395
 6758SOL     OW21172   6.562   2.047   2.712
 6758SOL    HW121173   6.596   2.024   2.621
 6758SOL    HW221174   6.506   1.972   2.748
 6759SOL     OW21175   0.886   5.251   3.476
 6759SOL    HW121176   0.921   5.343   3.458
 6759SOL    HW221177   0.961   5.192   3.506
 6760SOL     OW21178   6.929   3.656   5.015
 6760SOL    HW121179   6.831   3.672   5.028
 6760SOL    HW221180   6.976   3.667   5.102
 6761SOL     OW21181   6.207   2.858   5.937
 6761SOL    HW121182   6.166   2.769   5.956
 6761SOL    HW221183   6.251   2.893   6.019
 6762SOL     OW21184   0.539   3.769   3.860
 6762SOL    HW121185   0.600   3.827   3.915
 6762SOL    HW221186   0.585   3.682   3.841
 6763SOL     OW21187   6.566   6.746   5.453
 6763SOL    HW121188   6.468   6.735   5.465
 6763SOL    HW221189   6.585   6.773   5.358
 6764SOL     OW21190   1.739   3.743   6.988
 6764SOL    HW121191   1.650   3.787   7.002
 6764SOL    HW221192   1.794   3.752   0.043
 6765SOL     OW21193   4.852   4.858   2.299
 6765SOL    HW121194   4.822   4.771   2.260
 6765SOL    HW221195   4.950   4.869   2.284
 6766SOL     OW21196   2.642   2.506   5.983
 6766SOL    HW121197   2.728   2.523   5.933
 6766SOL    HW221198   2.581   2.451   5.926
 6767SOL     OW21199   0.605   2.754   5.861
 6767SOL    HW121200   0.605   2.775   5.763
 6767SOL    HW221201   0.555   2.669   5.876
 6768SOL     OW21202   6.834   0.870   6.235
 6768SOL    HW121203   6.795   0.960   6.217
 6768SOL    HW221204   6.862   0.828   6.149
 6769SOL     OW21205   0.991   2.260   6.151
 6769SOL    HW121206   0.979   2.183   6.214
 6769SOL    HW221207   0.926   2.252   6.076
 6770SOL     OW21208   0.036   1.322   3.450
 6770SOL    HW121209   0.070   1.262   3.377
 6770SOL    HW221210   0.074   1.414   3.438
 6771SOL     OW21211   6.153   2.128   2.433
 6771SOL    HW121212   6.221   2.194   2.401
 6771SOL    HW221213   6.119   2.156   2.523
 6772SOL     OW21214   1.101   0.659   2.065
 6772SOL    HW121215   1.177   0.644   2.128
 6772SOL    HW221216   1.022   0.607   2.096
 6773SOL     OW21217   1.678   1.119   2.840
 6773SOL    HW121218   1.628   1.187   2.893
 6773SOL    HW221219   1.772   1.113   2.875
 6774SOL     OW21220   4.026   1.208   5.267
 6774SOL    HW121221   4.093   1.273   5.230
 6774SOL    HW221222   3.949   1.200   5.204
 6775SOL     OW21223   1.600   2.134   4.807
 6775SOL    HW121224   1.587   2.100   4.713
 6775SOL    HW221225   1.612   2.233   4.805
 6776SOL     OW21226   3.455   3.810   3.634
 6776SOL    HW121227   3.526   3.880   3.619
 6776SOL    HW221228   3.393   3.841   3.706
 6777SOL     OW21229   0.071   0.110   6.183
 6777SOL    HW121230   7.027   0.112   6.251
 6777SOL    HW221231   0.068   0.023   6.133
 6778SOL     OW21232   6.642   5.887   2.018
 6778SOL    HW121233   6.716   5.823   2.037
 6778SOL    HW221234   6.606   5.870   1.926
 6779SOL     OW21235   4.901   4.457   6.411
 6779SOL    HW121236   4.821   4.396   6.405
 6779SOL    HW221237   4.946   4.461   6.322
 6780SOL     OW21238   4.963   1.018   2.596
 6780SOL    HW121239   5.008   1.083   2.657
 6780SOL    HW221240   4.882   1.061   2.556
 6781SOL     OW21241   5.666   3.843   3.033
 6781SOL    HW121242   5.761   3.870   3.020
 6781SOL    HW221243   5.617   3.916   3.080
 6782SOL     OW21244   0.215   1.589   2.763
 6782SOL    HW121245   0.117   1.606   2.757
 6782SOL    HW221246   0.240   1.513   2.703
 6783SOL     OW21247   0.479   6.537   6.782
 6783SOL    HW121248   0.389   6.546   6.824
 6783SOL    HW221249   0.468   6.512   6.686
 6784SOL     OW21250   1.130   4.857   6.820
 6784SOL    HW121251   1.139   4.763   6.787
 6784SOL    HW221252   1.038   4.871   6.855
 6785SOL     OW21253   5.441   4.513   2.034
 6785SOL    HW121254   5.495   4.592   2.063
 6785SOL    HW221255   5.483   4.472   1.953
 6786SOL     OW21256   6.446   1.825   5.351
 6786SOL    HW121257   6.426   1.903   5.411
 6786SOL    HW221258   6.512   1.853   5.281
 6787SOL     OW21259   3.959   2.331   1.297
 6787SOL    HW121260   3.961   2.422   1.337
 6787SOL    HW221261   3.987   2.263   1.365
 6788SOL     OW21262   1.443   4.162   0.827
 6788SOL    HW121263   1.453   4.069   0.794
 6788SOL    HW221264   1.361   4.169   0.885
 6789SOL     OW21265   6.484   3.175   2.006
 6789SOL    HW121266   6.488   3.117   2.087
 6789SOL    HW221267   6.470   3.118   1.925
 6790SOL     OW21268   0.335   5.288   0.519
 6790SOL    HW121269   0.269   5.272   0.592
 6790SOL    HW221270   0.426   5.298   0.558
 6791SOL     OW21271   1.933   6.440   3.409
 6791SOL    HW121272   1.861   6.411   3.472
 6791SOL    HW221273   2.014   6.383   3.423
 6792SOL     OW21274   3.429   5.962   6.735
 6792SOL    HW121275   3.439   5.916   6.646
 6792SOL    HW221276   3.509   5.943   6.791
 6793SOL     OW21277   2.041   4.025   6.936
 6793SOL    HW121278   1.970   4.066   6.993
 6793SOL    HW221279   2.059   4.084   6.857
 6794SOL     OW21280   4.719   2.249   4.351
 6794SOL    HW121281   4.682   2.313   4.283
 6794SOL    HW221282   4.647   2.185   4.379
 6795SOL     OW21283   0.415   0.841   2.332
 6795SOL    HW121284   0.509   0.868   2.353
 6795SOL    HW221285   0.364   0.831   2.418
 6796SOL     OW21286   6.965   2.849   2.124
 6796SOL    HW121287   6.950   2.798   2.208
 6796SOL    HW221288   0.013   2.913   2.136
 6797SOL     OW21289   1.640   3.581   0.462
 6797SOL    HW121290   1.679   3.642   0.530
 6797SOL    HW221291   1.542   3.599   0.453
 6798SOL     OW21292   5.036   1.749   1.724
 6798SOL    HW121293   5.075   1.805   1.797
 6798SOL    HW221294   5.071   1.655   1.732
 6799SOL     OW21295   5.223   6.791   2.740
 6799SOL    HW121296   5.205   6.769   2.644
 6799SOL    HW221297   5.144   6.766   2.796
 6800SOL     OW21298   6.488   2.667   2.004
 6800SOL    HW121299   6.572   2.700   1.961
 6800SOL    HW221300   6.435   2.745   2.037
 6801SOL     OW21301   2.247   4.995   5.201
 6801SOL    HW121302   2.189   4.932   5.149
 6801SOL    HW221303   2.226   4.986   5.299
 6802SOL     OW21304   2.671   4.539   1.713
 6802SOL    HW121305   2.594   4.490   1.755
 6802SOL    HW221306   2.756   4.511   1.758
 6803SOL     OW21307   6.463   5.225   6.108
 6803SOL    HW121308   6.491   5.260   6.197
 6803SOL    HW221309   6.363   5.219   6.105
 6804SOL     OW21310   3.386   4.987   1.934
 6804SOL    HW121311   3.484   4.999   1.919
 6804SOL    HW221312   3.371   4.943   2.022
 6805SOL     OW21313   0.751   3.864   4.023
 6805SOL    HW121314   0.785   3.938   3.964
 6805SOL    HW221315   0.768   3.887   4.118
 6806SOL     OW21316   6.245   3.559   1.940
 6806SOL    HW121317   6.252   3.548   1.841
 6806SOL    HW221318   6.156   3.599   1.962
 6807SOL     OW21319   4.023   3.128   2.393
 6807SOL    HW121320   4.100   3.063   2.400
 6807SOL    HW221321   4.000   3.142   2.297
 6808SOL     OW21322   3.121   6.363   3.765
 6808SOL    HW121323   3.028   6.326   3.769
 6808SOL    HW221324   3.127   6.430   3.691
 6809SOL     OW21325   5.964   3.019   0.726
 6809SOL    HW121326   6.009   2.978   0.806
 6809SOL    HW221327   5.974   3.118   0.729
 6810SOL     OW21328   3.077   6.980   4.679
 6810SOL    HW121329   3.018   0.008   4.621
 6810SOL    HW221330   3.171   6.983   4.644
 6811SOL     OW21331   6.505   1.543   1.296
 6811SOL    HW121332   6.527   1.474   1.365
 6811SOL    HW221333   6.539   1.632   1.326
 6812SOL     OW21334   3.331   4.407   5.321
 6812SOL    HW121335   3.381   4.346   5.261
 6812SOL    HW221336   3.233   4.389   5.314
 6813SOL     OW21337   0.055   4.027   2.382
 6813SOL    HW121338   0.022   3.952   2.325
 6813SOL    HW221339   0.050   4.113   2.332
 6814SOL     OW21340   4.228   2.393   1.598
 6814SOL    HW121341   4.140   2.381   1.644
 6814SOL    HW221342   4.298   2.416   1.666
 6815SOL     OW21343   1.294   5.959   0.327
 6815SOL    HW121344   1.242   6.040   0.355
 6815SOL    HW221345   1.337   5.918   0.407
 6816SOL     OW21346   5.800   6.696   3.850
 6816SOL    HW121347   5.750   6.665   3.769
 6816SOL    HW221348   5.739   6.695   3.929
 6817SOL     OW21349   5.996   0.729   1.730
 6817SOL    HW121350   5.956   0.670   1.660
 6817SOL    HW221351   6.059   0.793   1.686
 6818SOL     OW21352   6.771   0.197   5.610
 6818SOL    HW121353   6.717   0.124   5.570
 6818SOL    HW221354   6.717   0.246   5.679
 6819SOL     OW21355   5.922   4.010   0.232
 6819SOL    HW121356   5.872   3.945   0.175
 6819SOL    HW221357   6.005   4.039   0.185
 6820SOL     OW21358   2.188   4.491   1.357
 6820SOL    HW121359   2.151   4.566   1.412
 6820SOL    HW221360   2.129   4.476   1.278
 6821SOL     OW21361   2.912   2.961   6.005
 6821SOL    HW121362   2.991   2.981   5.947
 6821SOL    HW221363   2.832   3.011   5.972
 6822SOL     OW21364   6.834   4.306   4.956
 6822SOL    HW121365   6.747   4.262   4.932
 6822SOL    HW221366   6.885   4.248   5.019
 6823SOL     OW21367   6.570   3.110   5.612
 6823SOL    HW121368   6.509   3.031   5.604
 6823SOL    HW221369   6.651   3.096   5.555
 6824SOL     OW21370   0.632   0.510   3.873
 6824SOL    HW121371   0.587   0.596   3.900
 6824SOL    HW221372   0.573   0.459   3.811
 6825SOL     OW21373   5.098   4.827   1.704
 6825SOL    HW121374   5.006   4.809   1.739
 6825SOL    HW221375   5.097   4.909   1.648
 6826SOL     OW21376   5.561   0.986   3.883
 6826SOL    HW121377   5.602   1.005   3.793
 6826SOL    HW221378   5.623   1.016   3.955
 6827SOL     OW21379   5.265   5.066   5.098
 6827SOL    HW121380   5.263   5.015   5.013
 6827SOL    HW221381   5.227   5.157   5.083
 6828SOL     OW21382   2.538   2.533   2.580
 6828SOL    HW121383   2.622   2.492   2.544
 6828SOL    HW221384   2.541   2.534   2.680
 6829SOL     OW21385   5.600   6.710   4.021
 6829SOL    HW121386   5.647   6.789   4.059
 6829SOL    HW221387   5.509   6.737   3.989
 6830SOL     OW21388   3.651   6.447   2.230
 6830SOL    HW121389   3.573   6.406   2.277
 6830SOL    HW221390   3.643   6.429   2.132
 6831SOL     OW21391   2.510   0.802   0.038
 6831SOL    HW121392   2.582   0.734   0.032
 6831SOL    HW221393   2.482   0.831   6.974
 6832SOL     OW21394   3.209   3.538   0.482
 6832SOL    HW121395   3.304   3.561   0.462
 6832SOL    HW221396   3.203   3.442   0.510
 6833SOL     OW21397   4.614   4.919   0.386
 6833SOL    HW121398   4.671   4.889   0.462
 6833SOL    HW221399   4.629   5.016   0.369
 6834SOL     OW21400   6.374   5.517   5.452
 6834SOL    HW121401   6.462   5.473   5.469
 6834SOL    HW221402   6.303   5.447   5.447
 6835SOL     OW21403   3.965   0.239   2.531
 6835SOL    HW121404   3.944   0.319   2.588
 6835SOL    HW221405   3.952   0.261   2.435
 6836SOL     OW21406   0.594   4.713   6.832
 6836SOL    HW121407   0.506   4.670   6.853
 6836SOL    HW221408   0.599   4.732   6.734
 6837SOL     OW21409   6.632   2.555   1.570
 6837SOL    HW121410   6.700   2.515   1.630
 6837SOL    HW221411   6.600   2.642   1.608
 6838SOL     OW21412   1.974   4.415   0.031
 6838SOL    HW121413   1.944   4.430   6.965
 6838SOL    HW221414   2.018   4.498   0.065
 6839SOL     OW21415   5.914   2.102   5.529
 6839SOL    HW121416   5.846   2.138   5.465
 6839SOL    HW221417   5.871   2.086   5.618
 6840SOL     OW21418   3.354   7.009   4.618
 6840SOL    HW121419   3.413   6.945   4.570
 6840SOL    HW221420   3.364   0.072   4.578
 6841SOL     OW21421   4.742   5.959   0.586
 6841SOL    HW121422   4.781   6.018   0.656
 6841SOL    HW221423   4.728   5.867   0.623
 6842SOL     OW21424   0.910   3.422   3.491
 6842SOL    HW121425   0.856   3.487   3.438
 6842SOL    HW221426   0.936   3.463   3.578
 6843SOL     OW21427   4.787   2.967   1.658
 6843SOL    HW121428   4.728   2.967   1.738
 6843SOL    HW221429   4.870   2.915   1.677
 6844SOL     OW21430   3.586   6.829   4.564
 6844SOL    HW121431   3.525   6.790   4.494
 6844SOL    HW221432   3.634   6.755   4.611
 6845SOL     OW21433   3.448   3.988   0.081
 6845SOL    HW121434   3.352   4.018   0.086
 6845SOL    HW221435   3.451   3.888   0.080
 6846SOL     OW21436   3.813   2.983   3.990
 6846SOL    HW121437   3.824   3.067   4.043
 6846SOL    HW221438   3.732   2.934   4.022
 6847SOL     OW21439   5.193   3.611   2.227
 6847SOL    HW121440   5.223   3.625   2.132
 6847SOL    HW221441   5.098   3.581   2.227
 6848SOL     OW21442   0.713   5.875   4.938
 6848SOL    HW121443   0.778   5.800   4.931
 6848SOL    HW221444   0.646   5.867   4.864
 6849SOL     OW21445   3.102   0.027   4.934
 6849SOL    HW121446   3.195   0.063   4.930
 6849SOL    HW221447   3.079   7.013   4.846
 6850SOL     OW21448   6.556   3.592   1.991
 6850SOL    HW121449   6.513   3.585   2.081
 6850SOL    HW221450   6.514   3.667   1.940
 6851SOL     OW21451   1.765   5.605   0.225
 6851SOL    HW121452   1.840   5.589   0.289
 6851SOL    HW221453   1.745   5.703   0.221
 6852SOL     OW21454   5.926   4.905   1.886
 6852SOL    HW121455   5.982   4.832   1.925
 6852SOL    HW221456   5.838   4.867   1.856
 6853SOL     OW21457   6.426   4.150   4.515
 6853SOL    HW121458   6.427   4.248   4.531
 6853SOL    HW221459   6.332   4.117   4.514
 6854SOL     OW21460   6.031   1.228   6.651
 6854SOL    HW121461   6.110   1.170   6.632
 6854SOL    HW221462   6.001   1.272   6.567
 6855SOL     OW21463   3.025   6.798   1.860
 6855SOL    HW121464   3.064   6.830   1.946
 6855SOL    HW221465   3.082   6.830   1.784
 6856SOL     OW21466   0.240   5.236   5.550
 6856SOL    HW121467   0.179   5.316   5.552
 6856SOL    HW221468   0.209   5.173   5.479
 6857SOL     OW21469   4.930   0.429   0.063
 6857SOL    HW121470   4.986   0.390   7.018
 6857SOL    HW221471   4.908   0.358   0.130
 6858SOL     OW21472   3.650   2.921   6.626
 6858SOL    HW121473   3.589   2.989   6.666
 6858SOL    HW221474   3.745   2.943   6.650
 6859SOL     OW21475   4.324   0.769   0.638
 6859SOL    HW121476   4.417   0.807   0.641
 6859SOL    HW221477   4.314   0.698   0.708
 6860SOL     OW21478   5.055   3.381   6.974
 6860SOL    HW121479   5.115   3.383   6.894
 6860SOL    HW221480   5.093   3.438   0.018
 6861SOL     OW21481   6.173   3.946   0.074
 6861SOL    HW121482   6.136   3.868   0.124
 6861SOL    HW221483   6.171   3.927   7.004
 6862SOL     OW21484   2.573   4.589   4.536
 6862SOL    HW121485   2.545   4.535   4.616
 6862SOL    HW221486   2.645   4.653   4.563
 6863SOL     OW21487   0.992   3.612   3.677
 6863SOL    HW121488   0.935   3.588   3.756
 6863SOL    HW221489   1.012   3.710   3.679
 6864SOL     OW21490   3.586   5.479   6.198
 6864SOL    HW121491   3.533   5.402   6.234
 6864SOL    HW221492   3.561   5.496   6.103
 6865SOL     OW21493   1.166   2.475   4.868
 6865SOL    HW121494   1.171   2.516   4.777
 6865SOL    HW221495   1.223   2.529   4.931
 6866SOL     OW21496   0.947   3.959   2.352
 6866SOL    HW121497   1.047   3.959   2.342
 6866SOL    HW221498   0.911   4.047   2.324
 6867SOL     OW21499   2.292   5.570   3.247
 6867SOL    HW121500   2.378   5.611   3.276
 6867SOL    HW221501   2.263   5.502   3.314
 6868SOL     OW21502   2.073   5.864   4.836
 6868SOL    HW121503   2.056   5.962   4.827
 6868SOL    HW221504   2.042   5.833   4.926
 6869SOL     OW21505   0.335   2.866   4.897
 6869SOL    HW121506   0.307   2.891   4.805
 6869SOL    HW221507   0.263   2.890   4.962
 6870SOL     OW21508   5.322   3.798   3.081
 6870SOL    HW121509   5.257   3.809   3.156
 6870SOL    HW221510   5.400   3.742   3.111
 6871SOL     OW21511   4.586   5.696   1.631
 6871SOL    HW121512   4.516   5.625   1.616
 6871SOL    HW221513   4.660   5.658   1.685
 6872SOL     OW21514   3.411   4.313   0.702
 6872SOL    HW121515   3.344   4.387   0.701
 6872SOL    HW221516   3.364   4.225   0.695
 6873SOL     OW21517   5.508   4.653   4.884
 6873SOL    HW121518   5.551   4.579   4.934
 6873SOL    HW221519   5.410   4.637   4.878
 6874SOL     OW21520   0.826   2.079   6.325
 6874SOL    HW121521   0.798   2.136   6.403
 6874SOL    HW221522   0.885   2.005   6.357
 6875SOL     OW21523   4.052   0.512   5.000
 6875SOL    HW121524   4.019   0.450   5.072
 6875SOL    HW221525   4.109   0.461   4.936
 6876SOL     OW21526   3.091   6.353   4.634
 6876SOL    HW121527   3.038   6.301   4.567
 6876SOL    HW221528   3.089   6.305   4.722
 6877SOL     OW21529   2.153   3.683   6.709
 6877SOL    HW121530   2.200   3.595   6.705
 6877SOL    HW221531   2.151   3.716   6.803
 6878SOL     OW21532   1.434   1.297   5.014
 6878SOL    HW121533   1.388   1.378   4.977
 6878SOL    HW221534   1.469   1.317   5.106
 6879SOL     OW21535   6.469   0.908   5.512
 6879SOL    HW121536   6.435   0.911   5.606
 6879SOL    HW221537   6.544   0.973   5.501
 6880SOL     OW21538   1.630   4.265   4.685
 6880SOL    HW121539   1.646   4.258   4.783
 6880SOL    HW221540   1.655   4.179   4.640
 6881SOL     OW21541   5.330   5.477   1.275
 6881SOL    HW121542   5.362   5.561   1.230
 6881SOL    HW221543   5.272   5.425   1.212
 6882SOL     OW21544   2.437   5.895   5.815
 6882SOL    HW121545   2.386   5.929   5.894
 6882SOL    HW221546   2.470   5.803   5.834
 6883SOL     OW21547   3.259   5.934   2.115
 6883SOL    HW121548   3.195   5.950   2.041
 6883SOL    HW221549   3.209   5.908   2.198
 6884SOL     OW21550   2.101   4.464   2.580
 6884SOL    HW121551   2.185   4.420   2.611
 6884SOL    HW221552   2.123   4.547   2.529
 6885SOL     OW21553   4.285   4.772   4.854
 6885SOL    HW121554   4.203   4.827   4.870
 6885SOL    HW221555   4.286   4.695   4.918
 6886SOL     OW21556   5.443   0.856   1.676
 6886SOL    HW121557   5.464   0.786   1.608
 6886SOL    HW221558   5.509   0.930   1.669
 6887SOL     OW21559   6.154   1.163   4.811
 6887SOL    HW121560   6.223   1.178   4.882
 6887SOL    HW221561   6.149   1.066   4.789
 6888SOL     OW21562   6.318   0.001   3.862
 6888SOL    HW121563   6.311   0.045   3.772
 6888SOL    HW221564   6.316   0.071   3.934
 6889SOL     OW21565   2.346   3.658   6.344
 6889SOL    HW121566   2.269   3.602   6.312
 6889SOL    HW221567   2.341   3.748   6.302
 6890SOL     OW21568   1.158   0.372   1.581
 6890SOL    HW121569   1.112   0.286   1.604
 6890SOL    HW221570   1.108   0.418   1.507
 6891SOL     OW21571   4.242   5.507   5.747
 6891SOL    HW121572   4.301   5.579   5.711
 6891SOL    HW221573   4.289   5.458   5.819
 6892SOL     OW21574   3.541   1.718   4.310
 6892SOL    HW121575   3.447   1.734   4.281
 6892SOL    HW221576   3.564   1.779   4.386
 6893SOL     OW21577   5.321   0.068   1.246
 6893SOL    HW121578   5.347   0.089   1.152
 6893SOL    HW221579   5.246   0.128   1.274
 6894SOL     OW21580   5.800   4.814   5.820
 6894SOL    HW121581   5.738   4.779   5.751
 6894SOL    HW221582   5.768   4.789   5.911
 6895SOL     OW21583   4.224   5.246   5.587
 6895SOL    HW121584   4.199   5.328   5.535
 6895SOL    HW221585   4.321   5.249   5.610
 6896SOL     OW21586   5.153   1.886   2.424
 6896SOL    HW121587   5.218   1.942   2.477
 6896SOL    HW221588   5.187   1.793   2.418
 6897SOL     OW21589   3.829   0.752   1.223
 6897SOL    HW121590   3.739   0.729   1.259
 6897SOL    HW221591   3.837   0.716   1.129
 6898SOL     OW21592   3.696   1.527   2.149
 6898SOL    HW121593   3.672   1.432   2.165
 6898SOL    HW221594   3.628   1.587   2.192
 6899SOL     OW21595   5.483   5.414   5.852
 6899SOL    HW121596   5.396   5.460   5.834
 6899SOL    HW221597   5.553   5.450   5.789
 6900SOL     OW21598   4.328   6.933   6.302
 6900SOL    HW121599   4.252   6.960   6.243
 6900SOL    HW221600   4.299   6.858   6.361
 6901SOL     OW21601   2.319   0.883   0.214
 6901SOL    HW121602   2.389   0.852   0.150
 6901SOL    HW221603   2.252   0.811   0.227
 6902SOL     OW21604   6.772   5.800   2.652
 6902SOL    HW121605   6.759   5.802   2.751
 6902SOL    HW221606   6.849   5.859   2.628
 6903SOL     OW21607   5.340   4.588   0.222
 6903SOL    HW121608   5.336   4.524   0.145
 6903SOL    HW221609   5.399   4.551   0.293
 6904SOL     OW21610   0.417   0.672   2.893
 6904SOL    HW121611   0.373   0.593   2.935
 6904SOL    HW221612   0.348   0.737   2.863
 6905SOL     OW21613   3.429   5.316   0.957
 6905SOL    HW121614   3.495   5.324   0.882
 6905SOL    HW221615   3.397   5.221   0.964
 6906SOL     OW21616   6.246   6.054   2.912
 6906SOL    HW121617   6.240   5.960   2.879
 6906SOL    HW221618   6.236   6.055   3.011
 6907SOL     OW21619   3.487   0.361   1.626
 6907SOL    HW121620   3.539   0.382   1.542
 6907SOL    HW221621   3.422   0.435   1.644
 6908SOL     OW21622   5.325   6.602   6.788
 6908SOL    HW121623   5.374   6.643   6.711
 6908SOL    HW221624   5.246   6.659   6.811
 6909SOL     OW21625   2.370   2.024   0.285
 6909SOL    HW121626   2.431   1.997   0.211
 6909SOL    HW221627   2.319   1.944   0.317
 6910SOL     OW21628   5.475   1.286   1.184
 6910SOL    HW121629   5.435   1.234   1.109
 6910SOL    HW221630   5.459   1.237   1.270
 6911SOL     OW21631   4.332   0.258   4.724
 6911SOL    HW121632   4.303   0.343   4.682
 6911SOL    HW221633   4.388   0.277   4.805
 6912SOL     OW21634   3.925   5.181   1.851
 6912SOL    HW121635   3.933   5.116   1.927
 6912SOL    HW221636   3.920   5.131   1.765
 6913SOL     OW21637   5.044   5.833   5.390
 6913SOL    HW121638   5.004   5.914   5.348
 6913SOL    HW221639   4.988   5.753   5.369
 6914SOL     OW21640   6.728   4.828   0.197
 6914SOL    HW121641   6.732   4.909   0.140
 6914SOL    HW221642   6.815   4.778   0.190
 6915SOL     OW21643   0.161   6.836   0.868
 6915SOL    HW121644   0.177   6.914   0.929
 6915SOL    HW221645   0.076   6.851   0.818
 6916SOL     OW21646   5.912   0.887   5.615
 6916SOL    HW121647   5.954   0.883   5.524
 6916SOL    HW221648   5.814   0.904   5.606
 6917SOL     OW21649   4.892   6.801   5.493
 6917SOL    HW121650   4.851   6.828   5.580
 6917SOL    HW221651   4.836   6.835   5.417
 6918SOL     OW21652   2.233   2.674   3.413
 6918SOL    HW121653   2.166   2.708   3.480
 6918SOL    HW221654   2.325   2.691   3.448
 6919SOL     OW21655   1.480   5.698   3.348
 6919SOL    HW121656   1.524   5.724   3.263
 6919SOL    HW221657   1.409   5.630   3.330
 6920SOL     OW21658   5.283   5.834   3.945
 6920SOL    HW121659   5.366   5.835   3.888
 6920SOL    HW221660   5.202   5.828   3.886
 6921SOL     OW21661   1.765   5.378   3.532
 6921SOL    HW121662   1.717   5.466   3.532
 6921SOL    HW221663   1.727   5.320   3.604
 6922SOL     OW21664   2.172   6.309   1.039
 6922SOL    HW121665   2.225   6.370   1.097
 6922SOL    HW221666   2.136   6.234   1.094
 6923SOL     OW21667   4.728   5.520   3.646
 6923SOL    HW121668   4.754   5.601   3.594
 6923SOL    HW221669   4.789   5.445   3.624
 6924SOL     OW21670   5.974   5.721   1.911
 6924SOL    HW121671   6.069   5.748   1.926
 6924SOL    HW221672   5.917   5.803   1.901
 6925SOL     OW21673   5.003   5.211   1.897
 6925SOL    HW121674   5.025   5.207   1.994
 6925SOL    HW221675   4.903   5.215   1.886
 6926SOL     OW21676   2.907   3.850   5.606
 6926SOL    HW121677   2.925   3.936   5.559
 6926SOL    HW221678   2.986   3.824   5.660
 6927SOL     OW21679   3.956   3.850   0.578
 6927SOL    HW121680   4.004   3.834   0.664
 6927SOL    HW221681   3.992   3.934   0.535
 6928SOL     OW21682   6.761   0.565   6.870
 6928SOL    HW121683   6.770   0.641   6.934
 6928SOL    HW221684   6.790   0.594   6.779
 6929SOL     OW21685   3.164   5.261   1.913
 6929SOL    HW121686   3.134   5.173   1.876
 6929SOL    HW221687   3.221   5.308   1.845
 6930SOL     OW21688   0.290   0.499   3.042
 6930SOL    HW121689   0.207   0.452   3.073
 6930SOL    HW221690   0.362   0.432   3.024
 6931SOL     OW21691   2.818   0.193   0.443
 6931SOL    HW121692   2.866   0.200   0.531
 6931SOL    HW221693   2.775   0.102   0.437
 6932SOL     OW21694   2.928   2.285   0.470
 6932SOL    HW121695   2.986   2.357   0.434
 6932SOL    HW221696   2.977   2.198   0.467
 6933SOL     OW21697   2.550   6.224   5.099
 6933SOL    HW121698   2.511   6.137   5.070
 6933SOL    HW221699   2.650   6.215   5.105
 6934SOL     OW21700   5.485   4.948   6.398
 6934SOL    HW121701   5.446   5.038   6.419
 6934SOL    HW221702   5.419   4.895   6.344
 6935SOL     OW21703   4.044   5.559   3.105
 6935SOL    HW121704   4.084   5.550   3.014
 6935SOL    HW221705   4.076   5.484   3.163
 6936SOL     OW21706   0.472   4.599   0.884
 6936SOL    HW121707   0.524   4.656   0.821
 6936SOL    HW221708   0.413   4.656   0.941
 6937SOL     OW21709   4.284   6.116   5.970
 6937SOL    HW121710   4.227   6.198   5.973
 6937SOL    HW221711   4.255   6.057   5.895
 6938SOL     OW21712   6.208   2.825   5.167
 6938SOL    HW121713   6.162   2.888   5.229
 6938SOL    HW221714   6.143   2.791   5.099
 6939SOL     OW21715   6.813   5.082   1.418
 6939SOL    HW121716   6.908   5.114   1.411
 6939SOL    HW221717   6.798   5.042   1.509
 6940SOL     OW21718   4.432   0.563   4.352
 6940SOL    HW121719   4.394   0.515   4.431
 6940SOL    HW221720   4.487   0.641   4.383
 6941SOL     OW21721   3.690   2.888   4.722
 6941SOL    HW121722   3.673   2.962   4.787
 6941SOL    HW221723   3.787   2.887   4.698
 6942SOL     OW21724   5.846   1.638   6.695
 6942SOL    HW121725   5.776   1.682   6.752
 6942SOL    HW221726   5.863   1.693   6.614
 6943SOL     OW21727   6.639   5.320   6.348
 6943SOL    HW121728   6.714   5.343   6.410
 6943SOL    HW221729   6.556   5.366   6.378
 6944SOL     OW21730   1.112   6.745   0.375
 6944SOL    HW121731   1.109   6.688   0.457
 6944SOL    HW221732   1.187   6.811   0.383
 6945SOL     OW21733   4.197   1.722   6.238
 6945SOL    HW121734   4.203   1.681   6.328
 6945SOL    HW221735   4.256   1.803   6.234
 6946SOL     OW21736   6.148   4.038   2.798
 6946SOL    HW121737   6.127   4.074   2.889
 6946SOL    HW221738   6.215   4.097   2.754
 6947SOL     OW21739   4.199   6.604   0.938
 6947SOL    HW121740   4.253   6.560   1.010
 6947SOL    HW221741   4.193   6.543   0.859
 6948SOL     OW21742   3.372   2.113   5.638
 6948SOL    HW121743   3.419   2.178   5.697
 6948SOL    HW221744   3.304   2.161   5.583
 6949SOL     OW21745   5.133   0.799   2.254
 6949SOL    HW121746   5.138   0.809   2.155
 6949SOL    HW221747   5.122   0.890   2.296
 6950SOL     OW21748   3.497   1.609   3.078
 6950SOL    HW121749   3.531   1.691   3.032
 6950SOL    HW221750   3.568   1.573   3.139
 6951SOL     OW21751   4.962   4.609   5.511
 6951SOL    HW121752   4.894   4.642   5.577
 6951SOL    HW221753   4.917   4.593   5.423
 6952SOL     OW21754   0.314   3.999   6.244
 6952SOL    HW121755   0.271   3.978   6.156
 6952SOL    HW221756   0.263   4.073   6.289
 6953SOL     OW21757   5.069   2.214   4.631
 6953SOL    HW121758   5.144   2.149   4.621
 6953SOL    HW221759   5.054   2.262   4.544
 6954SOL     OW21760   0.214   4.567   2.234
 6954SOL    HW121761   0.211   4.495   2.303
 6954SOL    HW221762   0.240   4.654   2.276
 6955SOL     OW21763   6.754   0.576   3.557
 6955SOL    HW121764   6.797   0.665   3.565
 6955SOL    HW221765   6.660   0.587   3.525
 6956SOL     OW21766   2.816   4.361   0.986
 6956SOL    HW121767   2.838   4.267   0.960
 6956SOL    HW221768   2.833   4.422   0.909
 6957SOL     OW21769   0.766   4.759   0.023
 6957SOL    HW121770   0.750   4.727   6.958
 6957SOL    HW221771   0.858   4.732   0.053
 6958SOL     OW21772   2.575   4.082   6.039
 6958SOL    HW121773   2.645   4.030   5.990
 6958SOL    HW221774   2.523   4.136   5.974
 6959SOL     OW21775   3.731   0.970   4.786
 6959SOL    HW121776   3.723   0.873   4.808
 6959SOL    HW221777   3.801   0.983   4.716
 6960SOL     OW21778   0.580   6.091   6.870
 6960SOL    HW121779   0.632   6.169   6.835
 6960SOL    HW221780   0.588   6.087   6.969
 6961SOL     OW21781   6.487   1.612   3.550
 6961SOL    HW121782   6.488   1.674   3.629
 6961SOL    HW221783   6.566   1.631   3.492
 6962SOL     OW21784   3.258   3.882   1.143
 6962SOL    HW121785   3.317   3.954   1.107
 6962SOL    HW221786   3.304   3.793   1.135
 6963SOL     OW21787   6.449   6.144   1.831
 6963SOL    HW121788   6.476   6.222   1.887
 6963SOL    HW221789   6.521   6.123   1.766
 6964SOL     OW21790   3.453   5.968   5.912
 6964SOL    HW121791   3.508   6.050   5.930
 6964SOL    HW221792   3.370   5.995   5.862
 6965SOL     OW21793   6.128   1.963   5.620
 6965SOL    HW121794   6.049   2.004   5.574
 6965SOL    HW221795   6.110   1.956   5.718
 6966SOL     OW21796   5.089   1.646   3.899
 6966SOL    HW121797   5.062   1.560   3.856
 6966SOL    HW221798   5.131   1.627   3.988
 6967SOL     OW21799   2.846   2.697   6.521
 6967SOL    HW121800   2.922   2.761   6.525
 6967SOL    HW221801   2.839   2.658   6.429
 6968SOL     OW21802   4.313   0.314   3.909
 6968SOL    HW121803   4.375   0.240   3.882
 6968SOL    HW221804   4.239   0.321   3.842
 6969SOL     OW21805   3.205   3.444   1.154
 6969SOL    HW121806   3.269   3.507   1.109
 6969SOL    HW221807   3.248   3.355   1.166
 6970SOL     OW21808   5.235   4.633   0.558
 6970SOL    HW121809   5.177   4.575   0.616
 6970SOL    HW221810   5.181   4.668   0.482
 6971SOL     OW21811   6.209   1.695   2.583
 6971SOL    HW121812   6.209   1.665   2.678
 6971SOL    HW221813   6.118   1.683   2.544
 6972SOL     OW21814   5.178   4.796   4.445
 6972SOL    HW121815   5.190   4.891   4.476
 6972SOL    HW221816   5.265   4.760   4.413
 6973SOL     OW21817   1.177   4.730   4.248
 6973SOL    HW121818   1.250   4.784   4.207
 6973SOL    HW221819   1.128   4.785   4.315
 6974SOL     OW21820   3.890   4.276   5.182
 6974SOL    HW121821   3.826   4.220   5.234
 6974SOL    HW221822   3.916   4.229   5.097
 6975SOL     OW21823   2.630   6.826   5.961
 6975SOL    HW121824   2.530   6.823   5.967
 6975SOL    HW221825   2.669   6.826   6.053
 6976SOL     OW21826   0.968   6.157   0.650
 6976SOL    HW121827   0.918   6.243   0.646
 6976SOL    HW221828   1.000   6.141   0.743
 6977SOL     OW21829   4.804   2.782   2.038
 6977SOL    HW121830   4.784   2.878   2.017
 6977SOL    HW221831   4.842   2.776   2.130
 6978SOL     OW21832   4.186   2.026   3.539
 6978SOL    HW121833   4.120   2.086   3.583
 6978SOL    HW221834   4.199   1.944   3.596
 6979SOL     OW21835   0.282   3.658   4.010
 6979SOL    HW121836   0.188   3.687   3.995
 6979SOL    HW221837   0.338   3.682   3.931
 6980SOL     OW21838   4.637   1.193   4.469
 6980SOL    HW121839   4.577   1.170   4.392
 6980SOL    HW221840   4.582   1.206   4.552
 6981SOL     OW21841   2.891   3.502   6.866
 6981SOL    HW121842   2.854   3.415   6.836
 6981SOL    HW221843   2.855   3.576   6.809
 6982SOL     OW21844   0.265   0.025   5.091
 6982SOL    HW121845   0.235   0.051   4.999
 6982SOL    HW221846   0.269   6.953   5.098
 6983SOL     OW21847   6.212   1.209   2.992
 6983SOL    HW121848   6.204   1.144   2.917
 6983SOL    HW221849   6.206   1.160   3.079
 6984SOL     OW21850   1.730   1.351   6.170
 6984SOL    HW121851   1.798   1.286   6.139
 6984SOL    HW221852   1.661   1.304   6.226
 6985SOL     OW21853   5.057   6.314   3.874
 6985SOL    HW121854   5.008   6.397   3.847
 6985SOL    HW221855   5.134   6.299   3.811
 6986SOL     OW21856   1.695   6.503   5.221
 6986SOL    HW121857   1.609   6.484   5.269
 6986SOL    HW221858   1.732   6.418   5.184
 6987SOL     OW21859   6.896   3.191   6.279
 6987SOL    HW121860   6.943   3.133   6.346
 6987SOL    HW221861   6.915   3.158   6.187
 6988SOL     OW21862   5.506   1.566   6.217
 6988SOL    HW121863   5.547   1.489   6.168
 6988SOL    HW221864   5.566   1.595   6.291
 6989SOL     OW21865   2.203   3.226   4.210
 6989SOL    HW121866   2.161   3.310   4.245
 6989SOL    HW221867   2.194   3.223   4.111
 6990SOL     OW21868   4.075   3.517   1.226
 6990SOL    HW121869   4.153   3.559   1.179
 6990SOL    HW221870   4.009   3.587   1.252
 6991SOL     OW21871   4.121   4.776   5.167
 6991SOL    HW121872   4.089   4.842   5.098
 6991SOL    HW221873   4.089   4.804   5.257
 6992SOL     OW21874   6.476   6.384   4.585
 6992SOL    HW121875   6.464   6.319   4.509
 6992SOL    HW221876   6.408   6.457   4.576
 6993SOL     OW21877   0.486   6.945   2.884
 6993SOL    HW121878   0.490   7.014   2.956
 6993SOL    HW221879   0.428   6.870   2.913
 6994SOL     OW21880   1.117   2.380   0.200
 6994SOL    HW121881   1.213   2.389   0.173
 6994SOL    HW221882   1.059   2.394   0.120
 6995SOL     OW21883   1.121   5.483   4.326
 6995SOL    HW121884   1.150   5.468   4.420
 6995SOL    HW221885   1.140   5.401   4.271
 6996SOL     OW21886   1.825   0.084   6.252
 6996SOL    HW121887   1.740   0.104   6.205
 6996SOL    HW221888   1.873   0.169   6.272
 6997SOL     OW21889   4.563   5.419   4.485
 6997SOL    HW121890   4.619   5.338   4.470
 6997SOL    HW221891   4.584   5.487   4.415
 6998SOL     OW21892   2.614   1.942   2.519
 6998SOL    HW121893   2.606   1.992   2.433
 6998SOL    HW221894   2.705   1.956   2.557
 6999SOL     OW21895   5.570   2.292   6.980
 6999SOL    HW121896   5.474   2.273   6.962
 6999SOL    HW221897   5.578   2.373   0.010
 7000SOL     OW21898   7.003   0.075   1.753
 7000SOL    HW121899   7.019   0.173   1.746
 7000SOL    HW221900   6.904   0.058   1.755
 7001SOL     OW21901   2.948   1.799   6.534
 7001SOL    HW121902   2.968   1.819   6.630
 7001SOL    HW221903   2.995   1.715   6.507
 7002SOL     OW21904   2.234   4.996   2.393
 7002SOL    HW121905   2.308   4.937   2.359
 7002SOL    HW221906   2.269   5.053   2.468
 7003SOL     OW21907   2.112   6.448   5.790
 7003SOL    HW121908   2.097   6.457   5.691
 7003SOL    HW221909   2.150   6.358   5.809
 7004SOL     OW21910   1.597   4.134   7.011
 7004SOL    HW121911   1.567   4.046   0.019
 7004SOL    HW221912   1.695   4.145   7.027
 7005SOL     OW21913   7.026   6.893   5.540
 7005SOL    HW121914   6.950   6.867   5.600
 7005SOL    HW221915   7.004   6.870   5.446
 7006SOL     OW21916   4.528   4.740   4.068
 7006SOL    HW121917   4.618   4.784   4.077
 7006SOL    HW221918   4.459   4.808   4.044
 7007SOL     OW21919   4.719   5.223   1.924
 7007SOL    HW121920   4.675   5.313   1.924
 7007SOL    HW221921   4.670   5.162   1.986
 7008SOL     OW21922   1.056   5.699   3.932
 7008SOL    HW121923   1.022   5.661   4.017
 7008SOL    HW221924   1.107   5.783   3.951
 7009SOL     OW21925   6.900   3.910   1.698
 7009SOL    HW121926   6.900   3.811   1.713
 7009SOL    HW221927   6.856   3.931   1.611
 7010SOL     OW21928   5.514   4.716   6.044
 7010SOL    HW121929   5.452   4.753   5.975
 7010SOL    HW221930   5.582   4.785   6.068
 7011SOL     OW21931   0.990   0.857   5.328
 7011SOL    HW121932   0.995   0.954   5.351
 7011SOL    HW221933   0.913   0.840   5.267
 7012SOL     OW21934   1.244   1.178   1.575
 7012SOL    HW121935   1.185   1.175   1.656
 7012SOL    HW221936   1.320   1.240   1.592
 7013SOL     OW21937   6.672   2.202   1.830
 7013SOL    HW121938   6.737   2.223   1.903
 7013SOL    HW221939   6.711   2.134   1.769
 7014SOL     OW21940   2.211   5.450   0.806
 7014SOL    HW121941   2.197   5.535   0.755
 7014SOL    HW221942   2.308   5.441   0.828
 7015SOL     OW21943   4.468   2.062   2.289
 7015SOL    HW121944   4.389   2.013   2.325
 7015SOL    HW221945   4.473   2.152   2.332
 7016SOL     OW21946   4.242   4.208   1.325
 7016SOL    HW121947   4.194   4.175   1.407
 7016SOL    HW221948   4.186   4.276   1.279
 7017SOL     OW21949   5.012   1.486   5.213
 7017SOL    HW121950   5.044   1.578   5.190
 7017SOL    HW221951   4.934   1.492   5.275
 7018SOL     OW21952   0.404   3.446   3.170
 7018SOL    HW121953   0.362   3.360   3.198
 7018SOL    HW221954   0.499   3.448   3.199
 7019SOL     OW21955   0.753   6.159   1.575
 7019SOL    HW121956   0.817   6.160   1.498
 7019SOL    HW221957   0.736   6.065   1.603
 7020SOL     OW21958   0.479   5.703   6.660
 7020SOL    HW121959   0.429   5.784   6.690
 7020SOL    HW221960   0.454   5.682   6.565
 7021SOL     OW21961   3.518   6.724   5.874
 7021SOL    HW121962   3.445   6.667   5.837
 7021SOL    HW221963   3.568   6.767   5.799
 7022SOL     OW21964   4.010   5.538   5.641
 7022SOL    HW121965   4.100   5.503   5.667
 7022SOL    HW221966   4.021   5.610   5.573
 7023SOL     OW21967   5.173   4.767   2.620
 7023SOL    HW121968   5.100   4.804   2.563
 7023SOL    HW221969   5.235   4.711   2.563
 7024SOL     OW21970   6.118   6.764   1.387
 7024SOL    HW121971   6.050   6.703   1.426
 7024SOL    HW221972   6.073   6.845   1.349
 7025SOL     OW21973   2.701   0.246   0.741
 7025SOL    HW121974   2.703   0.158   0.788
 7025SOL    HW221975   2.778   0.302   0.770
 7026SOL     OW21976   4.019   1.792   1.192
 7026SOL    HW121977   3.956   1.763   1.120
 7026SOL    HW221978   3.971   1.851   1.257
 7027SOL     OW21979   5.611   6.005   4.416
 7027SOL    HW121980   5.596   6.040   4.323
 7027SOL    HW221981   5.584   6.074   4.483
 7028SOL     OW21982   2.888   0.497   4.781
 7028SOL    HW121983   2.978   0.525   4.749
 7028SOL    HW221984   2.884   0.397   4.785
 7029SOL     OW21985   4.185   1.052   4.627
 7029SOL    HW121986   4.233   1.029   4.712
 7029SOL    HW221987   4.208   1.146   4.601
 7030SOL     OW21988   1.626   3.312   3.953
 7030SOL    HW121989   1.716   3.276   3.927
 7030SOL    HW221990   1.629   3.343   4.048
 7031SOL     OW21991   1.309   0.846   4.864
 7031SOL    HW121992   1.247   0.919   4.835
 7031SOL    HW221993   1.288   0.819   4.958
 7032SOL     OW21994   5.981   2.367   3.593
 7032SOL    HW121995   5.950   2.272   3.600
 7032SOL    HW221996   6.009   2.400   3.683
 7033SOL     OW21997   0.519   0.236   5.279
 7033SOL    HW121998   0.575   0.156   5.299
 7033SOL    HW221999   0.442   0.240   5.343
 7034SOL     OW22000   0.548   4.757   3.628
 7034SOL    HW122001   0.511   4.666   3.609
 7034SOL    HW222002   0.636   4.748   3.674
 7035SOL     OW22003   6.724   4.671   2.090
 7035SOL    HW122004   6.627   4.663   2.115
 7035SOL    HW222005   6.733   4.729   2.009
 7036SOL     OW22006   5.930   4.614   0.395
 7036SOL    HW122007   5.901   4.522   0.421
 7036SOL    HW222008   6.019   4.609   0.349
 7037SOL     OW22009   1.477   0.399   6.376
 7037SOL    HW122010   1.535   0.402   6.458
 7037SOL    HW222011   1.420   0.317   6.378
 7038SOL     OW22012   2.094   3.369   4.481
 7038SOL    HW122013   2.042   3.284   4.478
 7038SOL    HW222014   2.074   3.417   4.567
 7039SOL     OW22015   3.458   1.923   6.910
 7039SOL    HW122016   3.500   1.933   7.000
 7039SOL    HW222017   3.372   1.974   6.907
 7040SOL     OW22018   5.480   2.726   6.972
 7040SOL    HW122019   5.489   2.767   0.035
 7040SOL    HW222020   5.434   2.637   6.980
 7041SOL     OW22021   2.383   1.737   3.490
 7041SOL    HW122022   2.460   1.766   3.547
 7041SOL    HW222023   2.298   1.775   3.526
 7042SOL     OW22024   1.328   0.911   6.676
 7042SOL    HW122025   1.331   0.869   6.585
 7042SOL    HW222026   1.241   0.959   6.688
 7043SOL     OW22027   1.350   2.581   2.373
 7043SOL    HW122028   1.425   2.542   2.319
 7043SOL    HW222029   1.264   2.572   2.323
 7044SOL     OW22030   6.768   6.127   1.389
 7044SOL    HW122031   6.705   6.163   1.320
 7044SOL    HW222032   6.777   6.028   1.377
 7045SOL     OW22033   6.979   4.734   0.180
 7045SOL    HW122034   0.035   4.766   0.137
 7045SOL    HW222035   6.995   4.721   0.278
 7046SOL     OW22036   3.313   1.564   3.788
 7046SOL    HW122037   3.279   1.651   3.753
 7046SOL    HW222038   3.372   1.580   3.867
 7047SOL     OW22039   1.411   0.081   3.036
 7047SOL    HW122040   1.485   0.028   3.077
 7047SOL    HW222041   1.429   0.179   3.051
 7048SOL     OW22042   6.944   5.796   0.111
 7048SOL    HW122043   7.000   5.849   0.174
 7048SOL    HW222044   6.857   5.773   0.155
 7049SOL     OW22045   2.313   1.237   6.487
 7049SOL    HW122046   2.267   1.312   6.535
 7049SOL    HW222047   2.274   1.227   6.395
 7050SOL     OW22048   4.163   3.575   4.908
 7050SOL    HW122049   4.123   3.653   4.956
 7050SOL    HW222050   4.246   3.546   4.955
 7051SOL     OW22051   6.248   6.495   2.950
 7051SOL    HW122052   6.273   6.568   2.887
 7051SOL    HW222053   6.312   6.419   2.941
 7052SOL     OW22054   0.041   0.151   5.484
 7052SOL    HW122055   6.970   0.162   5.488
 7052SOL    HW222056   0.064   0.055   5.495
 7053SOL     OW22057   7.028   3.506   5.861
 7053SOL    HW122058   0.029   3.536   5.770
 7053SOL    HW222059   0.029   3.572   5.929
 7054SOL     OW22060   6.380   1.933   2.180
 7054SOL    HW122061   6.364   2.026   2.146
 7054SOL    HW222062   6.376   1.933   2.280
 7055SOL     OW22063   4.148   1.404   3.875
 7055SOL    HW122064   4.202   1.465   3.933
 7055SOL    HW222065   4.102   1.458   3.805
 7056SOL     OW22066   4.445   5.492   4.030
 7056SOL    HW122067   4.438   5.558   3.955
 7056SOL    HW222068   4.502   5.530   4.103
 7057SOL     OW22069   6.125   5.809   2.496
 7057SOL    HW122070   6.057   5.779   2.564
 7057SOL    HW222071   6.080   5.865   2.426
 7058SOL     OW22072   0.275   4.478   4.431
 7058SOL    HW122073   0.254   4.568   4.395
 7058SOL    HW222074   0.358   4.442   4.387
 7059SOL     OW22075   1.784   1.430   2.476
 7059SOL    HW122076   1.841   1.492   2.530
 7059SOL    HW222077   1.688   1.459   2.482
 7060SOL     OW22078   2.914   6.526   1.001
 7060SOL    HW122079   2.874   6.455   0.942
 7060SOL    HW222080   3.012   6.533   0.983
 7061SOL     OW22081   0.001   0.728   2.920
 7061SOL    HW122082   0.000   0.710   3.018
 7061SOL    HW222083   6.995   0.648   2.870
 7062SOL     OW22084   6.647   1.302   5.630
 7062SOL    HW122085   6.689   1.381   5.586
 7062SOL    HW222086   6.602   1.332   5.715
 7063SOL     OW22087   1.950   6.556   2.644
 7063SOL    HW122088   2.021   6.514   2.588
 7063SOL    HW222089   1.898   6.621   2.590
 7064SOL     OW22090   3.522   2.793   0.120
 7064SOL    HW122091   3.567   2.881   0.104
 7064SOL    HW222092   3.467   2.768   0.041
 7065SOL     OW22093   3.401   3.538   2.327
 7065SOL    HW122094   3.428   3.518   2.233
 7065SOL    HW222095   3.430   3.630   2.351
 7066SOL     OW22096   2.362   5.147   1.671
 7066SOL    HW122097   2.307   5.230   1.666
 7066SOL    HW222098   2.457   5.167   1.648
 7067SOL     OW22099   0.611   4.155   4.641
 7067SOL    HW122100   0.585   4.250   4.629
 7067SOL    HW222101   0.621   4.135   4.739
 7068SOL     OW22102   0.134   0.337   2.719
 7068SOL    HW122103   0.175   0.264   2.773
 7068SOL    HW222104   0.067   0.386   2.775
 7069SOL     OW22105   1.862   4.813   5.339
 7069SOL    HW122106   1.788   4.760   5.379
 7069SOL    HW222107   1.869   4.901   5.387
 7070SOL     OW22108   5.376   5.507   3.474
 7070SOL    HW122109   5.423   5.419   3.484
 7070SOL    HW222110   5.437   5.580   3.506
 7071SOL     OW22111   1.923   6.510   5.028
 7071SOL    HW122112   1.935   6.412   5.011
 7071SOL    HW222113   1.921   6.528   5.126
 7072SOL     OW22114   0.494   0.234   6.662
 7072SOL    HW122115   0.552   0.249   6.582
 7072SOL    HW222116   0.551   0.219   6.743
 7073SOL     OW22117   1.619   2.141   6.456
 7073SOL    HW122118   1.671   2.217   6.416
 7073SOL    HW222119   1.581   2.169   6.544
 7074SOL     OW22120   3.495   1.196   0.146
 7074SOL    HW122121   3.570   1.129   0.146
 7074SOL    HW222122   3.506   1.258   0.068
 7075SOL     OW22123   0.710   5.971   2.797
 7075SOL    HW122124   0.622   5.994   2.756
 7075SOL    HW222125   0.774   6.047   2.785
 7076SOL     OW22126   3.800   1.445   5.959
 7076SOL    HW122127   3.899   1.436   5.960
 7076SOL    HW222128   3.759   1.366   6.006
 7077SOL     OW22129   1.461   5.054   6.378
 7077SOL    HW122130   1.535   5.104   6.333
 7077SOL    HW222131   1.486   5.039   6.474
 7078SOL     OW22132   6.977   0.832   1.975
 7078SOL    HW122133   6.954   0.830   2.072
 7078SOL    HW222134   0.041   0.871   1.963
 7079SOL     OW22135   5.358   5.936   4.625
 7079SOL    HW122136   5.407   6.012   4.582
 7079SOL    HW222137   5.396   5.850   4.593
 7080SOL     OW22138   5.993   0.496   4.203
 7080SOL    HW122139   6.000   0.418   4.140
 7080SOL    HW222140   6.068   0.492   4.269
 7081SOL     OW22141   4.905   0.668   5.037
 7081SOL    HW122142   4.908   0.643   4.940
 7081SOL    HW222143   4.810   0.669   5.067
 7082SOL     OW22144   5.831   1.394   0.254
 7082SOL    HW122145   5.818   1.431   0.163
 7082SOL    HW222146   5.835   1.469   0.321
 7083SOL     OW22147   4.015   0.263   5.403
 7083SOL    HW122148   4.017   0.185   5.465
 7083SOL    HW222149   4.002   0.231   5.309
 7084SOL     OW22150   6.110   6.109   0.390
 7084SOL    HW122151   6.118   6.183   0.457
 7084SOL    HW222152   6.095   6.022   0.438
 7085SOL     OW22153   4.088   1.454   1.087
 7085SOL    HW122154   4.131   1.498   1.166
 7085SOL    HW222155   4.009   1.401   1.118
 7086SOL     OW22156   1.369   1.028   6.248
 7086SOL    HW122157   1.396   1.003   6.155
 7086SOL    HW222158   1.270   1.040   6.252
 7087SOL     OW22159   2.357   2.757   5.133
 7087SOL    HW122160   2.346   2.856   5.121
 7087SOL    HW222161   2.380   2.715   5.045
 7088SOL     OW22162   0.048   2.216   5.031
 7088SOL    HW122163   0.000   2.303   5.023
 7088SOL    HW222164   0.102   2.214   5.116
 7089SOL     OW22165   3.100   1.782   1.700
 7089SOL    HW122166   3.117   1.871   1.658
 7089SOL    HW222167   3.031   1.791   1.772
 7090SOL     OW22168   2.176   2.274   5.340
 7090SOL    HW122169   2.265   2.305   5.372
 7090SOL    HW222170   2.178   2.174   5.327
 7091SOL     OW22171   6.481   6.641   0.678
 7091SOL    HW122172   6.551   6.569   0.673
 7091SOL    HW222173   6.488   6.687   0.766
 7092SOL     OW22174   3.048   1.797   0.553
 7092SOL    HW122175   3.137   1.783   0.596
 7092SOL    HW222176   2.977   1.751   0.606
 7093SOL     OW22177   4.119   3.224   6.219
 7093SOL    HW122178   4.182   3.146   6.219
 7093SOL    HW222179   4.089   3.243   6.312
 7094SOL     OW22180   6.219   1.069   6.057
 7094SOL    HW122181   6.199   1.119   5.973
 7094SOL    HW222182   6.316   1.077   6.079
 7095SOL     OW22183   0.568   3.995   0.696
 7095SOL    HW122184   0.474   3.993   0.730
 7095SOL    HW222185   0.592   4.089   0.671
 7096SOL     OW22186   4.391   0.015   2.622
 7096SOL    HW122187   4.412   0.081   2.695
 7096SOL    HW222188   4.405   0.058   2.533
 7097SOL     OW22189   1.860   1.680   1.378
 7097SOL    HW122190   1.815   1.764   1.348
 7097SOL    HW222191   1.946   1.704   1.424
 7098SOL     OW22192   1.069   0.639   6.369
 7098SOL    HW122193   0.986   0.631   6.313
 7098SOL    HW222194   1.128   0.710   6.331
 7099SOL     OW22195   6.718   1.106   5.467
 7099SOL    HW122196   6.686   1.180   5.527
 7099SOL    HW222197   6.749   1.029   5.523
 7100SOL     OW22198   5.519   1.682   1.533
 7100SOL    HW122199   5.540   1.775   1.564
 7100SOL    HW222200   5.603   1.629   1.524
 7101SOL     OW22201   1.355   0.659   3.893
 7101SOL    HW122202   1.323   0.564   3.888
 7101SOL    HW222203   1.348   0.701   3.802
 7102SOL     OW22204   4.727   3.151   0.507
 7102SOL    HW122205   4.684   3.108   0.587
 7102SOL    HW222206   4.821   3.116   0.497
 7103SOL     OW22207   2.360   6.797   5.998
 7103SOL    HW122208   2.283   6.757   6.048
 7103SOL    HW222209   2.349   6.780   5.900
 7104SOL     OW22210   0.890   2.691   2.097
 7104SOL    HW122211   0.818   2.755   2.124
 7104SOL    HW222212   0.968   2.742   2.060
 7105SOL     OW22213   2.093   3.341   5.624
 7105SOL    HW122214   2.162   3.410   5.605
 7105SOL    HW222215   2.035   3.328   5.543
 7106SOL     OW22216   2.884   2.775   5.484
 7106SOL    HW122217   2.798   2.825   5.499
 7106SOL    HW222218   2.956   2.839   5.457
 7107SOL     OW22219   1.458   1.526   0.704
 7107SOL    HW122220   1.362   1.501   0.689
 7107SOL    HW222221   1.517   1.461   0.656
 7108SOL     OW22222   4.680   6.593   1.740
 7108SOL    HW122223   4.630   6.663   1.688
 7108SOL    HW222224   4.737   6.540   1.678
 7109SOL     OW22225   4.320   5.618   6.509
 7109SOL    HW122226   4.354   5.526   6.491
 7109SOL    HW222227   4.252   5.643   6.440
 7110SOL     OW22228   3.485   4.930   4.485
 7110SOL    HW122229   3.552   4.884   4.427
 7110SOL    HW222230   3.460   5.017   4.444
 7111SOL     OW22231   1.305   2.554   3.532
 7111SOL    HW122232   1.317   2.647   3.498
 7111SOL    HW222233   1.207   2.535   3.542
 7112SOL     OW22234   1.619   6.349   3.416
 7112SOL    HW122235   1.540   6.408   3.400
 7112SOL    HW222236   1.668   6.382   3.497
 7113SOL     OW22237   3.602   3.389   5.333
 7113SOL    HW122238   3.533   3.395   5.405
 7113SOL    HW222239   3.600   3.297   5.293
 7114SOL     OW22240   3.907   6.597   0.678
 7114SOL    HW122241   3.904   6.688   0.721
 7114SOL    HW222242   3.819   6.551   0.691
 7115SOL     OW22243   3.970   2.121   1.651
 7115SOL    HW122244   3.965   2.215   1.683
 7115SOL    HW222245   4.048   2.111   1.589
 7116SOL     OW22246   6.085   4.100   3.089
 7116SOL    HW122247   6.150   4.028   3.114
 7116SOL    HW222248   6.132   4.188   3.087
 7117SOL     OW22249   6.362   6.711   2.777
 7117SOL    HW122250   6.296   6.673   2.711
 7117SOL    HW222251   6.396   6.798   2.743
 7118SOL     OW22252   6.548   3.172   3.162
 7118SOL    HW122253   6.622   3.181   3.228
 7118SOL    HW222254   6.581   3.124   3.081
 7119SOL     OW22255   1.400   2.238   3.195
 7119SOL    HW122256   1.394   2.336   3.209
 7119SOL    HW222257   1.363   2.214   3.105
 7120SOL     OW22258   4.548   6.245   3.005
 7120SOL    HW122259   4.548   6.152   3.040
 7120SOL    HW222260   4.456   6.283   3.010
 7121SOL     OW22261   2.314   6.532   1.159
 7121SOL    HW122262   2.290   6.553   1.254
 7121SOL    HW222263   2.336   6.617   1.111
 7122SOL     OW22264   6.756   6.371   0.386
 7122SOL    HW122265   6.786   6.326   0.470
 7122SOL    HW222266   6.776   6.469   0.392
 7123SOL     OW22267   2.753   5.844   0.598
 7123SOL    HW122268   2.853   5.839   0.601
 7123SOL    HW222269   2.721   5.917   0.659
 7124SOL     OW22270   0.246   6.080   6.433
 7124SOL    HW122271   0.306   6.012   6.391
 7124SOL    HW222272   0.284   6.171   6.418
 7125SOL     OW22273   0.282   6.323   3.687
 7125SOL    HW122274   0.237   6.331   3.597
 7125SOL    HW222275   0.368   6.274   3.677
 7126SOL     OW22276   1.776   3.799   1.392
 7126SOL    HW122277   1.708   3.755   1.451
 7126SOL    HW222278   1.791   3.892   1.423
 7127SOL     OW22279   2.437   0.321   4.699
 7127SOL    HW122280   2.360   0.283   4.646
 7127SOL    HW222281   2.454   0.415   4.670
 7128SOL     OW22282   3.015   3.832   1.920
 7128SOL    HW122283   3.047   3.922   1.891
 7128SOL    HW222284   2.944   3.800   1.857
 7129SOL     OW22285   2.709   1.794   1.195
 7129SOL    HW122286   2.762   1.778   1.111
 7129SOL    HW222287   2.612   1.777   1.176
 7130SOL     OW22288   2.245   0.508   3.219
 7130SOL    HW122289   2.331   0.480   3.262
 7130SOL    HW222290   2.176   0.524   3.291
 7131SOL     OW22291   2.771   1.544   3.652
 7131SOL    HW122292   2.860   1.562   3.611
 7131SOL    HW222293   2.709   1.510   3.582
 7132SOL     OW22294   3.171   4.107   1.905
 7132SOL    HW122295   3.234   4.079   1.832
 7132SOL    HW222296   3.135   4.198   1.885
 7133SOL     OW22297   6.261   4.244   2.004
 7133SOL    HW122298   6.229   4.229   2.098
 7133SOL    HW222299   6.341   4.186   1.986
 7134SOL     OW22300   5.662   4.771   2.360
 7134SOL    HW122301   5.608   4.777   2.444
 7134SOL    HW222302   5.756   4.744   2.383
 7135SOL     OW22303   0.124   2.154   6.039
 7135SOL    HW122304   0.123   2.252   6.019
 7135SOL    HW222305   0.127   2.140   6.138
 7136SOL     OW22306   1.736   1.936   6.911
 7136SOL    HW122307   1.798   1.981   6.847
 7136SOL    HW222308   1.651   1.912   6.865
 7137SOL     OW22309   4.859   2.000   5.070
 7137SOL    HW122310   4.920   1.970   4.997
 7137SOL    HW222311   4.908   1.998   5.157
 7138SOL     OW22312   2.326   2.327   6.810
 7138SOL    HW122313   2.371   2.351   6.895
 7138SOL    HW222314   2.311   2.410   6.756
 7139SOL     OW22315   2.795   1.384   0.487
 7139SOL    HW122316   2.803   1.482   0.507
 7139SOL    HW222317   2.752   1.371   0.398
 7140SOL     OW22318   6.705   4.384   4.553
 7140SOL    HW122319   6.673   4.337   4.470
 7140SOL    HW222320   6.750   4.318   4.613
 7141SOL     OW22321   0.679   6.829   1.679
 7141SOL    HW122322   0.634   6.748   1.642
 7141SOL    HW222323   0.776   6.828   1.655
 7142SOL     OW22324   3.420   6.830   3.654
 7142SOL    HW122325   3.329   6.854   3.689
 7142SOL    HW222326   3.416   6.741   3.610
 7143SOL     OW22327   2.015   2.325   4.129
 7143SOL    HW122328   1.918   2.342   4.148
 7143SOL    HW222329   2.056   2.274   4.205
 7144SOL     OW22330   1.411   3.315   3.600
 7144SOL    HW122331   1.324   3.322   3.550
 7144SOL    HW222332   1.487   3.333   3.536
 7145SOL     OW22333   4.173   5.945   5.774
 7145SOL    HW122334   4.084   5.899   5.775
 7145SOL    HW222335   4.239   5.888   5.725
 7146SOL     OW22336   3.579   5.261   1.930
 7146SOL    HW122337   3.481   5.270   1.909
 7146SOL    HW222338   3.625   5.347   1.909
 7147SOL     OW22339   7.023   0.959   3.850
 7147SOL    HW122340   6.956   1.032   3.865
 7147SOL    HW222341   0.087   0.994   3.864
 7148SOL     OW22342   6.916   1.841   0.597
 7148SOL    HW122343   6.861   1.758   0.604
 7148SOL    HW222344   7.013   1.816   0.597
 7149SOL     OW22345   0.326   0.618   4.765
 7149SOL    HW122346   0.250   0.683   4.765
 7149SOL    HW222347   0.402   0.656   4.818
 7150SOL     OW22348   6.079   3.486   6.354
 7150SOL    HW122349   6.132   3.419   6.407
 7150SOL    HW222350   6.001   3.516   6.409
 7151SOL     OW22351   2.288   7.004   0.743
 7151SOL    HW122352   2.310   0.070   0.768
 7151SOL    HW222353   2.191   6.997   0.721
 7152SOL     OW22354   0.976   2.297   4.804
 7152SOL    HW122355   0.957   2.217   4.860
 7152SOL    HW222356   1.044   2.354   4.848
 7153SOL     OW22357   4.241   2.022   2.965
 7153SOL    HW122358   4.155   2.067   2.944
 7153SOL    HW222359   4.243   1.932   2.922
 7154SOL     OW22360   3.845   6.983   5.000
 7154SOL    HW122361   3.915   6.944   4.940
 7154SOL    HW222362   3.756   6.980   4.954
 7155SOL     OW22363   2.548   1.790   3.235
 7155SOL    HW122364   2.634   1.823   3.273
 7155SOL    HW222365   2.487   1.763   3.310
 7156SOL     OW22366   1.799   5.524   5.901
 7156SOL    HW122367   1.749   5.562   5.979
 7156SOL    HW222368   1.736   5.476   5.840
 7157SOL     OW22369   5.667   3.833   0.551
 7157SOL    HW122370   5.617   3.913   0.583
 7157SOL    HW222371   5.723   3.796   0.625
 7158SOL     OW22372   4.137   6.957   3.567
 7158SOL    HW122373   4.088   6.888   3.513
 7158SOL    HW222374   4.170   0.001   3.506
 7159SOL     OW22375   0.909   5.879   6.940
 7159SOL    HW122376   0.882   5.888   6.844
 7159SOL    HW222377   0.832   5.842   6.992
 7160SOL     OW22378   6.418   0.552   1.654
 7160SOL    HW122379   6.394   0.553   1.751
 7160SOL    HW222380   6.440   0.645   1.625
 7161SOL     OW22381   3.834   3.741   4.834
 7161SOL    HW122382   3.846   3.643   4.843
 7161SOL    HW222383   3.899   3.789   4.893
 7162SOL     OW22384   3.688   4.893   4.294
 7162SOL    HW122385   3.726   4.948   4.219
 7162SOL    HW222386   3.762   4.841   4.337
 7163SOL     OW22387   1.248   6.522   3.685
 7163SOL    HW122388   1.223   6.448   3.623
 7163SOL    HW222389   1.265   6.605   3.632
 7164SOL     OW22390   2.178   2.213   4.913
 7164SOL    HW122391   2.202   2.287   4.975
 7164SOL    HW222392   2.256   2.193   4.854
 7165SOL     OW22393   4.984   5.706   1.956
 7165SOL    HW122394   4.958   5.696   1.860
 7165SOL    HW222395   5.018   5.618   1.990
 7166SOL     OW22396   4.000   6.079   2.089
 7166SOL    HW122397   4.067   6.020   2.045
 7166SOL    HW222398   4.046   6.162   2.121
 7167SOL     OW22399   5.399   3.367   6.603
 7167SOL    HW122400   5.348   3.281   6.603
 7167SOL    HW222401   5.344   3.438   6.647
 7168SOL     OW22402   0.527   1.452   4.077
 7168SOL    HW122403   0.462   1.381   4.051
 7168SOL    HW222404   0.492   1.502   4.156
 7169SOL     OW22405   2.019   2.666   6.787
 7169SOL    HW122406   2.027   2.568   6.770
 7169SOL    HW222407   1.968   2.681   6.872
 7170SOL     OW22408   5.268   3.927   3.786
 7170SOL    HW122409   5.291   4.018   3.751
 7170SOL    HW222410   5.275   3.927   3.886
 7171SOL     OW22411   4.042   3.621   5.398
 7171SOL    HW122412   3.971   3.560   5.362
 7171SOL    HW222413   4.046   3.612   5.497
 7172SOL     OW22414   0.418   6.246   0.934
 7172SOL    HW122415   0.487   6.318   0.942
 7172SOL    HW222416   0.419   6.208   0.842
 7173SOL     OW22417   6.284   6.596   4.592
 7173SOL    HW122418   6.285   6.561   4.686
 7173SOL    HW222419   6.194   6.578   4.552
 7174SOL     OW22420   1.229   6.022   6.071
 7174SOL    HW122421   1.139   5.986   6.096
 7174SOL    HW222422   1.251   5.994   5.977
 7175SOL     OW22423   5.975   3.583   6.039
 7175SOL    HW122424   6.027   3.621   6.115
 7175SOL    HW222425   5.987   3.484   6.036
 7176SOL     OW22426   0.746   3.018   1.758
 7176SOL    HW122427   0.761   3.083   1.832
 7176SOL    HW222428   0.699   3.064   1.682
 7177SOL     OW22429   0.946   4.949   1.888
 7177SOL    HW122430   0.858   4.971   1.846
 7177SOL    HW222431   0.963   5.011   1.964
 7178SOL     OW22432   6.218   1.035   6.643
 7178SOL    HW122433   6.167   0.967   6.591
 7178SOL    HW222434   6.303   1.057   6.595
 7179SOL     OW22435   1.170   4.115   5.565
 7179SOL    HW122436   1.082   4.155   5.592
 7179SOL    HW222437   1.241   4.144   5.629
 7180SOL     OW22438   6.947   6.949   2.764
 7180SOL    HW122439   6.851   6.938   2.738
 7180SOL    HW222440   6.973   6.875   2.826
 7181SOL     OW22441   5.826   6.115   2.459
 7181SOL    HW122442   5.900   6.051   2.442
 7181SOL    HW222443   5.740   6.076   2.425
 7182SOL     OW22444   4.285   3.433   5.868
 7182SOL    HW122445   4.246   3.466   5.954
 7182SOL    HW222446   4.221   3.370   5.824
 7183SOL     OW22447   1.900   3.470   3.256
 7183SOL    HW122448   1.968   3.422   3.312
 7183SOL    HW222449   1.888   3.563   3.292
 7184SOL     OW22450   2.434   5.499   3.766
 7184SOL    HW122451   2.501   5.551   3.820
 7184SOL    HW222452   2.381   5.562   3.709
 7185SOL     OW22453   4.616   2.473   6.911
 7185SOL    HW122454   4.646   2.383   6.941
 7185SOL    HW222455   4.560   2.515   6.982
 7186SOL     OW22456   0.809   6.290   4.915
 7186SOL    HW122457   0.897   6.332   4.933
 7186SOL    HW222458   0.790   6.219   4.983
 7187SOL     OW22459   1.272   5.689   1.111
 7187SOL    HW122460   1.351   5.750   1.118
 7187SOL    HW222461   1.301   5.600   1.076
 7188SOL     OW22462   5.451   6.890   2.136
 7188SOL    HW122463   5.398   6.828   2.195
 7188SOL    HW222464   5.396   6.914   2.056
 7189SOL     OW22465   6.316   0.875   5.294
 7189SOL    HW122466   6.375   0.905   5.369
 7189SOL    HW222467   6.310   0.775   5.293
 7190SOL     OW22468   4.155   5.158   2.847
 7190SOL    HW122469   4.135   5.060   2.849
 7190SOL    HW222470   4.072   5.209   2.864
 7191SOL     OW22471   0.768   3.092   2.054
 7191SOL    HW122472   0.847   3.065   2.110
 7191SOL    HW222473   0.703   3.016   2.049
 7192SOL     OW22474   3.310   4.307   6.298
 7192SOL    HW122475   3.267   4.224   6.263
 7192SOL    HW222476   3.245   4.384   6.290
 7193SOL     OW22477   5.302   1.785   4.777
 7193SOL    HW122478   5.324   1.882   4.785
 7193SOL    HW222479   5.340   1.749   4.691
 7194SOL     OW22480   3.115   1.276   1.645
 7194SOL    HW122481   3.108   1.376   1.643
 7194SOL    HW222482   3.124   1.245   1.740
 7195SOL     OW22483   0.435   6.844   2.080
 7195SOL    HW122484   0.428   6.825   1.982
 7195SOL    HW222485   0.465   6.761   2.128
 7196SOL     OW22486   3.822   3.339   1.449
 7196SOL    HW122487   3.917   3.360   1.470
 7196SOL    HW222488   3.814   3.320   1.351
 7197SOL     OW22489   1.260   0.782   4.421
 7197SOL    HW122490   1.310   0.738   4.347
 7197SOL    HW222491   1.324   0.818   4.489
 7198SOL     OW22492   0.022   6.582   6.232
 7198SOL    HW122493   7.001   6.577   6.319
 7198SOL    HW222494   0.118   6.558   6.247
 7199SOL     OW22495   6.012   5.904   2.257
 7199SOL    HW122496   5.930   5.847   2.258
 7199SOL    HW222497   6.059   5.894   2.169
 7200SOL     OW22498   1.671   1.971   2.555
 7200SOL    HW122499   1.644   2.067   2.551
 7200SOL    HW222500   1.713   1.944   2.468
 7201SOL     OW22501   2.263   4.845   4.067
 7201SOL    HW122502   2.310   4.929   4.038
 7201SOL    HW222503   2.326   4.787   4.118
 7202SOL     OW22504   2.761   0.008   5.819
 7202SOL    HW122505   2.705   6.963   5.859
 7202SOL    HW222506   2.832   0.035   5.883
 7203SOL     OW22507   5.902   0.310   6.961
 7203SOL    HW122508   5.943   0.225   6.994
 7203SOL    HW222509   5.974   0.378   6.946
 7204SOL     OW22510   6.602   2.338   3.485
 7204SOL    HW122511   6.510   2.330   3.445
 7204SOL    HW222512   6.607   2.280   3.567
 7205SOL     OW22513   1.448   4.358   1.636
 7205SOL    HW122514   1.406   4.427   1.576
 7205SOL    HW222515   1.529   4.397   1.680
 7206SOL     OW22516   6.159   1.444   1.677
 7206SOL    HW122517   6.115   1.439   1.766
 7206SOL    HW222518   6.152   1.537   1.641
 7207SOL     OW22519   4.155   6.790   1.731
 7207SOL    HW122520   4.122   6.697   1.744
 7207SOL    HW222521   4.093   6.840   1.671
 7208SOL     OW22522   2.645   0.645   5.309
 7208SOL    HW122523   2.577   0.679   5.374
 7208SOL    HW222524   2.725   0.705   5.310
 7209SOL     OW22525   2.923   3.764   4.474
 7209SOL    HW122526   2.932   3.796   4.380
 7209SOL    HW222527   2.916   3.843   4.535
 7210SOL     OW22528   4.228   6.941   4.025
 7210SOL    HW122529   4.277   6.862   3.989
 7210SOL    HW222530   4.139   6.949   3.980
 7211SOL     OW22531   0.979   5.110   2.133
 7211SOL    HW122532   0.937   5.064   2.211
 7211SOL    HW222533   1.051   5.171   2.166
 7212SOL     OW22534   5.004   6.416   2.968
 7212SOL    HW122535   5.054   6.400   2.883
 7212SOL    HW222536   5.045   6.492   3.017
 7213SOL     OW22537   5.085   6.391   5.073
 7213SOL    HW122538   5.136   6.433   4.998
 7213SOL    HW222539   5.145   6.380   5.153
 7214SOL     OW22540   1.016   4.818   5.429
 7214SOL    HW122541   1.041   4.749   5.498
 7214SOL    HW222542   1.013   4.908   5.472
 7215SOL     OW22543   1.181   2.955   1.785
 7215SOL    HW122544   1.130   2.953   1.698
 7215SOL    HW222545   1.248   3.029   1.782
 7216SOL     OW22546   3.031   2.085   2.404
 7216SOL    HW122547   2.952   2.100   2.344
 7216SOL    HW222548   3.112   2.071   2.347
 7217SOL     OW22549   0.598   3.587   1.888
 7217SOL    HW122550   0.545   3.667   1.857
 7217SOL    HW222551   0.591   3.579   1.987
 7218SOL     OW22552   6.701   2.461   4.572
 7218SOL    HW122553   6.603   2.463   4.549
 7218SOL    HW222554   6.750   2.527   4.516
 7219SOL     OW22555   3.296   1.230   1.234
 7219SOL    HW122556   3.241   1.166   1.287
 7219SOL    HW222557   3.392   1.205   1.239
 7220SOL     OW22558   6.876   1.858   3.045
 7220SOL    HW122559   6.944   1.897   3.107
 7220SOL    HW222560   6.787   1.900   3.062
 7221SOL     OW22561   6.386   3.775   5.544
 7221SOL    HW122562   6.415   3.861   5.585
 7221SOL    HW222563   6.321   3.728   5.604
 7222SOL     OW22564   6.744   6.992   3.305
 7222SOL    HW122565   6.656   6.948   3.290
 7222SOL    HW222566   6.731   0.044   3.365
 7223SOL     OW22567   4.795   0.896   4.746
 7223SOL    HW122568   4.789   0.869   4.649
 7223SOL    HW222569   4.778   0.816   4.804
 7224SOL     OW22570   5.810   1.637   3.242
 7224SOL    HW122571   5.862   1.616   3.160
 7224SOL    HW222572   5.745   1.563   3.261
 7225SOL     OW22573   2.433   0.445   1.462
 7225SOL    HW122574   2.494   0.505   1.513
 7225SOL    HW222575   2.402   0.492   1.379
 7226SOL     OW22576   6.108   6.317   4.904
 7226SOL    HW122577   6.114   6.239   4.842
 7226SOL    HW222578   6.194   6.367   4.902
 7227SOL     OW22579   0.017   2.437   6.053
 7227SOL    HW122580   0.030   2.383   6.136
 7227SOL    HW222581   6.957   2.483   6.057
 7228SOL     OW22582   2.067   0.818   2.911
 7228SOL    HW122583   2.108   0.902   2.946
 7228SOL    HW222584   2.033   0.833   2.818
 7229SOL     OW22585   0.324   6.893   3.516
 7229SOL    HW122586   0.325   6.971   3.579
 7229SOL    HW222587   0.413   6.848   3.517
 7230SOL     OW22588   6.649   5.385   1.036
 7230SOL    HW122589   6.557   5.386   0.996
 7230SOL    HW222590   6.648   5.334   1.121
 7231SOL     OW22591   5.829   0.891   0.377
 7231SOL    HW122592   5.798   0.890   0.282
 7231SOL    HW222593   5.881   0.975   0.393
 7232SOL     OW22594   3.498   4.029   1.041
 7232SOL    HW122595   3.492   4.117   0.994
 7232SOL    HW222596   3.557   3.968   0.989
 7233SOL     OW22597   1.105   1.815   5.205
 7233SOL    HW122598   1.129   1.814   5.302
 7233SOL    HW222599   1.162   1.750   5.156
 7234SOL     OW22600   4.975   2.018   3.645
 7234SOL    HW122601   4.991   1.920   3.652
 7234SOL    HW222602   4.924   2.038   3.561
 7235SOL     OW22603   5.972   2.614   4.518
 7235SOL    HW122604   6.047   2.613   4.584
 7235SOL    HW222605   5.962   2.523   4.477
 7236SOL     OW22606   1.481   2.009   3.325
 7236SOL    HW122607   1.426   2.090   3.307
 7236SOL    HW222608   1.573   2.021   3.287
 7237SOL     OW22609   5.522   5.234   5.000
 7237SOL    HW122610   5.579   5.159   4.965
 7237SOL    HW222611   5.469   5.202   5.079
 7238SOL     OW22612   1.429   0.184   1.972
 7238SOL    HW122613   1.500   0.253   1.958
 7238SOL    HW222614   1.341   0.219   1.940
 7239SOL     OW22615   4.173   1.750   1.714
 7239SOL    HW122616   4.177   1.777   1.811
 7239SOL    HW222617   4.266   1.746   1.678
 7240SOL     OW22618   2.943   3.818   2.464
 7240SOL    HW122619   2.967   3.830   2.368
 7240SOL    HW222620   2.886   3.737   2.474
 7241SOL     OW22621   4.688   6.690   4.346
 7241SOL    HW122622   4.595   6.692   4.307
 7241SOL    HW222623   4.682   6.675   4.445
 7242SOL     OW22624   6.478   5.922   0.956
 7242SOL    HW122625   6.448   5.831   0.928
 7242SOL    HW222626   6.558   5.915   1.015
 7243SOL     OW22627   0.372   5.581   0.661
 7243SOL    HW122628   0.424   5.663   0.683
 7243SOL    HW222629   0.281   5.587   0.701
 7244SOL     OW22630   5.474   2.144   1.028
 7244SOL    HW122631   5.399   2.104   1.080
 7244SOL    HW222632   5.549   2.078   1.022
 7245SOL     OW22633   5.534   1.640   3.918
 7245SOL    HW122634   5.614   1.605   3.869
 7245SOL    HW222635   5.501   1.723   3.871
 7246SOL     OW22636   1.049   5.869   5.645
 7246SOL    HW122637   1.104   5.812   5.583
 7246SOL    HW222638   0.959   5.828   5.656
 7247SOL     OW22639   4.029   5.665   3.898
 7247SOL    HW122640   4.071   5.622   3.978
 7247SOL    HW222641   4.089   5.653   3.819
 7248SOL     OW22642   2.867   0.807   4.815
 7248SOL    HW122643   2.829   0.844   4.900
 7248SOL    HW222644   2.966   0.792   4.827
 7249SOL     OW22645   4.620   3.238   5.669
 7249SOL    HW122646   4.611   3.177   5.590
 7249SOL    HW222647   4.577   3.326   5.648
 7250SOL     OW22648   2.613   3.408   0.015
 7250SOL    HW122649   2.616   3.448   6.951
 7250SOL    HW222650   2.519   3.381   0.037
 7251SOL     OW22651   6.071   1.337   5.071
 7251SOL    HW122652   6.167   1.321   5.046
 7251SOL    HW222653   6.016   1.258   5.046
 7252SOL     OW22654   4.521   3.421   5.330
 7252SOL    HW122655   4.593   3.472   5.283
 7252SOL    HW222656   4.466   3.484   5.386
 7253SOL     OW22657   4.819   4.746   0.246
 7253SOL    HW122658   4.875   4.828   0.252
 7253SOL    HW222659   4.723   4.770   0.261
 7254SOL     OW22660   5.249   6.658   5.197
 7254SOL    HW122661   5.310   6.713   5.141
 7254SOL    HW222662   5.302   6.591   5.249
 7255SOL     OW22663   3.738   2.871   3.020
 7255SOL    HW122664   3.830   2.908   3.005
 7255SOL    HW222665   3.701   2.838   2.933
 7256SOL     OW22666   3.082   5.505   3.733
 7256SOL    HW122667   3.000   5.476   3.782
 7256SOL    HW222668   3.154   5.529   3.799
 7257SOL     OW22669   6.394   4.984   2.389
 7257SOL    HW122670   6.468   5.049   2.408
 7257SOL    HW222671   6.429   4.891   2.400
 7258SOL     OW22672   2.648   0.447   5.591
 7258SOL    HW122673   2.581   0.449   5.518
 7258SOL    HW222674   2.647   0.356   5.634
 7259SOL     OW22675   3.207   4.059   6.197
 7259SOL    HW122676   3.119   4.063   6.244
 7259SOL    HW222677   3.193   4.048   6.099
 7260SOL     OW22678   4.619   2.657   3.038
 7260SOL    HW122679   4.645   2.713   2.960
 7260SOL    HW222680   4.689   2.587   3.054
 7261SOL     OW22681   2.398   5.104   1.111
 7261SOL    HW122682   2.429   5.009   1.104
 7261SOL    HW222683   2.319   5.118   1.053
 7262SOL     OW22684   6.361   0.526   4.678
 7262SOL    HW122685   6.331   0.514   4.772
 7262SOL    HW222686   6.419   0.448   4.652
 7263SOL     OW22687   5.519   4.967   1.318
 7263SOL    HW122688   5.574   5.018   1.252
 7263SOL    HW222689   5.447   5.025   1.354
 7264SOL     OW22690   0.417   6.459   4.414
 7264SOL    HW122691   0.396   6.377   4.360
 7264SOL    HW222692   0.472   6.521   4.359
 7265SOL     OW22693   4.595   3.484   6.820
 7265SOL    HW122694   4.675   3.529   6.779
 7265SOL    HW222695   4.624   3.434   6.902
 7266SOL     OW22696   4.506   1.431   2.248
 7266SOL    HW122697   4.422   1.378   2.248
 7266SOL    HW222698   4.528   1.458   2.342
 7267SOL     OW22699   5.230   1.776   3.564
 7267SOL    HW122700   5.290   1.696   3.566
 7267SOL    HW222701   5.136   1.749   3.583
 7268SOL     OW22702   4.194   6.844   0.287
 7268SOL    HW122703   4.111   6.801   0.322
 7268SOL    HW222704   4.169   6.921   0.228
 7269SOL     OW22705   1.618   0.378   2.317
 7269SOL    HW122706   1.599   0.468   2.278
 7269SOL    HW222707   1.532   0.328   2.329
 7270SOL     OW22708   3.370   2.170   1.857
 7270SOL    HW122709   3.354   2.267   1.836
 7270SOL    HW222710   3.462   2.159   1.894
 7271SOL     OW22711   5.695   5.452   3.652
 7271SOL    HW122712   5.657   5.504   3.728
 7271SOL    HW222713   5.722   5.516   3.579
 7272SOL     OW22714   5.981   1.911   1.504
 7272SOL    HW122715   5.907   1.914   1.436
 7272SOL    HW222716   5.947   1.946   1.591
 7273SOL     OW22717   5.931   5.418   5.235
 7273SOL    HW122718   5.846   5.456   5.198
 7273SOL    HW222719   5.922   5.318   5.243
 7274SOL     OW22720   5.601   4.959   3.730
 7274SOL    HW122721   5.547   4.934   3.650
 7274SOL    HW222722   5.687   4.908   3.729
 7275SOL     OW22723   6.235   6.821   1.907
 7275SOL    HW122724   6.206   6.885   1.836
 7275SOL    HW222725   6.168   6.822   1.982
 7276SOL     OW22726   4.070   1.690   3.406
 7276SOL    HW122727   4.018   1.773   3.385
 7276SOL    HW222728   4.090   1.641   3.321
 7277SOL     OW22729   6.122   2.185   3.896
 7277SOL    HW122730   6.033   2.140   3.901
 7277SOL    HW222731   6.186   2.127   3.846
 7278SOL     OW22732   3.897   1.525   3.638
 7278SOL    HW122733   3.934   1.547   3.548
 7278SOL    HW222734   3.800   1.550   3.641
 7279SOL     OW22735   3.465   3.624   1.843
 7279SOL    HW122736   3.529   3.695   1.813
 7279SOL    HW222737   3.372   3.659   1.838
 7280SOL     OW22738   6.719   1.577   5.549
 7280SOL    HW122739   6.812   1.614   5.548
 7280SOL    HW222740   6.662   1.632   5.609
 7281SOL     OW22741   3.282   6.575   2.980
 7281SOL    HW122742   3.333   6.653   3.018
 7281SOL    HW222743   3.345   6.515   2.930
 7282SOL     OW22744   0.185   3.732   0.814
 7282SOL    HW122745   0.243   3.651   0.813
 7282SOL    HW222746   0.116   3.722   0.886
 7283SOL     OW22747   3.298   6.191   2.906
 7283SOL    HW122748   3.243   6.238   2.837
 7283SOL    HW222749   3.243   6.121   2.951
 7284SOL     OW22750   0.377   0.151   3.603
 7284SOL    HW122751   0.384   0.229   3.541
 7284SOL    HW222752   0.347   0.182   3.693
 7285SOL     OW22753   5.001   2.946   1.895
 7285SOL    HW122754   4.960   3.030   1.930
 7285SOL    HW222755   4.978   2.870   1.955
 7286SOL     OW22756   6.525   0.928   4.541
 7286SOL    HW122757   6.585   0.962   4.614
 7286SOL    HW222758   6.440   0.980   4.541
 7287SOL     OW22759   2.842   1.765   4.256
 7287SOL    HW122760   2.771   1.701   4.229
 7287SOL    HW222761   2.809   1.859   4.245
 7288SOL     OW22762   3.060   1.889   1.993
 7288SOL    HW122763   3.083   1.987   1.998
 7288SOL    HW222764   2.964   1.878   1.966
 7289SOL     OW22765   6.931   2.255   1.353
 7289SOL    HW122766   6.859   2.306   1.306
 7289SOL    HW222767   6.983   2.316   1.412
 7290SOL     OW22768   3.366   2.010   4.537
 7290SOL    HW122769   3.410   2.084   4.487
 7290SOL    HW222770   3.296   2.048   4.598
 7291SOL     OW22771   1.015   1.114   0.327
 7291SOL    HW122772   0.937   1.086   0.382
 7291SOL    HW222773   1.048   1.203   0.358
 7292SOL     OW22774   4.140   1.004   2.036
 7292SOL    HW122775   4.179   0.921   2.075
 7292SOL    HW222776   4.042   0.992   2.024
 7293SOL     OW22777   6.535   0.995   4.104
 7293SOL    HW122778   6.468   1.000   4.178
 7293SOL    HW222779   6.533   1.079   4.050
 7294SOL     OW22780   3.657   0.405   2.847
 7294SOL    HW122781   3.592   0.336   2.879
 7294SOL    HW222782   3.609   0.490   2.825
 7295SOL     OW22783   5.453   3.893   1.636
 7295SOL    HW122784   5.397   3.971   1.608
 7295SOL    HW222785   5.394   3.824   1.680
 7296SOL     OW22786   3.162   6.769   2.272
 7296SOL    HW122787   3.115   6.705   2.334
 7296SOL    HW222788   3.207   6.840   2.325
 7297SOL     OW22789   4.066   0.113   0.178
 7297SOL    HW122790   4.009   0.126   0.259
 7297SOL    HW222791   4.023   0.046   0.118
 7298SOL     OW22792   4.021   4.590   1.316
 7298SOL    HW122793   3.963   4.671   1.309
 7298SOL    HW222794   4.048   4.576   1.411
 7299SOL     OW22795   0.122   3.201   0.105
 7299SOL    HW122796   0.056   3.261   0.059
 7299SOL    HW222797   0.107   3.107   0.075
 7300SOL     OW22798   0.820   4.066   1.340
 7300SOL    HW122799   0.780   4.156   1.361
 7300SOL    HW222800   0.828   4.013   1.424
 7301SOL     OW22801   4.717   1.699   0.445
 7301SOL    HW122802   4.763   1.788   0.446
 7301SOL    HW222803   4.677   1.683   0.355
 7302SOL     OW22804   5.678   2.018   6.143
 7302SOL    HW122805   5.589   2.035   6.184
 7302SOL    HW222806   5.686   1.921   6.119
 7303SOL     OW22807   3.229   2.017   1.666
 7303SOL    HW122808   3.295   1.961   1.615
 7303SOL    HW222809   3.277   2.070   1.736
 7304SOL     OW22810   2.396   0.016   0.436
 7304SOL    HW122811   2.474   0.051   0.384
 7304SOL    HW222812   2.350   0.092   0.483
 7305SOL     OW22813   6.872   6.609   6.460
 7305SOL    HW122814   6.895   6.706   6.464
 7305SOL    HW222815   6.810   6.593   6.383
 7306SOL     OW22816   1.852   3.753   0.268
 7306SOL    HW122817   1.764   3.764   0.314
 7306SOL    HW222818   1.890   3.664   0.292
 7307SOL     OW22819   3.716   6.363   1.502
 7307SOL    HW122820   3.793   6.360   1.566
 7307SOL    HW222821   3.748   6.391   1.412
 7308SOL     OW22822   3.588   1.825   2.924
 7308SOL    HW122823   3.655   1.893   2.954
 7308SOL    HW222824   3.621   1.780   2.841
 7309SOL     OW22825   2.642   4.617   4.145
 7309SOL    HW122826   2.563   4.653   4.194
 7309SOL    HW222827   2.714   4.686   4.141
 7310SOL     OW22828   3.277   3.354   0.253
 7310SOL    HW122829   3.325   3.366   0.339
 7310SOL    HW222830   3.312   3.272   0.207
 7311SOL     OW22831   1.088   6.645   5.675
 7311SOL    HW122832   1.054   6.564   5.724
 7311SOL    HW222833   1.020   6.674   5.608
 7312SOL     OW22834   6.274   2.243   4.366
 7312SOL    HW122835   6.273   2.146   4.391
 7312SOL    HW222836   6.303   2.253   4.271
 7313SOL     OW22837   3.894   0.978   2.439
 7313SOL    HW122838   3.978   0.963   2.490
 7313SOL    HW222839   3.880   1.076   2.424
 7314SOL     OW22840   2.825   5.724   4.784
 7314SOL    HW122841   2.732   5.744   4.814
 7314SOL    HW222842   2.828   5.636   4.738
 7315SOL     OW22843   2.656   5.456   2.626
 7315SOL    HW122844   2.659   5.416   2.534
 7315SOL    HW222845   2.610   5.545   2.621
 7316SOL     OW22846   3.835   1.035   1.831
 7316SOL    HW122847   3.838   1.049   1.732
 7316SOL    HW222848   3.779   0.956   1.852
 7317SOL     OW22849   6.386   1.852   1.582
 7317SOL    HW122850   6.348   1.937   1.546
 7317SOL    HW222851   6.430   1.800   1.509
 7318SOL     OW22852   5.066   6.284   1.339
 7318SOL    HW122853   5.143   6.222   1.355
 7318SOL    HW222854   5.089   6.375   1.373
 7319SOL     OW22855   4.432   5.600   6.024
 7319SOL    HW122856   4.460   5.642   5.938
 7319SOL    HW222857   4.513   5.569   6.074
 7320SOL     OW22858   1.139   2.728   0.528
 7320SOL    HW122859   1.166   2.824   0.518
 7320SOL    HW222860   1.067   2.707   0.462
 7321SOL     OW22861   2.201   2.553   5.593
 7321SOL    HW122862   2.224   2.597   5.506
 7321SOL    HW222863   2.205   2.621   5.666
 7322SOL     OW22864   2.211   1.900   4.561
 7322SOL    HW122865   2.143   1.967   4.590
 7322SOL    HW222866   2.302   1.942   4.564
 7323SOL     OW22867   2.451   1.807   1.162
 7323SOL    HW122868   2.394   1.811   1.080
 7323SOL    HW222869   2.393   1.795   1.242
 7324SOL     OW22870   4.920   3.696   4.487
 7324SOL    HW122871   4.904   3.638   4.407
 7324SOL    HW222872   4.945   3.640   4.565
 7325SOL     OW22873   3.591   0.875   6.392
 7325SOL    HW122874   3.514   0.930   6.423
 7325SOL    HW222875   3.648   0.930   6.329
 7326SOL     OW22876   3.688   6.380   0.565
 7326SOL    HW122877   3.767   6.324   0.588
 7326SOL    HW222878   3.691   6.405   0.469
 7327SOL     OW22879   1.451   4.275   3.304
 7327SOL    HW122880   1.474   4.282   3.207
 7327SOL    HW222881   1.479   4.186   3.339
 7328SOL     OW22882   4.614   5.280   6.404
 7328SOL    HW122883   4.656   5.213   6.344
 7328SOL    HW222884   4.676   5.299   6.481
 7329SOL     OW22885   2.777   3.702   6.686
 7329SOL    HW122886   2.682   3.690   6.657
 7329SOL    HW222887   2.824   3.764   6.623
 7330SOL     OW22888   2.379   3.615   0.926
 7330SOL    HW122889   2.312   3.574   0.864
 7330SOL    HW222890   2.342   3.700   0.963
 7331SOL     OW22891   5.192   1.333   2.556
 7331SOL    HW122892   5.278   1.293   2.526
 7331SOL    HW222893   5.140   1.365   2.477
 7332SOL     OW22894   2.443   6.807   5.175
 7332SOL    HW122895   2.508   6.733   5.188
 7332SOL    HW222896   2.487   6.894   5.197
 7333SOL     OW22897   6.477   0.835   1.750
 7333SOL    HW122898   6.517   0.791   1.830
 7333SOL    HW222899   6.547   0.886   1.701
 7334SOL     OW22900   0.983   4.797   4.478
 7334SOL    HW122901   0.894   4.835   4.503
 7334SOL    HW222902   1.047   4.809   4.554
 7335SOL     OW22903   0.334   3.096   2.466
 7335SOL    HW122904   0.410   3.097   2.530
 7335SOL    HW222905   0.314   3.189   2.435
 7336SOL     OW22906   2.489   0.417   0.864
 7336SOL    HW122907   2.562   0.374   0.811
 7336SOL    HW222908   2.490   0.381   0.957
 7337SOL     OW22909   3.319   1.783   2.401
 7337SOL    HW122910   3.328   1.850   2.475
 7337SOL    HW222911   3.262   1.821   2.329
 7338SOL     OW22912   5.549   3.349   0.413
 7338SOL    HW122913   5.640   3.333   0.374
 7338SOL    HW222914   5.481   3.347   0.339
 7339SOL     OW22915   6.640   0.221   3.790
 7339SOL    HW122916   6.613   0.316   3.803
 7339SOL    HW222917   6.722   0.202   3.845
 7340SOL     OW22918   2.881   6.632   0.734
 7340SOL    HW122919   2.965   6.598   0.777
 7340SOL    HW222920   2.893   6.632   0.634
 7341SOL     OW22921   6.139   5.583   3.473
 7341SOL    HW122922   6.156   5.647   3.398
 7341SOL    HW222923   6.046   5.547   3.465
 7342SOL     OW22924   0.407   5.504   0.396
 7342SOL    HW122925   0.383   5.412   0.428
 7342SOL    HW222926   0.384   5.570   0.467
 7343SOL     OW22927   0.361   2.658   2.759
 7343SOL    HW122928   0.285   2.636   2.821
 7343SOL    HW222929   0.325   2.678   2.668
 7344SOL     OW22930   1.980   1.226   6.020
 7344SOL    HW122931   2.033   1.284   5.958
 7344SOL    HW222932   2.014   1.132   6.015
 7345SOL     OW22933   1.441   6.742   6.567
 7345SOL    HW122934   1.435   6.691   6.652
 7345SOL    HW222935   1.478   6.684   6.495
 7346SOL     OW22936   3.361   5.409   3.861
 7346SOL    HW122937   3.459   5.404   3.883
 7346SOL    HW222938   3.344   5.362   3.774
 7347SOL     OW22939   5.778   3.295   3.492
 7347SOL    HW122940   5.739   3.204   3.474
 7347SOL    HW222941   5.872   3.297   3.459
 7348SOL     OW22942   5.756   0.596   6.611
 7348SOL    HW122943   5.807   0.609   6.527
 7348SOL    HW222944   5.751   0.498   6.632
 7349SOL     OW22945   3.650   2.092   1.368
 7349SOL    HW122946   3.680   2.135   1.283
 7349SOL    HW222947   3.615   2.162   1.431
 7350SOL     OW22948   1.797   1.154   3.272
 7350SOL    HW122949   1.723   1.170   3.208
 7350SOL    HW222950   1.884   1.180   3.230
 7351SOL     OW22951   5.390   4.849   0.125
 7351SOL    HW122952   5.380   4.759   0.167
 7351SOL    HW222953   5.322   4.860   0.052
 7352SOL     OW22954   6.767   1.439   3.265
 7352SOL    HW122955   6.678   1.413   3.228
 7352SOL    HW222956   6.838   1.419   3.198
 7353SOL     OW22957   5.149   1.740   5.133
 7353SOL    HW122958   5.208   1.763   5.211
 7353SOL    HW222959   5.194   1.671   5.077
 7354SOL     OW22960   5.446   4.023   5.214
 7354SOL    HW122961   5.485   4.110   5.187
 7354SOL    HW222962   5.460   3.956   5.141
 7355SOL     OW22963   6.585   5.829   0.648
 7355SOL    HW122964   6.556   5.816   0.553
 7355SOL    HW222965   6.547   5.756   0.704
 7356SOL     OW22966   6.692   1.942   5.899
 7356SOL    HW122967   6.738   2.029   5.878
 7356SOL    HW222968   6.707   1.919   5.995
 7357SOL     OW22969   0.217   1.672   0.391
 7357SOL    HW122970   0.309   1.635   0.387
 7357SOL    HW222971   0.187   1.678   0.486
 7358SOL     OW22972   3.334   0.899   3.512
 7358SOL    HW122973   3.268   0.969   3.541
 7358SOL    HW222974   3.299   0.808   3.535
 7359SOL     OW22975   2.951   3.819   4.202
 7359SOL    HW122976   3.009   3.898   4.222
 7359SOL    HW222977   2.962   3.793   4.106
 7360SOL     OW22978   1.225   4.254   6.468
 7360SOL    HW122979   1.139   4.244   6.418
 7360SOL    HW222980   1.294   4.294   6.407
 7361SOL     OW22981   4.677   6.877   1.577
 7361SOL    HW122982   4.583   6.844   1.572
 7361SOL    HW222983   4.737   6.819   1.522
 7362SOL     OW22984   1.270   5.651   6.703
 7362SOL    HW122985   1.337   5.719   6.672
 7362SOL    HW222986   1.319   5.573   6.742
 7363SOL     OW22987   4.351   1.949   6.277
 7363SOL    HW122988   4.346   2.013   6.354
 7363SOL    HW222989   4.447   1.931   6.255
 7364SOL     OW22990   5.131   6.951   0.808
 7364SOL    HW122991   5.041   6.982   0.838
 7364SOL    HW222992   5.159   7.004   0.728
 7365SOL     OW22993   4.404   6.796   1.425
 7365SOL    HW122994   4.329   6.748   1.379
 7365SOL    HW222995   4.384   6.802   1.523
 7366SOL     OW22996   2.226   0.252   0.483
 7366SOL    HW122997   2.185   0.343   0.481
 7366SOL    HW222998   2.315   0.256   0.528
 7367SOL     OW22999   4.408   2.974   6.778
 7367SOL    HW123000   4.400   2.989   6.679
 7367SOL    HW223001   4.500   2.943   6.800
 7368SOL     OW23002   2.903   3.320   4.682
 7368SOL    HW123003   2.948   3.395   4.633
 7368SOL    HW223004   2.806   3.318   4.658
 7369SOL     OW23005   6.476   0.551   6.744
 7369SOL    HW123006   6.568   0.565   6.782
 7369SOL    HW223007   6.477   0.471   6.684
 7370SOL     OW23008   0.455   6.180   0.679
 7370SOL    HW123009   0.491   6.236   0.605
 7370SOL    HW223010   0.382   6.122   0.645
 7371SOL     OW23011   1.673   5.199   4.052
 7371SOL    HW123012   1.594   5.144   4.025
 7371SOL    HW223013   1.654   5.243   4.140
 7372SOL     OW23014   2.788   0.317   5.167
 7372SOL    HW123015   2.809   0.219   5.166
 7372SOL    HW223016   2.873   0.369   5.176
 7373SOL     OW23017   3.567   1.188   1.247
 7373SOL    HW123018   3.620   1.257   1.297
 7373SOL    HW223019   3.629   1.120   1.208
 7374SOL     OW23020   2.146   3.782   0.568
 7374SOL    HW123021   2.228   3.757   0.517
 7374SOL    HW223022   2.071   3.721   0.542
 7375SOL     OW23023   2.638   6.041   3.396
 7375SOL    HW123024   2.665   5.967   3.457
 7375SOL    HW223025   2.540   6.060   3.406
 7376SOL     OW23026   3.191   3.988   6.837
 7376SOL    HW123027   3.270   4.012   6.781
 7376SOL    HW223028   3.207   4.017   6.931
 7377SOL     OW23029   6.276   5.951   1.735
 7377SOL    HW123030   6.186   5.991   1.718
 7377SOL    HW223031   6.341   6.024   1.758
 7378SOL     OW23032   0.934   2.125   5.751
 7378SOL    HW123033   0.884   2.095   5.670
 7378SOL    HW223034   1.032   2.109   5.737
 7379SOL     OW23035   4.332   0.191   0.459
 7379SOL    HW123036   4.336   0.122   0.531
 7379SOL    HW223037   4.398   0.264   0.479
 7380SOL     OW23038   6.787   2.802   6.398
 7380SOL    HW123039   6.705   2.828   6.348
 7380SOL    HW223040   6.848   2.881   6.405
 7381SOL     OW23041   5.272   2.256   0.518
 7381SOL    HW123042   5.241   2.263   0.423
 7381SOL    HW223043   5.229   2.329   0.572
 7382SOL     OW23044   1.198   5.241   4.190
 7382SOL    HW123045   1.170   5.224   4.096
 7382SOL    HW223046   1.293   5.274   4.191
 7383SOL     OW23047   1.727   4.367   2.472
 7383SOL    HW123048   1.772   4.444   2.518
 7383SOL    HW223049   1.725   4.288   2.533
 7384SOL     OW23050   6.224   2.051   1.448
 7384SOL    HW123051   6.129   2.020   1.444
 7384SOL    HW223052   6.233   2.122   1.518
 7385SOL     OW23053   5.655   0.388   1.881
 7385SOL    HW123054   5.589   0.422   1.813
 7385SOL    HW223055   5.690   0.465   1.935
 7386SOL     OW23056   6.582   1.728   5.752
 7386SOL    HW123057   6.608   1.806   5.810
 7386SOL    HW223058   6.485   1.709   5.763
 7387SOL     OW23059   4.546   6.401   3.497
 7387SOL    HW123060   4.590   6.491   3.505
 7387SOL    HW223061   4.507   6.376   3.585
 7388SOL     OW23062   4.783   3.937   4.619
 7388SOL    HW123063   4.698   3.886   4.630
 7388SOL    HW223064   4.850   3.880   4.570
 7389SOL     OW23065   1.488   3.044   5.315
 7389SOL    HW123066   1.466   2.949   5.336
 7389SOL    HW223067   1.587   3.058   5.319
 7390SOL     OW23068   4.458   6.698   6.988
 7390SOL    HW123069   4.515   6.700   0.041
 7390SOL    HW223070   4.456   6.789   6.946
 7391SOL     OW23071   0.407   5.209   7.000
 7391SOL    HW123072   0.450   5.261   0.045
 7391SOL    HW223073   0.366   5.273   6.934
 7392SOL     OW23074   1.803   4.639   2.190
 7392SOL    HW123075   1.725   4.694   2.163
 7392SOL    HW223076   1.782   4.591   2.276
 7393SOL     OW23077   1.239   3.890   0.381
 7393SOL    HW123078   1.154   3.855   0.421
 7393SOL    HW223079   1.226   3.904   0.282
 7394SOL     OW23080   2.401   3.289   6.670
 7394SOL    HW123081   2.439   3.200   6.696
 7394SOL    HW223082   2.305   3.278   6.644
 7395SOL     OW23083   2.758   0.651   0.054
 7395SOL    HW123084   2.829   0.717   0.079
 7395SOL    HW223085   2.792   0.591   7.011
 7396SOL     OW23086   6.779   6.615   2.572
 7396SOL    HW123087   6.728   6.581   2.494
 7396SOL    HW223088   6.877   6.616   2.551
 7397SOL     OW23089   6.332   4.295   4.199
 7397SOL    HW123090   6.410   4.263   4.253
 7397SOL    HW223091   6.297   4.221   4.142
 7398SOL     OW23092   4.708   6.297   2.718
 7398SOL    HW123093   4.762   6.214   2.730
 7398SOL    HW223094   4.718   6.355   2.798
 7399SOL     OW23095   5.211   6.031   4.145
 7399SOL    HW123096   5.212   5.967   4.068
 7399SOL    HW223097   5.199   5.980   4.230
 7400SOL     OW23098   2.335   4.242   6.816
 7400SOL    HW123099   2.434   4.253   6.828
 7400SOL    HW223100   2.288   4.276   6.898
 7401SOL     OW23101   6.011   2.965   4.035
 7401SOL    HW123102   5.974   3.053   4.065
 7401SOL    HW223103   6.069   2.927   4.107
 7402SOL     OW23104   2.049   6.241   4.487
 7402SOL    HW123105   2.023   6.329   4.527
 7402SOL    HW223106   2.147   6.238   4.473
 7403SOL     OW23107   2.187   3.195   1.803
 7403SOL    HW123108   2.194   3.292   1.779
 7403SOL    HW223109   2.094   3.163   1.784
 7404SOL     OW23110   1.165   2.950   2.957
 7404SOL    HW123111   1.097   3.008   3.002
 7404SOL    HW223112   1.181   2.984   2.864
 7405SOL     OW23113   3.327   4.705   5.995
 7405SOL    HW123114   3.398   4.759   6.041
 7405SOL    HW223115   3.370   4.638   5.935
 7406SOL     OW23116   0.293   5.997   2.703
 7406SOL    HW123117   0.339   6.086   2.700
 7406SOL    HW223118   0.194   6.011   2.710
 7407SOL     OW23119   3.559   1.351   5.420
 7407SOL    HW123120   3.627   1.304   5.363
 7407SOL    HW223121   3.596   1.363   5.512
 7408SOL     OW23122   1.501   3.515   5.362
 7408SOL    HW123123   1.523   3.575   5.285
 7408SOL    HW223124   1.569   3.442   5.368
 7409SOL     OW23125   2.507   6.865   4.370
 7409SOL    HW123126   2.469   6.865   4.462
 7409SOL    HW223127   2.440   6.825   4.306
 7410SOL     OW23128   5.020   5.675   5.794
 7410SOL    HW123129   4.955   5.671   5.870
 7410SOL    HW223130   5.050   5.769   5.780
 7411SOL     OW23131   5.766   3.789   5.773
 7411SOL    HW123132   5.833   3.728   5.729
 7411SOL    HW223133   5.702   3.824   5.704
 7412SOL     OW23134   1.365   1.108   0.364
 7412SOL    HW123135   1.288   1.065   0.317
 7412SOL    HW223136   1.332   1.162   0.441
 7413SOL     OW23137   6.744   3.650   3.762
 7413SOL    HW123138   6.733   3.551   3.774
 7413SOL    HW223139   6.824   3.668   3.705
 7414SOL     OW23140   0.472   5.344   1.651
 7414SOL    HW123141   0.385   5.364   1.607
 7414SOL    HW223142   0.500   5.250   1.630
 7415SOL     OW23143   3.429   1.453   2.853
 7415SOL    HW123144   3.440   1.529   2.916
 7415SOL    HW223145   3.416   1.489   2.760
 7416SOL     OW23146   6.501   0.039   2.885
 7416SOL    HW123147   6.574   7.009   2.848
 7416SOL    HW223148   6.473   0.105   2.815
 7417SOL     OW23149   0.351   5.071   1.267
 7417SOL    HW123150   0.334   5.044   1.362
 7417SOL    HW223151   0.421   5.012   1.227
 7418SOL     OW23152   1.516   3.929   0.323
 7418SOL    HW123153   1.421   3.901   0.343
 7418SOL    HW223154   1.579   3.872   0.376
 7419SOL     OW23155   6.397   2.323   5.647
 7419SOL    HW123156   6.460   2.258   5.687
 7419SOL    HW223157   6.434   2.357   5.560
 7420SOL     OW23158   0.163   5.669   1.845
 7420SOL    HW123159   0.235   5.703   1.784
 7420SOL    HW223160   0.112   5.597   1.800
 7421SOL     OW23161   3.936   1.787   1.598
 7421SOL    HW123162   3.868   1.816   1.665
 7421SOL    HW223163   4.027   1.792   1.638
 7422SOL     OW23164   0.803   2.032   1.038
 7422SOL    HW123165   0.846   2.121   1.055
 7422SOL    HW223166   0.872   1.960   1.046
 7423SOL     OW23167   2.527   4.090   0.677
 7423SOL    HW123168   2.434   4.057   0.691
 7423SOL    HW223169   2.590   4.035   0.731
 7424SOL     OW23170   5.000   0.935   3.544
 7424SOL    HW123171   4.952   0.857   3.504
 7424SOL    HW223172   4.985   1.016   3.488
 7425SOL     OW23173   3.395   0.180   4.419
 7425SOL    HW123174   3.382   0.106   4.353
 7425SOL    HW223175   3.347   0.261   4.387
 7426SOL     OW23176   0.196   0.604   6.596
 7426SOL    HW123177   0.195   0.699   6.564
 7426SOL    HW223178   0.119   0.589   6.658
 7427SOL     OW23179   5.525   4.880   5.061
 7427SOL    HW123180   5.515   4.801   5.000
 7427SOL    HW223181   5.591   4.944   5.021
 7428SOL     OW23182   4.797   1.039   5.380
 7428SOL    HW123183   4.795   0.964   5.445
 7428SOL    HW223184   4.877   1.029   5.320
 7429SOL     OW23185   6.358   6.308   3.955
 7429SOL    HW123186   6.450   6.272   3.970
 7429SOL    HW223187   6.332   6.365   4.033
 7430SOL     OW23188   0.410   3.996   4.218
 7430SOL    HW123189   0.355   4.046   4.152
 7430SOL    HW223190   0.355   3.973   4.298
 7431SOL     OW23191   0.023   4.086   2.645
 7431SOL    HW123192   0.066   4.049   2.727
 7431SOL    HW223193   0.076   4.059   2.565
 7432SOL     OW23194   1.976   5.949   5.820
 7432SOL    HW123195   1.954   5.902   5.734
 7432SOL    HW223196   1.905   6.016   5.840
 7433SOL     OW23197   0.225   0.020   1.012
 7433SOL    HW123198   0.246   0.079   0.933
 7433SOL    HW223199   0.288   0.041   1.086
 7434SOL     OW23200   4.924   6.640   0.340
 7434SOL    HW123201   5.000   6.700   0.313
 7434SOL    HW223202   4.853   6.643   0.269
 7435SOL     OW23203   1.005   5.267   0.247
 7435SOL    HW123204   0.945   5.277   0.326
 7435SOL    HW223205   1.031   5.358   0.213
 7436SOL     OW23206   4.831   3.614   6.764
 7436SOL    HW123207   4.775   3.642   6.685
 7436SOL    HW223208   4.838   3.690   6.828
 7437SOL     OW23209   0.287   6.436   5.276
 7437SOL    HW123210   0.314   6.531   5.290
 7437SOL    HW223211   0.196   6.434   5.232
 7438SOL     OW23212   5.815   3.774   0.784
 7438SOL    HW123213   5.901   3.805   0.826
 7438SOL    HW223214   5.738   3.805   0.840
 7439SOL     OW23215   1.164   6.572   3.007
 7439SOL    HW123216   1.221   6.617   2.938
 7439SOL    HW223217   1.222   6.529   3.076
 7440SOL     OW23218   0.360   1.342   4.320
 7440SOL    HW123219   0.318   1.406   4.384
 7440SOL    HW223220   0.297   1.322   4.246
 7441SOL     OW23221   6.722   0.170   4.343
 7441SOL    HW123222   6.640   0.214   4.307
 7441SOL    HW223223   6.759   0.107   4.274
 7442SOL     OW23224   1.553   0.988   6.779
 7442SOL    HW123225   1.529   1.039   6.862
 7442SOL    HW223226   1.471   0.946   6.741
 7443SOL     OW23227   6.932   2.186   2.000
 7443SOL    HW123228   7.012   2.246   2.001
 7443SOL    HW223229   6.882   2.195   2.087
 7444SOL     OW23230   1.117   2.563   5.263
 7444SOL    HW123231   1.029   2.607   5.251
 7444SOL    HW223232   1.129   2.536   5.359
 7445SOL     OW23233   5.898   2.830   1.751
 7445SOL    HW123234   5.864   2.771   1.677
 7445SOL    HW223235   5.977   2.881   1.719
 7446SOL     OW23236   5.037   4.171   2.884
 7446SOL    HW123237   5.073   4.135   2.798
 7446SOL    HW223238   5.081   4.258   2.904
 7447SOL     OW23239   0.865   4.041   6.584
 7447SOL    HW123240   0.844   3.996   6.497
 7447SOL    HW223241   0.824   4.131   6.585
 7448SOL     OW23242   0.603   1.315   5.996
 7448SOL    HW123243   0.630   1.411   5.994
 7448SOL    HW223244   0.609   1.277   5.904
 7449SOL     OW23245   3.783   0.195   2.294
 7449SOL    HW123246   3.875   0.193   2.254
 7449SOL    HW223247   3.781   0.138   2.375
 7450SOL     OW23248   3.510   1.943   1.694
 7450SOL    HW123249   3.561   2.027   1.713
 7450SOL    HW223250   3.497   1.934   1.595
 7451SOL     OW23251   1.344   0.583   2.203
 7451SOL    HW123252   1.419   0.647   2.220
 7451SOL    HW223253   1.365   0.527   2.123
 7452SOL     OW23254   1.720   6.114   3.515
 7452SOL    HW123255   1.690   6.184   3.450
 7452SOL    HW223256   1.700   6.145   3.608
 7453SOL     OW23257   6.562   4.632   4.682
 7453SOL    HW123258   6.605   4.666   4.598
 7453SOL    HW223259   6.608   4.548   4.710
 7454SOL     OW23260   1.875   2.706   7.000
 7454SOL    HW123261   1.833   2.795   6.980
 7454SOL    HW223262   1.803   2.642   7.027
 7455SOL     OW23263   4.877   6.971   0.922
 7455SOL    HW123264   4.834   6.885   0.894
 7455SOL    HW223265   4.811   7.026   0.973
 7456SOL     OW23266   1.099   3.996   5.908
 7456SOL    HW123267   1.048   3.935   5.848
 7456SOL    HW223268   1.196   3.973   5.904
 7457SOL     OW23269   0.275   6.152   5.893
 7457SOL    HW123270   0.204   6.222   5.880
 7457SOL    HW223271   0.232   6.067   5.925
 7458SOL     OW23272   3.139   0.446   1.515
 7458SOL    HW123273   3.154   0.348   1.518
 7458SOL    HW223274   3.217   0.493   1.556
 7459SOL     OW23275   3.651   6.041   3.872
 7459SOL    HW123276   3.570   6.045   3.814
 7459SOL    HW223277   3.625   6.061   3.967
 7460SOL     OW23278   0.549   5.449   6.749
 7460SOL    HW123279   0.637   5.447   6.798
 7460SOL    HW223280   0.521   5.544   6.737
 7461SOL     OW23281   4.509   0.813   3.318
 7461SOL    HW123282   4.445   0.736   3.331
 7461SOL    HW223283   4.458   0.899   3.317
 7462SOL     OW23284   2.364   1.731   3.763
 7462SOL    HW123285   2.454   1.692   3.747
 7462SOL    HW223286   2.373   1.827   3.791
 7463SOL     OW23287   3.943   3.939   2.716
 7463SOL    HW123288   3.894   3.875   2.657
 7463SOL    HW223289   4.019   3.979   2.664
 7464SOL     OW23290   4.734   5.755   0.039
 7464SOL    HW123291   4.752   5.817   0.116
 7464SOL    HW223292   4.701   5.807   6.989
 7465SOL     OW23293   3.993   1.612   2.797
 7465SOL    HW123294   3.933   1.565   2.862
 7465SOL    HW223295   4.042   1.545   2.742
 7466SOL     OW23296   6.125   0.306   0.231
 7466SOL    HW123297   6.139   0.301   0.133
 7466SOL    HW223298   6.115   0.402   0.259
 7467SOL     OW23299   4.606   2.233   0.863
 7467SOL    HW123300   4.612   2.222   0.962
 7467SOL    HW223301   4.680   2.183   0.819
 7468SOL     OW23302   5.485   4.207   4.411
 7468SOL    HW123303   5.554   4.141   4.381
 7468SOL    HW223304   5.526   4.271   4.476
 7469SOL     OW23305   5.215   1.864   2.127
 7469SOL    HW123306   5.230   1.949   2.177
 7469SOL    HW223307   5.137   1.874   2.066
 7470SOL     OW23308   0.359   3.242   3.561
 7470SOL    HW123309   0.267   3.204   3.561
 7470SOL    HW223310   0.354   3.341   3.545
 7471SOL     OW23311   6.448   4.558   5.219
 7471SOL    HW123312   6.526   4.603   5.176
 7471SOL    HW223313   6.460   4.560   5.318
 7472SOL     OW23314   4.130   5.307   3.213
 7472SOL    HW123315   4.141   5.229   3.275
 7472SOL    HW223316   4.060   5.285   3.144
 7473SOL     OW23317   1.357   2.510   6.448
 7473SOL    HW123318   1.444   2.552   6.475
 7473SOL    HW223319   1.288   2.581   6.435
 7474SOL     OW23320   2.660   1.389   2.346
 7474SOL    HW123321   2.669   1.482   2.383
 7474SOL    HW223322   2.705   1.325   2.408
 7475SOL     OW23323   5.043   0.482   5.999
 7475SOL    HW123324   4.980   0.546   5.956
 7475SOL    HW223325   5.090   0.429   5.928
 7476SOL     OW23326   2.138   6.894   4.729
 7476SOL    HW123327   2.048   6.851   4.741
 7476SOL    HW223328   2.192   6.840   4.664
 7477SOL     OW23329   5.100   4.355   4.198
 7477SOL    HW123330   5.044   4.273   4.180
 7477SOL    HW223331   5.144   4.345   4.287
 7478SOL     OW23332   0.606   4.851   1.863
 7478SOL    HW123333   0.642   4.788   1.794
 7478SOL    HW223334   0.629   4.945   1.837
 7479SOL     OW23335   3.524   0.450   5.086
 7479SOL    HW123336   3.511   0.375   5.021
 7479SOL    HW223337   3.435   0.479   5.121
 7480SOL     OW23338   6.042   5.280   7.024
 7480SOL    HW123339   6.084   5.198   0.034
 7480SOL    HW223340   5.947   5.260   6.998
 7481SOL     OW23341   6.165   6.251   0.167
 7481SOL    HW123342   6.166   6.177   0.234
 7481SOL    HW223343   6.258   6.271   0.137
 7482SOL     OW23344   4.884   0.014   4.668
 7482SOL    HW123345   4.835   0.059   4.743
 7482SOL    HW223346   4.818   7.014   4.597
 7483SOL     OW23347   3.691   0.113   6.999
 7483SOL    HW123348   3.734   0.097   6.910
 7483SOL    HW223349   3.672   0.210   7.010
 7484SOL     OW23350   3.284   6.726   1.158
 7484SOL    HW123351   3.361   6.663   1.141
 7484SOL    HW223352   3.311   6.793   1.227
 7485SOL     OW23353   0.850   6.462   5.295
 7485SOL    HW123354   0.801   6.471   5.209
 7485SOL    HW223355   0.943   6.497   5.284
 7486SOL     OW23356   1.415   1.942   5.377
 7486SOL    HW123357   1.391   2.033   5.411
 7486SOL    HW223358   1.465   1.952   5.291
 7487SOL     OW23359   3.465   4.992   2.905
 7487SOL    HW123360   3.382   4.962   2.859
 7487SOL    HW223361   3.460   5.091   2.923
 7488SOL     OW23362   4.452   0.921   5.154
 7488SOL    HW123363   4.394   0.946   5.077
 7488SOL    HW223364   4.509   1.000   5.180
 7489SOL     OW23365   0.135   3.589   3.163
 7489SOL    HW123366   0.228   3.580   3.199
 7489SOL    HW223367   0.126   3.533   3.080
 7490SOL     OW23368   5.631   6.777   2.734
 7490SOL    HW123369   5.633   6.868   2.774
 7490SOL    HW223370   5.707   6.723   2.769
 7491SOL     OW23371   0.317   0.407   0.904
 7491SOL    HW123372   0.316   0.366   0.995
 7491SOL    HW223373   0.292   0.338   0.836
 7492SOL     OW23374   2.275   1.681   3.157
 7492SOL    HW123375   2.362   1.729   3.168
 7492SOL    HW223376   2.292   1.588   3.126
 7493SOL     OW23377   5.292   4.490   6.196
 7493SOL    HW123378   5.339   4.552   6.134
 7493SOL    HW223379   5.335   4.400   6.193
 7494SOL     OW23380   5.220   1.752   1.514
 7494SOL    HW123381   5.281   1.830   1.500
 7494SOL    HW223382   5.146   1.778   1.576
 7495SOL     OW23383   1.285   1.822   3.220
 7495SOL    HW123384   1.233   1.796   3.302
 7495SOL    HW223385   1.355   1.888   3.245
 7496SOL     OW23386   0.704   5.525   5.710
 7496SOL    HW123387   0.671   5.445   5.660
 7496SOL    HW223388   0.753   5.495   5.792
 7497SOL     OW23389   1.505   4.698   2.968
 7497SOL    HW123390   1.426   4.673   3.024
 7497SOL    HW223391   1.476   4.764   2.898
 7498SOL     OW23392   5.478   1.869   4.310
 7498SOL    HW123393   5.409   1.915   4.253
 7498SOL    HW223394   5.552   1.835   4.251
 7499SOL     OW23395   3.620   5.272   3.546
 7499SOL    HW123396   3.663   5.275   3.456
 7499SOL    HW223397   3.691   5.255   3.616
 7500SOL     OW23398   4.773   3.847   1.759
 7500SOL    HW123399   4.717   3.911   1.706
 7500SOL    HW223400   4.862   3.888   1.777
 7501SOL     OW23401   0.627   4.484   3.897
 7501SOL    HW123402   0.713   4.496   3.946
 7501SOL    HW223403   0.553   4.529   3.948
 7502SOL     OW23404   1.648   2.154   3.994
 7502SOL    HW123405   1.564   2.207   3.983
 7502SOL    HW223406   1.695   2.182   4.078
 7503SOL     OW23407   2.598   2.171   6.746
 7503SOL    HW123408   2.540   2.112   6.691
 7503SOL    HW223409   2.627   2.250   6.691
 7504SOL     OW23410   4.689   5.744   4.442
 7504SOL    HW123411   4.770   5.753   4.500
 7504SOL    HW223412   4.623   5.815   4.467
 7505SOL     OW23413   1.962   1.414   3.888
 7505SOL    HW123414   1.999   1.418   3.980
 7505SOL    HW223415   2.034   1.436   3.822
 7506SOL     OW23416   3.834   0.631   3.134
 7506SOL    HW123417   3.884   0.584   3.207
 7506SOL    HW223418   3.747   0.665   3.170
 7507SOL     OW23419   1.915   7.012   5.472
 7507SOL    HW123420   1.937   6.973   5.562
 7507SOL    HW223421   1.952   6.952   5.400
 7508SOL     OW23422   5.645   5.964   2.979
 7508SOL    HW123423   5.620   5.915   2.895
 7508SOL    HW223424   5.645   6.062   2.961
 7509SOL     OW23425   3.898   4.245   6.102
 7509SOL    HW123426   3.933   4.328   6.146
 7509SOL    HW223427   3.798   4.248   6.100
 7510SOL     OW23428   3.247   3.407   4.646
 7510SOL    HW123429   3.290   3.493   4.619
 7510SOL    HW223430   3.248   3.344   4.568
 7511SOL     OW23431   1.307   1.344   2.679
 7511SOL    HW123432   1.253   1.388   2.606
 7511SOL    HW223433   1.404   1.346   2.654
 7512SOL     OW23434   2.121   3.205   2.420
 7512SOL    HW123435   2.026   3.196   2.448
 7512SOL    HW223436   2.127   3.221   2.322
 7513SOL     OW23437   1.909   3.228   6.754
 7513SOL    HW123438   1.969   3.167   6.807
 7513SOL    HW223439   1.852   3.173   6.694
 7514SOL     OW23440   3.086   5.519   3.407
 7514SOL    HW123441   3.103   5.468   3.491
 7514SOL    HW223442   3.099   5.617   3.425
 7515SOL     OW23443   0.179   4.674   3.145
 7515SOL    HW123444   0.238   4.695   3.223
 7515SOL    HW223445   0.232   4.623   3.077
 7516SOL     OW23446   1.939   3.145   1.670
 7516SOL    HW123447   1.916   3.063   1.722
 7516SOL    HW223448   1.862   3.169   1.610
 7517SOL     OW23449   1.151   4.821   2.199
 7517SOL    HW123450   1.107   4.855   2.282
 7517SOL    HW223451   1.125   4.726   2.185
 7518SOL     OW23452   4.840   3.845   2.795
 7518SOL    HW123453   4.934   3.812   2.795
 7518SOL    HW223454   4.825   3.902   2.876
 7519SOL     OW23455   2.036   0.136   4.756
 7519SOL    HW123456   2.078   0.046   4.745
 7519SOL    HW223457   1.944   0.134   4.717
 7520SOL     OW23458   2.096   6.934   4.005
 7520SOL    HW123459   2.090   7.011   4.068
 7520SOL    HW223460   2.103   6.968   3.911
 7521SOL     OW23461   4.335   3.056   5.551
 7521SOL    HW123462   4.410   3.087   5.492
 7521SOL    HW223463   4.362   2.972   5.598
 7522SOL     OW23464   1.902   6.697   2.424
 7522SOL    HW123465   1.823   6.757   2.410
 7522SOL    HW223466   1.985   6.744   2.394
 7523SOL     OW23467   6.872   6.437   6.666
 7523SOL    HW123468   6.906   6.365   6.605
 7523SOL    HW223469   6.896   6.526   6.629
 7524SOL     OW23470   6.554   1.278   5.182
 7524SOL    HW123471   6.503   1.246   5.262
 7524SOL    HW223472   6.606   1.360   5.206
 7525SOL     OW23473   0.528   0.752   0.817
 7525SOL    HW123474   0.553   0.691   0.741
 7525SOL    HW223475   0.611   0.781   0.864
 7526SOL     OW23476   3.572   3.368   5.866
 7526SOL    HW123477   3.603   3.274   5.857
 7526SOL    HW223478   3.621   3.412   5.941
 7527SOL     OW23479   3.635   6.376   1.970
 7527SOL    HW123480   3.644   6.436   1.891
 7527SOL    HW223481   3.568   6.304   1.950
 7528SOL     OW23482   5.930   3.361   6.687
 7528SOL    HW123483   5.958   3.313   6.604
 7528SOL    HW223484   5.922   3.295   6.762
 7529SOL     OW23485   1.780   6.914   4.466
 7529SOL    HW123486   1.851   6.944   4.403
 7529SOL    HW223487   1.697   6.891   4.415
 7530SOL     OW23488   0.037   2.636   2.687
 7530SOL    HW123489   7.024   2.724   2.664
 7530SOL    HW223490   0.017   2.614   2.783
 7531SOL     OW23491   2.333   1.798   4.288
 7531SOL    HW123492   2.338   1.896   4.304
 7531SOL    HW223493   2.258   1.778   4.224
 7532SOL     OW23494   4.799   4.587   2.141
 7532SOL    HW123495   4.899   4.584   2.133
 7532SOL    HW223496   4.758   4.548   2.058
 7533SOL     OW23497   3.348   0.819   5.148
 7533SOL    HW123498   3.303   0.737   5.111
 7533SOL    HW223499   3.349   0.890   5.078
 7534SOL     OW23500   4.386   6.835   3.611
 7534SOL    HW123501   4.304   6.892   3.602
 7534SOL    HW223502   4.462   6.890   3.645
 7535SOL     OW23503   3.293   4.885   0.303
 7535SOL    HW123504   3.279   4.944   0.224
 7535SOL    HW223505   3.340   4.801   0.274
 7536SOL     OW23506   4.661   5.591   6.179
 7536SOL    HW123507   4.679   5.501   6.140
 7536SOL    HW223508   4.694   5.594   6.273
 7537SOL     OW23509   2.079   4.677   5.418
 7537SOL    HW123510   2.021   4.755   5.396
 7537SOL    HW223511   2.134   4.652   5.338
 7538SOL     OW23512   3.526   3.930   5.178
 7538SOL    HW123513   3.464   3.977   5.242
 7538SOL    HW223514   3.565   3.849   5.222
 7539SOL     OW23515   0.757   1.910   5.103
 7539SOL    HW123516   0.803   1.910   5.192
 7539SOL    HW223517   0.671   1.960   5.110
 7540SOL     OW23518   2.584   0.838   0.340
 7540SOL    HW123519   2.485   0.844   0.323
 7540SOL    HW223520   2.633   0.886   0.267
 7541SOL     OW23521   6.683   2.254   5.654
 7541SOL    HW123522   6.676   2.175   5.595
 7541SOL    HW223523   6.633   2.237   5.739
 7542SOL     OW23524   1.434   0.320   5.330
 7542SOL    HW123525   1.513   0.263   5.307
 7542SOL    HW223526   1.370   0.322   5.253
 7543SOL     OW23527   2.470   2.740   1.330
 7543SOL    HW123528   2.397   2.769   1.391
 7543SOL    HW223529   2.553   2.793   1.348
 7544SOL     OW23530   1.525   1.880   2.778
 7544SOL    HW123531   1.501   1.783   2.784
 7544SOL    HW223532   1.569   1.898   2.691
 7545SOL     OW23533   3.952   0.480   3.327
 7545SOL    HW123534   4.047   0.504   3.350
 7545SOL    HW223535   3.918   0.412   3.392
 7546SOL     OW23536   5.319   0.407   5.323
 7546SOL    HW123537   5.306   0.332   5.388
 7546SOL    HW223538   5.415   0.409   5.294
 7547SOL     OW23539   2.934   0.337   0.243
 7547SOL    HW123540   2.878   0.303   0.318
 7547SOL    HW223541   2.905   0.294   0.157
 7548SOL     OW23542   2.021   3.360   1.478
 7548SOL    HW123543   2.092   3.379   1.410
 7548SOL    HW223544   1.950   3.304   1.437
 7549SOL     OW23545   5.556   0.498   2.434
 7549SOL    HW123546   5.629   0.548   2.387
 7549SOL    HW223547   5.485   0.472   2.368
 7550SOL     OW23548   0.855   5.583   1.052
 7550SOL    HW123549   0.772   5.527   1.053
 7550SOL    HW223550   0.830   5.680   1.052
 7551SOL     OW23551   5.158   3.588   5.992
 7551SOL    HW123552   5.078   3.573   5.934
 7551SOL    HW223553   5.134   3.572   6.088
 7552SOL     OW23554   3.898   6.123   3.860
 7552SOL    HW123555   3.927   6.123   3.956
 7552SOL    HW223556   3.802   6.099   3.854
 7553SOL     OW23557   4.350   3.989   5.862
 7553SOL    HW123558   4.422   3.967   5.929
 7553SOL    HW223559   4.265   4.009   5.911
 7554SOL     OW23560   0.096   1.555   1.074
 7554SOL    HW123561   0.195   1.570   1.077
 7554SOL    HW223562   0.075   1.462   1.102
 7555SOL     OW23563   1.799   6.153   5.950
 7555SOL    HW123564   1.775   6.074   6.007
 7555SOL    HW223565   1.762   6.236   5.991
 7556SOL     OW23566   6.722   3.829   2.841
 7556SOL    HW123567   6.708   3.918   2.797
 7556SOL    HW223568   6.646   3.768   2.817
 7557SOL     OW23569   4.060   4.069   0.477
 7557SOL    HW123570   4.137   4.106   0.529
 7557SOL    HW223571   4.080   4.076   0.379
 7558SOL     OW23572   1.598   2.868   3.720
 7558SOL    HW123573   1.641   2.880   3.630
 7558SOL    HW223574   1.511   2.917   3.722
 7559SOL     OW23575   0.663   4.218   6.897
 7559SOL    HW123576   0.715   4.246   6.816
 7559SOL    HW223577   0.574   4.262   6.898
 7560SOL     OW23578   4.496   0.507   5.652
 7560SOL    HW123579   4.409   0.547   5.625
 7560SOL    HW223580   4.525   0.441   5.582
 7561SOL     OW23581   0.431   4.101   0.258
 7561SOL    HW123582   0.522   4.115   0.220
 7561SOL    HW223583   0.432   4.119   0.356
 7562SOL     OW23584   4.306   6.183   4.618
 7562SOL    HW123585   4.283   6.141   4.706
 7562SOL    HW223586   4.296   6.116   4.545
 7563SOL     OW23587   2.235   1.165   3.869
 7563SOL    HW123588   2.183   1.187   3.952
 7563SOL    HW223589   2.316   1.112   3.894
 7564SOL     OW23590   5.761   5.678   4.180
 7564SOL    HW123591   5.843   5.643   4.134
 7564SOL    HW223592   5.680   5.652   4.128
 7565SOL     OW23593   4.751   5.354   6.642
 7565SOL    HW123594   4.693   5.435   6.651
 7565SOL    HW223595   4.830   5.376   6.584
 7566SOL     OW23596   1.775   5.736   4.229
 7566SOL    HW123597   1.701   5.709   4.290
 7566SOL    HW223598   1.768   5.834   4.208
 7567SOL     OW23599   2.330   3.154   0.421
 7567SOL    HW123600   2.391   3.092   0.471
 7567SOL    HW223601   2.259   3.187   0.483
 7568SOL     OW23602   3.849   4.938   2.814
 7568SOL    HW123603   3.791   4.982   2.883
 7568SOL    HW223604   3.944   4.943   2.843
 7569SOL     OW23605   3.562   0.004   2.320
 7569SOL    HW123606   3.562   6.966   2.246
 7569SOL    HW223607   3.525   0.091   2.287
 7570SOL     OW23608   5.743   5.032   4.974
 7570SOL    HW123609   5.812   5.101   4.951
 7570SOL    HW223610   5.779   4.971   5.045
 7571SOL     OW23611   6.338   4.101   0.383
 7571SOL    HW123612   6.403   4.103   0.459
 7571SOL    HW223613   6.246   4.120   0.417
 7572SOL     OW23614   6.648   1.708   3.160
 7572SOL    HW123615   6.733   1.719   3.107
 7572SOL    HW223616   6.670   1.687   3.255
 7573SOL     OW23617   3.714   5.341   4.526
 7573SOL    HW123618   3.810   5.313   4.536
 7573SOL    HW223619   3.693   5.350   4.428
 7574SOL     OW23620   4.647   5.769   1.975
 7574SOL    HW123621   4.576   5.807   2.035
 7574SOL    HW223622   4.709   5.842   1.948
 7575SOL     OW23623   4.761   2.938   4.971
 7575SOL    HW123624   4.817   2.901   4.897
 7575SOL    HW223625   4.776   3.037   4.979
 7576SOL     OW23626   7.022   3.637   1.619
 7576SOL    HW123627   7.022   3.542   1.587
 7576SOL    HW223628   7.013   3.699   1.541
 7577SOL     OW23629   4.064   1.305   4.400
 7577SOL    HW123630   4.107   1.292   4.311
 7577SOL    HW223631   3.980   1.250   4.404
 7578SOL     OW23632   2.485   5.745   4.899
 7578SOL    HW123633   2.521   5.753   4.806
 7578SOL    HW223634   2.441   5.656   4.910
 7579SOL     OW23635   4.151   2.153   4.484
 7579SOL    HW123636   4.243   2.160   4.524
 7579SOL    HW223637   4.083   2.161   4.557
 7580SOL     OW23638   2.112   3.257   2.111
 7580SOL    HW123639   2.162   3.341   2.089
 7580SOL    HW223640   2.046   3.238   2.038
 7581SOL     OW23641   5.248   0.857   0.789
 7581SOL    HW123642   5.198   0.783   0.744
 7581SOL    HW223643   5.324   0.886   0.730
 7582SOL     OW23644   3.757   2.645   1.246
 7582SOL    HW123645   3.667   2.605   1.263
 7582SOL    HW223646   3.823   2.606   1.310
 7583SOL     OW23647   6.693   4.479   3.133
 7583SOL    HW123648   6.669   4.509   3.041
 7583SOL    HW223649   6.792   4.464   3.139
 7584SOL     OW23650   2.392   1.853   1.999
 7584SOL    HW123651   2.459   1.900   1.941
 7584SOL    HW223652   2.437   1.818   2.081
 7585SOL     OW23653   2.375   4.620   0.310
 7585SOL    HW123654   2.407   4.715   0.300
 7585SOL    HW223655   2.450   4.558   0.290
 7586SOL     OW23656   1.845   2.178   3.819
 7586SOL    HW123657   1.770   2.170   3.884
 7586SOL    HW223658   1.861   2.274   3.797
 7587SOL     OW23659   2.300   1.067   5.683
 7587SOL    HW123660   2.352   1.042   5.601
 7587SOL    HW223661   2.273   1.163   5.678
 7588SOL     OW23662   0.580   4.420   1.771
 7588SOL    HW123663   0.657   4.444   1.830
 7588SOL    HW223664   0.496   4.418   1.826
 7589SOL     OW23665   4.863   5.701   6.020
 7589SOL    HW123666   4.953   5.707   6.065
 7589SOL    HW223667   4.797   5.663   6.085
 7590SOL     OW23668   1.910   0.690   5.639
 7590SOL    HW123669   1.907   0.765   5.706
 7590SOL    HW223670   1.824   0.640   5.641
 7591SOL     OW23671   6.319   6.135   6.553
 7591SOL    HW123672   6.259   6.152   6.631
 7591SOL    HW223673   6.414   6.129   6.584
 7592SOL     OW23674   4.201   5.196   6.300
 7592SOL    HW123675   4.136   5.258   6.254
 7592SOL    HW223676   4.152   5.118   6.337
 7593SOL     OW23677   6.097   4.221   0.492
 7593SOL    HW123678   6.004   4.184   0.484
 7593SOL    HW223679   6.114   4.249   0.586
 7594SOL     OW23680   1.102   6.820   4.095
 7594SOL    HW123681   1.080   6.723   4.093
 7594SOL    HW223682   1.060   6.862   4.175
 7595SOL     OW23683   6.434   2.915   6.467
 7595SOL    HW123684   6.504   2.958   6.411
 7595SOL    HW223685   6.447   2.940   6.563
 7596SOL     OW23686   5.129   5.984   1.986
 7596SOL    HW123687   5.062   5.910   1.998
 7596SOL    HW223688   5.206   5.950   1.933
 7597SOL     OW23689   2.536   5.511   1.896
 7597SOL    HW123690   2.459   5.450   1.878
 7597SOL    HW223691   2.502   5.599   1.929
 7598SOL     OW23692   6.233   1.006   2.779
 7598SOL    HW123693   6.158   1.041   2.723
 7598SOL    HW223694   6.231   0.906   2.780
 7599SOL     OW23695   5.862   2.952   2.283
 7599SOL    HW123696   5.890   2.874   2.227
 7599SOL    HW223697   5.765   2.944   2.306
 7600SOL     OW23698   2.077   2.658   2.825
 7600SOL    HW123699   2.173   2.642   2.802
 7600SOL    HW223700   2.037   2.575   2.864
 7601SOL     OW23701   1.916   0.515   5.306
 7601SOL    HW123702   1.962   0.477   5.225
 7601SOL    HW223703   1.896   0.441   5.370
 7602SOL     OW23704   2.049   3.077   5.275
 7602SOL    HW123705   2.052   3.056   5.177
 7602SOL    HW223706   2.139   3.108   5.305
 7603SOL     OW23707   6.663   1.404   1.967
 7603SOL    HW123708   6.639   1.329   1.906
 7603SOL    HW223709   6.708   1.368   2.048
 7604SOL     OW23710   5.303   5.229   6.453
 7604SOL    HW123711   5.206   5.209   6.471
 7604SOL    HW223712   5.317   5.237   6.354
 7605SOL     OW23713   5.831   3.602   6.457
 7605SOL    HW123714   5.783   3.643   6.380
 7605SOL    HW223715   5.781   3.522   6.490
 7606SOL     OW23716   5.552   1.396   3.581
 7606SOL    HW123717   5.543   1.365   3.676
 7606SOL    HW223718   5.469   1.444   3.554
 7607SOL     OW23719   5.386   6.834   5.766
 7607SOL    HW123720   5.431   6.917   5.733
 7607SOL    HW223721   5.376   6.839   5.865
 7608SOL     OW23722   3.250   3.526   4.954
 7608SOL    HW123723   3.293   3.568   5.035
 7608SOL    HW223724   3.255   3.589   4.877
 7609SOL     OW23725   0.945   2.756   3.508
 7609SOL    HW123726   0.999   2.761   3.592
 7609SOL    HW223727   0.919   2.849   3.480
 7610SOL     OW23728   5.457   0.415   2.147
 7610SOL    HW123729   5.481   0.373   2.060
 7610SOL    HW223730   5.479   0.513   2.144
 7611SOL     OW23731   2.269   1.711   1.332
 7611SOL    HW123732   2.182   1.760   1.338
 7611SOL    HW223733   2.255   1.625   1.282
 7612SOL     OW23734   4.504   2.131   2.883
 7612SOL    HW123735   4.409   2.108   2.906
 7612SOL    HW223736   4.505   2.192   2.803
 7613SOL     OW23737   5.914   0.497   2.459
 7613SOL    HW123738   5.937   0.478   2.364
 7613SOL    HW223739   5.848   0.572   2.463
 7614SOL     OW23740   4.532   0.935   0.559
 7614SOL    HW123741   4.619   0.979   0.579
 7614SOL    HW223742   4.477   0.993   0.499
 7615SOL     OW23743   3.754   4.719   5.508
 7615SOL    HW123744   3.768   4.626   5.543
 7615SOL    HW223745   3.717   4.714   5.416
 7616SOL     OW23746   0.291   5.150   3.023
 7616SOL    HW123747   0.355   5.152   3.100
 7616SOL    HW223748   0.330   5.199   2.946
 7617SOL     OW23749   3.568   5.851   3.482
 7617SOL    HW123750   3.567   5.770   3.541
 7617SOL    HW223751   3.500   5.840   3.409
 7618SOL     OW23752   2.761   2.094   0.282
 7618SOL    HW123753   2.778   2.019   0.219
 7618SOL    HW223754   2.837   2.101   0.347
 7619SOL     OW23755   5.797   3.069   6.163
 7619SOL    HW123756   5.754   3.061   6.252
 7619SOL    HW223757   5.782   2.985   6.111
 7620SOL     OW23758   3.393   5.824   1.413
 7620SOL    HW123759   3.329   5.786   1.346
 7620SOL    HW223760   3.352   5.822   1.504
 7621SOL     OW23761   2.448   2.410   0.646
 7621SOL    HW123762   2.371   2.374   0.699
 7621SOL    HW223763   2.474   2.345   0.575
 7622SOL     OW23764   4.641   2.279   1.283
 7622SOL    HW123765   4.550   2.301   1.320
 7622SOL    HW223766   4.640   2.186   1.247
 7623SOL     OW23767   6.488   6.447   5.044
 7623SOL    HW123768   6.436   6.443   5.129
 7623SOL    HW223769   6.582   6.417   5.060
 7624SOL     OW23770   7.007   0.401   4.695
 7624SOL    HW123771   0.008   0.378   4.788
 7624SOL    HW223772   6.998   0.317   4.642
 7625SOL     OW23773   3.327   5.591   0.811
 7625SOL    HW123774   3.361   5.497   0.804
 7625SOL    HW223775   3.385   5.643   0.874
 7626SOL     OW23776   2.710   4.271   5.411
 7626SOL    HW123777   2.703   4.354   5.356
 7626SOL    HW223778   2.762   4.291   5.494
 7627SOL     OW23779   6.971   0.977   0.325
 7627SOL    HW123780   6.944   1.072   0.340
 7627SOL    HW223781   6.942   0.948   0.234
 7628SOL     OW23782   4.776   1.850   1.712
 7628SOL    HW123783   4.840   1.805   1.775
 7628SOL    HW223784   4.769   1.947   1.736
 7629SOL     OW23785   6.251   5.871   3.472
 7629SOL    HW123786   6.346   5.848   3.454
 7629SOL    HW223787   6.245   5.947   3.536
 7630SOL     OW23788   6.594   1.666   1.888
 7630SOL    HW123789   6.637   1.719   1.961
 7630SOL    HW223790   6.607   1.569   1.906
 7631SOL     OW23791   1.501   0.930   3.302
 7631SOL    HW123792   1.542   0.888   3.221
 7631SOL    HW223793   1.403   0.909   3.305
 7632SOL     OW23794   4.360   0.517   4.850
 7632SOL    HW123795   4.327   0.608   4.873
 7632SOL    HW223796   4.430   0.490   4.917
 7633SOL     OW23797   6.461   3.901   6.673
 7633SOL    HW123798   6.478   3.921   6.770
 7633SOL    HW223799   6.396   3.826   6.666
 7634SOL     OW23800   1.421   2.601   2.631
 7634SOL    HW123801   1.518   2.604   2.656
 7634SOL    HW223802   1.412   2.560   2.540
 7635SOL     OW23803   2.381   4.842   5.962
 7635SOL    HW123804   2.367   4.756   6.011
 7635SOL    HW223805   2.410   4.913   6.026
 7636SOL     OW23806   0.810   0.677   3.339
 7636SOL    HW123807   0.875   0.693   3.264
 7636SOL    HW223808   0.716   0.682   3.303
 7637SOL     OW23809   2.738   6.619   3.977
 7637SOL    HW123810   2.725   6.703   4.028
 7637SOL    HW223811   2.649   6.576   3.960
 7638SOL     OW23812   4.341   4.344   1.605
 7638SOL    HW123813   4.276   4.282   1.559
 7638SOL    HW223814   4.348   4.318   1.701
 7639SOL     OW23815   0.435   1.677   4.546
 7639SOL    HW123816   0.519   1.675   4.492
 7639SOL    HW223817   0.388   1.764   4.531
 7640SOL     OW23818   2.721   3.121   5.865
 7640SOL    HW123819   2.627   3.128   5.831
 7640SOL    HW223820   2.735   3.187   5.938
 7641SOL     OW23821   5.852   3.068   2.760
 7641SOL    HW123822   5.869   2.979   2.801
 7641SOL    HW223823   5.818   3.131   2.830
 7642SOL     OW23824   1.670   2.092   2.887
 7642SOL    HW123825   1.671   2.102   2.986
 7642SOL    HW223826   1.620   2.009   2.862
 7643SOL     OW23827   5.357   3.883   3.517
 7643SOL    HW123828   5.293   3.861   3.444
 7643SOL    HW223829   5.320   3.851   3.604
 7644SOL     OW23830   6.261   3.164   3.888
 7644SOL    HW123831   6.223   3.074   3.867
 7644SOL    HW223832   6.343   3.153   3.945
 7645SOL     OW23833   3.642   3.166   0.441
 7645SOL    HW123834   3.618   3.116   0.524
 7645SOL    HW223835   3.735   3.140   0.413
 7646SOL     OW23836   0.665   0.165   2.039
 7646SOL    HW123837   0.600   0.135   1.969
 7646SOL    HW223838   0.619   0.172   2.127
 7647SOL     OW23839   1.904   4.888   0.001
 7647SOL    HW123840   1.986   4.830   7.024
 7647SOL    HW223841   1.845   4.856   0.075
 7648SOL     OW23842   2.971   1.034   3.735
 7648SOL    HW123843   3.016   1.065   3.651
 7648SOL    HW223844   3.040   1.010   3.803
 7649SOL     OW23845   2.955   1.664   0.785
 7649SOL    HW123846   3.028   1.600   0.809
 7649SOL    HW223847   2.876   1.613   0.751
 7650SOL     OW23848   6.437   5.000   0.446
 7650SOL    HW123849   6.511   4.936   0.465
 7650SOL    HW223850   6.461   5.058   0.368
 7651SOL     OW23851   5.435   2.034   6.279
 7651SOL    HW123852   5.382   2.113   6.248
 7651SOL    HW223853   5.378   1.952   6.275
 7652SOL     OW23854   1.175   3.391   3.013
 7652SOL    HW123855   1.195   3.465   2.949
 7652SOL    HW223856   1.249   3.385   3.080
 7653SOL     OW23857   4.690   2.661   2.323
 7653SOL    HW123858   4.654   2.624   2.237
 7653SOL    HW223859   4.777   2.706   2.306
 7654SOL     OW23860   5.309   3.703   4.719
 7654SOL    HW123861   5.327   3.765   4.643
 7654SOL    HW223862   5.276   3.756   4.797
 7655SOL     OW23863   4.862   5.082   5.625
 7655SOL    HW123864   4.818   5.037   5.703
 7655SOL    HW223865   4.878   5.179   5.647
 7656SOL     OW23866   0.771   0.522   5.023
 7656SOL    HW123867   0.717   0.547   4.943
 7656SOL    HW223868   0.713   0.479   5.091
 7657SOL     OW23869   4.208   1.745   3.618
 7657SOL    HW123870   4.281   1.676   3.611
 7657SOL    HW223871   4.142   1.730   3.544
 7658SOL     OW23872   4.179   0.364   6.030
 7658SOL    HW123873   4.237   0.371   6.112
 7658SOL    HW223874   4.234   0.327   5.955
 7659SOL     OW23875   5.178   5.979   6.357
 7659SOL    HW123876   5.188   6.046   6.431
 7659SOL    HW223877   5.141   5.894   6.393
 7660SOL     OW23878   5.377   5.375   3.840
 7660SOL    HW123879   5.447   5.308   3.816
 7660SOL    HW223880   5.416   5.467   3.838
 7661SOL     OW23881   6.261   3.965   4.234
 7661SOL    HW123882   6.190   3.896   4.247
 7661SOL    HW223883   6.271   3.985   4.137
 7662SOL     OW23884   6.631   5.555   3.555
 7662SOL    HW123885   6.659   5.521   3.466
 7662SOL    HW223886   6.546   5.511   3.582
 7663SOL     OW23887   0.387   6.776   0.719
 7663SOL    HW123888   0.401   6.707   0.648
 7663SOL    HW223889   0.301   6.757   0.767
 7664SOL     OW23890   3.651   5.689   4.904
 7664SOL    HW123891   3.701   5.748   4.840
 7664SOL    HW223892   3.665   5.721   4.997
 7665SOL     OW23893   2.066   5.681   4.022
 7665SOL    HW123894   2.056   5.692   4.121
 7665SOL    HW223895   2.127   5.604   4.003
 7666SOL     OW23896   2.048   0.138   2.255
 7666SOL    HW123897   2.000   0.095   2.178
 7666SOL    HW223898   1.983   0.196   2.305
 7667SOL     OW23899   5.933   6.746   5.381
 7667SOL    HW123900   5.937   6.846   5.376
 7667SOL    HW223901   5.926   6.718   5.476
 7668SOL     OW23902   2.852   3.718   1.738
 7668SOL    HW123903   2.885   3.693   1.647
 7668SOL    HW223904   2.752   3.718   1.739
 7669SOL     OW23905   4.677   6.661   4.927
 7669SOL    HW123906   4.718   6.723   4.993
 7669SOL    HW223907   4.730   6.576   4.923
 7670SOL     OW23908   1.465   5.809   0.535
 7670SOL    HW123909   1.555   5.772   0.511
 7670SOL    HW223910   1.412   5.739   0.584
 7671SOL     OW23911   5.086   1.932   4.502
 7671SOL    HW123912   5.053   2.013   4.452
 7671SOL    HW223913   5.016   1.861   4.498
 7672SOL     OW23914   6.618   0.315   2.087
 7672SOL    HW123915   6.619   0.340   1.991
 7672SOL    HW223916   6.558   0.236   2.100
 7673SOL     OW23917   0.995   3.520   0.607
 7673SOL    HW123918   1.050   3.520   0.691
 7673SOL    HW223919   1.025   3.444   0.548
 7674SOL     OW23920   6.019   0.914   5.351
 7674SOL    HW123921   6.107   0.879   5.317
 7674SOL    HW223922   6.009   1.010   5.325
 7675SOL     OW23923   4.786   0.528   3.260
 7675SOL    HW123924   4.793   0.460   3.187
 7675SOL    HW223925   4.838   0.496   3.340
 7676SOL     OW23926   1.538   0.389   1.068
 7676SOL    HW123927   1.490   0.315   1.115
 7676SOL    HW223928   1.512   0.476   1.108
 7677SOL     OW23929   2.010   3.054   2.706
 7677SOL    HW123930   2.085   2.997   2.672
 7677SOL    HW223931   2.036   3.150   2.699
 7678SOL     OW23932   5.204   6.517   5.995
 7678SOL    HW123933   5.196   6.432   6.047
 7678SOL    HW223934   5.119   6.533   5.945
 7679SOL     OW23935   1.584   5.332   4.265
 7679SOL    HW123936   1.548   5.424   4.250
 7679SOL    HW223937   1.661   5.337   4.329
 7680SOL     OW23938   4.920   0.601   0.399
 7680SOL    HW123939   4.915   0.667   0.324
 7680SOL    HW223940   4.926   0.651   0.486
 7681SOL     OW23941   3.464   2.136   6.433
 7681SOL    HW123942   3.389   2.195   6.405
 7681SOL    HW223943   3.432   2.041   6.438
 7682SOL     OW23944   3.011   0.197   0.641
 7682SOL    HW123945   3.021   0.294   0.662
 7682SOL    HW223946   3.088   0.146   0.679
 7683SOL     OW23947   6.690   3.224   3.596
 7683SOL    HW123948   6.698   3.283   3.677
 7683SOL    HW223949   6.760   3.153   3.599
 7684SOL     OW23950   3.875   2.152   5.640
 7684SOL    HW123951   3.897   2.214   5.565
 7684SOL    HW223952   3.796   2.096   5.614
 7685SOL     OW23953   3.896   3.973   1.206
 7685SOL    HW123954   3.893   3.901   1.275
 7685SOL    HW223955   3.841   4.051   1.237
 7686SOL     OW23956   2.732   1.003   2.911
 7686SOL    HW123957   2.659   1.029   2.848
 7686SOL    HW223958   2.764   1.085   2.960
 7687SOL     OW23959   4.587   3.867   5.647
 7687SOL    HW123960   4.523   3.941   5.629
 7687SOL    HW223961   4.544   3.799   5.707
 7688SOL     OW23962   6.646   0.944   3.285
 7688SOL    HW123963   6.709   0.978   3.355
 7688SOL    HW223964   6.675   0.853   3.257
 7689SOL     OW23965   3.523   6.446   4.876
 7689SOL    HW123966   3.593   6.512   4.846
 7689SOL    HW223967   3.443   6.453   4.817
 7690SOL     OW23968   0.963   5.412   2.559
 7690SOL    HW123969   1.048   5.448   2.597
 7690SOL    HW223970   0.931   5.471   2.485
 7691SOL     OW23971   6.290   3.829   6.061
 7691SOL    HW123972   6.251   3.773   6.134
 7691SOL    HW223973   6.235   3.913   6.051
 7692SOL     OW23974   1.652   6.520   1.257
 7692SOL    HW123975   1.667   6.608   1.211
 7692SOL    HW223976   1.558   6.515   1.288
 7693SOL     OW23977   5.363   1.526   0.614
 7693SOL    HW123978   5.390   1.430   0.622
 7693SOL    HW223979   5.428   1.573   0.555
 7694SOL     OW23980   5.630   5.337   3.409
 7694SOL    HW123981   5.713   5.305   3.364
 7694SOL    HW223982   5.654   5.383   3.495
 7695SOL     OW23983   4.767   0.414   6.848
 7695SOL    HW123984   4.851   0.377   6.808
 7695SOL    HW223985   4.778   0.424   6.947
 7696SOL     OW23986   1.367   4.130   5.340
 7696SOL    HW123987   1.460   4.139   5.375
 7696SOL    HW223988   1.305   4.102   5.414
 7697SOL     OW23989   4.877   1.518   1.965
 7697SOL    HW123990   4.964   1.498   1.922
 7697SOL    HW223991   4.803   1.498   1.901
 7698SOL     OW23992   6.804   2.608   5.858
 7698SOL    HW123993   6.865   2.681   5.889
 7698SOL    HW223994   6.821   2.588   5.762
 7699SOL     OW23995   3.038   3.684   0.725
 7699SOL    HW123996   3.081   3.609   0.675
 7699SOL    HW223997   3.020   3.656   0.819
 7700SOL     OW23998   5.600   0.013   4.586
 7700SOL    HW123999   5.645   0.094   4.547
 7700SOL    HW224000   5.520   7.018   4.531
 7701SOL     OW24001   6.484   2.393   5.367
 7701SOL    HW124002   6.444   2.457   5.301
 7701SOL    HW224003   6.577   2.372   5.339
 7702SOL     OW24004   1.614   6.471   0.095
 7702SOL    HW124005   1.554   6.536   0.141
 7702SOL    HW224006   1.563   6.423   0.024
 7703SOL     OW24007   0.589   2.325   5.934
 7703SOL    HW124008   0.646   2.245   5.952
 7703SOL    HW224009   0.572   2.374   6.020
 7704SOL     OW24010   2.598   4.003   1.470
 7704SOL    HW124011   2.608   3.983   1.373
 7704SOL    HW224012   2.581   3.917   1.520
 7705SOL     OW24013   4.165   3.427   4.638
 7705SOL    HW124014   4.156   3.329   4.618
 7705SOL    HW224015   4.206   3.439   4.728
 7706SOL     OW24016   6.516   0.615   5.683
 7706SOL    HW124017   6.449   0.648   5.750
 7706SOL    HW224018   6.502   0.663   5.597
 7707SOL     OW24019   6.829   5.927   6.938
 7707SOL    HW124020   6.732   5.948   6.952
 7707SOL    HW224021   6.863   5.877   7.018
 7708SOL     OW24022   5.135   1.235   5.099
 7708SOL    HW124023   5.139   1.322   5.148
 7708SOL    HW224024   5.048   1.227   5.051
 7709SOL     OW24025   3.935   2.389   1.725
 7709SOL    HW124026   3.853   2.382   1.781
 7709SOL    HW224027   3.961   2.486   1.718
 7710SOL     OW24028   3.026   1.936   0.007
 7710SOL    HW124029   3.107   1.973   0.052
 7710SOL    HW224030   2.979   2.009   6.985
 7711SOL     OW24031   4.334   5.882   4.824
 7711SOL    HW124032   4.253   5.938   4.842
 7711SOL    HW224033   4.340   5.810   4.893
 7712SOL     OW24034   5.507   4.238   6.401
 7712SOL    HW124035   5.439   4.189   6.456
 7712SOL    HW224036   5.596   4.194   6.411
 7713SOL     OW24037   0.457   5.648   6.382
 7713SOL    HW124038   0.451   5.745   6.356
 7713SOL    HW224039   0.385   5.596   6.335
 7714SOL     OW24040   5.175   3.862   4.916
 7714SOL    HW124041   5.176   3.933   4.846
 7714SOL    HW224042   5.091   3.868   4.969
 7715SOL     OW24043   3.829   2.013   1.978
 7715SOL    HW124044   3.757   2.079   2.002
 7715SOL    HW224045   3.804   1.967   1.893
 7716SOL     OW24046   4.145   2.283   4.243
 7716SOL    HW124047   4.141   2.226   4.325
 7716SOL    HW224048   4.134   2.379   4.269
 7717SOL     OW24049   3.216   0.036   6.557
 7717SOL    HW124050   3.271   0.061   6.637
 7717SOL    HW224051   3.136   0.095   6.553
 7718SOL     OW24052   2.437   6.373   3.470
 7718SOL    HW124053   2.430   6.440   3.544
 7718SOL    HW224054   2.497   6.408   3.399
 7719SOL     OW24055   5.788   2.652   4.908
 7719SOL    HW124056   5.884   2.642   4.936
 7719SOL    HW224057   5.767   2.585   4.836
 7720SOL     OW24058   5.292   6.142   1.358
 7720SOL    HW124059   5.357   6.218   1.352
 7720SOL    HW224060   5.299   6.098   1.447
 7721SOL     OW24061   0.851   4.524   2.975
 7721SOL    HW124062   0.879   4.431   3.000
 7721SOL    HW224063   0.932   4.580   2.957
 7722SOL     OW24064   0.906   6.079   4.256
 7722SOL    HW124065   0.906   6.056   4.158
 7722SOL    HW224066   0.826   6.135   4.277
 7723SOL     OW24067   6.895   1.998   0.378
 7723SOL    HW124068   6.908   1.919   0.438
 7723SOL    HW224069   6.872   2.078   0.432
 7724SOL     OW24070   2.472   6.408   6.824
 7724SOL    HW124071   2.465   6.332   6.759
 7724SOL    HW224072   2.506   6.489   6.776
 7725SOL     OW24073   4.887   3.542   4.268
 7725SOL    HW124074   4.946   3.583   4.199
 7725SOL    HW224075   4.906   3.444   4.273
 7726SOL     OW24076   5.445   5.354   3.028
 7726SOL    HW124077   5.413   5.347   2.933
 7726SOL    HW224078   5.373   5.321   3.089
 7727SOL     OW24079   5.918   3.208   2.324
 7727SOL    HW124080   5.849   3.277   2.344
 7727SOL    HW224081   5.873   3.122   2.299
 7728SOL     OW24082   2.239   3.021   3.346
 7728SOL    HW124083   2.286   2.965   3.277
 7728SOL    HW224084   2.145   2.987   3.358
 7729SOL     OW24085   5.071   1.887   6.384
 7729SOL    HW124086   5.170   1.871   6.378
 7729SOL    HW224087   5.053   1.985   6.380
 7730SOL     OW24088   4.697   6.898   2.308
 7730SOL    HW124089   4.739   6.824   2.361
 7730SOL    HW224090   4.643   6.858   2.233
 7731SOL     OW24091   6.930   1.546   4.121
 7731SOL    HW124092   6.932   1.645   4.134
 7731SOL    HW224093   6.998   1.520   4.052
 7732SOL     OW24094   4.503   4.770   0.595
 7732SOL    HW124095   4.512   4.855   0.648
 7732SOL    HW224096   4.593   4.745   0.557
 7733SOL     OW24097   3.118   5.923   0.627
 7733SOL    HW124098   3.043   5.939   0.563
 7733SOL    HW224099   3.171   5.843   0.599
 7734SOL     OW24100   1.615   2.959   2.383
 7734SOL    HW124101   1.528   2.911   2.371
 7734SOL    HW224102   1.690   2.895   2.369
 7735SOL     OW24103   5.257   4.388   0.945
 7735SOL    HW124104   5.234   4.392   1.043
 7735SOL    HW224105   5.334   4.449   0.927
 7736SOL     OW24106   5.968   4.508   6.654
 7736SOL    HW124107   5.904   4.554   6.715
 7736SOL    HW224108   5.933   4.511   6.560
 7737SOL     OW24109   4.878   2.662   0.176
 7737SOL    HW124110   4.801   2.713   0.213
 7737SOL    HW224111   4.868   2.654   0.076
 7738SOL     OW24112   1.826   5.016   6.792
 7738SOL    HW124113   1.862   5.007   6.886
 7738SOL    HW224114   1.809   4.925   6.755
 7739SOL     OW24115   5.333   3.724   2.426
 7739SOL    HW124116   5.303   3.817   2.444
 7739SOL    HW224117   5.283   3.687   2.348
 7740SOL     OW24118   6.809   6.405   3.922
 7740SOL    HW124119   6.887   6.350   3.890
 7740SOL    HW224120   6.772   6.458   3.846
 7741SOL     OW24121   2.831   5.386   3.815
 7741SOL    HW124122   2.775   5.464   3.846
 7741SOL    HW224123   2.770   5.314   3.782
 7742SOL     OW24124   6.918   0.196   4.541
 7742SOL    HW124125   6.832   0.185   4.491
 7742SOL    HW224126   6.994   0.196   4.476
 7743SOL     OW24127   4.919   3.104   2.221
 7743SOL    HW124128   4.999   3.058   2.183
 7743SOL    HW224129   4.841   3.091   2.160
 7744SOL     OW24130   0.407   6.375   5.026
 7744SOL    HW124131   0.473   6.448   5.006
 7744SOL    HW224132   0.375   6.384   5.120
 7745SOL     OW24133   5.379   3.103   5.869
 7745SOL    HW124134   5.378   3.045   5.950
 7745SOL    HW224135   5.331   3.057   5.794
 7746SOL     OW24136   2.325   0.607   6.318
 7746SOL    HW124137   2.317   0.543   6.395
 7746SOL    HW224138   2.382   0.684   6.345
 7747SOL     OW24139   4.784   4.767   0.570
 7747SOL    HW124140   4.768   4.729   0.662
 7747SOL    HW224141   4.877   4.805   0.567
 7748SOL     OW24142   2.228   3.901   6.573
 7748SOL    HW124143   2.295   3.947   6.631
 7748SOL    HW224144   2.191   3.821   6.621
 7749SOL     OW24145   6.071   3.071   6.229
 7749SOL    HW124146   5.980   3.065   6.188
 7749SOL    HW224147   6.119   3.151   6.194
 7750SOL     OW24148   4.425   5.160   2.878
 7750SOL    HW124149   4.447   5.095   2.951
 7750SOL    HW224150   4.326   5.170   2.870
 7751SOL     OW24151   0.526   2.673   0.937
 7751SOL    HW124152   0.470   2.645   1.015
 7751SOL    HW224153   0.471   2.669   0.853
 7752SOL     OW24154   3.818   1.481   2.956
 7752SOL    HW124155   3.749   1.410   2.971
 7752SOL    HW224156   3.811   1.551   3.026
 7753SOL     OW24157   3.932   0.693   5.279
 7753SOL    HW124158   3.979   0.771   5.239
 7753SOL    HW224159   3.854   0.667   5.222
 7754SOL     OW24160   4.748   5.193   1.561
 7754SOL    HW124161   4.721   5.246   1.481
 7754SOL    HW224162   4.832   5.231   1.600
 7755SOL     OW24163   0.212   4.712   5.731
 7755SOL    HW124164   0.206   4.620   5.691
 7755SOL    HW224165   0.127   4.734   5.778
 7756SOL     OW24166   2.162   4.052   2.133
 7756SOL    HW124167   2.227   4.096   2.072
 7756SOL    HW224168   2.207   4.026   2.218
 7757SOL     OW24169   0.528   4.439   0.175
 7757SOL    HW124170   0.615   4.393   0.193
 7757SOL    HW224171   0.510   4.439   0.077
 7758SOL     OW24172   0.544   1.230   5.752
 7758SOL    HW124173   0.451   1.260   5.729
 7758SOL    HW224174   0.557   1.136   5.720
 7759SOL     OW24175   3.856   0.845   2.217
 7759SOL    HW124176   3.878   0.882   2.307
 7759SOL    HW224177   3.932   0.789   2.185
 7760SOL     OW24178   4.639   2.773   0.191
 7760SOL    HW124179   4.576   2.756   0.268
 7760SOL    HW224180   4.603   2.848   0.136
 7761SOL     OW24181   5.687   5.398   3.130
 7761SOL    HW124182   5.613   5.384   3.064
 7761SOL    HW224183   5.650   5.390   3.223
 7762SOL     OW24184   4.855   1.926   1.307
 7762SOL    HW124185   4.793   1.881   1.371
 7762SOL    HW224186   4.913   1.990   1.356
 7763SOL     OW24187   1.495   0.356   3.123
 7763SOL    HW124188   1.594   0.350   3.134
 7763SOL    HW224189   1.455   0.391   3.208
 7764SOL     OW24190   3.770   5.234   5.426
 7764SOL    HW124191   3.704   5.301   5.390
 7764SOL    HW224192   3.721   5.154   5.461
 7765SOL     OW24193   5.650   4.013   4.301
 7765SOL    HW124194   5.624   3.920   4.274
 7765SOL    HW224195   5.688   4.012   4.393
 7766SOL     OW24196   6.704   2.262   6.700
 7766SOL    HW124197   6.706   2.172   6.656
 7766SOL    HW224198   6.651   2.326   6.644
 7767SOL     OW24199   4.245   0.131   4.215
 7767SOL    HW124200   4.343   0.147   4.220
 7767SOL    HW224201   4.227   0.049   4.160
 7768SOL     OW24202   3.409   5.699   3.977
 7768SOL    HW124203   3.405   5.615   3.924
 7768SOL    HW224204   3.495   5.703   4.028
 7769SOL     OW24205   3.472   2.643   6.665
 7769SOL    HW124206   3.440   2.730   6.703
 7769SOL    HW224207   3.558   2.658   6.615
 7770SOL     OW24208   0.888   3.584   3.921
 7770SOL    HW124209   0.947   3.535   3.986
 7770SOL    HW224210   0.876   3.679   3.953
 7771SOL     OW24211   1.062   3.921   5.125
 7771SOL    HW124212   1.080   4.007   5.174
 7771SOL    HW224213   1.030   3.852   5.191
 7772SOL     OW24214   5.407   5.590   1.529
 7772SOL    HW124215   5.326   5.592   1.588
 7772SOL    HW224216   5.382   5.556   1.438
 7773SOL     OW24217   2.548   6.859   6.955
 7773SOL    HW124218   2.518   6.779   7.006
 7773SOL    HW224219   2.542   6.940   7.013
 7774SOL     OW24220   5.346   1.504   2.994
 7774SOL    HW124221   5.356   1.407   2.971
 7774SOL    HW224222   5.312   1.513   3.088
 7775SOL     OW24223   3.445   1.514   0.611
 7775SOL    HW124224   3.488   1.489   0.697
 7775SOL    HW224225   3.349   1.537   0.627
 7776SOL     OW24226   3.279   1.294   3.747
 7776SOL    HW124227   3.274   1.393   3.754
 7776SOL    HW224228   3.260   1.265   3.653
 7777SOL     OW24229   5.056   5.158   3.178
 7777SOL    HW124230   5.063   5.069   3.133
 7777SOL    HW224231   5.081   5.149   3.275
 7778SOL     OW24232   1.515   3.834   2.241
 7778SOL    HW124233   1.467   3.749   2.264
 7778SOL    HW224234   1.550   3.827   2.148
 7779SOL     OW24235   3.214   0.589   2.726
 7779SOL    HW124236   3.178   0.680   2.704
 7779SOL    HW224237   3.231   0.539   2.641
 7780SOL     OW24238   6.031   5.615   4.087
 7780SOL    HW124239   6.027   5.687   4.017
 7780SOL    HW224240   6.097   5.545   4.059
 7781SOL     OW24241   2.683   2.490   0.719
 7781SOL    HW124242   2.591   2.458   0.696
 7781SOL    HW224243   2.698   2.580   0.677
 7782SOL     OW24244   5.533   3.769   4.217
 7782SOL    HW124245   5.469   3.696   4.193
 7782SOL    HW224246   5.617   3.758   4.164
 7783SOL     OW24247   1.011   6.166   3.712
 7783SOL    HW124248   0.979   6.209   3.796
 7783SOL    HW224249   1.104   6.131   3.725
 7784SOL     OW24250   1.631   2.622   2.958
 7784SOL    HW124251   1.683   2.607   2.874
 7784SOL    HW224252   1.623   2.721   2.975
 7785SOL     OW24253   6.629   6.556   2.829
 7785SOL    HW124254   6.686   6.581   2.751
 7785SOL    HW224255   6.541   6.604   2.823
 7786SOL     OW24256   5.294   1.095   6.526
 7786SOL    HW124257   5.220   1.152   6.490
 7786SOL    HW224258   5.381   1.139   6.508
 7787SOL     OW24259   0.963   2.757   1.154
 7787SOL    HW124260   1.032   2.822   1.122
 7787SOL    HW224261   0.997   2.664   1.140
 7788SOL     OW24262   0.853   3.702   2.337
 7788SOL    HW124263   0.830   3.701   2.239
 7788SOL    HW224264   0.868   3.797   2.366
 7789SOL     OW24265   3.254   0.126   6.041
 7789SOL    HW124266   3.351   0.120   6.018
 7789SOL    HW224267   3.237   0.078   6.127
 7790SOL     OW24268   4.236   5.169   4.277
 7790SOL    HW124269   4.253   5.191   4.373
 7790SOL    HW224270   4.143   5.135   4.266
 7791SOL     OW24271   2.743   6.227   1.813
 7791SOL    HW124272   2.715   6.220   1.909
 7791SOL    HW224273   2.662   6.241   1.755
 7792SOL     OW24274   1.238   0.958   2.020
 7792SOL    HW124275   1.273   1.000   1.936
 7792SOL    HW224276   1.245   0.859   2.013
 7793SOL     OW24277   5.038   1.806   0.552
 7793SOL    HW124278   4.955   1.861   0.561
 7793SOL    HW224279   5.113   1.864   0.518
 7794SOL     OW24280   1.457   0.938   2.742
 7794SOL    HW124281   1.424   0.863   2.799
 7794SOL    HW224282   1.523   0.993   2.794
 7795SOL     OW24283   4.043   3.857   1.027
 7795SOL    HW124284   4.109   3.810   1.086
 7795SOL    HW224285   3.978   3.907   1.084
 7796SOL     OW24286   4.663   1.445   0.848
 7796SOL    HW124287   4.627   1.355   0.824
 7796SOL    HW224288   4.727   1.475   0.778
 7797SOL     OW24289   1.482   6.316   2.934
 7797SOL    HW124290   1.413   6.284   2.869
 7797SOL    HW224291   1.563   6.346   2.885
 7798SOL     OW24292   1.475   3.249   1.390
 7798SOL    HW124293   1.492   3.162   1.435
 7798SOL    HW224294   1.524   3.252   1.303
 7799SOL     OW24295   2.120   6.554   3.669
 7799SOL    HW124296   2.035   6.607   3.668
 7799SOL    HW224297   2.107   6.472   3.726
 7800SOL     OW24298   1.189   1.035   2.304
 7800SOL    HW124299   1.189   1.007   2.208
 7800SOL    HW224300   1.266   0.991   2.351
 7801SOL     OW24301   1.614   2.352   0.862
 7801SOL    HW124302   1.587   2.262   0.896
 7801SOL    HW224303   1.551   2.421   0.897
 7802SOL     OW24304   6.276   5.330   4.175
 7802SOL    HW124305   6.191   5.302   4.130
 7802SOL    HW224306   6.340   5.364   4.106
 7803SOL     OW24307   3.151   1.759   6.195
 7803SOL    HW124308   3.079   1.816   6.237
 7803SOL    HW224309   3.113   1.670   6.172
 7804SOL     OW24310   2.875   1.336   5.333
 7804SOL    HW124311   2.966   1.365   5.304
 7804SOL    HW224312   2.842   1.396   5.406
 7805SOL     OW24313   5.959   2.752   0.028
 7805SOL    HW124314   6.049   2.767   7.016
 7805SOL    HW224315   5.948   2.656   0.053
 7806SOL     OW24316   6.201   2.132   5.052
 7806SOL    HW124317   6.159   2.132   4.961
 7806SOL    HW224318   6.259   2.052   5.062
 7807SOL     OW24319   1.794   5.283   5.694
 7807SOL    HW124320   1.703   5.321   5.677
 7807SOL    HW224321   1.827   5.313   5.783
 7808SOL     OW24322   0.574   3.028   4.545
 7808SOL    HW124323   0.625   2.943   4.562
 7808SOL    HW224324   0.589   3.091   4.621
 7809SOL     OW24325   4.188   6.885   2.725
 7809SOL    HW124326   4.264   6.938   2.686
 7809SOL    HW224327   4.211   6.788   2.725
 7810SOL     OW24328   1.954   6.584   5.977
 7810SOL    HW124329   2.002   6.526   5.911
 7810SOL    HW224330   1.952   6.539   6.066
 7811SOL     OW24331   1.643   5.771   3.139
 7811SOL    HW124332   1.733   5.728   3.129
 7811SOL    HW224333   1.653   5.859   3.184
 7812SOL     OW24334   3.232   0.843   5.692
 7812SOL    HW124335   3.265   0.749   5.681
 7812SOL    HW224336   3.146   0.842   5.743
 7813SOL     OW24337   5.722   1.173   0.581
 7813SOL    HW124338   5.802   1.231   0.593
 7813SOL    HW224339   5.741   1.081   0.615
 7814SOL     OW24340   6.983   2.624   1.901
 7814SOL    HW124341   0.026   2.646   1.967
 7814SOL    HW224342   6.895   2.659   1.935
 7815SOL     OW24343   4.777   5.371   3.171
 7815SOL    HW124344   4.688   5.398   3.208
 7815SOL    HW224345   4.770   5.362   3.072
 7816SOL     OW24346   1.122   1.289   5.513
 7816SOL    HW124347   1.168   1.369   5.474
 7816SOL    HW224348   1.076   1.315   5.598
 7817SOL     OW24349   4.153   1.194   6.246
 7817SOL    HW124350   4.211   1.238   6.177
 7817SOL    HW224351   4.210   1.162   6.321
 7818SOL     OW24352   5.555   1.275   2.918
 7818SOL    HW124353   5.611   1.357   2.928
 7818SOL    HW224354   5.597   1.214   2.850
 7819SOL     OW24355   2.341   2.687   4.533
 7819SOL    HW124356   2.323   2.779   4.567
 7819SOL    HW224357   2.276   2.665   4.460
 7820SOL     OW24358   1.763   1.298   5.871
 7820SOL    HW124359   1.850   1.265   5.908
 7820SOL    HW224360   1.746   1.391   5.903
 7821SOL     OW24361   3.798   5.647   6.801
 7821SOL    HW124362   3.892   5.663   6.773
 7821SOL    HW224363   3.795   5.576   6.872
 7822SOL     OW24364   0.924   1.470   4.742
 7822SOL    HW124365   0.998   1.490   4.806
 7822SOL    HW224366   0.909   1.549   4.683
 7823SOL     OW24367   2.893   3.172   5.621
 7823SOL    HW124368   2.859   3.156   5.713
 7823SOL    HW224369   2.900   3.270   5.604
 7824SOL     OW24370   5.843   4.230   2.639
 7824SOL    HW124371   5.931   4.262   2.673
 7824SOL    HW224372   5.776   4.305   2.644
 7825SOL     OW24373   3.476   2.889   3.083
 7825SOL    HW124374   3.568   2.867   3.049
 7825SOL    HW224375   3.426   2.941   3.013
 7826SOL     OW24376   6.503   6.887   1.311
 7826SOL    HW124377   6.443   6.806   1.309
 7826SOL    HW224378   6.476   6.946   1.387
 7827SOL     OW24379   5.293   3.938   0.785
 7827SOL    HW124380   5.304   3.973   0.692
 7827SOL    HW224381   5.196   3.939   0.810
 7828SOL     OW24382   1.075   6.532   0.590
 7828SOL    HW124383   1.039   6.586   0.666
 7828SOL    HW224384   1.010   6.460   0.566
 7829SOL     OW24385   3.482   3.830   2.698
 7829SOL    HW124386   3.402   3.791   2.743
 7829SOL    HW224387   3.481   3.929   2.706
 7830SOL     OW24388   6.744   4.440   0.443
 7830SOL    HW124389   6.832   4.487   0.441
 7830SOL    HW224390   6.713   4.433   0.538
 7831SOL     OW24391   2.685   2.324   0.143
 7831SOL    HW124392   2.737   2.409   0.152
 7831SOL    HW224393   2.733   2.250   0.191
 7832SOL     OW24394   3.587   2.579   5.999
 7832SOL    HW124395   3.664   2.604   5.940
 7832SOL    HW224396   3.523   2.522   5.947
 7833SOL     OW24397   6.434   6.627   1.914
 7833SOL    HW124398   6.348   6.677   1.918
 7833SOL    HW224399   6.510   6.689   1.933
 7834SOL     OW24400   5.687   1.176   1.638
 7834SOL    HW124401   5.744   1.255   1.660
 7834SOL    HW224402   5.654   1.134   1.722
 7835SOL     OW24403   2.483   2.021   4.495
 7835SOL    HW124404   2.571   1.988   4.462
 7835SOL    HW224405   2.422   2.036   4.417
 7836SOL     OW24406   2.343   0.871   6.691
 7836SOL    HW124407   2.301   0.781   6.703
 7836SOL    HW224408   2.331   0.925   6.775
 7837SOL     OW24409   5.844   5.972   1.911
 7837SOL    HW124410   5.906   6.045   1.939
 7837SOL    HW224411   5.801   5.995   1.824
 7838SOL     OW24412   3.614   5.614   3.665
 7838SOL    HW124413   3.594   5.527   3.711
 7838SOL    HW224414   3.658   5.677   3.729
 7839SOL     OW24415   6.949   5.211   3.755
 7839SOL    HW124416   6.999   5.160   3.686
 7839SOL    HW224417   6.959   5.309   3.737
 7840SOL     OW24418   4.340   3.084   6.168
 7840SOL    HW124419   4.400   3.013   6.205
 7840SOL    HW224420   4.341   3.079   6.068
 7841SOL     OW24421   1.247   2.316   5.651
 7841SOL    HW124422   1.192   2.363   5.582
 7841SOL    HW224423   1.228   2.355   5.741
 7842SOL     OW24424   2.074   0.927   2.655
 7842SOL    HW124425   1.981   0.929   2.618
 7842SOL    HW224426   2.094   1.014   2.699
 7843SOL     OW24427   0.162   2.319   2.033
 7843SOL    HW124428   0.196   2.247   2.095
 7843SOL    HW224429   0.239   2.373   2.000
 7844SOL     OW24430   3.651   2.088   3.290
 7844SOL    HW124431   3.719   2.144   3.336
 7844SOL    HW224432   3.673   1.991   3.302
 7845SOL     OW24433   0.372   0.495   4.495
 7845SOL    HW124434   0.389   0.544   4.581
 7845SOL    HW224435   0.394   0.398   4.507
 7846SOL     OW24436   4.479   0.586   2.280
 7846SOL    HW124437   4.494   0.547   2.189
 7846SOL    HW224438   4.465   0.513   2.346
 7847SOL     OW24439   0.207   0.061   6.875
 7847SOL    HW124440   0.147   0.133   6.842
 7847SOL    HW224441   0.290   0.101   6.914
 7848SOL     OW24442   4.007   3.768   1.654
 7848SOL    HW124443   4.105   3.787   1.652
 7848SOL    HW224444   3.991   3.678   1.694
 7849SOL     OW24445   5.035   4.283   5.023
 7849SOL    HW124446   5.084   4.249   5.103
 7849SOL    HW224447   5.032   4.211   4.953
 7850SOL     OW24448   1.265   2.648   5.052
 7850SOL    HW124449   1.231   2.734   5.012
 7850SOL    HW224450   1.200   2.617   5.122
 7851SOL     OW24451   3.884   6.834   0.811
 7851SOL    HW124452   3.796   6.823   0.858
 7851SOL    HW224453   3.874   6.901   0.737
 7852SOL     OW24454   2.904   6.967   0.603
 7852SOL    HW124455   2.944   6.957   0.694
 7852SOL    HW224456   2.805   6.975   0.612
 7853SOL     OW24457   1.741   1.740   0.575
 7853SOL    HW124458   1.790   1.787   0.502
 7853SOL    HW224459   1.680   1.671   0.535
 7854SOL     OW24460   4.108   3.437   4.156
 7854SOL    HW124461   4.116   3.519   4.098
 7854SOL    HW224462   4.172   3.443   4.232
 7855SOL     OW24463   2.885   0.228   4.796
 7855SOL    HW124464   2.814   0.188   4.738
 7855SOL    HW224465   2.903   0.168   4.874
 7856SOL     OW24466   3.353   2.787   6.914
 7856SOL    HW124467   3.295   2.781   6.833
 7856SOL    HW224468   3.312   2.849   6.980
 7857SOL     OW24469   0.576   3.209   5.180
 7857SOL    HW124470   0.630   3.147   5.122
 7857SOL    HW224471   0.520   3.156   5.243
 7858SOL     OW24472   5.207   3.190   3.360
 7858SOL    HW124473   5.123   3.195   3.414
 7858SOL    HW224474   5.250   3.280   3.358
 7859SOL     OW24475   0.293   7.020   0.643
 7859SOL    HW124476   0.314   6.925   0.666
 7859SOL    HW224477   0.206   7.023   0.593
 7860SOL     OW24478   4.822   6.421   1.316
 7860SOL    HW124479   4.915   6.386   1.322
 7860SOL    HW224480   4.816   6.488   1.242
 7861SOL     OW24481   6.158   3.550   0.034
 7861SOL    HW124482   6.194   3.489   0.104
 7861SOL    HW224483   6.102   3.621   0.076
 7862SOL     OW24484   2.847   4.815   1.790
 7862SOL    HW124485   2.841   4.729   1.842
 7862SOL    HW224486   2.903   4.801   1.709
 7863SOL     OW24487   4.415   5.915   2.400
 7863SOL    HW124488   4.453   5.862   2.476
 7863SOL    HW224489   4.319   5.936   2.419
 7864SOL     OW24490   1.119   5.711   5.079
 7864SOL    HW124491   1.154   5.633   5.131
 7864SOL    HW224492   1.089   5.782   5.142
 7865SOL     OW24493   4.316   0.912   3.074
 7865SOL    HW124494   4.235   0.966   3.098
 7865SOL    HW224495   4.397   0.970   3.079
 7866SOL     OW24496   2.857   1.560   5.956
 7866SOL    HW124497   2.908   1.570   6.042
 7866SOL    HW224498   2.801   1.477   5.961
 7867SOL     OW24499   6.180   3.533   1.218
 7867SOL    HW124500   6.159   3.502   1.125
 7867SOL    HW224501   6.095   3.542   1.271
 7868SOL     OW24502   4.573   6.841   0.831
 7868SOL    HW124503   4.631   6.812   0.907
 7868SOL    HW224504   4.494   6.892   0.866
 7869SOL     OW24505   6.048   1.820   4.106
 7869SOL    HW124506   5.983   1.749   4.079
 7869SOL    HW224507   6.124   1.822   4.041
 7870SOL     OW24508   6.765   0.414   3.296
 7870SOL    HW124509   6.743   0.482   3.365
 7870SOL    HW224510   6.738   0.323   3.328
 7871SOL     OW24511   5.256   2.973   4.218
 7871SOL    HW124512   5.301   2.987   4.130
 7871SOL    HW224513   5.158   2.956   4.203
 7872SOL     OW24514   6.974   4.217   4.311
 7872SOL    HW124515   6.945   4.137   4.363
 7872SOL    HW224516   6.915   4.295   4.332
 7873SOL     OW24517   0.025   5.529   4.509
 7873SOL    HW124518   0.066   5.597   4.449
 7873SOL    HW224519   6.967   5.497   4.469
 7874SOL     OW24520   5.956   0.059   0.029
 7874SOL    HW124521   5.966   0.030   0.124
 7874SOL    HW224522   5.984   7.013   6.996
 7875SOL     OW24523   5.125   3.347   0.364
 7875SOL    HW124524   5.191   3.401   0.416
 7875SOL    HW224525   5.062   3.302   0.427
 7876SOL     OW24526   0.274   1.850   4.924
 7876SOL    HW124527   0.337   1.779   4.893
 7876SOL    HW224528   0.194   1.852   4.865
 7877SOL     OW24529   5.758   3.728   2.180
 7877SOL    HW124530   5.722   3.675   2.257
 7877SOL    HW224531   5.858   3.730   2.186
 7878SOL     OW24532   3.900   3.794   1.403
 7878SOL    HW124533   3.957   3.773   1.483
 7878SOL    HW224534   3.806   3.764   1.420
 7879SOL     OW24535   0.118   1.280   5.139
 7879SOL    HW124536   0.060   1.265   5.219
 7879SOL    HW224537   0.066   1.258   5.056
 7880SOL     OW24538   1.773   6.044   6.711
 7880SOL    HW124539   1.808   6.064   6.620
 7880SOL    HW224540   1.840   5.990   6.761
 7881SOL     OW24541   0.894   5.280   4.679
 7881SOL    HW124542   0.883   5.367   4.631
 7881SOL    HW224543   0.919   5.297   4.774
 7882SOL     OW24544   1.840   4.644   1.613
 7882SOL    HW124545   1.752   4.662   1.570
 7882SOL    HW224546   1.838   4.676   1.708
 7883SOL     OW24547   3.265   2.066   2.258
 7883SOL    HW124548   3.223   2.105   2.175
 7883SOL    HW224549   3.363   2.084   2.257
 7884SOL     OW24550   1.304   2.617   5.612
 7884SOL    HW124551   1.221   2.605   5.558
 7884SOL    HW224552   1.290   2.691   5.678
 7885SOL     OW24553   6.175   5.622   2.296
 7885SOL    HW124554   6.184   5.699   2.360
 7885SOL    HW224555   6.083   5.584   2.303
 7886SOL     OW24556   4.195   4.742   2.702
 7886SOL    HW124557   4.266   4.801   2.663
 7886SOL    HW224558   4.109   4.756   2.652
 7887SOL     OW24559   0.928   3.299   0.817
 7887SOL    HW124560   0.858   3.229   0.830
 7887SOL    HW224561   0.901   3.383   0.863
 7888SOL     OW24562   6.839   1.890   5.359
 7888SOL    HW124563   6.870   1.808   5.407
 7888SOL    HW224564   6.917   1.932   5.313
 7889SOL     OW24565   5.307   5.324   0.170
 7889SOL    HW124566   5.243   5.256   0.205
 7889SOL    HW224567   5.272   5.416   0.188
 7890SOL     OW24568   2.139   2.925   2.320
 7890SOL    HW124569   2.170   3.017   2.344
 7890SOL    HW224570   2.068   2.896   2.384
 7891SOL     OW24571   6.270   1.679   4.441
 7891SOL    HW124572   6.264   1.637   4.531
 7891SOL    HW224573   6.329   1.625   4.382
 7892SOL     OW24574   1.127   2.046   4.299
 7892SOL    HW124575   1.163   2.137   4.319
 7892SOL    HW224576   1.027   2.049   4.298
 7893SOL     OW24577   5.949   6.163   1.365
 7893SOL    HW124578   5.986   6.208   1.446
 7893SOL    HW224579   6.005   6.185   1.285
 7894SOL     OW24580   3.344   0.580   6.583
 7894SOL    HW124581   3.248   0.607   6.576
 7894SOL    HW224582   3.350   0.492   6.631
 7895SOL     OW24583   5.551   6.633   3.378
 7895SOL    HW124584   5.562   6.566   3.304
 7895SOL    HW224585   5.461   6.675   3.371
 7896SOL     OW24586   2.505   1.938   0.495
 7896SOL    HW124587   2.464   1.975   0.412
 7896SOL    HW224588   2.538   1.846   0.478
 7897SOL     OW24589   4.586   1.526   1.548
 7897SOL    HW124590   4.495   1.489   1.565
 7897SOL    HW224591   4.623   1.485   1.464
 7898SOL     OW24592   4.735   6.445   2.968
 7898SOL    HW124593   4.668   6.372   2.980
 7898SOL    HW224594   4.827   6.407   2.967
 7899SOL     OW24595   6.122   4.769   2.813
 7899SOL    HW124596   6.125   4.697   2.883
 7899SOL    HW224597   6.029   4.806   2.807
 7900SOL     OW24598   0.337   3.503   0.847
 7900SOL    HW124599   0.293   3.415   0.831
 7900SOL    HW224600   0.420   3.510   0.791
 7901SOL     OW24601   0.394   2.538   0.033
 7901SOL    HW124602   0.326   2.475   0.072
 7901SOL    HW224603   0.462   2.485   7.011
 7902SOL     OW24604   1.802   0.358   0.993
 7902SOL    HW124605   1.808   0.350   0.893
 7902SOL    HW224606   1.707   0.371   1.020
 7903SOL     OW24607   3.119   1.700   5.409
 7903SOL    HW124608   3.157   1.633   5.473
 7903SOL    HW224609   3.161   1.789   5.426
 7904SOL     OW24610   5.431   3.154   2.726
 7904SOL    HW124611   5.407   3.064   2.692
 7904SOL    HW224612   5.357   3.218   2.705
 7905SOL     OW24613   6.364   1.817   1.860
 7905SOL    HW124614   6.349   1.835   1.763
 7905SOL    HW224615   6.438   1.751   1.871
 7906SOL     OW24616   0.388   5.900   6.289
 7906SOL    HW124617   0.469   5.938   6.244
 7906SOL    HW224618   0.348   5.829   6.231
 7907SOL     OW24619   5.869   6.287   3.695
 7907SOL    HW124620   5.846   6.279   3.792
 7907SOL    HW224621   5.793   6.331   3.646
 7908SOL     OW24622   1.821   0.269   5.966
 7908SOL    HW124623   1.777   0.231   5.884
 7908SOL    HW224624   1.917   0.243   5.967
 7909SOL     OW24625   6.806   3.228   1.252
 7909SOL    HW124626   6.855   3.256   1.335
 7909SOL    HW224627   6.870   3.186   1.188
 7910SOL     OW24628   1.542   4.476   5.136
 7910SOL    HW124629   1.557   4.392   5.189
 7910SOL    HW224630   1.513   4.452   5.043
 7911SOL     OW24631   6.202   4.027   5.822
 7911SOL    HW124632   6.110   4.020   5.861
 7911SOL    HW224633   6.231   4.123   5.820
 7912SOL     OW24634   5.866   5.923   1.209
 7912SOL    HW124635   5.814   5.852   1.257
 7912SOL    HW224636   5.876   6.003   1.268
 7913SOL     OW24637   1.334   4.942   6.159
 7913SOL    HW124638   1.363   5.019   6.216
 7913SOL    HW224639   1.395   4.864   6.176
 7914SOL     OW24640   0.991   0.080   4.753
 7914SOL    HW124641   0.974   0.166   4.705
 7914SOL    HW224642   0.947   0.005   4.704
 7915SOL     OW24643   2.793   5.182   2.008
 7915SOL    HW124644   2.711   5.206   2.060
 7915SOL    HW224645   2.768   5.126   1.929
 7916SOL     OW24646   1.036   0.570   4.057
 7916SOL    HW124647   0.986   0.592   4.140
 7916SOL    HW224648   1.133   0.557   4.078
 7917SOL     OW24649   5.061   2.332   2.881
 7917SOL    HW124650   5.099   2.300   2.794
 7917SOL    HW224651   4.980   2.387   2.863
 7918SOL     OW24652   1.703   2.610   2.686
 7918SOL    HW124653   1.757   2.694   2.689
 7918SOL    HW224654   1.753   2.541   2.633
 7919SOL     OW24655   0.898   6.826   5.039
 7919SOL    HW124656   0.996   6.807   5.032
 7919SOL    HW224657   0.880   6.881   5.120
 7920SOL     OW24658   5.199   6.692   0.806
 7920SOL    HW124659   5.182   6.791   0.814
 7920SOL    HW224660   5.131   6.652   0.745
 7921SOL     OW24661   5.205   3.392   0.664
 7921SOL    HW124662   5.224   3.476   0.714
 7921SOL    HW224663   5.164   3.325   0.725
 7922SOL     OW24664   1.916   0.124   3.013
 7922SOL    HW124665   1.940   0.194   3.080
 7922SOL    HW224666   2.000   0.085   2.974
 7923SOL     OW24667   4.996   0.340   0.839
 7923SOL    HW124668   4.931   0.408   0.873
 7923SOL    HW224669   5.080   0.345   0.893
 7924SOL     OW24670   5.749   5.663   0.321
 7924SOL    HW124671   5.827   5.664   0.384
 7924SOL    HW224672   5.721   5.756   0.301
 7925SOL     OW24673   1.509   4.415   6.047
 7925SOL    HW124674   1.502   4.382   6.141
 7925SOL    HW224675   1.602   4.445   6.029
 7926SOL     OW24676   4.778   5.824   5.584
 7926SOL    HW124677   4.753   5.830   5.680
 7926SOL    HW224678   4.858   5.765   5.574
 7927SOL     OW24679   4.255   0.343   3.401
 7927SOL    HW124680   4.239   0.245   3.400
 7927SOL    HW224681   4.352   0.361   3.420
 7928SOL     OW24682   5.637   1.813   4.114
 7928SOL    HW124683   5.635   1.908   4.082
 7928SOL    HW224684   5.612   1.752   4.039
 7929SOL     OW24685   4.931   4.081   5.941
 7929SOL    HW124686   4.962   4.053   5.850
 7929SOL    HW224687   4.990   4.154   5.976
 7930SOL     OW24688   4.490   5.681   0.280
 7930SOL    HW124689   4.552   5.604   0.299
 7930SOL    HW224690   4.407   5.646   0.237
 7931SOL     OW24691   5.067   1.154   0.530
 7931SOL    HW124692   4.985   1.208   0.511
 7931SOL    HW224693   5.145   1.193   0.481
 7932SOL     OW24694   1.232   3.597   1.085
 7932SOL    HW124695   1.184   3.513   1.108
 7932SOL    HW224696   1.257   3.645   1.170
 7933SOL     OW24697   1.246   1.835   0.463
 7933SOL    HW124698   1.254   1.845   0.562
 7933SOL    HW224699   1.303   1.903   0.418
 7934SOL     OW24700   6.900   5.425   1.040
 7934SOL    HW124701   6.902   5.436   0.941
 7934SOL    HW224702   6.806   5.406   1.070
 7935SOL     OW24703   6.464   2.902   2.860
 7935SOL    HW124704   6.427   2.959   2.786
 7935SOL    HW224705   6.464   2.806   2.831
 7936SOL     OW24706   2.352   6.087   3.383
 7936SOL    HW124707   2.325   5.993   3.360
 7936SOL    HW224708   2.348   6.143   3.300
 7937SOL     OW24709   4.414   1.203   0.792
 7937SOL    HW124710   4.425   1.193   0.693
 7937SOL    HW224711   4.326   1.246   0.812
 7938SOL     OW24712   2.220   0.064   3.318
 7938SOL    HW124713   2.289   7.027   3.351
 7938SOL    HW224714   2.153   0.015   3.262
 7939SOL     OW24715   1.693   0.515   2.540
 7939SOL    HW124716   1.615   0.512   2.603
 7939SOL    HW224717   1.670   0.468   2.455
 7940SOL     OW24718   6.242   1.858   5.179
 7940SOL    HW124719   6.165   1.898   5.228
 7940SOL    HW224720   6.292   1.796   5.241
 7941SOL     OW24721   3.196   6.847   0.555
 7941SOL    HW124722   3.127   6.800   0.500
 7941SOL    HW224723   3.258   6.780   0.596
 7942SOL     OW24724   1.104   4.088   1.290
 7942SOL    HW124725   1.014   4.116   1.321
 7942SOL    HW224726   1.162   4.067   1.369
 7943SOL     OW24727   1.795   5.798   6.806
 7943SOL    HW124728   1.785   5.765   6.712
 7943SOL    HW224729   1.706   5.797   6.852
 7944SOL     OW24730   1.085   1.955   1.069
 7944SOL    HW124731   1.144   1.876   1.058
 7944SOL    HW224732   1.093   2.015   0.990
 7945SOL     OW24733   6.013   3.649   3.008
 7945SOL    HW124734   5.994   3.747   3.014
 7945SOL    HW224735   6.100   3.629   3.051
 7946SOL     OW24736   4.366   1.266   6.090
 7946SOL    HW124737   4.407   1.214   6.015
 7946SOL    HW224738   4.370   1.364   6.070
 7947SOL     OW24739   0.312   3.528   6.490
 7947SOL    HW124740   0.300   3.571   6.579
 7947SOL    HW224741   0.232   3.471   6.469
 7948SOL     OW24742   1.170   5.851   0.856
 7948SOL    HW124743   1.101   5.918   0.884
 7948SOL    HW224744   1.160   5.768   0.912
 7949SOL     OW24745   2.929   5.586   5.628
 7949SOL    HW124746   2.943   5.524   5.705
 7949SOL    HW224747   2.965   5.544   5.545
 7950SOL     OW24748   6.584   3.715   5.382
 7950SOL    HW124749   6.638   3.631   5.370
 7950SOL    HW224750   6.521   3.702   5.459
 7951SOL     OW24751   3.944   7.001   2.661
 7951SOL    HW124752   3.955   0.060   2.614
 7951SOL    HW224753   4.034   6.963   2.682
 7952SOL     OW24754   6.895   2.894   5.282
 7952SOL    HW124755   6.843   2.858   5.359
 7952SOL    HW224756   6.847   2.872   5.197
 7953SOL     OW24757   1.947   0.209   0.504
 7953SOL    HW124758   1.885   0.197   0.426
 7953SOL    HW224759   2.038   0.234   0.471
 7954SOL     OW24760   3.583   3.324   6.956
 7954SOL    HW124761   3.521   3.287   6.887
 7954SOL    HW224762   3.530   3.375   7.023
 7955SOL     OW24763   0.006   0.969   6.879
 7955SOL    HW124764   0.013   0.936   6.785
 7955SOL    HW224765   0.092   0.951   6.927
 7956SOL     OW24766   0.109   0.326   0.392
 7956SOL    HW124767   0.145   0.405   0.342
 7956SOL    HW224768   0.100   0.349   0.489
 7957SOL     OW24769   5.541   1.192   5.889
 7957SOL    HW124770   5.443   1.213   5.884
 7957SOL    HW224771   5.555   1.094   5.875
 7958SOL     OW24772   4.727   2.240   6.976
 7958SOL    HW124773   4.786   2.191   6.911
 7958SOL    HW224774   4.743   2.205   0.040
 7959SOL     OW24775   4.576   3.047   0.055
 7959SOL    HW124776   4.591   3.008   6.993
 7959SOL    HW224777   4.664   3.074   0.095
 7960SOL     OW24778   0.882   1.657   5.024
 7960SOL    HW124779   0.783   1.663   5.010
 7960SOL    HW224780   0.913   1.736   5.076
 7961SOL     OW24781   5.911   0.915   6.906
 7961SOL    HW124782   5.978   0.990   6.901
 7961SOL    HW224783   5.934   0.856   6.983
 7962SOL     OW24784   5.816   6.796   4.624
 7962SOL    HW124785   5.863   6.836   4.703
 7962SOL    HW224786   5.780   6.869   4.566
 7963SOL     OW24787   5.778   6.205   2.948
 7963SOL    HW124788   5.766   6.208   2.848
 7963SOL    HW224789   5.874   6.224   2.969
 7964SOL     OW24790   6.517   3.777   1.734
 7964SOL    HW124791   6.500   3.864   1.689
 7964SOL    HW224792   6.503   3.703   1.668
 7965SOL     OW24793   4.802   1.486   6.358
 7965SOL    HW124794   4.711   1.511   6.323
 7965SOL    HW224795   4.801   1.490   6.458
 7966SOL     OW24796   5.896   3.354   4.960
 7966SOL    HW124797   5.878   3.451   4.976
 7966SOL    HW224798   5.908   3.307   5.047
 7967SOL     OW24799   1.806   4.324   1.235
 7967SOL    HW124800   1.781   4.411   1.193
 7967SOL    HW224801   1.728   4.289   1.287
 7968SOL     OW24802   2.224   2.949   4.014
 7968SOL    HW124803   2.267   2.934   4.103
 7968SOL    HW224804   2.155   3.021   4.022
 7969SOL     OW24805   3.362   4.544   6.494
 7969SOL    HW124806   3.361   4.451   6.457
 7969SOL    HW224807   3.422   4.601   6.439
 7970SOL     OW24808   6.162   2.915   3.781
 7970SOL    HW124809   6.143   2.904   3.879
 7970SOL    HW224810   6.223   2.842   3.750
 7971SOL     OW24811   3.506   0.742   6.896
 7971SOL    HW124812   3.515   0.761   6.994
 7971SOL    HW224813   3.458   0.655   6.883
 7972SOL     OW24814   3.880   3.459   4.581
 7972SOL    HW124815   3.894   3.447   4.679
 7972SOL    HW224816   3.962   3.499   4.541
 7973SOL     OW24817   0.370   4.803   2.000
 7973SOL    HW124818   0.434   4.797   1.923
 7973SOL    HW224819   0.294   4.740   1.985
 7974SOL     OW24820   0.622   3.166   4.787
 7974SOL    HW124821   0.578   3.241   4.838
 7974SOL    HW224822   0.700   3.201   4.736
 7975SOL     OW24823   4.001   6.737   6.898
 7975SOL    HW124824   3.912   6.768   6.864
 7975SOL    HW224825   4.014   6.641   6.876
 7976SOL     OW24826   0.960   0.507   0.300
 7976SOL    HW124827   0.881   0.456   0.267
 7976SOL    HW224828   0.955   0.516   0.400
 7977SOL     OW24829   4.768   5.202   2.545
 7977SOL    HW124830   4.841   5.166   2.603
 7977SOL    HW224831   4.785   5.300   2.528
 7978SOL     OW24832   0.053   4.064   1.319
 7978SOL    HW124833   0.103   4.131   1.265
 7978SOL    HW224834   7.014   4.110   1.376
 7979SOL     OW24835   2.812   2.208   5.684
 7979SOL    HW124836   2.715   2.213   5.704
 7979SOL    HW224837   2.826   2.210   5.585
 7980SOL     OW24838   3.646   5.432   2.260
 7980SOL    HW124839   3.699   5.378   2.325
 7980SOL    HW224840   3.578   5.373   2.216
 7981SOL     OW24841   1.513   3.568   4.658
 7981SOL    HW124842   1.513   3.598   4.563
 7981SOL    HW224843   1.476   3.641   4.716
 7982SOL     OW24844   6.718   0.666   0.378
 7982SOL    HW124845   6.713   0.760   0.412
 7982SOL    HW224846   6.635   0.645   0.326
 7983SOL     OW24847   3.448   1.055   1.746
 7983SOL    HW124848   3.399   1.099   1.671
 7983SOL    HW224849   3.393   1.061   1.830
 7984SOL     OW24850   6.099   2.693   3.133
 7984SOL    HW124851   6.177   2.747   3.100
 7984SOL    HW224852   6.023   2.754   3.154
 7985SOL     OW24853   3.484   3.810   5.537
 7985SOL    HW124854   3.566   3.820   5.592
 7985SOL    HW224855   3.415   3.759   5.588
 7986SOL     OW24856   3.231   0.571   3.844
 7986SOL    HW124857   3.284   0.638   3.896
 7986SOL    HW224858   3.146   0.613   3.811
 7987SOL     OW24859   1.298   2.938   6.375
 7987SOL    HW124860   1.359   2.926   6.297
 7987SOL    HW224861   1.212   2.978   6.344
 7988SOL     OW24862   6.492   0.692   1.300
 7988SOL    HW124863   6.505   0.594   1.286
 7988SOL    HW224864   6.434   0.729   1.227
 7989SOL     OW24865   0.297   4.685   1.564
 7989SOL    HW124866   0.292   4.615   1.635
 7989SOL    HW224867   0.271   4.645   1.476
 7990SOL     OW24868   3.784   5.283   4.973
 7990SOL    HW124869   3.813   5.332   5.055
 7990SOL    HW224870   3.857   5.287   4.904
 7991SOL     OW24871   5.022   0.725   4.533
 7991SOL    HW124872   4.987   0.812   4.499
 7991SOL    HW224873   5.071   0.678   4.459
 7992SOL     OW24874   1.973   0.866   7.011
 7992SOL    HW124875   1.912   0.943   6.995
 7992SOL    HW224876   1.933   0.783   6.972
 7993SOL     OW24877   6.368   6.425   0.542
 7993SOL    HW124878   6.364   6.507   0.599
 7993SOL    HW224879   6.463   6.403   0.520
 7994SOL     OW24880   0.426   1.176   4.837
 7994SOL    HW124881   0.368   1.121   4.777
 7994SOL    HW224882   0.464   1.253   4.786
 7995SOL     OW24883   0.845   5.857   1.469
 7995SOL    HW124884   0.909   5.825   1.539
 7995SOL    HW224885   0.752   5.835   1.497
 7996SOL     OW24886   2.192   6.846   3.587
 7996SOL    HW124887   2.262   6.867   3.656
 7996SOL    HW224888   2.203   6.752   3.557
 7997SOL     OW24889   2.723   1.315   5.795
 7997SOL    HW124890   2.774   1.314   5.881
 7997SOL    HW224891   2.626   1.300   5.814
 7998SOL     OW24892   1.645   1.047   1.339
 7998SOL    HW124893   1.721   0.999   1.380
 7998SOL    HW224894   1.677   1.101   1.261
 7999SOL     OW24895   0.244   0.880   2.912
 7999SOL    HW124896   0.284   0.948   2.851
 7999SOL    HW224897   0.155   0.851   2.877
 8000SOL     OW24898   4.139   5.549   0.529
 8000SOL    HW124899   4.160   5.628   0.471
 8000SOL    HW224900   4.221   5.493   0.539
 8001SOL     OW24901   5.581   4.431   2.276
 8001SOL    HW124902   5.627   4.518   2.294
 8001SOL    HW224903   5.515   4.443   2.202
 8002SOL     OW24904   1.091   0.490   4.737
 8002SOL    HW124905   1.152   0.541   4.675
 8002SOL    HW224906   1.145   0.425   4.790
 8003SOL     OW24907   2.549   5.683   3.273
 8003SOL    HW124908   2.619   5.703   3.341
 8003SOL    HW224909   2.566   5.592   3.234
 8004SOL     OW24910   1.905   3.490   4.041
 8004SOL    HW124911   1.989   3.520   3.997
 8004SOL    HW224912   1.915   3.497   4.140
 8005SOL     OW24913   2.958   0.147   4.457
 8005SOL    HW124914   3.000   0.151   4.366
 8005SOL    HW224915   2.880   0.086   4.456
 8006SOL     OW24916   4.715   5.363   6.045
 8006SOL    HW124917   4.669   5.275   6.049
 8006SOL    HW224918   4.702   5.404   5.955
 8007SOL     OW24919   0.135   0.544   1.379
 8007SOL    HW124920   0.035   0.535   1.381
 8007SOL    HW224921   0.160   0.627   1.329
 8008SOL     OW24922   5.271   4.964   0.616
 8008SOL    HW124923   5.320   5.051   0.625
 8008SOL    HW224924   5.322   4.892   0.663
 8009SOL     OW24925   6.778   1.201   1.587
 8009SOL    HW124926   6.751   1.110   1.619
 8009SOL    HW224927   6.878   1.209   1.591
 8010SOL     OW24928   2.935   0.218   6.216
 8010SOL    HW124929   2.951   0.139   6.156
 8010SOL    HW224930   3.022   0.245   6.258
 8011SOL     OW24931   3.828   1.994   2.618
 8011SOL    HW124932   3.767   2.000   2.538
 8011SOL    HW224933   3.895   2.068   2.615
 8012SOL     OW24934   6.333   0.527   4.948
 8012SOL    HW124935   6.239   0.538   4.917
 8012SOL    HW224936   6.335   0.468   5.028
 8013SOL     OW24937   3.603   0.413   3.135
 8013SOL    HW124938   3.678   0.354   3.162
 8013SOL    HW224939   3.629   0.466   3.055
 8014SOL     OW24940   2.321   2.827   3.776
 8014SOL    HW124941   2.299   2.889   3.851
 8014SOL    HW224942   2.348   2.738   3.813
 8015SOL     OW24943   3.362   6.365   4.658
 8015SOL    HW124944   3.265   6.340   4.647
 8015SOL    HW224945   3.395   6.408   4.574
 8016SOL     OW24946   3.251   2.732   5.646
 8016SOL    HW124947   3.328   2.763   5.591
 8016SOL    HW224948   3.190   2.676   5.589
 8017SOL     OW24949   5.941   6.587   1.485
 8017SOL    HW124950   5.890   6.544   1.409
 8017SOL    HW224951   5.882   6.652   1.532
 8018SOL     OW24952   2.736   3.465   0.964
 8018SOL    HW124953   2.740   3.454   0.865
 8018SOL    HW224954   2.662   3.409   1.001
 8019SOL     OW24955   2.581   3.679   0.735
 8019SOL    HW124956   2.650   3.747   0.761
 8019SOL    HW224957   2.507   3.679   0.803
 8020SOL     OW24958   0.139   0.395   0.014
 8020SOL    HW124959   0.119   0.492   0.004
 8020SOL    HW224960   0.226   0.383   0.061
 8021SOL     OW24961   1.018   3.129   0.601
 8021SOL    HW124962   1.012   3.052   0.663
 8021SOL    HW224963   0.972   3.209   0.642
 8022SOL     OW24964   4.516   0.309   2.296
 8022SOL    HW124965   4.599   0.349   2.257
 8022SOL    HW224966   4.540   0.229   2.351
 8023SOL     OW24967   4.125   5.113   2.141
 8023SOL    HW124968   4.113   5.015   2.128
 8023SOL    HW224969   4.035   5.156   2.149
 8024SOL     OW24970   2.330   0.755   6.030
 8024SOL    HW124971   2.328   0.707   6.117
 8024SOL    HW224972   2.417   0.803   6.020
 8025SOL     OW24973   1.120   6.855   1.283
 8025SOL    HW124974   1.163   6.940   1.250
 8025SOL    HW224975   1.168   6.776   1.245
 8026SOL     OW24976   0.490   0.123   6.104
 8026SOL    HW124977   0.435   0.158   6.180
 8026SOL    HW224978   0.587   0.143   6.121
 8027SOL     OW24979   4.705   0.126   6.485
 8027SOL    HW124980   4.733   0.043   6.437
 8027SOL    HW224981   4.607   0.142   6.470
 8028SOL     OW24982   3.873   5.922   6.622
 8028SOL    HW124983   3.851   5.933   6.525
 8028SOL    HW224984   3.915   5.832   6.636
 8029SOL     OW24985   0.791   0.168   1.491
 8029SOL    HW124986   0.887   0.159   1.520
 8029SOL    HW224987   0.737   0.095   1.532
 8030SOL     OW24988   0.499   3.945   1.260
 8030SOL    HW124989   0.422   3.882   1.265
 8030SOL    HW224990   0.584   3.894   1.274
 8031SOL     OW24991   6.735   0.730   3.161
 8031SOL    HW124992   6.830   0.721   3.128
 8031SOL    HW224993   6.679   0.660   3.118
 8032SOL     OW24994   0.170   3.078   0.928
 8032SOL    HW124995   0.244   3.011   0.935
 8032SOL    HW224996   0.178   3.129   0.842
 8033SOL     OW24997   3.709   4.701   1.219
 8033SOL    HW124998   3.616   4.680   1.187
 8033SOL    HW224999   3.774   4.640   1.173
 8034SOL     OW25000   0.908   1.083   5.515
 8034SOL    HW125001   0.901   1.100   5.613
 8034SOL    HW225002   0.962   1.155   5.472
 8035SOL     OW25003   5.631   0.581   4.376
 8035SOL    HW125004   5.697   0.583   4.450
 8035SOL    HW225005   5.670   0.624   4.295
 8036SOL     OW25006   4.832   4.187   3.716
 8036SOL    HW125007   4.908   4.131   3.683
 8036SOL    HW225008   4.801   4.153   3.805
 8037SOL     OW25009   2.755   1.603   6.350
 8037SOL    HW125010   2.709   1.557   6.426
 8037SOL    HW225011   2.854   1.593   6.361
 8038SOL     OW25012   6.895   5.699   1.729
 8038SOL    HW125013   6.965   5.766   1.706
 8038SOL    HW225014   6.924   5.608   1.700
 8039SOL     OW25015   1.924   2.526   5.006
 8039SOL    HW125016   2.019   2.499   5.023
 8039SOL    HW225017   1.879   2.546   5.093
 8040SOL     OW25018   0.615   6.540   5.995
 8040SOL    HW125019   0.599   6.536   5.896
 8040SOL    HW225020   0.532   6.515   6.044
 8041SOL     OW25021   3.126   1.545   2.843
 8041SOL    HW125022   3.224   1.529   2.840
 8041SOL    HW225023   3.100   1.573   2.936
 8042SOL     OW25024   4.105   4.077   6.001
 8042SOL    HW125025   4.029   4.134   6.032
 8042SOL    HW225026   4.085   3.981   6.021
 8043SOL     OW25027   5.159   4.834   7.007
 8043SOL    HW125028   5.075   4.838   0.033
 8043SOL    HW225029   5.161   4.911   6.943
 8044SOL     OW25030   0.942   2.830   1.618
 8044SOL    HW125031   0.942   2.836   1.519
 8044SOL    HW225032   0.860   2.875   1.654
 8045SOL     OW25033   6.158   3.440   4.908
 8045SOL    HW125034   6.072   3.389   4.915
 8045SOL    HW225035   6.188   3.467   4.999
 8046SOL     OW25036   0.293   4.459   0.720
 8046SOL    HW125037   0.356   4.505   0.783
 8046SOL    HW225038   0.245   4.386   0.769
 8047SOL     OW25039   3.138   6.367   6.886
 8047SOL    HW125040   3.136   6.452   6.939
 8047SOL    HW225041   3.142   6.389   6.789
 8048SOL     OW25042   4.288   1.866   6.589
 8048SOL    HW125043   4.276   1.956   6.549
 8048SOL    HW225044   4.278   1.872   6.689
 8049SOL     OW25045   1.846   1.429   1.285
 8049SOL    HW125046   1.855   1.379   1.371
 8049SOL    HW225047   1.854   1.527   1.302
 8050SOL     OW25048   0.202   5.485   5.901
 8050SOL    HW125049   0.244   5.565   5.858
 8050SOL    HW225050   0.106   5.480   5.874
 8051SOL     OW25051   4.433   6.360   2.581
 8051SOL    HW125052   4.506   6.313   2.631
 8051SOL    HW225053   4.357   6.296   2.566
 8052SOL     OW25054   2.864   1.174   3.086
 8052SOL    HW125055   2.880   1.219   2.999
 8052SOL    HW225056   2.851   1.243   3.158
 8053SOL     OW25057   0.886   2.409   6.351
 8053SOL    HW125058   0.934   2.356   6.281
 8053SOL    HW225059   0.815   2.352   6.393
 8054SOL     OW25060   5.189   3.779   5.276
 8054SOL    HW125061   5.250   3.802   5.352
 8054SOL    HW225062   5.220   3.694   5.233
 8055SOL     OW25063   6.623   0.197   6.820
 8055SOL    HW125064   6.684   0.234   6.891
 8055SOL    HW225065   6.673   0.192   6.733
 8056SOL     OW25066   2.636   2.548   3.610
 8056SOL    HW125067   2.659   2.564   3.705
 8056SOL    HW225068   2.592   2.458   3.601
 8057SOL     OW25069   3.168   2.132   2.033
 8057SOL    HW125070   3.230   2.143   1.955
 8057SOL    HW225071   3.095   2.201   2.026
 8058SOL     OW25072   4.110   6.377   1.444
 8058SOL    HW125073   4.118   6.408   1.539
 8058SOL    HW225074   4.131   6.279   1.439
 8059SOL     OW25075   4.066   3.076   5.674
 8059SOL    HW125076   4.015   3.043   5.754
 8059SOL    HW225077   4.160   3.043   5.679
 8060SOL     OW25078   0.331   1.377   5.674
 8060SOL    HW125079   0.254   1.440   5.692
 8060SOL    HW225080   0.336   1.358   5.576
 8061SOL     OW25081   6.858   0.742   1.551
 8061SOL    HW125082   6.876   0.679   1.475
 8061SOL    HW225083   6.944   0.784   1.580
 8062SOL     OW25084   3.799   5.003   6.066
 8062SOL    HW125085   3.709   5.029   6.031
 8062SOL    HW225086   3.795   4.909   6.101
 8063SOL     OW25087   2.466   4.888   3.242
 8063SOL    HW125088   2.553   4.853   3.208
 8063SOL    HW225089   2.435   4.964   3.185
 8064SOL     OW25090   6.890   3.058   0.850
 8064SOL    HW125091   6.937   3.132   0.898
 8064SOL    HW225092   6.922   2.970   0.885
 8065SOL     OW25093   4.771   0.026   6.837
 8065SOL    HW125094   4.685   0.051   6.883
 8065SOL    HW225095   4.840   0.095   6.857
 8066SOL     OW25096   6.836   0.857   5.866
 8066SOL    HW125097   6.883   0.945   5.873
 8066SOL    HW225098   6.900   0.784   5.889
 8067SOL     OW25099   4.758   0.980   4.311
 8067SOL    HW125100   4.832   1.017   4.367
 8067SOL    HW225101   4.759   1.023   4.221
 8068SOL     OW25102   6.551   4.733   1.611
 8068SOL    HW125103   6.530   4.777   1.523
 8068SOL    HW225104   6.473   4.742   1.672
 8069SOL     OW25105   1.501   2.435   2.184
 8069SOL    HW125106   1.485   2.463   2.090
 8069SOL    HW225107   1.478   2.338   2.194
 8070SOL     OW25108   5.049   3.910   1.761
 8070SOL    HW125109   5.082   3.883   1.670
 8070SOL    HW225110   5.098   3.857   1.831
 8071SOL     OW25111   2.603   0.570   6.074
 8071SOL    HW125112   2.628   0.601   5.983
 8071SOL    HW225113   2.529   0.502   6.067
 8072SOL     OW25114   2.406   2.020   5.694
 8072SOL    HW125115   2.486   2.061   5.737
 8072SOL    HW225116   2.322   2.058   5.733
 8073SOL     OW25117   5.528   0.252   6.377
 8073SOL    HW125118   5.495   0.256   6.471
 8073SOL    HW225119   5.608   0.192   6.372
 8074SOL     OW25120   6.650   0.982   0.734
 8074SOL    HW125121   6.588   0.973   0.812
 8074SOL    HW225122   6.744   0.962   0.764
 8075SOL     OW25123   0.643   0.759   1.201
 8075SOL    HW125124   0.616   0.669   1.236
 8075SOL    HW225125   0.730   0.786   1.243
 8076SOL     OW25126   6.324   6.011   0.731
 8076SOL    HW125127   6.391   6.009   0.805
 8076SOL    HW225128   6.361   5.962   0.651
 8077SOL     OW25129   5.871   4.203   1.154
 8077SOL    HW125130   5.907   4.113   1.129
 8077SOL    HW225131   5.883   4.217   1.252
 8078SOL     OW25132   6.363   1.378   1.970
 8078SOL    HW125133   6.325   1.470   1.980
 8078SOL    HW225134   6.460   1.379   1.994
 8079SOL     OW25135   0.240   0.909   6.980
 8079SOL    HW125136   0.298   0.885   0.030
 8079SOL    HW225137   0.293   0.961   6.914
 8080SOL     OW25138   0.857   4.036   3.851
 8080SOL    HW125139   0.896   4.118   3.891
 8080SOL    HW225140   0.801   4.060   3.772
 8081SOL     OW25141   6.124   1.020   5.723
 8081SOL    HW125142   6.137   1.080   5.644
 8081SOL    HW225143   6.044   0.962   5.708
 8082SOL     OW25144   4.633   2.771   4.681
 8082SOL    HW125145   4.631   2.818   4.770
 8082SOL    HW225146   4.711   2.710   4.677
 8083SOL     OW25147   6.421   3.049   4.089
 8083SOL    HW125148   6.364   3.092   4.159
 8083SOL    HW225149   6.514   3.085   4.095
 8084SOL     OW25150   5.364   1.925   0.039
 8084SOL    HW125151   5.302   1.903   6.992
 8084SOL    HW225152   5.397   2.019   0.028
 8085SOL     OW25153   1.599   6.196   4.353
 8085SOL    HW125154   1.590   6.295   4.354
 8085SOL    HW225155   1.510   6.154   4.334
 8086SOL     OW25156   0.420   2.597   2.296
 8086SOL    HW125157   0.517   2.613   2.317
 8086SOL    HW225158   0.363   2.638   2.368
 8087SOL     OW25159   6.721   0.699   6.628
 8087SOL    HW125160   6.679   0.702   6.537
 8087SOL    HW225161   6.740   0.793   6.659
 8088SOL     OW25162   0.292   6.722   5.355
 8088SOL    HW125163   0.220   6.733   5.286
 8088SOL    HW225164   0.355   6.799   5.350
 8089SOL     OW25165   6.322   1.605   6.966
 8089SOL    HW125166   6.255   1.593   6.893
 8089SOL    HW225167   6.331   1.703   6.987
 8090SOL     OW25168   4.572   2.300   4.765
 8090SOL    HW125169   4.653   2.354   4.783
 8090SOL    HW225170   4.495   2.336   4.818
 8091SOL     OW25171   0.498   3.717   4.759
 8091SOL    HW125172   0.586   3.708   4.712
 8091SOL    HW225173   0.511   3.761   4.848
 8092SOL     OW25174   4.559   0.369   6.083
 8092SOL    HW125175   4.513   0.405   6.164
 8092SOL    HW225176   4.513   0.285   6.054
 8093SOL     OW25177   2.797   6.948   3.273
 8093SOL    HW125178   2.807   6.966   3.371
 8093SOL    HW225179   2.754   7.026   3.229
 8094SOL     OW25180   1.766   3.908   4.137
 8094SOL    HW125181   1.784   4.006   4.122
 8094SOL    HW225182   1.711   3.872   4.062
 8095SOL     OW25183   1.272   5.537   4.698
 8095SOL    HW125184   1.222   5.622   4.715
 8095SOL    HW225185   1.248   5.470   4.768
 8096SOL     OW25186   0.762   4.785   1.023
 8096SOL    HW125187   0.796   4.834   0.943
 8096SOL    HW225188   0.828   4.795   1.098
 8097SOL     OW25189   5.160   6.313   0.014
 8097SOL    HW125190   5.132   6.333   6.948
 8097SOL    HW225191   5.089   6.345   0.077
 8098SOL     OW25192   2.641   6.192   4.737
 8098SOL    HW125193   2.663   6.199   4.640
 8098SOL    HW225194   2.633   6.283   4.777
 8099SOL     OW25195   2.231   4.106   2.499
 8099SOL    HW125196   2.166   4.179   2.518
 8099SOL    HW225197   2.216   4.030   2.562
 8100SOL     OW25198   6.822   0.108   0.478
 8100SOL    HW125199   6.780   0.157   0.554
 8100SOL    HW225200   6.757   0.041   0.441
 8101SOL     OW25201   2.195   5.243   0.241
 8101SOL    HW125202   2.279   5.274   0.284
 8101SOL    HW225203   2.148   5.320   0.199
 8102SOL     OW25204   0.987   4.726   4.044
 8102SOL    HW125205   1.041   4.756   3.966
 8102SOL    HW225206   1.048   4.706   4.121
 8103SOL     OW25207   4.219   0.668   1.569
 8103SOL    HW125208   4.210   0.760   1.606
 8103SOL    HW225209   4.130   0.622   1.571
 8104SOL     OW25210   0.779   5.735   6.649
 8104SOL    HW125211   0.679   5.733   6.652
 8104SOL    HW225212   0.814   5.646   6.679
 8105SOL     OW25213   6.853   0.051   3.023
 8105SOL    HW125214   6.935   0.010   2.982
 8105SOL    HW225215   6.779   7.012   3.024
 8106SOL     OW25216   2.785   6.606   6.485
 8106SOL    HW125217   2.854   6.574   6.420
 8106SOL    HW225218   2.726   6.529   6.511
 8107SOL     OW25219   1.026   6.755   0.114
 8107SOL    HW125220   0.935   6.795   0.126
 8107SOL    HW225221   1.067   6.737   0.203
 8108SOL     OW25222   1.768   1.274   0.492
 8108SOL    HW125223   1.861   1.292   0.462
 8108SOL    HW225224   1.760   1.178   0.521
 8109SOL     OW25225   0.376   3.972   2.249
 8109SOL    HW125226   0.348   3.979   2.345
 8109SOL    HW225227   0.299   3.939   2.194
 8110SOL     OW25228   4.550   4.199   0.236
 8110SOL    HW125229   4.541   4.117   0.292
 8110SOL    HW225230   4.640   4.199   0.192
 8111SOL     OW25231   5.941   1.943   2.355
 8111SOL    HW125232   5.859   1.999   2.340
 8111SOL    HW225233   6.016   2.001   2.386
 8112SOL     OW25234   2.189   4.844   6.361
 8112SOL    HW125235   2.149   4.914   6.421
 8112SOL    HW225236   2.192   4.757   6.411
 8113SOL     OW25237   5.152   4.915   6.545
 8113SOL    HW125238   5.110   4.974   6.476
 8113SOL    HW225239   5.166   4.824   6.507
 8114SOL     OW25240   2.134   3.243   2.975
 8114SOL    HW125241   2.140   3.143   2.972
 8114SOL    HW225242   2.143   3.280   2.882
 8115SOL     OW25243   2.421   1.723   6.283
 8115SOL    HW125244   2.476   1.732   6.366
 8115SOL    HW225245   2.350   1.654   6.297
 8116SOL     OW25246   4.165   3.445   2.232
 8116SOL    HW125247   4.163   3.480   2.139
 8116SOL    HW225248   4.254   3.402   2.250
 8117SOL     OW25249   1.527   0.224   4.069
 8117SOL    HW125250   1.583   0.237   3.988
 8117SOL    HW225251   1.570   0.269   4.147
 8118SOL     OW25252   6.328   2.450   6.992
 8118SOL    HW125253   6.426   2.429   6.989
 8118SOL    HW225254   6.277   2.380   6.943
 8119SOL     OW25255   5.162   5.267   6.055
 8119SOL    HW125256   5.177   5.318   5.970
 8119SOL    HW225257   5.244   5.271   6.111
 8120SOL     OW25258   2.323   6.600   2.489
 8120SOL    HW125259   2.408   6.558   2.520
 8120SOL    HW225260   2.247   6.537   2.503
 8121SOL     OW25261   2.321   2.707   2.543
 8121SOL    HW125262   2.415   2.674   2.551
 8121SOL    HW225263   2.262   2.633   2.512
 8122SOL     OW25264   0.856   4.756   1.380
 8122SOL    HW125265   0.905   4.807   1.310
 8122SOL    HW225266   0.918   4.737   1.457
 8123SOL     OW25267   6.939   1.612   6.650
 8123SOL    HW125268   6.920   1.639   6.744
 8123SOL    HW225269   7.002   1.677   6.608
 8124SOL     OW25270   6.779   6.069   5.373
 8124SOL    HW125271   6.792   6.050   5.470
 8124SOL    HW225272   6.692   6.117   5.360
 8125SOL     OW25273   1.129   5.992   2.072
 8125SOL    HW125274   1.182   5.926   2.019
 8125SOL    HW225275   1.078   6.052   2.010
 8126SOL     OW25276   3.545   5.741   4.555
 8126SOL    HW125277   3.642   5.716   4.560
 8126SOL    HW225278   3.527   5.787   4.468
 8127SOL     OW25279   3.908   1.673   6.298
 8127SOL    HW125280   3.884   1.762   6.337
 8127SOL    HW225281   4.007   1.667   6.287
 8128SOL     OW25282   3.260   3.201   1.226
 8128SOL    HW125283   3.170   3.158   1.236
 8128SOL    HW225284   3.326   3.131   1.196
 8129SOL     OW25285   0.258   2.595   3.891
 8129SOL    HW125286   0.245   2.509   3.841
 8129SOL    HW225287   0.356   2.610   3.906
 8130SOL     OW25288   6.642   6.308   6.972
 8130SOL    HW125289   6.738   6.337   6.978
 8130SOL    HW225290   6.592   6.372   6.913
 8131SOL     OW25291   1.993   2.427   1.057
 8131SOL    HW125292   1.984   2.370   0.976
 8131SOL    HW225293   2.059   2.500   1.039
 8132SOL     OW25294   6.211   1.577   4.677
 8132SOL    HW125295   6.159   1.642   4.732
 8132SOL    HW225296   6.161   1.491   4.670
 8133SOL     OW25297   3.620   5.314   1.518
 8133SOL    HW125298   3.720   5.318   1.519
 8133SOL    HW225299   3.583   5.403   1.491
 8134SOL     OW25300   5.822   2.267   6.151
 8134SOL    HW125301   5.889   2.282   6.078
 8134SOL    HW225302   5.782   2.176   6.142
 8135SOL     OW25303   2.572   6.015   2.034
 8135SOL    HW125304   2.474   6.022   2.054
 8135SOL    HW225305   2.617   6.100   2.060
 8136SOL     OW25306   4.754   4.616   2.565
 8136SOL    HW125307   4.666   4.662   2.577
 8136SOL    HW225308   4.763   4.587   2.470
 8137SOL     OW25309   4.512   1.076   6.234
 8137SOL    HW125310   4.449   1.132   6.180
 8137SOL    HW225311   4.597   1.127   6.249
 8138SOL     OW25312   5.709   1.080   2.249
 8138SOL    HW125313   5.633   1.021   2.276
 8138SOL    HW225314   5.684   1.130   2.166
 8139SOL     OW25315   0.286   1.052   4.357
 8139SOL    HW125316   0.222   0.995   4.307
 8139SOL    HW225317   0.237   1.128   4.399
 8140SOL     OW25318   5.021   2.647   3.312
 8140SOL    HW125319   5.084   2.606   3.378
 8140SOL    HW225320   5.067   2.722   3.264
 8141SOL     OW25321   5.974   3.650   3.866
 8141SOL    HW125322   5.960   3.588   3.788
 8141SOL    HW225323   6.071   3.675   3.870
 8142SOL     OW25324   6.870   6.720   0.228
 8142SOL    HW125325   6.893   6.811   0.194
 8142SOL    HW225326   6.791   6.685   0.178
 8143SOL     OW25327   6.378   2.600   5.176
 8143SOL    HW125328   6.462   2.614   5.123
 8143SOL    HW225329   6.315   2.677   5.159
 8144SOL     OW25330   5.085   5.858   6.656
 8144SOL    HW125331   5.032   5.925   6.708
 8144SOL    HW225332   5.165   5.830   6.709
 8145SOL     OW25333   4.749   6.193   3.290
 8145SOL    HW125334   4.717   6.277   3.333
 8145SOL    HW225335   4.823   6.154   3.345
 8146SOL     OW25336   3.626   1.699   4.059
 8146SOL    HW125337   3.724   1.719   4.047
 8146SOL    HW225338   3.603   1.704   4.156
 8147SOL     OW25339   5.199   1.284   3.218
 8147SOL    HW125340   5.242   1.233   3.143
 8147SOL    HW225341   5.128   1.344   3.182
 8148SOL     OW25342   6.910   3.875   3.072
 8148SOL    HW125343   6.995   3.853   3.024
 8148SOL    HW225344   6.835   3.880   3.006
 8149SOL     OW25345   3.784   5.198   3.764
 8149SOL    HW125346   3.783   5.105   3.725
 8149SOL    HW225347   3.875   5.218   3.800
 8150SOL     OW25348   1.370   6.742   1.188
 8150SOL    HW125349   1.426   6.823   1.202
 8150SOL    HW225350   1.373   6.685   1.271
 8151SOL     OW25351   0.674   1.370   4.833
 8151SOL    HW125352   0.609   1.348   4.760
 8151SOL    HW225353   0.761   1.400   4.793
 8152SOL     OW25354   0.643   0.743   3.565
 8152SOL    HW125355   0.712   0.816   3.568
 8152SOL    HW225356   0.678   0.666   3.511
 8153SOL     OW25357   2.197   6.758   0.319
 8153SOL    HW125358   2.102   6.726   0.317
 8153SOL    HW225359   2.228   6.761   0.414
 8154SOL     OW25360   2.141   6.601   3.138
 8154SOL    HW125361   2.121   6.571   3.231
 8154SOL    HW225362   2.072   6.564   3.075
 8155SOL     OW25363   3.103   3.963   4.725
 8155SOL    HW125364   3.142   4.032   4.785
 8155SOL    HW225365   3.088   4.002   4.634
 8156SOL     OW25366   0.447   6.959   5.378
 8156SOL    HW125367   0.534   6.971   5.330
 8156SOL    HW225368   0.423   0.017   5.424
 8157SOL     OW25369   5.540   2.463   6.664
 8157SOL    HW125370   5.631   2.504   6.651
 8157SOL    HW225371   5.479   2.495   6.591
 8158SOL     OW25372   1.232   5.463   2.628
 8158SOL    HW125373   1.282   5.402   2.567
 8158SOL    HW225374   1.253   5.558   2.603
 8159SOL     OW25375   0.414   5.841   0.418
 8159SOL    HW125376   0.481   5.776   0.453
 8159SOL    HW225377   0.335   5.843   0.479
 8160SOL     OW25378   4.469   1.772   1.788
 8160SOL    HW125379   4.472   1.789   1.886
 8160SOL    HW225380   4.559   1.789   1.748
 8161SOL     OW25381   4.076   3.410   1.482
 8161SOL    HW125382   4.074   3.446   1.389
 8161SOL    HW225383   4.149   3.455   1.534
 8162SOL     OW25384   6.130   0.803   2.342
 8162SOL    HW125385   6.075   0.853   2.275
 8162SOL    HW225386   6.109   0.835   2.434
 8163SOL     OW25387   2.316   2.773   5.701
 8163SOL    HW125388   2.245   2.831   5.660
 8163SOL    HW225389   2.405   2.800   5.665
 8164SOL     OW25390   4.914   3.626   1.894
 8164SOL    HW125391   4.838   3.676   1.851
 8164SOL    HW225392   4.918   3.533   1.855
 8165SOL     OW25393   1.661   4.475   1.779
 8165SOL    HW125394   1.709   4.391   1.806
 8165SOL    HW225395   1.729   4.547   1.763
 8166SOL     OW25396   3.270   0.029   1.283
 8166SOL    HW125397   3.318   6.982   1.327
 8166SOL    HW225398   3.268   0.108   1.343
 8167SOL     OW25399   5.590   2.515   4.425
 8167SOL    HW125400   5.687   2.521   4.450
 8167SOL    HW225401   5.580   2.462   4.340
 8168SOL     OW25402   2.581   2.099   3.154
 8168SOL    HW125403   2.663   2.046   3.175
 8168SOL    HW225404   2.607   2.189   3.119
 8169SOL     OW25405   5.445   3.810   5.036
 8169SOL    HW125406   5.442   3.763   5.124
 8169SOL    HW225407   5.352   3.824   5.003
 8170SOL     OW25408   1.366   5.473   3.879
 8170SOL    HW125409   1.298   5.528   3.927
 8170SOL    HW225410   1.457   5.492   3.916
 8171SOL     OW25411   1.797   1.154   6.690
 8171SOL    HW125412   1.859   1.138   6.614
 8171SOL    HW225413   1.734   1.076   6.698
 8172SOL     OW25414   0.566   6.330   1.626
 8172SOL    HW125415   0.640   6.266   1.603
 8172SOL    HW225416   0.516   6.296   1.705
 8173SOL     OW25417   6.611   3.253   0.310
 8173SOL    HW125418   6.709   3.271   0.309
 8173SOL    HW225419   6.583   3.225   0.402
 8174SOL     OW25420   5.194   6.649   2.484
 8174SOL    HW125421   5.217   6.702   2.402
 8174SOL    HW225422   5.215   6.553   2.468
 8175SOL     OW25423   1.836   3.152   3.817
 8175SOL    HW125424   1.783   3.107   3.746
 8175SOL    HW225425   1.915   3.199   3.775
 8176SOL     OW25426   4.006   5.973   3.264
 8176SOL    HW125427   4.077   6.038   3.289
 8176SOL    HW225428   3.916   6.010   3.289
 8177SOL     OW25429   1.678   6.244   6.293
 8177SOL    HW125430   1.699   6.332   6.251
 8177SOL    HW225431   1.596   6.206   6.250
 8178SOL     OW25432   2.313   6.438   6.103
 8178SOL    HW125433   2.352   6.408   6.191
 8178SOL    HW225434   2.300   6.537   6.105
 8179SOL     OW25435   3.973   0.465   0.369
 8179SOL    HW125436   4.020   0.414   0.441
 8179SOL    HW225437   3.992   0.563   0.379
 8180SOL     OW25438   4.754   5.210   4.950
 8180SOL    HW125439   4.791   5.220   5.043
 8180SOL    HW225440   4.783   5.287   4.894
 8181SOL     OW25441   2.561   2.183   2.252
 8181SOL    HW125442   2.605   2.228   2.174
 8181SOL    HW225443   2.464   2.170   2.232
 8182SOL     OW25444   5.240   2.988   5.666
 8182SOL    HW125445   5.142   2.978   5.681
 8182SOL    HW225446   5.266   2.939   5.583
 8183SOL     OW25447   2.151   3.520   3.413
 8183SOL    HW125448   2.196   3.454   3.353
 8183SOL    HW225449   2.150   3.610   3.369
 8184SOL     OW25450   6.091   5.777   4.295
 8184SOL    HW125451   6.058   5.869   4.274
 8184SOL    HW225452   6.063   5.715   4.222
 8185SOL     OW25453   1.131   2.346   3.337
 8185SOL    HW125454   1.205   2.323   3.273
 8185SOL    HW225455   1.099   2.439   3.320
 8186SOL     OW25456   4.301   3.923   6.642
 8186SOL    HW125457   4.309   4.022   6.659
 8186SOL    HW225458   4.213   3.890   6.676
 8187SOL     OW25459   2.393   1.536   5.992
 8187SOL    HW125460   2.342   1.522   6.077
 8187SOL    HW225461   2.447   1.619   5.999
 8188SOL     OW25462   4.891   3.005   2.511
 8188SOL    HW125463   4.893   3.075   2.440
 8188SOL    HW225464   4.900   3.048   2.601
 8189SOL     OW25465   6.644   5.450   3.292
 8189SOL    HW125466   6.575   5.393   3.248
 8189SOL    HW225467   6.676   5.520   3.228
 8190SOL     OW25468   5.956   3.430   2.546
 8190SOL    HW125469   5.889   3.497   2.577
 8190SOL    HW225470   5.910   3.356   2.498
 8191SOL     OW25471   5.987   5.051   1.599
 8191SOL    HW125472   5.904   5.080   1.553
 8191SOL    HW225473   5.965   4.979   1.666
 8192SOL     OW25474   1.288   2.402   0.964
 8192SOL    HW125475   1.301   2.349   0.880
 8192SOL    HW225476   1.293   2.499   0.943
 8193SOL     OW25477   4.180   6.800   5.661
 8193SOL    HW125478   4.082   6.793   5.679
 8193SOL    HW225479   4.226   6.835   5.742
 8194SOL     OW25480   1.856   0.726   2.457
 8194SOL    HW125481   1.785   0.658   2.477
 8194SOL    HW225482   1.834   0.812   2.503
 8195SOL     OW25483   5.826   1.200   1.939
 8195SOL    HW125484   5.887   1.280   1.944
 8195SOL    HW225485   5.880   1.119   1.917
 8196SOL     OW25486   1.768   0.985   0.976
 8196SOL    HW125487   1.673   0.997   0.946
 8196SOL    HW225488   1.782   1.034   1.062
 8197SOL     OW25489   0.564   0.144   0.812
 8197SOL    HW125490   0.575   0.219   0.877
 8197SOL    HW225491   0.506   0.173   0.736
 8198SOL     OW25492   3.333   1.039   2.774
 8198SOL    HW125493   3.268   1.092   2.828
 8198SOL    HW225494   3.426   1.072   2.791
 8199SOL     OW25495   5.737   4.504   1.428
 8199SOL    HW125496   5.710   4.595   1.457
 8199SOL    HW225497   5.835   4.504   1.404
 8200SOL     OW25498   4.265   3.851   1.556
 8200SOL    HW125499   4.272   3.761   1.600
 8200SOL    HW225500   4.259   3.838   1.457
 8201SOL     OW25501   0.945   1.128   5.100
 8201SOL    HW125502   0.956   1.045   5.045
 8201SOL    HW225503   0.854   1.167   5.083
 8202SOL     OW25504   1.734   3.676   4.300
 8202SOL    HW125505   1.664   3.634   4.243
 8202SOL    HW225506   1.729   3.776   4.291
 8203SOL     OW25507   6.407   4.564   6.623
 8203SOL    HW125508   6.426   4.475   6.581
 8203SOL    HW225509   6.466   4.633   6.582
 8204SOL     OW25510   3.453   0.138   0.641
 8204SOL    HW125511   3.356   0.114   0.633
 8204SOL    HW225512   3.508   0.055   0.640
 8205SOL     OW25513   4.120   6.760   3.256
 8205SOL    HW125514   4.081   6.717   3.174
 8205SOL    HW225515   4.219   6.764   3.248
 8206SOL     OW25516   3.602   1.852   4.587
 8206SOL    HW125517   3.527   1.919   4.584
 8206SOL    HW225518   3.564   1.761   4.604
 8207SOL     OW25519   2.993   5.851   6.853
 8207SOL    HW125520   3.077   5.862   6.905
 8207SOL    HW225521   2.986   5.923   6.784
 8208SOL     OW25522   1.681   5.626   0.567
 8208SOL    HW125523   1.643   5.536   0.588
 8208SOL    HW225524   1.781   5.622   0.575
 8209SOL     OW25525   0.981   5.506   5.399
 8209SOL    HW125526   0.932   5.569   5.339
 8209SOL    HW225527   0.919   5.435   5.431
 8210SOL     OW25528   2.253   0.968   0.923
 8210SOL    HW125529   2.296   0.956   0.833
 8210SOL    HW225530   2.166   1.016   0.912
 8211SOL     OW25531   3.692   4.164   3.860
 8211SOL    HW125532   3.713   4.135   3.953
 8211SOL    HW225533   3.684   4.263   3.857
 8212SOL     OW25534   4.577   4.533   6.608
 8212SOL    HW125535   4.480   4.525   6.586
 8212SOL    HW225536   4.592   4.616   6.663
 8213SOL     OW25537   4.799   4.365   1.943
 8213SOL    HW125538   4.703   4.338   1.934
 8213SOL    HW225539   4.857   4.289   1.912
 8214SOL     OW25540   4.088   5.714   3.624
 8214SOL    HW125541   4.165   5.654   3.600
 8214SOL    HW225542   4.003   5.676   3.588
 8215SOL     OW25543   2.834   6.329   6.174
 8215SOL    HW125544   2.899   6.273   6.226
 8215SOL    HW225545   2.742   6.292   6.186
 8216SOL     OW25546   5.411   5.196   0.714
 8216SOL    HW125547   5.407   5.184   0.814
 8216SOL    HW225548   5.380   5.289   0.691
 8217SOL     OW25549   3.235   6.538   3.236
 8217SOL    HW125550   3.201   6.450   3.267
 8217SOL    HW225551   3.228   6.544   3.136
 8218SOL     OW25552   1.679   6.761   4.027
 8218SOL    HW125553   1.699   6.664   4.042
 8218SOL    HW225554   1.584   6.771   3.997
 8219SOL     OW25555   3.919   3.150   3.135
 8219SOL    HW125556   3.967   3.238   3.144
 8219SOL    HW225557   3.908   3.128   3.038
 8220SOL     OW25558   4.369   4.253   5.745
 8220SOL    HW125559   4.419   4.177   5.787
 8220SOL    HW225560   4.297   4.284   5.806
 8221SOL     OW25561   6.699   3.784   3.456
 8221SOL    HW125562   6.736   3.748   3.542
 8221SOL    HW225563   6.754   3.752   3.380
 8222SOL     OW25564   5.400   2.381   5.669
 8222SOL    HW125565   5.411   2.390   5.768
 8222SOL    HW225566   5.383   2.471   5.630
 8223SOL     OW25567   1.126   6.472   5.361
 8223SOL    HW125568   1.152   6.409   5.435
 8223SOL    HW225569   1.172   6.560   5.374
 8224SOL     OW25570   5.886   0.746   6.009
 8224SOL    HW125571   5.908   0.713   5.917
 8224SOL    HW225572   5.792   0.723   6.031
 8225SOL     OW25573   6.197   2.834   0.317
 8225SOL    HW125574   6.249   2.804   0.397
 8225SOL    HW225575   6.234   2.920   0.283
 8226SOL     OW25576   4.386   1.074   6.942
 8226SOL    HW125577   4.305   1.133   6.933
 8226SOL    HW225578   4.357   0.980   6.955
 8227SOL     OW25579   5.252   3.992   2.402
 8227SOL    HW125580   5.204   3.974   2.316
 8227SOL    HW225581   5.324   4.060   2.385
 8228SOL     OW25582   2.796   1.214   4.547
 8228SOL    HW125583   2.778   1.137   4.486
 8228SOL    HW225584   2.875   1.266   4.513
 8229SOL     OW25585   4.132   4.575   0.487
 8229SOL    HW125586   4.195   4.524   0.546
 8229SOL    HW225587   4.173   4.662   0.461
 8230SOL     OW25588   6.380   0.763   6.553
 8230SOL    HW125589   6.444   0.702   6.597
 8230SOL    HW225590   6.290   0.756   6.597
 8231SOL     OW25591   3.460   1.660   2.161
 8231SOL    HW125592   3.423   1.696   2.075
 8231SOL    HW225593   3.437   1.723   2.235
 8232SOL     OW25594   4.031   6.685   3.511
 8232SOL    HW125595   4.067   6.698   3.419
 8232SOL    HW225596   3.936   6.716   3.514
 8233SOL     OW25597   3.133   0.894   6.237
 8233SOL    HW125598   3.082   0.959   6.292
 8233SOL    HW225599   3.225   0.929   6.220
 8234SOL     OW25600   1.106   2.976   0.205
 8234SOL    HW125601   1.045   3.044   0.164
 8234SOL    HW225602   1.076   2.884   0.178
 8235SOL     OW25603   0.200   6.601   1.035
 8235SOL    HW125604   0.142   6.583   1.114
 8235SOL    HW225605   0.157   6.667   0.974
 8236SOL     OW25606   1.282   0.266   0.994
 8236SOL    HW125607   1.352   0.217   0.942
 8236SOL    HW225608   1.240   0.204   1.061
 8237SOL     OW25609   4.002   5.093   5.487
 8237SOL    HW125610   4.080   5.138   5.530
 8237SOL    HW225611   3.922   5.153   5.491
 8238SOL     OW25612   6.521   5.334   0.281
 8238SOL    HW125613   6.472   5.264   0.230
 8238SOL    HW225614   6.456   5.396   0.325
 8239SOL     OW25615   4.451   1.877   4.185
 8239SOL    HW125616   4.359   1.872   4.145
 8239SOL    HW225617   4.518   1.847   4.118
 8240SOL     OW25618   3.506   3.489   4.749
 8240SOL    HW125619   3.528   3.493   4.651
 8240SOL    HW225620   3.512   3.581   4.788
 8241SOL     OW25621   0.908   3.107   5.871
 8241SOL    HW125622   0.931   3.081   5.965
 8241SOL    HW225623   0.938   3.201   5.855
 8242SOL     OW25624   0.111   2.879   3.803
 8242SOL    HW125625   0.036   2.828   3.761
 8242SOL    HW225626   0.161   2.820   3.867
 8243SOL     OW25627   1.358   6.121   3.384
 8243SOL    HW125628   1.327   6.141   3.291
 8243SOL    HW225629   1.406   6.200   3.421
 8244SOL     OW25630   5.192   0.696   3.954
 8244SOL    HW125631   5.191   0.643   4.039
 8244SOL    HW225632   5.196   0.634   3.877
 8245SOL     OW25633   5.455   4.174   2.359
 8245SOL    HW125634   5.531   4.132   2.408
 8245SOL    HW225635   5.476   4.270   2.340
 8246SOL     OW25636   2.078   4.208   6.746
 8246SOL    HW125637   2.029   4.293   6.766
 8246SOL    HW225638   2.175   4.221   6.766
 8247SOL     OW25639   2.192   4.491   3.282
 8247SOL    HW125640   2.266   4.425   3.294
 8247SOL    HW225641   2.117   4.449   3.230
 8248SOL     OW25642   6.957   6.389   2.684
 8248SOL    HW125643   6.925   6.413   2.776
 8248SOL    HW225644   6.982   6.472   2.634
 8249SOL     OW25645   3.286   0.669   6.068
 8249SOL    HW125646   3.204   0.717   6.100
 8249SOL    HW225647   3.262   0.576   6.042
 8250SOL     OW25648   1.185   1.596   0.609
 8250SOL    HW125649   1.212   1.631   0.520
 8250SOL    HW225650   1.200   1.666   0.679
 8251SOL     OW25651   1.239   2.274   6.536
 8251SOL    HW125652   1.262   2.353   6.480
 8251SOL    HW225653   1.230   2.193   6.479
 8252SOL     OW25654   0.785   1.660   6.608
 8252SOL    HW125655   0.699   1.646   6.657
 8252SOL    HW225656   0.797   1.587   6.540
 8253SOL     OW25657   6.444   4.575   5.941
 8253SOL    HW125658   6.443   4.507   5.868
 8253SOL    HW225659   6.455   4.529   6.030
 8254SOL     OW25660   5.331   4.618   6.646
 8254SOL    HW125661   5.362   4.696   6.700
 8254SOL    HW225662   5.407   4.554   6.633
 8255SOL     OW25663   1.344   6.673   5.629
 8255SOL    HW125664   1.394   6.734   5.690
 8255SOL    HW225665   1.262   6.640   5.675
 8256SOL     OW25666   1.605   6.009   2.986
 8256SOL    HW125667   1.633   6.036   3.078
 8256SOL    HW225668   1.565   5.918   2.989
 8257SOL     OW25669   4.758   4.351   3.497
 8257SOL    HW125670   4.784   4.279   3.562
 8257SOL    HW225671   4.775   4.441   3.537
 8258SOL     OW25672   0.612   3.546   4.444
 8258SOL    HW125673   0.679   3.557   4.518
 8258SOL    HW225674   0.562   3.632   4.431
 8259SOL     OW25675   5.518   2.779   4.192
 8259SOL    HW125676   5.445   2.846   4.176
 8259SOL    HW225677   5.500   2.729   4.277
 8260SOL     OW25678   4.453   2.322   6.324
 8260SOL    HW125679   4.476   2.287   6.415
 8260SOL    HW225680   4.429   2.419   6.331
 8261SOL     OW25681   5.885   2.590   2.875
 8261SOL    HW125682   5.969   2.642   2.864
 8261SOL    HW225683   5.903   2.508   2.929
 8262SOL     OW25684   5.064   4.170   2.219
 8262SOL    HW125685   5.077   4.268   2.206
 8262SOL    HW225686   5.131   4.120   2.163
 8263SOL     OW25687   6.203   1.716   6.531
 8263SOL    HW125688   6.174   1.662   6.610
 8263SOL    HW225689   6.223   1.655   6.455
 8264SOL     OW25690   2.977   0.832   1.632
 8264SOL    HW125691   2.881   0.848   1.651
 8264SOL    HW225692   3.006   0.887   1.554
 8265SOL     OW25693   4.396   5.412   0.600
 8265SOL    HW125694   4.426   5.501   0.634
 8265SOL    HW225695   4.407   5.409   0.501
 8266SOL     OW25696   4.719   2.318   3.283
 8266SOL    HW125697   4.635   2.350   3.328
 8266SOL    HW225698   4.697   2.241   3.223
 8267SOL     OW25699   1.841   3.154   3.241
 8267SOL    HW125700   1.863   3.248   3.267
 8267SOL    HW225701   1.778   3.155   3.163
 8268SOL     OW25702   2.559   5.524   1.622
 8268SOL    HW125703   2.655   5.505   1.603
 8268SOL    HW225704   2.546   5.528   1.721
 8269SOL     OW25705   6.675   1.487   4.027
 8269SOL    HW125706   6.710   1.462   3.937
 8269SOL    HW225707   6.751   1.501   4.090
 8270SOL     OW25708   4.293   4.375   0.599
 8270SOL    HW125709   4.322   4.290   0.644
 8270SOL    HW225710   4.284   4.359   0.501
 8271SOL     OW25711   2.985   6.626   5.470
 8271SOL    HW125712   2.911   6.628   5.403
 8271SOL    HW225713   2.947   6.617   5.562
 8272SOL     OW25714   0.836   0.567   2.191
 8272SOL    HW125715   0.790   0.656   2.199
 8272SOL    HW225716   0.793   0.515   2.117
 8273SOL     OW25717   5.171   6.908   5.962
 8273SOL    HW125718   5.165   6.991   5.906
 8273SOL    HW225719   5.090   6.851   5.948
 8274SOL     OW25720   5.376   6.764   3.857
 8274SOL    HW125721   5.342   6.854   3.832
 8274SOL    HW225722   5.403   6.715   3.774
 8275SOL     OW25723   4.593   0.788   4.398
 8275SOL    HW125724   4.499   0.819   4.386
 8275SOL    HW225725   4.655   0.863   4.379
 8276SOL     OW25726   6.090   2.878   0.929
 8276SOL    HW125727   6.187   2.899   0.926
 8276SOL    HW225728   6.074   2.807   0.998
 8277SOL     OW25729   1.453   6.877   1.977
 8277SOL    HW125730   1.434   6.973   1.998
 8277SOL    HW225731   1.396   6.847   1.901
 8278SOL     OW25732   1.514   0.585   1.255
 8278SOL    HW125733   1.473   0.522   1.320
 8278SOL    HW225734   1.569   0.652   1.304
 8279SOL     OW25735   6.057   4.886   5.678
 8279SOL    HW125736   5.994   4.864   5.753
 8279SOL    HW225737   6.149   4.852   5.700
 8280SOL     OW25738   6.797   4.318   6.956
 8280SOL    HW125739   6.755   4.234   6.991
 8280SOL    HW225740   6.886   4.331   6.999
 8281SOL     OW25741   3.034   4.399   6.583
 8281SOL    HW125742   3.094   4.362   6.655
 8281SOL    HW225743   2.978   4.325   6.546
 8282SOL     OW25744   4.088   2.670   0.636
 8282SOL    HW125745   4.143   2.675   0.719
 8282SOL    HW225746   4.098   2.579   0.595
 8283SOL     OW25747   0.492   1.003   3.523
 8283SOL    HW125748   0.582   0.968   3.550
 8283SOL    HW225749   0.492   1.024   3.426
 8284SOL     OW25750   4.930   2.320   1.691
 8284SOL    HW125751   4.872   2.391   1.651
 8284SOL    HW225752   4.876   2.266   1.756
 8285SOL     OW25753   0.756   4.980   0.196
 8285SOL    HW125754   0.741   4.904   0.133
 8285SOL    HW225755   0.672   4.996   0.248
 8286SOL     OW25756   6.407   1.877   6.317
 8286SOL    HW125757   6.400   1.826   6.231
 8286SOL    HW225758   6.315   1.901   6.349
 8287SOL     OW25759   0.302   0.758   3.183
 8287SOL    HW125760   0.283   0.827   3.113
 8287SOL    HW225761   0.265   0.670   3.155
 8288SOL     OW25762   2.768   6.725   2.025
 8288SOL    HW125763   2.731   6.812   2.058
 8288SOL    HW225764   2.848   6.743   1.968
 8289SOL     OW25765   6.282   0.047   0.151
 8289SOL    HW125766   6.358   0.084   0.204
 8289SOL    HW225767   6.196   0.082   0.187
 8290SOL     OW25768   4.657   2.660   1.863
 8290SOL    HW125769   4.713   2.715   1.925
 8290SOL    HW225770   4.596   2.720   1.811
 8291SOL     OW25771   5.392   5.617   5.628
 8291SOL    HW125772   5.336   5.681   5.680
 8291SOL    HW225773   5.488   5.631   5.650
 8292SOL     OW25774   7.019   3.614   5.258
 8292SOL    HW125775   0.072   3.555   5.258
 8292SOL    HW225776   6.946   3.569   5.310
 8293SOL     OW25777   2.696   5.503   4.460
 8293SOL    HW125778   2.687   5.433   4.390
 8293SOL    HW225779   2.733   5.463   4.544
 8294SOL     OW25780   6.776   3.420   5.983
 8294SOL    HW125781   6.848   3.395   5.918
 8294SOL    HW225782   6.729   3.502   5.951
 8295SOL     OW25783   4.197   4.953   1.537
 8295SOL    HW125784   4.233   4.874   1.488
 8295SOL    HW225785   4.240   4.960   1.627
 8296SOL     OW25786   3.397   0.539   1.970
 8296SOL    HW125787   3.490   0.537   1.934
 8296SOL    HW225788   3.379   0.629   2.011
 8297SOL     OW25789   5.756   4.099   1.975
 8297SOL    HW125790   5.841   4.063   1.937
 8297SOL    HW225791   5.701   4.025   2.011
 8298SOL     OW25792   6.931   0.099   0.787
 8298SOL    HW125793   6.919   0.113   0.886
 8298SOL    HW225794   6.851   0.134   0.739
 8299SOL     OW25795   0.972   2.337   7.001
 8299SOL    HW125796   0.906   2.395   6.953
 8299SOL    HW225797   1.022   2.281   6.935
 8300SOL     OW25798   5.140   5.968   3.604
 8300SOL    HW125799   5.136   5.868   3.603
 8300SOL    HW225800   5.130   6.000   3.698
 8301SOL     OW25801   6.355   5.549   0.387
 8301SOL    HW125802   6.267   5.592   0.406
 8301SOL    HW225803   6.391   5.509   0.470
 8302SOL     OW25804   3.558   6.608   5.566
 8302SOL    HW125805   3.496   6.538   5.602
 8302SOL    HW225806   3.570   6.594   5.467
 8303SOL     OW25807   1.119   4.911   3.557
 8303SOL    HW125808   1.160   4.824   3.527
 8303SOL    HW225809   1.187   4.984   3.549
 8304SOL     OW25810   5.332   2.926   3.582
 8304SOL    HW125811   5.396   2.883   3.645
 8304SOL    HW225812   5.373   3.008   3.542
 8305SOL     OW25813   4.582   6.342   4.945
 8305SOL    HW125814   4.671   6.380   4.918
 8305SOL    HW225815   4.515   6.416   4.952
 8306SOL     OW25816   4.636   1.221   4.096
 8306SOL    HW125817   4.566   1.278   4.138
 8306SOL    HW225818   4.721   1.274   4.087
 8307SOL     OW25819   6.965   4.931   4.230
 8307SOL    HW125820   6.928   4.937   4.137
 8307SOL    HW225821   7.014   5.016   4.252
 8308SOL     OW25822   1.940   5.559   0.587
 8308SOL    HW125823   1.964   5.566   0.490
 8308SOL    HW225824   1.950   5.464   0.616
 8309SOL     OW25825   6.276   5.135   2.641
 8309SOL    HW125826   6.313   5.134   2.548
 8309SOL    HW225827   6.223   5.218   2.655
 8310SOL     OW25828   1.662   6.277   3.154
 8310SOL    HW125829   1.628   6.292   3.247
 8310SOL    HW225830   1.585   6.264   3.092
 8311SOL     OW25831   4.777   6.344   1.587
 8311SOL    HW125832   4.863   6.334   1.637
 8311SOL    HW225833   4.797   6.371   1.492
 8312SOL     OW25834   6.175   1.468   0.586
 8312SOL    HW125835   6.139   1.561   0.592
 8312SOL    HW225836   6.136   1.421   0.507
 8313SOL     OW25837   4.850   2.337   6.061
 8313SOL    HW125838   4.875   2.407   5.995
 8313SOL    HW225839   4.909   2.257   6.050
 8314SOL     OW25840   4.825   5.430   4.091
 8314SOL    HW125841   4.797   5.337   4.067
 8314SOL    HW225842   4.894   5.427   4.163
 8315SOL     OW25843   3.269   2.079   0.134
 8315SOL    HW125844   3.319   2.158   0.098
 8315SOL    HW225845   3.309   2.053   0.222
 8316SOL     OW25846   1.616   1.444   4.690
 8316SOL    HW125847   1.531   1.473   4.733
 8316SOL    HW225848   1.657   1.521   4.641
 8317SOL     OW25849   1.747   2.025   6.051
 8317SOL    HW125850   1.679   2.092   6.081
 8317SOL    HW225851   1.782   2.051   5.961
 8318SOL     OW25852   4.549   6.634   5.359
 8318SOL    HW125853   4.629   6.610   5.413
 8318SOL    HW225854   4.467   6.597   5.402
 8319SOL     OW25855   2.795   5.946   6.467
 8319SOL    HW125856   2.725   5.957   6.397
 8319SOL    HW225857   2.850   5.865   6.448
 8320SOL     OW25858   4.012   4.822   5.447
 8320SOL    HW125859   3.928   4.770   5.454
 8320SOL    HW225860   3.996   4.917   5.475
 8321SOL     OW25861   0.275   0.663   0.809
 8321SOL    HW125862   0.304   0.572   0.840
 8321SOL    HW225863   0.352   0.726   0.812
 8322SOL     OW25864   2.173   0.739   1.378
 8322SOL    HW125865   2.100   0.726   1.446
 8322SOL    HW225866   2.148   0.814   1.316
 8323SOL     OW25867   6.086   5.202   6.572
 8323SOL    HW125868   6.039   5.289   6.561
 8323SOL    HW225869   6.131   5.199   6.662
 8324SOL     OW25870   5.758   6.265   6.105
 8324SOL    HW125871   5.857   6.256   6.093
 8324SOL    HW225872   5.719   6.312   6.025
 8325SOL     OW25873   1.509   6.450   4.823
 8325SOL    HW125874   1.476   6.369   4.871
 8325SOL    HW225875   1.608   6.457   4.833
 8326SOL     OW25876   1.977   1.753   6.561
 8326SOL    HW125877   1.947   1.848   6.555
 8326SOL    HW225878   1.909   1.693   6.520
 8327SOL     OW25879   0.390   5.886   5.171
 8327SOL    HW125880   0.474   5.833   5.179
 8327SOL    HW225881   0.412   5.983   5.166
 8328SOL     OW25882   1.161   0.331   0.236
 8328SOL    HW125883   1.220   0.397   0.189
 8328SOL    HW225884   1.074   0.375   0.258
 8329SOL     OW25885   1.666   2.580   5.203
 8329SOL    HW125886   1.722   2.510   5.248
 8329SOL    HW225887   1.596   2.613   5.267
 8330SOL     OW25888   3.104   0.020   0.403
 8330SOL    HW125889   3.068   0.047   0.493
 8330SOL    HW225890   3.161   6.966   0.414
 8331SOL     OW25891   2.140   2.150   6.216
 8331SOL    HW125892   2.200   2.133   6.138
 8331SOL    HW225893   2.087   2.067   6.236
 8332SOL     OW25894   5.592   3.822   0.916
 8332SOL    HW125895   5.533   3.902   0.909
 8332SOL    HW225896   5.635   3.820   1.006
 8333SOL     OW25897   2.844   4.824   6.386
 8333SOL    HW125898   2.942   4.828   6.365
 8333SOL    HW225899   2.807   4.917   6.388
 8334SOL     OW25900   3.416   2.446   5.347
 8334SOL    HW125901   3.353   2.415   5.277
 8334SOL    HW225902   3.378   2.424   5.438
 8335SOL     OW25903   5.598   3.376   6.203
 8335SOL    HW125904   5.541   3.375   6.121
 8335SOL    HW225905   5.628   3.470   6.222
 8336SOL     OW25906   1.135   4.834   3.837
 8336SOL    HW125907   1.156   4.843   3.740
 8336SOL    HW225908   1.218   4.850   3.891
 8337SOL     OW25909   6.248   0.550   4.442
 8337SOL    HW125910   6.283   0.549   4.536
 8337SOL    HW225911   6.269   0.637   4.399
 8338SOL     OW25912   2.439   5.977   1.276
 8338SOL    HW125913   2.459   6.075   1.269
 8338SOL    HW225914   2.489   5.928   1.205
 8339SOL     OW25915   6.633   0.733   2.145
 8339SOL    HW125916   6.540   0.720   2.179
 8339SOL    HW225917   6.689   0.780   2.214
 8340SOL     OW25918   5.916   2.595   6.264
 8340SOL    HW125919   5.945   2.500   6.279
 8340SOL    HW225920   5.948   2.652   6.340
 8341SOL     OW25921   3.254   0.108   1.023
 8341SOL    HW125922   3.249   0.061   1.111
 8341SOL    HW225923   3.350   0.117   0.995
 8342SOL     OW25924   4.591   1.113   1.010
 8342SOL    HW125925   4.574   1.196   1.063
 8342SOL    HW225926   4.531   1.112   0.929
 8343SOL     OW25927   4.624   6.015   2.840
 8343SOL    HW125928   4.627   5.923   2.877
 8343SOL    HW225929   4.662   6.016   2.747
 8344SOL     OW25930   2.197   4.366   6.026
 8344SOL    HW125931   2.275   4.305   6.012
 8344SOL    HW225932   2.153   4.385   5.938
 8345SOL     OW25933   6.403   0.312   4.424
 8345SOL    HW125934   6.328   0.378   4.421
 8345SOL    HW225935   6.439   0.298   4.332
 8346SOL     OW25936   6.116   4.038   3.465
 8346SOL    HW125937   6.106   3.942   3.494
 8346SOL    HW225938   6.026   4.079   3.454
 8347SOL     OW25939   1.141   1.593   6.353
 8347SOL    HW125940   1.195   1.514   6.325
 8347SOL    HW225941   1.201   1.664   6.390
 8348SOL     OW25942   3.399   5.460   1.185
 8348SOL    HW125943   3.407   5.400   1.106
 8348SOL    HW225944   3.303   5.483   1.200
 8349SOL     OW25945   4.654   5.409   1.413
 8349SOL    HW125946   4.687   5.498   1.383
 8349SOL    HW225947   4.590   5.421   1.489
 8350SOL     OW25948   2.218   0.631   6.806
 8350SOL    HW125949   2.132   0.586   6.781
 8350SOL    HW225950   2.242   0.608   6.900
 8351SOL     OW25951   6.840   2.809   3.044
 8351SOL    HW125952   6.760   2.860   3.012
 8351SOL    HW225953   6.869   2.844   3.133
 8352SOL     OW25954   2.921   6.794   6.617
 8352SOL    HW125955   2.892   6.710   6.572
 8352SOL    HW225956   2.976   6.849   6.554
 8353SOL     OW25957   0.598   5.596   2.820
 8353SOL    HW125958   0.679   5.648   2.849
 8353SOL    HW225959   0.570   5.628   2.729
 8354SOL     OW25960   4.589   2.286   3.747
 8354SOL    HW125961   4.654   2.265   3.673
 8354SOL    HW225962   4.601   2.220   3.821
 8355SOL     OW25963   3.064   5.085   6.464
 8355SOL    HW125964   2.996   5.159   6.466
 8355SOL    HW225965   3.114   5.089   6.377
 8356SOL     OW25966   2.912   3.675   1.456
 8356SOL    HW125967   2.838   3.622   1.415
 8356SOL    HW225968   2.968   3.715   1.383
 8357SOL     OW25969   2.910   6.800   4.826
 8357SOL    HW125970   2.940   6.705   4.826
 8357SOL    HW225971   2.974   6.856   4.774
 8358SOL     OW25972   6.970   6.987   4.680
 8358SOL    HW125973   6.917   0.040   4.654
 8358SOL    HW225974   0.033   6.993   4.640
 8359SOL     OW25975   5.004   2.047   5.319
 8359SOL    HW125976   5.047   1.978   5.379
 8359SOL    HW225977   5.029   2.138   5.351
 8360SOL     OW25978   2.952   0.390   1.973
 8360SOL    HW125979   2.934   0.310   2.031
 8360SOL    HW225980   2.980   0.360   1.882
 8361SOL     OW25981   4.965   1.225   0.027
 8361SOL    HW125982   4.907   1.269   6.987
 8361SOL    HW225983   4.967   1.281   0.110
 8362SOL     OW25984   0.753   4.311   1.388
 8362SOL    HW125985   0.755   4.367   1.305
 8362SOL    HW225986   0.816   4.350   1.455
 8363SOL     OW25987   2.326   2.206   1.060
 8363SOL    HW125988   2.354   2.258   1.141
 8363SOL    HW225989   2.229   2.183   1.068
 8364SOL     OW25990   0.313   1.376   3.742
 8364SOL    HW125991   0.371   1.440   3.692
 8364SOL    HW225992   0.322   1.285   3.703
 8365SOL     OW25993   1.912   3.015   1.132
 8365SOL    HW125994   1.972   2.990   1.056
 8365SOL    HW225995   1.925   2.950   1.207
 8366SOL     OW25996   5.194   5.616   1.694
 8366SOL    HW125997   5.211   5.558   1.773
 8366SOL    HW225998   5.109   5.668   1.707
 8367SOL     OW25999   1.887   4.281   3.648
 8367SOL    HW126000   1.818   4.332   3.699
 8367SOL    HW226001   1.978   4.317   3.670
 8368SOL     OW26002   0.581   3.605   6.566
 8368SOL    HW126003   0.495   3.555   6.556
 8368SOL    HW226004   0.561   3.697   6.599
 8369SOL     OW26005   0.983   0.017   0.171
 8369SOL    HW126006   1.018   6.995   0.251
 8369SOL    HW226007   0.891   7.012   0.149
 8370SOL     OW26008   2.931   3.036   0.487
 8370SOL    HW126009   2.966   3.017   0.396
 8370SOL    HW226010   3.000   3.012   0.555
 8371SOL     OW26011   3.023   4.084   5.546
 8371SOL    HW126012   3.043   4.146   5.622
 8371SOL    HW226013   2.967   4.131   5.478
 8372SOL     OW26014   1.677   6.877   2.400
 8372SOL    HW126015   1.677   6.952   2.466
 8372SOL    HW226016   1.585   6.865   2.363
 8373SOL     OW26017   5.321   0.954   4.029
 8373SOL    HW126018   5.270   0.873   4.000
 8373SOL    HW226019   5.399   0.968   3.968
 8374SOL     OW26020   0.712   1.674   3.447
 8374SOL    HW126021   0.797   1.629   3.420
 8374SOL    HW226022   0.731   1.769   3.470
 8375SOL     OW26023   1.713   2.821   5.478
 8375SOL    HW126024   1.761   2.734   5.466
 8375SOL    HW226025   1.731   2.880   5.399
 8376SOL     OW26026   0.646   1.681   4.372
 8376SOL    HW126027   0.731   1.635   4.343
 8376SOL    HW226028   0.582   1.682   4.295
 8377SOL     OW26029   3.112   5.254   1.168
 8377SOL    HW126030   3.162   5.197   1.232
 8377SOL    HW226031   3.110   5.210   1.078
 8378SOL     OW26032   4.224   5.233   4.634
 8378SOL    HW126033   4.275   5.148   4.617
 8378SOL    HW226034   4.288   5.309   4.644
 8379SOL     OW26035   5.669   2.748   2.163
 8379SOL    HW126036   5.579   2.789   2.150
 8379SOL    HW226037   5.731   2.780   2.091
 8380SOL     OW26038   1.662   5.483   2.823
 8380SOL    HW126039   1.590   5.506   2.888
 8380SOL    HW226040   1.624   5.481   2.730
 8381SOL     OW26041   1.266   2.018   2.835
 8381SOL    HW126042   1.271   2.111   2.871
 8381SOL    HW226043   1.358   1.987   2.812
 8382SOL     OW26044   0.980   6.792   1.500
 8382SOL    HW126045   0.941   6.702   1.479
 8382SOL    HW226046   1.036   6.823   1.424
 8383SOL     OW26047   2.309   0.116   5.185
 8383SOL    HW126048   2.344   0.209   5.197
 8383SOL    HW226049   2.369   0.065   5.123
 8384SOL     OW26050   0.400   3.168   3.847
 8384SOL    HW126051   0.377   3.190   3.752
 8384SOL    HW226052   0.428   3.251   3.895
 8385SOL     OW26053   4.305   2.391   2.102
 8385SOL    HW126054   4.222   2.338   2.090
 8385SOL    HW226055   4.285   2.474   2.155
 8386SOL     OW26056   0.265   5.204   1.867
 8386SOL    HW126057   0.364   5.200   1.855
 8386SOL    HW226058   0.243   5.207   1.965
 8387SOL     OW26059   0.385   1.997   3.534
 8387SOL    HW126060   0.484   2.004   3.534
 8387SOL    HW226061   0.345   2.087   3.515
 8388SOL     OW26062   3.832   5.653   1.561
 8388SOL    HW126063   3.854   5.579   1.624
 8388SOL    HW226064   3.785   5.727   1.610
 8389SOL     OW26065   1.616   2.431   4.598
 8389SOL    HW126066   1.680   2.430   4.675
 8389SOL    HW226067   1.552   2.507   4.609
 8390SOL     OW26068   2.492   0.280   6.350
 8390SOL    HW126069   2.458   0.285   6.256
 8390SOL    HW226070   2.520   0.371   6.380
 8391SOL     OW26071   4.822   6.087   0.822
 8391SOL    HW126072   4.769   6.166   0.852
 8391SOL    HW226073   4.796   6.007   0.876
 8392SOL     OW26074   4.085   5.354   0.298
 8392SOL    HW126075   4.021   5.384   0.368
 8392SOL    HW226076   4.079   5.255   0.286
 8393SOL     OW26077   1.317   5.794   1.981
 8393SOL    HW126078   1.382   5.810   1.907
 8393SOL    HW226079   1.348   5.716   2.037
 8394SOL     OW26080   1.670   1.597   3.427
 8394SOL    HW126081   1.680   1.677   3.486
 8394SOL    HW226082   1.573   1.571   3.422
 8395SOL     OW26083   2.203   6.182   6.348
 8395SOL    HW126084   2.164   6.232   6.425
 8395SOL    HW226085   2.133   6.167   6.279
 8396SOL     OW26086   4.346   2.505   1.091
 8396SOL    HW126087   4.286   2.571   1.137
 8396SOL    HW226088   4.441   2.524   1.116
 8397SOL     OW26089   1.218   4.439   3.352
 8397SOL    HW126090   1.297   4.377   3.350
 8397SOL    HW226091   1.233   4.509   3.423
 8398SOL     OW26092   5.315   1.574   6.682
 8398SOL    HW126093   5.317   1.520   6.597
 8398SOL    HW226094   5.329   1.514   6.760
 8399SOL     OW26095   5.710   6.324   5.352
 8399SOL    HW126096   5.713   6.422   5.331
 8399SOL    HW226097   5.636   6.281   5.301
 8400SOL     OW26098   6.208   6.321   3.722
 8400SOL    HW126099   6.280   6.330   3.791
 8400SOL    HW226100   6.152   6.403   3.722
 8401SOL     OW26101   2.939   3.809   4.908
 8401SOL    HW126102   2.943   3.721   4.860
 8401SOL    HW226103   2.973   3.881   4.848
 8402SOL     OW26104   4.799   0.789   5.520
 8402SOL    HW126105   4.749   0.784   5.606
 8402SOL    HW226106   4.894   0.760   5.534
 8403SOL     OW26107   0.851   2.743   5.982
 8403SOL    HW126108   0.764   2.739   5.934
 8403SOL    HW226109   0.836   2.768   6.078
 8404SOL     OW26110   4.478   5.252   5.666
 8404SOL    HW126111   4.501   5.345   5.694
 8404SOL    HW226112   4.530   5.186   5.720
 8405SOL     OW26113   1.531   2.493   5.765
 8405SOL    HW126114   1.549   2.395   5.776
 8405SOL    HW226115   1.440   2.506   5.727
 8406SOL     OW26116   5.633   3.420   1.621
 8406SOL    HW126117   5.606   3.458   1.710
 8406SOL    HW226118   5.711   3.470   1.585
 8407SOL     OW26119   5.005   3.505   2.589
 8407SOL    HW126120   4.973   3.553   2.508
 8407SOL    HW226121   5.012   3.568   2.666
 8408SOL     OW26122   4.796   4.027   3.956
 8408SOL    HW126123   4.859   3.977   4.015
 8408SOL    HW226124   4.745   4.094   4.011
 8409SOL     OW26125   1.801   1.749   4.106
 8409SOL    HW126126   1.793   1.799   4.020
 8409SOL    HW226127   1.804   1.813   4.182
 8410SOL     OW26128   2.177   5.374   2.408
 8410SOL    HW126129   2.253   5.360   2.471
 8410SOL    HW226130   2.124   5.290   2.400
 8411SOL     OW26131   1.620   3.162   3.087
 8411SOL    HW126132   1.614   3.260   3.067
 8411SOL    HW226133   1.560   3.140   3.163
 8412SOL     OW26134   6.192   2.680   2.277
 8412SOL    HW126135   6.103   2.653   2.316
 8412SOL    HW226136   6.179   2.756   2.214
 8413SOL     OW26137   2.190   5.161   0.931
 8413SOL    HW126138   2.249   5.212   0.868
 8413SOL    HW226139   2.106   5.134   0.884
 8414SOL     OW26140   5.468   0.432   3.892
 8414SOL    HW126141   5.473   0.498   3.817
 8414SOL    HW226142   5.561   0.414   3.926
 8415SOL     OW26143   0.220   4.992   1.010
 8415SOL    HW126144   0.167   5.072   0.983
 8415SOL    HW226145   0.246   4.999   1.106
 8416SOL     OW26146   4.422   4.553   2.848
 8416SOL    HW126147   4.492   4.494   2.809
 8416SOL    HW226148   4.388   4.616   2.778
 8417SOL     OW26149   1.075   5.525   0.131
 8417SOL    HW126150   1.085   5.550   0.227
 8417SOL    HW226151   1.122   5.592   0.074
 8418SOL     OW26152   5.559   5.630   2.507
 8418SOL    HW126153   5.520   5.722   2.507
 8418SOL    HW226154   5.566   5.597   2.601
 8419SOL     OW26155   3.908   0.651   3.751
 8419SOL    HW126156   3.919   0.751   3.747
 8419SOL    HW226157   3.811   0.628   3.750
 8420SOL     OW26158   4.403   1.885   5.526
 8420SOL    HW126159   4.432   1.922   5.438
 8420SOL    HW226160   4.481   1.886   5.589
 8421SOL     OW26161   0.878   1.201   0.773
 8421SOL    HW126162   0.898   1.299   0.769
 8421SOL    HW226163   0.821   1.181   0.852
 8422SOL     OW26164   2.445   0.477   1.781
 8422SOL    HW126165   2.479   0.385   1.803
 8422SOL    HW226166   2.354   0.470   1.741
 8423SOL     OW26167   2.336   4.609   0.913
 8423SOL    HW126168   2.279   4.564   0.845
 8423SOL    HW226169   2.403   4.544   0.950
 8424SOL     OW26170   3.012   2.429   1.629
 8424SOL    HW126171   2.979   2.435   1.723
 8424SOL    HW226172   3.014   2.520   1.588
 8425SOL     OW26173   0.429   4.572   6.147
 8425SOL    HW126174   0.484   4.650   6.116
 8425SOL    HW226175   0.421   4.505   6.073
 8426SOL     OW26176   3.286   3.298   2.405
 8426SOL    HW126177   3.329   3.388   2.401
 8426SOL    HW226178   3.339   3.233   2.350
 8427SOL     OW26179   2.227   2.173   0.052
 8427SOL    HW126180   2.315   2.213   0.029
 8427SOL    HW226181   2.210   2.182   0.150
 8428SOL     OW26182   6.433   4.081   0.641
 8428SOL    HW126183   6.394   4.076   0.733
 8428SOL    HW226184   6.532   4.062   0.646
 8429SOL     OW26185   1.444   6.729   2.963
 8429SOL    HW126186   1.406   6.805   2.910
 8429SOL    HW226187   1.533   6.755   2.999
 8430SOL     OW26188   4.109   5.563   2.666
 8430SOL    HW126189   4.149   5.537   2.754
 8430SOL    HW226190   4.168   5.533   2.592
 8431SOL     OW26191   2.863   3.532   2.449
 8431SOL    HW126192   2.792   3.511   2.517
 8431SOL    HW226193   2.948   3.486   2.475
 8432SOL     OW26194   4.847   6.331   0.106
 8432SOL    HW126195   4.784   6.281   0.045
 8432SOL    HW226196   4.816   6.322   0.200
 8433SOL     OW26197   6.866   1.206   3.889
 8433SOL    HW126198   6.812   1.288   3.910
 8433SOL    HW226199   6.947   1.231   3.837
 8434SOL     OW26200   5.706   0.042   6.375
 8434SOL    HW126201   5.786   7.014   6.393
 8434SOL    HW226202   5.650   7.027   6.304
 8435SOL     OW26203   4.645   2.814   0.955
 8435SOL    HW126204   4.654   2.742   1.024
 8435SOL    HW226205   4.699   2.791   0.874
 8436SOL     OW26206   3.094   4.314   1.703
 8436SOL    HW126207   3.041   4.379   1.757
 8436SOL    HW226208   3.107   4.350   1.611
 8437SOL     OW26209   7.006   2.601   1.311
 8437SOL    HW126210   0.020   2.562   1.394
 8437SOL    HW226211   6.908   2.584   1.313
 8438SOL     OW26212   2.020   5.570   1.159
 8438SOL    HW126213   2.022   5.478   1.119
 8438SOL    HW226214   1.981   5.634   1.093
 8439SOL     OW26215   5.443   0.525   1.739
 8439SOL    HW126216   5.439   0.553   1.643
 8439SOL    HW226217   5.350   0.524   1.777
 8440SOL     OW26218   1.288   3.200   4.205
 8440SOL    HW126219   1.333   3.111   4.199
 8440SOL    HW226220   1.286   3.230   4.300
 8441SOL     OW26221   4.291   6.038   1.195
 8441SOL    HW126222   4.362   6.101   1.225
 8441SOL    HW226223   4.209   6.051   1.252
 8442SOL     OW26224   2.271   2.342   0.818
 8442SOL    HW126225   2.268   2.439   0.841
 8442SOL    HW226226   2.316   2.292   0.892
 8443SOL     OW26227   6.944   1.944   1.337
 8443SOL    HW126228   0.008   1.982   1.324
 8443SOL    HW226229   6.876   2.016   1.320
 8444SOL     OW26230   4.925   1.824   3.157
 8444SOL    HW126231   4.828   1.800   3.154
 8444SOL    HW226232   4.952   1.863   3.068
 8445SOL     OW26233   5.170   5.470   1.941
 8445SOL    HW126234   5.254   5.434   1.982
 8445SOL    HW226235   5.118   5.395   1.901
 8446SOL     OW26236   6.574   3.732   3.103
 8446SOL    HW126237   6.630   3.727   3.021
 8446SOL    HW226238   6.582   3.647   3.155
 8447SOL     OW26239   4.819   4.487   1.502
 8447SOL    HW126240   4.799   4.551   1.577
 8447SOL    HW226241   4.737   4.433   1.482
 8448SOL     OW26242   2.063   4.066   5.788
 8448SOL    HW126243   2.155   4.039   5.758
 8448SOL    HW226244   2.009   3.984   5.805
 8449SOL     OW26245   0.967   0.342   5.157
 8449SOL    HW126246   0.927   0.252   5.145
 8449SOL    HW226247   0.918   0.409   5.101
 8450SOL     OW26248   1.725   5.707   0.900
 8450SOL    HW126249   1.694   5.794   0.939
 8450SOL    HW226250   1.681   5.693   0.811
 8451SOL     OW26251   3.016   3.874   0.542
 8451SOL    HW126252   3.030   3.808   0.617
 8451SOL    HW226253   3.088   3.861   0.473
 8452SOL     OW26254   0.119   5.945   1.904
 8452SOL    HW126255   0.061   5.945   1.822
 8452SOL    HW226256   0.097   5.865   1.960
 8453SOL     OW26257   6.909   4.919   5.095
 8453SOL    HW126258   6.984   4.984   5.081
 8453SOL    HW226259   6.902   4.860   5.014
 8454SOL     OW26260   2.074   0.179   5.049
 8454SOL    HW126261   2.154   0.163   5.107
 8454SOL    HW226262   2.089   0.134   4.960
 8455SOL     OW26263   6.368   3.266   0.628
 8455SOL    HW126264   6.449   3.211   0.607
 8455SOL    HW226265   6.365   3.285   0.726
 8456SOL     OW26266   5.544   5.133   3.909
 8456SOL    HW126267   5.584   5.078   3.835
 8456SOL    HW226268   5.446   5.115   3.914
 8457SOL     OW26269   6.568   6.208   5.763
 8457SOL    HW126270   6.522   6.276   5.706
 8457SOL    HW226271   6.657   6.244   5.792
 8458SOL     OW26272   1.318   1.763   1.057
 8458SOL    HW126273   1.298   1.765   1.155
 8458SOL    HW226274   1.416   1.774   1.043
 8459SOL     OW26275   2.483   5.100   3.488
 8459SOL    HW126276   2.498   5.177   3.549
 8459SOL    HW226277   2.560   5.092   3.425
 8460SOL     OW26278   3.587   1.299   1.791
 8460SOL    HW126279   3.605   1.311   1.693
 8460SOL    HW226280   3.539   1.213   1.805
 8461SOL     OW26281   5.409   4.169   3.392
 8461SOL    HW126282   5.422   4.153   3.294
 8461SOL    HW226283   5.437   4.087   3.443
 8462SOL     OW26284   1.728   3.861   0.551
 8462SOL    HW126285   1.779   3.946   0.547
 8462SOL    HW226286   1.755   3.809   0.633
 8463SOL     OW26287   0.496   0.065   1.208
 8463SOL    HW126288   0.541   0.045   1.295
 8463SOL    HW226289   0.528   0.001   1.138
 8464SOL     OW26290   6.976   3.031   6.480
 8464SOL    HW126291   0.027   3.064   6.530
 8464SOL    HW226292   6.896   3.032   6.539
 8465SOL     OW26293   5.405   4.733   0.754
 8465SOL    HW126294   5.440   4.676   0.828
 8465SOL    HW226295   5.379   4.675   0.677
 8466SOL     OW26296   0.461   1.528   5.247
 8466SOL    HW126297   0.407   1.526   5.164
 8466SOL    HW226298   0.552   1.489   5.229
 8467SOL     OW26299   3.182   1.309   0.477
 8467SOL    HW126300   3.107   1.299   0.412
 8467SOL    HW226301   3.147   1.308   0.570
 8468SOL     OW26302   5.839   4.100   0.473
 8468SOL    HW126303   5.823   4.011   0.514
 8468SOL    HW226304   5.845   4.091   0.374
 8469SOL     OW26305   3.407   2.916   5.169
 8469SOL    HW126306   3.424   2.903   5.071
 8469SOL    HW226307   3.310   2.934   5.184
 8470SOL     OW26308   1.694   5.322   1.326
 8470SOL    HW126309   1.744   5.314   1.240
 8470SOL    HW226310   1.746   5.279   1.399
 8471SOL     OW26311   4.094   1.352   3.422
 8471SOL    HW126312   4.139   1.324   3.506
 8471SOL    HW226313   4.158   1.405   3.366
 8472SOL     OW26314   5.670   2.054   6.478
 8472SOL    HW126315   5.590   2.064   6.420
 8472SOL    HW226316   5.642   2.031   6.571
 8473SOL     OW26317   4.935   4.878   5.823
 8473SOL    HW126318   4.913   4.793   5.871
 8473SOL    HW226319   4.992   4.858   5.744
 8474SOL     OW26320   3.385   3.675   5.804
 8474SOL    HW126321   3.373   3.684   5.902
 8474SOL    HW226322   3.469   3.721   5.776
 8475SOL     OW26323   0.578   2.492   2.726
 8475SOL    HW126324   0.660   2.518   2.674
 8475SOL    HW226325   0.522   2.574   2.742
 8476SOL     OW26326   6.460   1.131   2.310
 8476SOL    HW126327   6.397   1.203   2.280
 8476SOL    HW226328   6.503   1.089   2.231
 8477SOL     OW26329   5.458   0.102   0.999
 8477SOL    HW126330   5.548   0.094   1.043
 8477SOL    HW226331   5.460   0.176   0.932
 8478SOL     OW26332   1.414   6.808   6.244
 8478SOL    HW126333   1.462   6.729   6.207
 8478SOL    HW226334   1.444   6.824   6.339
 8479SOL     OW26335   1.009   2.732   0.123
 8479SOL    HW126336   0.995   2.698   0.216
 8479SOL    HW226337   0.920   2.746   0.079
 8480SOL     OW26338   3.078   4.406   1.448
 8480SOL    HW126339   2.983   4.434   1.435
 8480SOL    HW226340   3.118   4.380   1.361
 8481SOL     OW26341   4.879   3.258   2.696
 8481SOL    HW126342   4.944   3.333   2.685
 8481SOL    HW226343   4.828   3.246   2.610
 8482SOL     OW26344   4.821   0.293   6.113
 8482SOL    HW126345   4.806   0.362   6.042
 8482SOL    HW226346   4.733   0.260   6.146
 8483SOL     OW26347   4.144   5.040   3.281
 8483SOL    HW126348   4.191   4.954   3.301
 8483SOL    HW226349   4.097   5.033   3.193
 8484SOL     OW26350   6.603   6.728   5.180
 8484SOL    HW126351   6.680   6.740   5.118
 8484SOL    HW226352   6.519   6.716   5.127
 8485SOL     OW26353   4.141   0.654   5.777
 8485SOL    HW126354   4.045   0.629   5.763
 8485SOL    HW226355   4.156   0.679   5.873
 8486SOL     OW26356   4.948   2.099   4.320
 8486SOL    HW126357   4.857   2.141   4.328
 8486SOL    HW226358   4.939   2.006   4.285
 8487SOL     OW26359   6.742   1.997   6.587
 8487SOL    HW126360   6.721   1.901   6.568
 8487SOL    HW226361   6.801   2.033   6.514
 8488SOL     OW26362   3.954   4.834   2.590
 8488SOL    HW126363   3.929   4.872   2.501
 8488SOL    HW226364   3.905   4.882   2.662
 8489SOL     OW26365   6.634   1.870   2.078
 8489SOL    HW126366   6.658   1.953   2.027
 8489SOL    HW226367   6.537   1.873   2.103
 8490SOL     OW26368   3.338   6.608   0.575
 8490SOL    HW126369   3.401   6.651   0.510
 8490SOL    HW226370   3.316   6.516   0.543
 8491SOL     OW26371   3.595   5.702   2.258
 8491SOL    HW126372   3.618   5.605   2.251
 8491SOL    HW226373   3.528   5.725   2.187
 8492SOL     OW26374   5.615   6.401   3.871
 8492SOL    HW126375   5.626   6.480   3.810
 8492SOL    HW226376   5.704   6.358   3.887
 8493SOL     OW26377   5.300   0.661   5.434
 8493SOL    HW126378   5.392   0.696   5.416
 8493SOL    HW226379   5.296   0.564   5.412
 8494SOL     OW26380   0.025   3.321   2.099
 8494SOL    HW126381   6.973   3.263   2.089
 8494SOL    HW226382   0.029   3.386   2.022
 8495SOL     OW26383   5.498   5.934   5.556
 8495SOL    HW126384   5.579   5.983   5.523
 8495SOL    HW226385   5.519   5.837   5.564
 8496SOL     OW26386   4.369   1.808   2.648
 8496SOL    HW126387   4.414   1.724   2.678
 8496SOL    HW226388   4.436   1.871   2.610
 8497SOL     OW26389   6.019   0.790   2.926
 8497SOL    HW126390   6.031   0.711   2.866
 8497SOL    HW226391   6.102   0.804   2.980
 8498SOL     OW26392   4.674   6.505   4.148
 8498SOL    HW126393   4.701   6.576   4.213
 8498SOL    HW226394   4.660   6.419   4.197
 8499SOL     OW26395   6.339   6.987   5.318
 8499SOL    HW126396   6.395   0.005   5.250
 8499SOL    HW226397   6.244   6.986   5.289
 8500SOL     OW26398   1.349   0.605   6.631
 8500SOL    HW126399   1.315   0.677   6.571
 8500SOL    HW226400   1.449   0.599   6.624
 8501SOL     OW26401   3.763   1.038   5.085
 8501SOL    HW126402   3.755   1.039   4.985
 8501SOL    HW226403   3.733   0.949   5.119
 8502SOL     OW26404   6.636   2.877   0.127
 8502SOL    HW126405   6.587   2.927   0.198
 8502SOL    HW226406   6.713   2.932   0.093
 8503SOL     OW26407   4.718   2.104   5.711
 8503SOL    HW126408   4.660   2.180   5.681
 8503SOL    HW226409   4.717   2.098   5.811
 8504SOL     OW26410   1.133   0.367   3.466
 8504SOL    HW126411   1.054   0.349   3.525
 8504SOL    HW226412   1.135   0.464   3.443
 8505SOL     OW26413   5.728   2.099   2.317
 8505SOL    HW126414   5.658   2.131   2.253
 8505SOL    HW226415   5.771   2.178   2.361
 8506SOL     OW26416   1.945   0.791   5.375
 8506SOL    HW126417   1.913   0.771   5.467
 8506SOL    HW226418   1.958   0.705   5.325
 8507SOL     OW26419   4.354   4.671   5.916
 8507SOL    HW126420   4.411   4.595   5.886
 8507SOL    HW226421   4.338   4.733   5.839
 8508SOL     OW26422   3.727   0.526   6.441
 8508SOL    HW126423   3.801   0.593   6.453
 8508SOL    HW226424   3.646   0.571   6.406
 8509SOL     OW26425   4.531   2.255   2.454
 8509SOL    HW126426   4.595   2.331   2.464
 8509SOL    HW226427   4.444   2.279   2.497
 8510SOL     OW26428   0.923   2.058   4.936
 8510SOL    HW126429   0.979   2.005   4.872
 8510SOL    HW226430   0.874   1.996   4.997
 8511SOL     OW26431   5.603   2.090   4.045
 8511SOL    HW126432   5.568   2.129   3.960
 8511SOL    HW226433   5.587   2.155   4.120
 8512SOL     OW26434   1.840   6.487   5.591
 8512SOL    HW126435   1.805   6.546   5.664
 8512SOL    HW226436   1.791   6.400   5.592
 8513SOL     OW26437   4.604   5.098   6.937
 8513SOL    HW126438   4.555   5.144   6.863
 8513SOL    HW226439   4.696   5.135   6.945
 8514SOL     OW26440   3.475   5.995   4.697
 8514SOL    HW126441   3.403   5.969   4.762
 8514SOL    HW226442   3.499   5.916   4.641
 8515SOL     OW26443   5.476   2.843   1.711
 8515SOL    HW126444   5.510   2.929   1.674
 8515SOL    HW226445   5.377   2.845   1.717
 8516SOL     OW26446   7.008   1.667   1.331
 8516SOL    HW126447   0.022   1.645   1.243
 8516SOL    HW226448   6.982   1.763   1.333
 8517SOL     OW26449   1.503   3.948   4.333
 8517SOL    HW126450   1.453   4.021   4.380
 8517SOL    HW226451   1.565   3.988   4.266
 8518SOL     OW26452   3.379   5.932   1.007
 8518SOL    HW126453   3.457   5.980   0.967
 8518SOL    HW226454   3.397   5.917   1.105
 8519SOL     OW26455   2.728   5.481   3.510
 8519SOL    HW126456   2.782   5.560   3.538
 8519SOL    HW226457   2.771   5.437   3.431
 8520SOL     OW26458   3.635   6.367   6.591
 8520SOL    HW126459   3.541   6.383   6.619
 8520SOL    HW226460   3.690   6.449   6.611
 8521SOL     OW26461   1.450   0.979   2.457
 8521SOL    HW126462   1.433   1.077   2.447
 8521SOL    HW226463   1.439   0.953   2.553
 8522SOL     OW26464   1.981   6.490   4.593
 8522SOL    HW126465   1.913   6.559   4.568
 8522SOL    HW226466   2.071   6.533   4.602
 8523SOL     OW26467   2.016   6.141   6.927
 8523SOL    HW126468   2.041   6.228   6.971
 8523SOL    HW226469   2.089   6.113   6.865
 8524SOL     OW26470   1.793   1.626   0.220
 8524SOL    HW126471   1.781   1.544   0.164
 8524SOL    HW226472   1.867   1.681   0.183
 8525SOL     OW26473   5.370   4.183   4.138
 8525SOL    HW126474   5.274   4.212   4.145
 8525SOL    HW226475   5.412   4.186   4.229
 8526SOL     OW26476   0.888   3.677   2.016
 8526SOL    HW126477   0.877   3.774   1.994
 8526SOL    HW226478   0.813   3.626   1.974
 8527SOL     OW26479   4.917   0.366   4.470
 8527SOL    HW126480   4.968   0.371   4.556
 8527SOL    HW226481   4.852   0.441   4.466
 8528SOL     OW26482   5.397   0.706   0.452
 8528SOL    HW126483   5.340   0.765   0.395
 8528SOL    HW226484   5.367   0.611   0.443
 8529SOL     OW26485   6.975   6.853   4.895
 8529SOL    HW126486   0.033   6.805   4.912
 8529SOL    HW226487   6.989   6.919   4.821
 8530SOL     OW26488   2.101   4.574   6.386
 8530SOL    HW126489   2.137   4.486   6.353
 8530SOL    HW226490   2.043   4.614   6.316
 8531SOL     OW26491   3.982   5.467   2.058
 8531SOL    HW126492   3.951   5.386   2.108
 8531SOL    HW226493   3.935   5.548   2.094
 8532SOL     OW26494   1.364   4.215   6.848
 8532SOL    HW126495   1.447   4.171   6.882
 8532SOL    HW226496   1.344   4.182   6.756
 8533SOL     OW26497   3.285   6.673   5.473
 8533SOL    HW126498   3.310   6.622   5.555
 8533SOL    HW226499   3.187   6.688   5.471
 8534SOL     OW26500   2.092   2.022   0.574
 8534SOL    HW126501   2.180   2.037   0.618
 8534SOL    HW226502   2.033   1.969   0.636
 8535SOL     OW26503   0.667   3.271   5.965
 8535SOL    HW126504   0.660   3.371   5.964
 8535SOL    HW226505   0.760   3.244   5.939
 8536SOL     OW26506   6.265   0.289   6.149
 8536SOL    HW126507   6.344   0.234   6.176
 8536SOL    HW226508   6.273   0.316   6.054
 8537SOL     OW26509   4.249   6.330   3.035
 8537SOL    HW126510   4.221   6.288   3.121
 8537SOL    HW226511   4.202   6.285   2.959
 8538SOL     OW26512   4.561   0.324   5.414
 8538SOL    HW126513   4.624   0.401   5.412
 8538SOL    HW226514   4.473   0.353   5.376
 8539SOL     OW26515   0.621   3.204   3.507
 8539SOL    HW126516   0.522   3.210   3.515
 8539SOL    HW226517   0.662   3.218   3.597
 8540SOL     OW26518   4.805   6.255   6.442
 8540SOL    HW126519   4.802   6.287   6.536
 8540SOL    HW226520   4.738   6.306   6.387
 8541SOL     OW26521   2.907   5.970   5.643
 8541SOL    HW126522   2.853   5.889   5.620
 8541SOL    HW226523   2.979   5.944   5.707
 8542SOL     OW26524   1.913   4.602   6.210
 8542SOL    HW126525   1.820   4.633   6.232
 8542SOL    HW226526   1.911   4.507   6.181
 8543SOL     OW26527   3.401   1.854   5.609
 8543SOL    HW126528   3.443   1.833   5.520
 8543SOL    HW226529   3.377   1.952   5.612
 8544SOL     OW26530   5.659   3.604   5.284
 8544SOL    HW126531   5.744   3.554   5.264
 8544SOL    HW226532   5.580   3.547   5.261
 8545SOL     OW26533   2.250   0.413   6.132
 8545SOL    HW126534   2.175   0.348   6.135
 8545SOL    HW226535   2.244   0.474   6.210
 8546SOL     OW26536   3.136   1.104   3.482
 8546SOL    HW126537   3.071   1.067   3.415
 8546SOL    HW226538   3.180   1.186   3.443
 8547SOL     OW26539   5.724   6.054   5.863
 8547SOL    HW126540   5.742   6.116   5.939
 8547SOL    HW226541   5.808   6.040   5.811
 8548SOL     OW26542   1.323   4.457   4.123
 8548SOL    HW126543   1.304   4.368   4.164
 8548SOL    HW226544   1.305   4.530   4.190
 8549SOL     OW26545   2.881   0.669   3.830
 8549SOL    HW126546   2.867   0.582   3.879
 8549SOL    HW226547   2.914   0.650   3.738
 8550SOL     OW26548   0.137   3.974   5.070
 8550SOL    HW126549   0.054   3.992   5.018
 8550SOL    HW226550   0.207   3.937   5.009
 8551SOL     OW26551   3.939   1.461   4.119
 8551SOL    HW126552   3.883   1.403   4.179
 8551SOL    HW226553   3.922   1.437   4.023
 8552SOL     OW26554   4.014   1.666   2.165
 8552SOL    HW126555   3.977   1.577   2.138
 8552SOL    HW226556   3.944   1.716   2.217
 8553SOL     OW26557   5.314   3.709   0.321
 8553SOL    HW126558   5.356   3.663   0.399
 8553SOL    HW226559   5.366   3.791   0.298
 8554SOL     OW26560   1.161   1.408   6.617
 8554SOL    HW126561   1.175   1.490   6.672
 8554SOL    HW226562   1.108   1.431   6.536
 8555SOL     OW26563   3.239   1.800   3.668
 8555SOL    HW126564   3.139   1.811   3.668
 8555SOL    HW226565   3.282   1.889   3.657
 8556SOL     OW26566   0.291   4.701   5.336
 8556SOL    HW126567   0.200   4.713   5.296
 8556SOL    HW226568   0.290   4.731   5.432
 8557SOL     OW26569   6.401   0.832   0.449
 8557SOL    HW126570   6.323   0.891   0.469
 8557SOL    HW226571   6.369   0.741   0.422
 8558SOL     OW26572   2.656   6.501   3.305
 8558SOL    HW126573   2.716   6.473   3.381
 8558SOL    HW226574   2.710   6.512   3.222
 8559SOL     OW26575   1.158   3.244   3.483
 8559SOL    HW126576   1.154   3.196   3.571
 8559SOL    HW226577   1.090   3.318   3.483
 8560SOL     OW26578   3.476   4.267   1.433
 8560SOL    HW126579   3.460   4.169   1.417
 8560SOL    HW226580   3.492   4.283   1.530
 8561SOL     OW26581   4.145   0.769   2.208
 8561SOL    HW126582   4.131   0.724   2.296
 8561SOL    HW226583   4.231   0.739   2.168
 8562SOL     OW26584   5.255   2.502   6.622
 8562SOL    HW126585   5.198   2.566   6.674
 8562SOL    HW226586   5.336   2.550   6.588
 8563SOL     OW26587   1.080   4.670   2.858
 8563SOL    HW126588   1.131   4.661   2.773
 8563SOL    HW226589   1.143   4.690   2.933
 8564SOL     OW26590   3.948   6.497   0.053
 8564SOL    HW126591   3.974   6.402   0.035
 8564SOL    HW226592   4.029   6.555   0.051
 8565SOL     OW26593   1.353   4.946   1.494
 8565SOL    HW126594   1.306   5.021   1.540
 8565SOL    HW226595   1.364   4.968   1.397
 8566SOL     OW26596   2.901   0.995   3.336
 8566SOL    HW126597   2.897   1.049   3.252
 8566SOL    HW226598   2.808   0.968   3.362
 8567SOL     OW26599   1.691   3.005   0.985
 8567SOL    HW126600   1.652   2.914   0.972
 8567SOL    HW226601   1.757   3.003   1.059
 8568SOL     OW26602   5.511   6.382   5.612
 8568SOL    HW126603   5.556   6.416   5.529
 8568SOL    HW226604   5.496   6.458   5.675
 8569SOL     OW26605   4.866   1.207   6.357
 8569SOL    HW126606   4.885   1.305   6.352
 8569SOL    HW226607   4.862   1.169   6.265
 8570SOL     OW26608   1.744   1.898   3.897
 8570SOL    HW126609   1.709   1.879   3.805
 8570SOL    HW226610   1.718   1.991   3.924
 8571SOL     OW26611   1.052   1.121   3.546
 8571SOL    HW126612   1.099   1.042   3.585
 8571SOL    HW226613   1.101   1.204   3.569
 8572SOL     OW26614   2.702   3.631   5.616
 8572SOL    HW126615   2.654   3.613   5.530
 8572SOL    HW226616   2.789   3.676   5.596
 8573SOL     OW26617   1.861   6.078   6.432
 8573SOL    HW126618   1.957   6.097   6.449
 8573SOL    HW226619   1.825   6.143   6.365
 8574SOL     OW26620   5.706   1.847   5.420
 8574SOL    HW126621   5.771   1.788   5.468
 8574SOL    HW226622   5.713   1.833   5.322
 8575SOL     OW26623   2.691   6.299   4.494
 8575SOL    HW126624   2.776   6.338   4.457
 8575SOL    HW226625   2.621   6.299   4.423
 8576SOL     OW26626   1.539   3.689   5.102
 8576SOL    HW126627   1.559   3.682   5.005
 8576SOL    HW226628   1.467   3.757   5.117
 8577SOL     OW26629   1.521   0.849   0.439
 8577SOL    HW126630   1.479   0.920   0.382
 8577SOL    HW226631   1.619   0.868   0.449
 8578SOL     OW26632   1.092   0.116   5.906
 8578SOL    HW126633   1.133   0.088   5.819
 8578SOL    HW226634   1.001   0.076   5.914
 8579SOL     OW26635   3.519   6.817   2.039
 8579SOL    HW126636   3.599   6.831   2.096
 8579SOL    HW226637   3.490   6.905   2.000
 8580SOL     OW26638   2.049   0.670   1.945
 8580SOL    HW126639   2.093   0.580   1.936
 8580SOL    HW226640   2.112   0.733   1.990
 8581SOL     OW26641   4.004   3.656   3.135
 8581SOL    HW126642   4.039   3.665   3.041
 8581SOL    HW226643   4.014   3.562   3.166
 8582SOL     OW26644   4.326   5.765   5.584
 8582SOL    HW126645   4.231   5.754   5.553
 8582SOL    HW226646   4.386   5.771   5.505
 8583SOL     OW26647   3.572   0.036   3.005
 8583SOL    HW126648   3.642   0.055   2.936
 8583SOL    HW226649   3.492   0.094   2.987
 8584SOL     OW26650   5.995   2.333   5.129
 8584SOL    HW126651   5.898   2.308   5.127
 8584SOL    HW226652   6.051   2.256   5.099
 8585SOL     OW26653   4.854   2.485   2.833
 8585SOL    HW126654   4.872   2.524   2.923
 8585SOL    HW226655   4.756   2.466   2.824
 8586SOL     OW26656   6.843   6.585   5.327
 8586SOL    HW126657   6.897   6.595   5.411
 8586SOL    HW226658   6.750   6.617   5.344
 8587SOL     OW26659   6.656   0.763   1.060
 8587SOL    HW126660   6.686   0.760   1.155
 8587SOL    HW226661   6.705   0.835   1.012
 8588SOL     OW26662   1.436   1.095   5.612
 8588SOL    HW126663   1.369   1.161   5.579
 8588SOL    HW226664   1.407   1.002   5.589
 8589SOL     OW26665   5.861   2.985   6.582
 8589SOL    HW126666   5.801   2.906   6.594
 8589SOL    HW226667   5.863   3.038   6.667
 8590SOL     OW26668   1.177   0.974   3.029
 8590SOL    HW126669   1.149   1.025   3.110
 8590SOL    HW226670   1.173   1.035   2.949
 8591SOL     OW26671   1.227   4.412   5.256
 8591SOL    HW126672   1.211   4.444   5.349
 8591SOL    HW226673   1.324   4.418   5.234
 8592SOL     OW26674   0.398   2.509   5.196
 8592SOL    HW126675   0.427   2.603   5.179
 8592SOL    HW226676   0.375   2.464   5.110
 8593SOL     OW26677   6.328   1.301   0.329
 8593SOL    HW126678   6.359   1.293   0.234
 8593SOL    HW226679   6.390   1.249   0.388
 8594SOL     OW26680   5.965   4.185   6.547
 8594SOL    HW126681   6.050   4.133   6.546
 8594SOL    HW226682   5.981   4.274   6.590
 8595SOL     OW26683   5.385   6.477   2.654
 8595SOL    HW126684   5.411   6.533   2.575
 8595SOL    HW226685   5.441   6.501   2.733
 8596SOL     OW26686   0.430   2.122   5.786
 8596SOL    HW126687   0.387   2.046   5.834
 8596SOL    HW226688   0.448   2.196   5.850
 8597SOL     OW26689   5.960   2.346   5.652
 8597SOL    HW126690   5.960   2.252   5.619
 8597SOL    HW226691   5.891   2.399   5.604
 8598SOL     OW26692   0.070   0.838   6.352
 8598SOL    HW126693   6.999   0.848   6.352
 8598SOL    HW226694   0.111   0.903   6.289
 8599SOL     OW26695   5.667   3.960   4.893
 8599SOL    HW126696   5.606   3.906   4.951
 8599SOL    HW226697   5.621   4.044   4.865
 8600SOL     OW26698   4.097   3.191   1.674
 8600SOL    HW126699   4.188   3.159   1.652
 8600SOL    HW226700   4.077   3.274   1.621
 8601SOL     OW26701   4.772   5.500   2.480
 8601SOL    HW126702   4.767   5.512   2.381
 8601SOL    HW226703   4.685   5.528   2.521
 8602SOL     OW26704   2.021   6.261   5.017
 8602SOL    HW126705   1.980   6.178   5.054
 8602SOL    HW226706   2.083   6.238   4.943
 8603SOL     OW26707   0.856   1.389   6.682
 8603SOL    HW126708   0.885   1.416   6.591
 8603SOL    HW226709   0.935   1.385   6.743
 8604SOL     OW26710   1.230   5.486   6.274
 8604SOL    HW126711   1.264   5.443   6.190
 8604SOL    HW226712   1.245   5.424   6.351
 8605SOL     OW26713   6.495   4.510   3.904
 8605SOL    HW126714   6.406   4.521   3.860
 8605SOL    HW226715   6.501   4.571   3.983
 8606SOL     OW26716   1.167   0.383   6.485
 8606SOL    HW126717   1.174   0.327   6.567
 8606SOL    HW226718   1.206   0.474   6.503
 8607SOL     OW26719   2.954   3.054   1.541
 8607SOL    HW126720   2.859   3.041   1.569
 8607SOL    HW226721   2.968   3.150   1.516
 8608SOL     OW26722   2.189   5.699   1.682
 8608SOL    HW126723   2.157   5.659   1.596
 8608SOL    HW226724   2.270   5.755   1.664
 8609SOL     OW26725   5.305   2.072   4.599
 8609SOL    HW126726   5.238   2.000   4.582
 8609SOL    HW226727   5.397   2.036   4.584
 8610SOL     OW26728   6.838   5.344   2.411
 8610SOL    HW126729   6.793   5.408   2.473
 8610SOL    HW226730   6.796   5.349   2.321
 8611SOL     OW26731   1.951   1.541   5.359
 8611SOL    HW126732   1.952   1.517   5.456
 8611SOL    HW226733   2.042   1.570   5.331
 8612SOL     OW26734   3.406   3.122   5.550
 8612SOL    HW126735   3.327   3.097   5.494
 8612SOL    HW226736   3.440   3.040   5.597
 8613SOL     OW26737   3.084   3.182   3.370
 8613SOL    HW126738   3.146   3.105   3.350
 8613SOL    HW226739   3.077   3.194   3.469
 8614SOL     OW26740   0.507   2.616   4.211
 8614SOL    HW126741   0.604   2.604   4.228
 8614SOL    HW226742   0.455   2.579   4.288
 8615SOL     OW26743   3.783   0.821   5.545
 8615SOL    HW126744   3.683   0.818   5.537
 8615SOL    HW226745   3.823   0.781   5.463
 8616SOL     OW26746   6.113   4.046   5.540
 8616SOL    HW126747   6.068   4.085   5.620
 8616SOL    HW226748   6.207   4.079   5.534
 8617SOL     OW26749   1.132   6.887   3.292
 8617SOL    HW126750   1.220   6.850   3.262
 8617SOL    HW226751   1.103   6.840   3.376
 8618SOL     OW26752   6.235   4.718   0.752
 8618SOL    HW126753   6.272   4.631   0.721
 8618SOL    HW226754   6.199   4.769   0.674
 8619SOL     OW26755   5.301   5.518   6.490
 8619SOL    HW126756   5.343   5.428   6.493
 8619SOL    HW226757   5.370   5.586   6.466
 8620SOL     OW26758   1.419   6.794   3.901
 8620SOL    HW126759   1.405   6.876   3.957
 8620SOL    HW226760   1.353   6.724   3.927
 8621SOL     OW26761   6.465   3.407   1.327
 8621SOL    HW126762   6.370   3.405   1.296
 8621SOL    HW226763   6.510   3.320   1.304
 8622SOL     OW26764   1.078   5.554   1.407
 8622SOL    HW126765   1.099   5.650   1.393
 8622SOL    HW226766   1.041   5.514   1.323
 8623SOL     OW26767   2.187   1.991   3.324
 8623SOL    HW126768   2.112   1.948   3.275
 8623SOL    HW226769   2.186   1.961   3.419
 8624SOL     OW26770   3.635   3.684   5.358
 8624SOL    HW126771   3.624   3.589   5.330
 8624SOL    HW226772   3.553   3.714   5.406
 8625SOL     OW26773   4.502   3.138   5.889
 8625SOL    HW126774   4.438   3.214   5.896
 8625SOL    HW226775   4.564   3.154   5.811
 8626SOL     OW26776   5.014   2.204   1.191
 8626SOL    HW126777   5.025   2.158   1.279
 8626SOL    HW226778   5.094   2.184   1.134
 8627SOL     OW26779   0.292   6.761   2.911
 8627SOL    HW126780   0.300   6.661   2.910
 8627SOL    HW226781   0.197   6.787   2.896
 8628SOL     OW26782   1.575   6.888   0.556
 8628SOL    HW126783   1.582   6.987   0.567
 8628SOL    HW226784   1.587   6.844   0.645
 8629SOL     OW26785   7.014   0.503   4.424
 8629SOL    HW126786   7.026   0.412   4.385
 8629SOL    HW226787   0.001   0.499   4.523
 8630SOL     OW26788   5.124   2.822   1.468
 8630SOL    HW126789   5.038   2.813   1.417
 8630SOL    HW226790   5.198   2.782   1.415
 8631SOL     OW26791   1.531   6.071   6.833
 8631SOL    HW126792   1.622   6.059   6.792
 8631SOL    HW226793   1.516   6.167   6.854
 8632SOL     OW26794   6.176   6.060   3.989
 8632SOL    HW126795   6.115   6.081   4.066
 8632SOL    HW226796   6.226   6.142   3.962
 8633SOL     OW26797   6.686   2.891   5.078
 8633SOL    HW126798   6.728   2.897   4.988
 8633SOL    HW226799   6.591   2.923   5.074
 8634SOL     OW26800   4.893   4.757   6.158
 8634SOL    HW126801   4.966   4.806   6.206
 8634SOL    HW226802   4.805   4.799   6.179
 8635SOL     OW26803   5.421   1.939   5.773
 8635SOL    HW126804   5.326   1.908   5.780
 8635SOL    HW226805   5.449   1.938   5.677
 8636SOL     OW26806   3.943   6.021   1.001
 8636SOL    HW126807   3.953   5.930   1.040
 8636SOL    HW226808   4.000   6.030   0.919
 8637SOL     OW26809   3.216   2.360   0.796
 8637SOL    HW126810   3.117   2.373   0.802
 8637SOL    HW226811   3.236   2.262   0.795
 8638SOL     OW26812   5.280   2.644   4.785
 8638SOL    HW126813   5.215   2.702   4.834
 8638SOL    HW226814   5.245   2.550   4.783
 8639SOL     OW26815   3.197   4.316   0.443
 8639SOL    HW126816   3.160   4.299   0.352
 8639SOL    HW226817   3.253   4.399   0.442
 8640SOL     OW26818   3.505   2.374   6.711
 8640SOL    HW126819   3.411   2.339   6.709
 8640SOL    HW226820   3.504   2.472   6.727
 8641SOL     OW26821   3.451   4.932   3.707
 8641SOL    HW126822   3.457   4.937   3.607
 8641SOL    HW226823   3.357   4.916   3.734
 8642SOL     OW26824   2.366   6.215   3.145
 8642SOL    HW126825   2.384   6.146   3.074
 8642SOL    HW226826   2.358   6.305   3.102
 8643SOL     OW26827   3.803   6.459   1.254
 8643SOL    HW126828   3.842   6.368   1.243
 8643SOL    HW226829   3.826   6.515   1.173
 8644SOL     OW26830   5.557   2.452   6.154
 8644SOL    HW126831   5.644   2.402   6.157
 8644SOL    HW226832   5.559   2.524   6.223
 8645SOL     OW26833   4.875   4.898   2.645
 8645SOL    HW126834   4.888   4.824   2.711
 8645SOL    HW226835   4.854   4.860   2.555
 8646SOL     OW26836   7.020   1.846   4.808
 8646SOL    HW126837   6.941   1.815   4.861
 8646SOL    HW226838   7.006   1.940   4.777
 8647SOL     OW26839   1.858   4.703   1.873
 8647SOL    HW126840   1.809   4.687   1.958
 8647SOL    HW226841   1.935   4.764   1.889
 8648SOL     OW26842   5.399   5.306   6.192
 8648SOL    HW126843   5.431   5.399   6.177
 8648SOL    HW226844   5.447   5.244   6.130
 8649SOL     OW26845   5.357   2.118   1.947
 8649SOL    HW126846   5.392   2.050   1.884
 8649SOL    HW226847   5.258   2.126   1.938
 8650SOL     OW26848   1.348   0.622   5.349
 8650SOL    HW126849   1.313   0.680   5.275
 8650SOL    HW226850   1.433   0.579   5.319
 8651SOL     OW26851   4.550   2.039   1.950
 8651SOL    HW126852   4.466   2.069   1.905
 8651SOL    HW226853   4.527   1.972   2.021
 8652SOL     OW26854   6.323   2.390   4.116
 8652SOL    HW126855   6.226   2.370   4.102
 8652SOL    HW226856   6.377   2.346   4.045
 8653SOL     OW26857   5.572   0.671   0.901
 8653SOL    HW126858   5.510   0.602   0.939
 8653SOL    HW226859   5.635   0.702   0.972
 8654SOL     OW26860   0.348   4.598   2.890
 8654SOL    HW126861   0.338   4.650   2.806
 8654SOL    HW226862   0.433   4.623   2.936
 8655SOL     OW26863   1.220   6.983   5.061
 8655SOL    HW126864   1.212   6.896   5.014
 8655SOL    HW226865   1.288   0.012   5.014
 8656SOL     OW26866   4.263   5.796   1.054
 8656SOL    HW126867   4.294   5.884   1.090
 8656SOL    HW226868   4.336   5.756   0.998
 8657SOL     OW26869   3.430   1.601   2.612
 8657SOL    HW126870   3.518   1.635   2.646
 8657SOL    HW226871   3.393   1.666   2.545
 8658SOL     OW26872   6.381   4.213   0.902
 8658SOL    HW126873   6.412   4.160   0.982
 8658SOL    HW226874   6.402   4.310   0.917
 8659SOL     OW26875   3.338   0.347   3.184
 8659SOL    HW126876   3.281   0.426   3.206
 8659SOL    HW226877   3.434   0.372   3.190
 8660SOL     OW26878   0.061   3.798   1.404
 8660SOL    HW126879   7.024   3.737   1.358
 8660SOL    HW226880   0.055   3.889   1.363
 8661SOL     OW26881   6.167   3.502   2.267
 8661SOL    HW126882   6.106   3.581   2.260
 8661SOL    HW226883   6.186   3.467   2.175
 8662SOL     OW26884   1.739   2.421   3.124
 8662SOL    HW126885   1.822   2.438   3.071
 8662SOL    HW226886   1.661   2.461   3.075
 8663SOL     OW26887   3.232   4.938   2.781
 8663SOL    HW126888   3.202   4.900   2.693
 8663SOL    HW226889   3.165   4.915   2.851
 8664SOL     OW26890   3.369   6.153   3.938
 8664SOL    HW126891   3.329   6.067   3.908
 8664SOL    HW226892   3.301   6.226   3.931
 8665SOL     OW26893   0.174   3.789   6.406
 8665SOL    HW126894   0.231   3.708   6.421
 8665SOL    HW226895   0.228   3.859   6.359
 8666SOL     OW26896   4.842   0.304   2.734
 8666SOL    HW126897   4.867   0.400   2.722
 8666SOL    HW226898   4.889   0.266   2.813
 8667SOL     OW26899   5.265   2.572   2.087
 8667SOL    HW126900   5.270   2.631   2.006
 8667SOL    HW226901   5.175   2.530   2.092
 8668SOL     OW26902   3.871   2.187   3.475
 8668SOL    HW126903   3.804   2.122   3.510
 8668SOL    HW226904   3.927   2.220   3.551
 8669SOL     OW26905   0.440   6.269   6.081
 8669SOL    HW126906   0.362   6.217   6.047
 8669SOL    HW226907   0.525   6.229   6.047
 8670SOL     OW26908   0.347   5.590   5.149
 8670SOL    HW126909   0.391   5.587   5.059
 8670SOL    HW226910   0.300   5.677   5.159
 8671SOL     OW26911   6.985   3.337   3.840
 8671SOL    HW126912   6.980   3.380   3.750
 8671SOL    HW226913   0.023   3.263   3.839
 8672SOL     OW26914   6.411   1.507   2.411
 8672SOL    HW126915   6.412   1.480   2.508
 8672SOL    HW226916   6.486   1.570   2.393
 8673SOL     OW26917   0.832   1.129   1.600
 8673SOL    HW126918   0.761   1.084   1.654
 8673SOL    HW226919   0.854   1.217   1.641
 8674SOL     OW26920   0.446   3.417   3.983
 8674SOL    HW126921   0.373   3.485   3.988
 8674SOL    HW226922   0.532   3.463   3.961
 8675SOL     OW26923   4.698   2.490   4.917
 8675SOL    HW126924   4.715   2.427   4.993
 8675SOL    HW226925   4.659   2.575   4.952
 8676SOL     OW26926   4.679   2.511   0.840
 8676SOL    HW126927   4.607   2.578   0.828
 8676SOL    HW226928   4.641   2.419   0.828
 8677SOL     OW26929   3.071   0.779   6.905
 8677SOL    HW126930   3.110   0.835   6.977
 8677SOL    HW226931   3.078   0.682   6.930
 8678SOL     OW26932   3.007   1.583   0.330
 8678SOL    HW126933   3.006   1.657   0.397
 8678SOL    HW226934   3.068   1.608   0.254
 8679SOL     OW26935   1.468   1.970   6.784
 8679SOL    HW126936   1.434   1.915   6.708
 8679SOL    HW226937   1.476   2.066   6.755
 8680SOL     OW26938   0.102   0.294   1.240
 8680SOL    HW126939   0.111   0.393   1.252
 8680SOL    HW226940   0.006   0.267   1.251
 8681SOL     OW26941   5.642   5.560   0.914
 8681SOL    HW126942   5.543   5.551   0.903
 8681SOL    HW226943   5.684   5.576   0.825
 8682SOL     OW26944   1.875   1.418   2.830
 8682SOL    HW126945   1.847   1.339   2.884
 8682SOL    HW226946   1.827   1.499   2.862
 8683SOL     OW26947   2.417   4.440   4.084
 8683SOL    HW126948   2.495   4.491   4.119
 8683SOL    HW226949   2.336   4.458   4.141
 8684SOL     OW26950   2.238   4.224   3.469
 8684SOL    HW126951   2.328   4.264   3.448
 8684SOL    HW226952   2.187   4.286   3.529
 8685SOL     OW26953   5.339   3.237   5.407
 8685SOL    HW126954   5.349   3.238   5.507
 8685SOL    HW226955   5.254   3.189   5.383
 8686SOL     OW26956   1.742   4.534   2.898
 8686SOL    HW126957   1.664   4.594   2.917
 8686SOL    HW226958   1.712   4.439   2.904
 8687SOL     OW26959   5.898   4.216   5.641
 8687SOL    HW126960   5.901   4.275   5.560
 8687SOL    HW226961   5.808   4.222   5.683
 8688SOL     OW26962   0.851   4.049   5.333
 8688SOL    HW126963   0.862   3.951   5.313
 8688SOL    HW226964   0.753   4.070   5.340
 8689SOL     OW26965   4.876   3.351   0.915
 8689SOL    HW126966   4.817   3.378   0.839
 8689SOL    HW226967   4.961   3.312   0.878
 8690SOL     OW26968   1.902   2.180   2.755
 8690SOL    HW126969   1.957   2.105   2.793
 8690SOL    HW226970   1.805   2.160   2.766
 8691SOL     OW26971   3.191   1.306   6.886
 8691SOL    HW126972   3.210   1.271   6.978
 8691SOL    HW226973   3.107   1.265   6.851
 8692SOL     OW26974   5.298   1.755   4.486
 8692SOL    HW126975   5.355   1.813   4.427
 8692SOL    HW226976   5.207   1.797   4.496
 8693SOL     OW26977   0.597   0.170   5.652
 8693SOL    HW126978   0.597   0.257   5.601
 8693SOL    HW226979   0.671   0.172   5.719
 8694SOL     OW26980   4.487   3.867   5.304
 8694SOL    HW126981   4.526   3.958   5.310
 8694SOL    HW226982   4.473   3.830   5.396
 8695SOL     OW26983   4.265   4.631   1.196
 8695SOL    HW126984   4.173   4.632   1.234
 8695SOL    HW226985   4.276   4.710   1.135
 8696SOL     OW26986   2.945   6.034   6.673
 8696SOL    HW126987   2.876   6.006   6.605
 8696SOL    HW226988   2.971   6.129   6.657
 8697SOL     OW26989   1.577   3.344   4.796
 8697SOL    HW126990   1.484   3.307   4.804
 8697SOL    HW226991   1.572   3.435   4.753
 8698SOL     OW26992   5.598   4.165   7.007
 8698SOL    HW126993   5.683   4.215   6.988
 8698SOL    HW226994   5.554   4.203   0.060
 8699SOL     OW26995   2.706   2.405   1.214
 8699SOL    HW126996   2.705   2.468   1.291
 8699SOL    HW226997   2.628   2.424   1.154
 8700SOL     OW26998   0.051   1.661   4.373
 8700SOL    HW126999   7.014   1.620   4.308
 8700SOL    HW227000   0.041   1.760   4.372
 8701SOL     OW27001   2.152   2.871   6.673
 8701SOL    HW127002   2.179   2.850   6.579
 8701SOL    HW227003   2.115   2.789   6.716
 8702SOL     OW27004   5.310   3.819   1.245
 8702SOL    HW127005   5.266   3.886   1.185
 8702SOL    HW227006   5.319   3.858   1.337
 8703SOL     OW27007   2.276   5.223   2.155
 8703SOL    HW127008   2.180   5.248   2.138
 8703SOL    HW227009   2.282   5.167   2.237
 8704SOL     OW27010   6.007   0.930   3.860
 8704SOL    HW127011   6.005   1.026   3.885
 8704SOL    HW227012   5.920   0.887   3.884
 8705SOL     OW27013   3.723   2.068   0.296
 8705SOL    HW127014   3.661   2.146   0.291
 8705SOL    HW227015   3.810   2.098   0.335
 8706SOL     OW27016   4.889   2.991   5.653
 8706SOL    HW127017   4.873   3.017   5.557
 8706SOL    HW227018   4.840   2.907   5.673
 8707SOL     OW27019   0.789   0.960   3.887
 8707SOL    HW127020   0.774   0.946   3.789
 8707SOL    HW227021   0.733   1.037   3.919
 8708SOL     OW27022   6.047   2.541   0.593
 8708SOL    HW127023   6.075   2.636   0.603
 8708SOL    HW227024   5.962   2.526   0.645
 8709SOL     OW27025   6.307   6.469   4.196
 8709SOL    HW127026   6.384   6.474   4.260
 8709SOL    HW227027   6.281   6.561   4.168
 8710SOL     OW27028   2.062   2.793   4.253
 8710SOL    HW127029   2.133   2.858   4.282
 8710SOL    HW227030   2.062   2.786   4.154
 8711SOL     OW27031   0.875   1.693   2.063
 8711SOL    HW127032   0.920   1.760   2.005
 8711SOL    HW227033   0.785   1.727   2.089
 8712SOL     OW27034   1.412   4.038   4.067
 8712SOL    HW127035   1.419   4.082   3.977
 8712SOL    HW227036   1.402   3.940   4.055
 8713SOL     OW27037   0.105   4.447   3.398
 8713SOL    HW127038   0.078   4.356   3.430
 8713SOL    HW227039   0.043   4.516   3.436
 8714SOL     OW27040   0.204   4.204   6.386
 8714SOL    HW127041   0.161   4.275   6.329
 8714SOL    HW227042   0.269   4.246   6.449
 8715SOL     OW27043   2.408   5.211   1.388
 8715SOL    HW127044   2.413   5.150   1.308
 8715SOL    HW227045   2.396   5.157   1.471
 8716SOL     OW27046   5.686   0.310   2.616
 8716SOL    HW127047   5.652   0.391   2.568
 8716SOL    HW227048   5.667   0.228   2.561
 8717SOL     OW27049   3.764   2.562   6.891
 8717SOL    HW127050   3.808   2.611   6.816
 8717SOL    HW227051   3.754   2.466   6.867
 8718SOL     OW27052   2.865   5.359   6.104
 8718SOL    HW127053   2.960   5.389   6.091
 8718SOL    HW227054   2.863   5.264   6.135
 8719SOL     OW27055   3.025   2.185   4.475
 8719SOL    HW127056   3.041   2.172   4.573
 8719SOL    HW227057   2.989   2.277   4.459
 8720SOL     OW27058   0.408   6.685   4.982
 8720SOL    HW127059   0.498   6.683   5.026
 8720SOL    HW227060   0.410   6.750   4.906
 8721SOL     OW27061   1.228   0.732   1.444
 8721SOL    HW127062   1.204   0.815   1.495
 8721SOL    HW227063   1.309   0.690   1.485
 8722SOL     OW27064   4.072   1.494   0.259
 8722SOL    HW127065   4.123   1.448   0.187
 8722SOL    HW227066   4.125   1.493   0.344
 8723SOL     OW27067   4.151   6.243   2.565
 8723SOL    HW127068   4.144   6.207   2.658
 8723SOL    HW227069   4.135   6.342   2.565
 8724SOL     OW27070   3.581   6.957   5.225
 8724SOL    HW127071   3.537   6.930   5.310
 8724SOL    HW227072   3.609   6.875   5.175
 8725SOL     OW27073   6.432   0.957   2.533
 8725SOL    HW127074   6.437   1.006   2.620
 8725SOL    HW227075   6.438   1.022   2.457
 8726SOL     OW27076   6.897   1.525   0.565
 8726SOL    HW127077   6.868   1.459   0.635
 8726SOL    HW227078   6.983   1.495   0.525
 8727SOL     OW27079   4.996   5.421   6.475
 8727SOL    HW127080   4.961   5.417   6.381
 8727SOL    HW227081   5.091   5.450   6.474
 8728SOL     OW27082   5.984   6.631   4.460
 8728SOL    HW127083   5.968   6.716   4.510
 8728SOL    HW227084   5.960   6.644   4.364
 8729SOL     OW27085   5.906   6.032   5.659
 8729SOL    HW127086   5.945   5.953   5.705
 8729SOL    HW227087   5.963   6.112   5.675
 8730SOL     OW27088   4.137   4.580   1.582
 8730SOL    HW127089   4.204   4.506   1.590
 8730SOL    HW227090   4.170   4.660   1.631
 8731SOL     OW27091   7.013   1.934   4.385
 8731SOL    HW127092   0.039   2.018   4.388
 8731SOL    HW227093   6.931   1.946   4.441
 8732SOL     OW27094   5.229   6.241   5.286
 8732SOL    HW127095   5.227   6.150   5.327
 8732SOL    HW227096   5.179   6.305   5.345
 8733SOL     OW27097   6.089   4.641   1.943
 8733SOL    HW127098   6.087   4.574   2.018
 8733SOL    HW227099   6.039   4.605   1.865
 8734SOL     OW27100   0.839   5.854   1.197
 8734SOL    HW127101   0.751   5.900   1.200
 8734SOL    HW227102   0.875   5.844   1.290
 8735SOL     OW27103   1.066   2.586   6.459
 8735SOL    HW127104   1.001   2.519   6.422
 8735SOL    HW227105   1.107   2.638   6.384
 8736SOL     OW27106   1.412   6.334   3.789
 8736SOL    HW127107   1.347   6.399   3.749
 8736SOL    HW227108   1.414   6.346   3.888
 8737SOL     OW27109   0.267   5.426   6.887
 8737SOL    HW127110   0.278   5.386   6.795
 8737SOL    HW227111   0.288   5.523   6.884
 8738SOL     OW27112   2.268   2.709   2.239
 8738SOL    HW127113   2.215   2.790   2.264
 8738SOL    HW227114   2.328   2.683   2.316
 8739SOL     OW27115   4.153   4.737   3.173
 8739SOL    HW127116   4.098   4.658   3.149
 8739SOL    HW227117   4.248   4.708   3.188
 8740SOL     OW27118   2.684   1.204   3.835
 8740SOL    HW127119   2.773   1.173   3.803
 8740SOL    HW227120   2.618   1.196   3.760
 8741SOL     OW27121   2.182   2.245   3.053
 8741SOL    HW127122   2.242   2.316   3.015
 8741SOL    HW227123   2.237   2.167   3.081
 8742SOL     OW27124   1.453   3.801   1.554
 8742SOL    HW127125   1.469   3.838   1.463
 8742SOL    HW227126   1.439   3.703   1.549
 8743SOL     OW27127   1.275   3.294   0.178
 8743SOL    HW127128   1.301   3.199   0.158
 8743SOL    HW227129   1.291   3.314   0.274
 8744SOL     OW27130   3.072   4.066   5.954
 8744SOL    HW127131   3.056   4.160   5.984
 8744SOL    HW227132   2.991   4.010   5.974
 8745SOL     OW27133   5.544   1.721   6.674
 8745SOL    HW127134   5.455   1.679   6.663
 8745SOL    HW227135   5.534   1.812   6.714
 8746SOL     OW27136   4.778   4.778   4.583
 8746SOL    HW127137   4.768   4.780   4.683
 8746SOL    HW227138   4.780   4.683   4.552
 8747SOL     OW27139   0.572   0.014   1.573
 8747SOL    HW127140   0.617   6.995   1.648
 8747SOL    HW227141   0.497   0.071   1.609
 8748SOL     OW27142   5.800   1.250   4.470
 8748SOL    HW127143   5.754   1.305   4.400
 8748SOL    HW227144   5.746   1.250   4.554
 8749SOL     OW27145   2.994   1.332   3.772
 8749SOL    HW127146   2.914   1.308   3.827
 8749SOL    HW227147   3.075   1.290   3.812
 8750SOL     OW27148   3.740   3.378   1.713
 8750SOL    HW127149   3.738   3.338   1.621
 8750SOL    HW227150   3.824   3.432   1.724
 8751SOL     OW27151   2.134   0.047   0.268
 8751SOL    HW127152   2.197   6.998   0.262
 8751SOL    HW227153   2.160   0.105   0.345
 8752SOL     OW27154   0.543   3.296   6.543
 8752SOL    HW127155   0.548   3.197   6.562
 8752SOL    HW227156   0.495   3.341   6.618
 8753SOL     OW27157   1.956   1.818   1.038
 8753SOL    HW127158   1.901   1.734   1.039
 8753SOL    HW227159   1.897   1.896   1.058
 8754SOL     OW27160   1.714   5.946   6.112
 8754SOL    HW127161   1.649   5.979   6.179
 8754SOL    HW227162   1.677   5.866   6.066
 8755SOL     OW27163   0.765   2.153   1.772
 8755SOL    HW127164   0.741   2.103   1.689
 8755SOL    HW227165   0.778   2.250   1.751
 8756SOL     OW27166   1.608   1.671   2.523
 8756SOL    HW127167   1.617   1.767   2.550
 8756SOL    HW227168   1.601   1.665   2.424
 8757SOL     OW27169   5.069   5.629   4.722
 8757SOL    HW127170   5.089   5.712   4.670
 8757SOL    HW227171   5.039   5.653   4.814
 8758SOL     OW27172   3.573   5.107   6.553
 8758SOL    HW127173   3.651   5.162   6.524
 8758SOL    HW227174   3.558   5.033   6.488
 8759SOL     OW27175   6.958   1.498   1.823
 8759SOL    HW127176   6.964   1.499   1.723
 8759SOL    HW227177   6.869   1.460   1.851
 8760SOL     OW27178   1.367   2.874   4.425
 8760SOL    HW127179   1.421   2.930   4.362
 8760SOL    HW227180   1.326   2.932   4.495
 8761SOL     OW27181   4.841   2.671   3.577
 8761SOL    HW127182   4.886   2.674   3.487
 8761SOL    HW227183   4.743   2.682   3.565
 8762SOL     OW27184   4.144   5.962   2.485
 8762SOL    HW127185   4.155   6.060   2.501
 8762SOL    HW227186   4.114   5.918   2.569
 8763SOL     OW27187   6.962   1.712   5.527
 8763SOL    HW127188   6.980   1.728   5.624
 8763SOL    HW227189   0.007   1.656   5.489
 8764SOL     OW27190   3.391   5.249   6.267
 8764SOL    HW127191   3.399   5.152   6.292
 8764SOL    HW227192   3.351   5.256   6.176
 8765SOL     OW27193   4.491   0.043   3.342
 8765SOL    HW127194   4.525   0.003   3.257
 8765SOL    HW227195   4.550   0.015   3.418
 8766SOL     OW27196   6.320   7.007   4.717
 8766SOL    HW127197   6.341   6.933   4.782
 8766SOL    HW227198   6.400   0.039   4.709
 8767SOL     OW27199   1.813   1.153   4.426
 8767SOL    HW127200   1.857   1.186   4.510
 8767SOL    HW227201   1.882   1.114   4.365
 8768SOL     OW27202   6.925   1.778   1.006
 8768SOL    HW127203   7.003   1.718   0.994
 8768SOL    HW227204   6.949   1.872   0.980
 8769SOL     OW27205   6.438   6.769   6.596
 8769SOL    HW127206   6.443   6.847   6.533
 8769SOL    HW227207   6.513   6.775   6.662
 8770SOL     OW27208   5.065   1.579   0.714
 8770SOL    HW127209   5.038   1.670   0.683
 8770SOL    HW227210   5.155   1.557   0.677
 8771SOL     OW27211   0.611   2.943   6.452
 8771SOL    HW127212   0.566   2.854   6.442
 8771SOL    HW227213   0.613   2.990   6.364
 8772SOL     OW27214   0.718   6.540   3.536
 8772SOL    HW127215   0.632   6.511   3.494
 8772SOL    HW227216   0.788   6.548   3.466
 8773SOL     OW27217   6.490   1.261   4.044
 8773SOL    HW127218   6.394   1.285   4.055
 8773SOL    HW227219   6.545   1.345   4.035
 8774SOL     OW27220   1.399   2.397   0.176
 8774SOL    HW127221   1.398   2.448   0.090
 8774SOL    HW227222   1.490   2.359   0.192
 8775SOL     OW27223   5.530   2.308   2.518
 8775SOL    HW127224   5.552   2.380   2.452
 8775SOL    HW227225   5.474   2.238   2.474
 8776SOL     OW27226   5.306   3.197   1.711
 8776SOL    HW127227   5.240   3.133   1.673
 8776SOL    HW227228   5.341   3.256   1.639
 8777SOL     OW27229   6.507   2.185   3.974
 8777SOL    HW127230   6.604   2.160   3.971
 8777SOL    HW227231   6.457   2.117   4.028
 8778SOL     OW27232   1.713   4.019   6.574
 8778SOL    HW127233   1.725   3.972   6.487
 8778SOL    HW227234   1.749   3.963   6.648
 8779SOL     OW27235   4.160   6.174   2.839
 8779SOL    HW127236   4.100   6.108   2.884
 8779SOL    HW227237   4.241   6.127   2.803
 8780SOL     OW27238   1.159   3.725   4.418
 8780SOL    HW127239   1.141   3.762   4.509
 8780SOL    HW227240   1.090   3.656   4.395
 8781SOL     OW27241   3.825   1.596   1.925
 8781SOL    HW127242   3.782   1.557   2.006
 8781SOL    HW227243   3.916   1.557   1.914
 8782SOL     OW27244   6.512   2.813   0.434
 8782SOL    HW127245   6.519   2.733   0.375
 8782SOL    HW227246   6.515   2.896   0.378
 8783SOL     OW27247   3.998   3.565   5.684
 8783SOL    HW127248   3.980   3.654   5.726
 8783SOL    HW227249   3.913   3.513   5.678
 8784SOL     OW27250   4.462   1.152   5.847
 8784SOL    HW127251   4.553   1.160   5.807
 8784SOL    HW227252   4.395   1.193   5.785
 8785SOL     OW27253   0.015   5.902   6.491
 8785SOL    HW127254   0.002   5.851   6.406
 8785SOL    HW227255   0.077   5.979   6.473
 8786SOL     OW27256   5.680   2.394   3.225
 8786SOL    HW127257   5.609   2.336   3.266
 8786SOL    HW227258   5.746   2.421   3.294
 8787SOL     OW27259   3.378   4.895   2.445
 8787SOL    HW127260   3.439   4.882   2.523
 8787SOL    HW227261   3.292   4.845   2.461
 8788SOL     OW27262   0.088   6.026   3.778
 8788SOL    HW127263   0.004   5.973   3.780
 8788SOL    HW227264   0.128   6.022   3.686
 8789SOL     OW27265   1.711   3.440   0.212
 8789SOL    HW127266   1.634   3.433   0.150
 8789SOL    HW227267   1.686   3.494   0.292
 8790SOL     OW27268   5.088   3.150   5.339
 8790SOL    HW127269   5.122   3.165   5.246
 8790SOL    HW227270   5.048   3.058   5.345
 8791SOL     OW27271   4.180   6.300   4.891
 8791SOL    HW127272   4.176   6.249   4.977
 8791SOL    HW227273   4.121   6.255   4.823
 8792SOL     OW27274   5.667   4.707   0.390
 8792SOL    HW127275   5.752   4.655   0.382
 8792SOL    HW227276   5.668   4.783   0.325
 8793SOL     OW27277   6.428   0.040   5.889
 8793SOL    HW127278   6.454   0.135   5.908
 8793SOL    HW227279   6.416   0.028   5.790
 8794SOL     OW27280   6.970   2.565   3.533
 8794SOL    HW127281   6.881   2.560   3.489
 8794SOL    HW227282   7.027   2.632   3.485
 8795SOL     OW27283   1.365   0.388   6.823
 8795SOL    HW127284   1.429   0.332   6.770
 8795SOL    HW227285   1.345   0.472   6.773
 8796SOL     OW27286   5.518   4.793   4.340
 8796SOL    HW127287   5.464   4.729   4.286
 8796SOL    HW227288   5.549   4.748   4.423
 8797SOL     OW27289   5.621   6.012   5.143
 8797SOL    HW127290   5.563   6.075   5.195
 8797SOL    HW227291   5.580   5.920   5.146
 8798SOL     OW27292   1.927   5.713   6.553
 8798SOL    HW127293   1.947   5.615   6.556
 8798SOL    HW227294   1.971   5.759   6.631
 8799SOL     OW27295   1.948   6.391   1.937
 8799SOL    HW127296   1.879   6.397   2.009
 8799SOL    HW227297   1.976   6.295   1.926
 8800SOL     OW27298   6.479   6.200   4.320
 8800SOL    HW127299   6.441   6.119   4.274
 8800SOL    HW227300   6.527   6.256   4.253
 8801SOL     OW27301   4.878   3.372   5.604
 8801SOL    HW127302   4.780   3.387   5.619
 8801SOL    HW227303   4.890   3.309   5.527
 8802SOL     OW27304   1.391   6.645   6.842
 8802SOL    HW127305   1.415   6.707   6.917
 8802SOL    HW227306   1.301   6.604   6.860
 8803SOL     OW27307   5.177   4.901   5.292
 8803SOL    HW127308   5.141   4.955   5.369
 8803SOL    HW227309   5.210   4.963   5.221
 8804SOL     OW27310   2.124   6.506   1.762
 8804SOL    HW127311   2.143   6.597   1.800
 8804SOL    HW227312   2.071   6.454   1.829
 8805SOL     OW27313   4.599   5.012   1.723
 8805SOL    HW127314   4.654   5.018   1.806
 8805SOL    HW227315   4.640   5.067   1.651
 8806SOL     OW27316   1.511   1.347   2.027
 8806SOL    HW127317   1.420   1.372   2.061
 8806SOL    HW227318   1.555   1.427   1.986
 8807SOL     OW27319   6.199   2.018   1.929
 8807SOL    HW127320   6.108   1.989   1.957
 8807SOL    HW227321   6.259   1.938   1.919
 8808SOL     OW27322   1.395   1.787   0.770
 8808SOL    HW127323   1.427   1.694   0.750
 8808SOL    HW227324   1.326   1.784   0.842
 8809SOL     OW27325   0.945   3.318   2.942
 8809SOL    HW127326   0.901   3.300   3.030
 8809SOL    HW227327   1.042   3.339   2.957
 8810SOL     OW27328   6.070   2.292   4.134
 8810SOL    HW127329   5.981   2.336   4.144
 8810SOL    HW227330   6.073   2.243   4.047
 8811SOL     OW27331   3.815   5.548   2.491
 8811SOL    HW127332   3.750   5.579   2.423
 8811SOL    HW227333   3.880   5.485   2.449
 8812SOL     OW27334   5.643   0.681   0.639
 8812SOL    HW127335   5.610   0.666   0.732
 8812SOL    HW227336   5.566   0.687   0.576
 8813SOL     OW27337   1.549   2.784   1.848
 8813SOL    HW127338   1.453   2.813   1.849
 8813SOL    HW227339   1.580   2.770   1.942
 8814SOL     OW27340   5.729   6.889   5.089
 8814SOL    HW127341   5.684   6.933   5.011
 8814SOL    HW227342   5.713   6.791   5.085
 8815SOL     OW27343   5.155   0.687   1.007
 8815SOL    HW127344   5.173   0.745   1.086
 8815SOL    HW227345   5.169   0.739   0.923
 8816SOL     OW27346   6.936   0.998   3.252
 8816SOL    HW127347   7.026   1.041   3.260
 8816SOL    HW227348   6.933   0.915   3.307
 8817SOL     OW27349   0.890   2.309   4.147
 8817SOL    HW127350   0.862   2.245   4.076
 8817SOL    HW227351   0.893   2.401   4.109
 8818SOL     OW27352   1.236   6.142   6.470
 8818SOL    HW127353   1.264   6.234   6.443
 8818SOL    HW227354   1.269   6.123   6.562
 8819SOL     OW27355   5.046   6.041   6.118
 8819SOL    HW127356   5.052   6.140   6.103
 8819SOL    HW227357   5.120   6.012   6.178
 8820SOL     OW27358   3.781   6.571   5.725
 8820SOL    HW127359   3.846   6.516   5.673
 8820SOL    HW227360   3.701   6.590   5.668
 8821SOL     OW27361   1.216   5.645   5.500
 8821SOL    HW127362   1.146   5.577   5.477
 8821SOL    HW227363   1.263   5.675   5.417
 8822SOL     OW27364   6.639   0.400   4.870
 8822SOL    HW127365   6.634   0.428   4.966
 8822SOL    HW227366   6.625   0.480   4.812
 8823SOL     OW27367   4.380   2.061   3.331
 8823SOL    HW127368   4.384   1.976   3.279
 8823SOL    HW227369   4.303   2.058   3.396
 8824SOL     OW27370   1.676   0.422   4.393
 8824SOL    HW127371   1.634   0.512   4.389
 8824SOL    HW227372   1.738   0.410   4.316
 8825SOL     OW27373   1.624   6.785   0.274
 8825SOL    HW127374   1.631   6.800   0.372
 8825SOL    HW227375   1.545   6.727   0.255
 8826SOL     OW27376   0.485   3.790   0.506
 8826SOL    HW127377   0.387   3.799   0.488
 8826SOL    HW227378   0.519   3.872   0.551
 8827SOL     OW27379   5.076   5.720   3.637
 8827SOL    HW127380   5.125   5.635   3.656
 8827SOL    HW227381   4.978   5.701   3.625
 8828SOL     OW27382   5.321   2.495   5.250
 8828SOL    HW127383   5.230   2.536   5.258
 8828SOL    HW227384   5.360   2.517   5.160
 8829SOL     OW27385   6.475   1.118   2.760
 8829SOL    HW127386   6.514   1.140   2.849
 8829SOL    HW227387   6.399   1.054   2.772
 8830SOL     OW27388   3.139   0.848   2.664
 8830SOL    HW127389   3.198   0.907   2.719
 8830SOL    HW227390   3.145   0.875   2.568
 8831SOL     OW27391   0.605   2.636   3.004
 8831SOL    HW127392   0.633   2.540   2.994
 8831SOL    HW227393   0.507   2.643   2.988
 8832SOL     OW27394   6.059   7.003   4.596
 8832SOL    HW127395   6.147   7.008   4.643
 8832SOL    HW227396   5.993   6.956   4.654
 8833SOL     OW27397   4.526   3.037   1.063
 8833SOL    HW127398   4.571   2.955   1.027
 8833SOL    HW227399   4.512   3.102   0.989
 8834SOL     OW27400   6.092   4.243   6.057
 8834SOL    HW127401   6.053   4.165   6.009
 8834SOL    HW227402   6.148   4.210   6.133
 8835SOL     OW27403   6.454   1.290   5.457
 8835SOL    HW127404   6.408   1.379   5.458
 8835SOL    HW227405   6.528   1.289   5.524
 8836SOL     OW27406   4.417   1.538   0.971
 8836SOL    HW127407   4.498   1.519   0.916
 8836SOL    HW227408   4.346   1.579   0.914
 8837SOL     OW27409   5.530   5.043   6.933
 8837SOL    HW127410   5.604   5.073   6.994
 8837SOL    HW227411   5.449   5.022   6.988
 8838SOL     OW27412   2.092   3.863   2.651
 8838SOL    HW127413   2.009   3.918   2.643
 8838SOL    HW227414   2.104   3.833   2.746
 8839SOL     OW27415   4.575   4.326   1.447
 8839SOL    HW127416   4.486   4.326   1.492
 8839SOL    HW227417   4.593   4.235   1.409
 8840SOL     OW27418   0.024   0.356   1.769
 8840SOL    HW127419   7.010   0.442   1.795
 8840SOL    HW227420   0.089   0.372   1.695
 8841SOL     OW27421   4.254   1.519   0.468
 8841SOL    HW127422   4.231   1.567   0.552
 8841SOL    HW227423   4.312   1.577   0.410
 8842SOL     OW27424   3.350   2.883   3.640
 8842SOL    HW127425   3.296   2.959   3.604
 8842SOL    HW227426   3.417   2.854   3.571
 8843SOL     OW27427   2.562   6.078   5.414
 8843SOL    HW127428   2.627   6.154   5.405
 8843SOL    HW227429   2.613   5.992   5.424
 8844SOL     OW27430   3.984   2.804   5.237
 8844SOL    HW127431   4.040   2.724   5.217
 8844SOL    HW227432   4.042   2.877   5.275
 8845SOL     OW27433   0.599   3.456   2.510
 8845SOL    HW127434   0.527   3.421   2.570
 8845SOL    HW227435   0.630   3.383   2.449
 8846SOL     OW27436   5.662   5.521   4.529
 8846SOL    HW127437   5.606   5.519   4.612
 8846SOL    HW227438   5.667   5.615   4.495
 8847SOL     OW27439   0.837   2.551   3.911
 8847SOL    HW127440   0.759   2.592   3.958
 8847SOL    HW227441   0.922   2.580   3.956
 8848SOL     OW27442   5.978   2.132   0.752
 8848SOL    HW127443   6.003   2.063   0.820
 8848SOL    HW227444   6.038   2.212   0.763
 8849SOL     OW27445   3.368   5.165   4.344
 8849SOL    HW127446   3.295   5.141   4.281
 8849SOL    HW227447   3.399   5.258   4.326
 8850SOL     OW27448   3.743   2.217   1.144
 8850SOL    HW127449   3.816   2.262   1.194
 8850SOL    HW227450   3.682   2.286   1.104
 8851SOL     OW27451   0.104   5.531   2.922
 8851SOL    HW127452   0.108   5.628   2.945
 8851SOL    HW227453   0.143   5.516   2.831
 8852SOL     OW27454   5.181   3.484   4.723
 8852SOL    HW127455   5.239   3.562   4.699
 8852SOL    HW227456   5.225   3.400   4.692
 8853SOL     OW27457   4.925   1.713   4.475
 8853SOL    HW127458   4.868   1.759   4.543
 8853SOL    HW227459   4.955   1.625   4.511
 8854SOL     OW27460   3.256   0.393   5.979
 8854SOL    HW127461   3.237   0.373   5.882
 8854SOL    HW227462   3.256   0.307   6.031
 8855SOL     OW27463   6.357   4.819   6.311
 8855SOL    HW127464   6.309   4.849   6.393
 8855SOL    HW227465   6.291   4.800   6.239
 8856SOL     OW27466   5.301   1.638   5.349
 8856SOL    HW127467   5.315   1.569   5.278
 8856SOL    HW227468   5.318   1.597   5.438
 8857SOL     OW27469   2.090   3.562   4.658
 8857SOL    HW127470   2.169   3.620   4.641
 8857SOL    HW227471   2.088   3.536   4.755
 8858SOL     OW27472   0.509   3.713   5.567
 8858SOL    HW127473   0.484   3.656   5.645
 8858SOL    HW227474   0.553   3.656   5.498
 8859SOL     OW27475   2.349   6.972   5.586
 8859SOL    HW127476   2.442   6.946   5.560
 8859SOL    HW227477   2.284   6.906   5.547
 8860SOL     OW27478   2.099   1.486   1.659
 8860SOL    HW127479   2.167   1.540   1.609
 8860SOL    HW227480   2.138   1.454   1.745
 8861SOL     OW27481   1.871   1.894   0.400
 8861SOL    HW127482   1.949   1.946   0.434
 8861SOL    HW227483   1.900   1.838   0.322
 8862SOL     OW27484   0.113   2.656   4.386
 8862SOL    HW127485   0.135   2.690   4.295
 8862SOL    HW227486   0.197   2.637   4.436
 8863SOL     OW27487   2.171   5.509   5.310
 8863SOL    HW127488   2.111   5.455   5.368
 8863SOL    HW227489   2.216   5.579   5.365
 8864SOL     OW27490   1.942   4.676   5.940
 8864SOL    HW127491   1.930   4.649   6.036
 8864SOL    HW227492   1.963   4.595   5.885
 8865SOL     OW27493   2.896   1.918   5.678
 8865SOL    HW127494   2.902   2.017   5.692
 8865SOL    HW227495   2.942   1.870   5.752
 8866SOL     OW27496   4.990   0.169   5.495
 8866SOL    HW127497   4.943   0.111   5.561
 8866SOL    HW227498   4.954   0.263   5.502
 8867SOL     OW27499   6.106   0.615   3.627
 8867SOL    HW127500   6.152   0.578   3.708
 8867SOL    HW227501   6.109   0.548   3.553
 8868SOL     OW27502   5.778   3.325   0.656
 8868SOL    HW127503   5.823   3.392   0.596
 8868SOL    HW227504   5.763   3.240   0.605
 8869SOL     OW27505   3.056   1.710   3.294
 8869SOL    HW127506   3.100   1.683   3.379
 8869SOL    HW227507   3.046   1.810   3.292
 8870SOL     OW27508   4.978   0.225   1.842
 8870SOL    HW127509   5.041   0.208   1.918
 8870SOL    HW227510   4.993   0.154   1.772
 8871SOL     OW27511   1.160   2.280   4.182
 8871SOL    HW127512   1.061   2.288   4.175
 8871SOL    HW227513   1.190   2.316   4.270
 8872SOL     OW27514   1.129   1.750   2.583
 8872SOL    HW127515   1.206   1.713   2.635
 8872SOL    HW227516   1.083   1.677   2.533
 8873SOL     OW27517   6.928   5.685   5.179
 8873SOL    HW127518   6.953   5.647   5.269
 8873SOL    HW227519   7.003   5.670   5.115
 8874SOL     OW27520   1.196   1.331   6.313
 8874SOL    HW127521   1.190   1.338   6.213
 8874SOL    HW227522   1.187   1.235   6.340
 8875SOL     OW27523   1.200   1.068   3.923
 8875SOL    HW127524   1.255   0.993   3.888
 8875SOL    HW227525   1.253   1.119   3.991
 8876SOL     OW27526   2.423   1.088   5.065
 8876SOL    HW127527   2.349   1.151   5.042
 8876SOL    HW227528   2.466   1.056   4.981
 8877SOL     OW27529   3.399   6.767   4.409
 8877SOL    HW127530   3.365   6.673   4.413
 8877SOL    HW227531   3.338   6.821   4.351
 8878SOL     OW27532   6.060   4.296   4.890
 8878SOL    HW127533   6.023   4.316   4.800
 8878SOL    HW227534   6.043   4.200   4.913
 8879SOL     OW27535   5.182   5.392   4.623
 8879SOL    HW127536   5.236   5.341   4.689
 8879SOL    HW227537   5.118   5.452   4.672
 8880SOL     OW27538   1.199   6.733   5.377
 8880SOL    HW127539   1.240   6.738   5.468
 8880SOL    HW227540   1.262   6.771   5.310
 8881SOL     OW27541   0.193   2.172   2.763
 8881SOL    HW127542   0.206   2.075   2.784
 8881SOL    HW227543   0.280   2.213   2.736
 8882SOL     OW27544   5.711   2.863   0.346
 8882SOL    HW127545   5.801   2.894   0.315
 8882SOL    HW227546   5.713   2.849   0.445
 8883SOL     OW27547   5.739   1.516   5.716
 8883SOL    HW127548   5.695   1.534   5.627
 8883SOL    HW227549   5.737   1.418   5.735
 8884SOL     OW27550   0.140   1.321   6.385
 8884SOL    HW127551   0.110   1.357   6.473
 8884SOL    HW227552   0.234   1.288   6.391
 8885SOL     OW27553   5.690   3.854   1.164
 8885SOL    HW127554   5.789   3.861   1.176
 8885SOL    HW227555   5.646   3.853   1.254
 8886SOL     OW27556   3.128   5.482   6.061
 8886SOL    HW127557   3.089   5.569   6.028
 8886SOL    HW227558   3.216   5.467   6.017
 8887SOL     OW27559   1.548   1.404   1.002
 8887SOL    HW127560   1.536   1.305   0.995
 8887SOL    HW227561   1.497   1.449   0.929
 8888SOL     OW27562   2.582   2.393   2.816
 8888SOL    HW127563   2.524   2.334   2.760
 8888SOL    HW227564   2.677   2.364   2.808
 8889SOL     OW27565   3.335   1.106   4.529
 8889SOL    HW127566   3.272   1.160   4.584
 8889SOL    HW227567   3.311   1.115   4.432
 8890SOL     OW27568   6.427   4.895   3.336
 8890SOL    HW127569   6.332   4.925   3.326
 8890SOL    HW227570   6.429   4.806   3.382
 8891SOL     OW27571   3.456   1.409   6.389
 8891SOL    HW127572   3.556   1.410   6.396
 8891SOL    HW227573   3.426   1.321   6.352
 8892SOL     OW27574   1.069   0.083   3.103
 8892SOL    HW127575   1.153   0.137   3.097
 8892SOL    HW227576   1.077   0.017   3.177
 8893SOL     OW27577   0.349   1.255   0.577
 8893SOL    HW127578   0.291   1.337   0.575
 8893SOL    HW227579   0.301   1.181   0.624
 8894SOL     OW27580   4.658   2.131   6.006
 8894SOL    HW127581   4.617   2.096   6.091
 8894SOL    HW227582   4.743   2.178   6.027
 8895SOL     OW27583   1.580   1.247   3.124
 8895SOL    HW127584   1.502   1.243   3.187
 8895SOL    HW227585   1.576   1.332   3.072
 8896SOL     OW27586   1.706   4.262   5.251
 8896SOL    HW127587   1.662   4.278   5.340
 8896SOL    HW227588   1.802   4.236   5.266
 8897SOL     OW27589   1.199   2.271   2.256
 8897SOL    HW127590   1.147   2.356   2.248
 8897SOL    HW227591   1.276   2.284   2.318
 8898SOL     OW27592   0.159   2.900   5.104
 8898SOL    HW127593   0.209   2.857   5.179
 8898SOL    HW227594   0.181   2.998   5.101
 8899SOL     OW27595   3.368   5.392   1.754
 8899SOL    HW127596   3.454   5.398   1.704
 8899SOL    HW227597   3.309   5.467   1.727
 8900SOL     OW27598   6.537   1.849   3.701
 8900SOL    HW127599   6.594   1.923   3.737
 8900SOL    HW227600   6.445   1.856   3.740
 8901SOL     OW27601   1.901   0.149   1.809
 8901SOL    HW127602   1.819   0.205   1.816
 8901SOL    HW227603   1.905   0.106   1.719
 8902SOL     OW27604   4.011   6.397   5.633
 8902SOL    HW127605   3.994   6.309   5.589
 8902SOL    HW227606   4.053   6.460   5.568
 8903SOL     OW27607   6.595   1.206   3.002
 8903SOL    HW127608   6.547   1.227   3.087
 8903SOL    HW227609   6.662   1.278   2.982
 8904SOL     OW27610   1.383   4.256   3.806
 8904SOL    HW127611   1.451   4.207   3.751
 8904SOL    HW227612   1.313   4.192   3.837
 8905SOL     OW27613   2.012   4.238   4.985
 8905SOL    HW127614   2.074   4.230   4.907
 8905SOL    HW227615   2.038   4.172   5.055
 8906SOL     OW27616   2.664   5.384   4.870
 8906SOL    HW127617   2.697   5.319   4.938
 8906SOL    HW227618   2.576   5.422   4.900
 8907SOL     OW27619   3.340   2.483   6.443
 8907SOL    HW127620   3.412   2.523   6.386
 8907SOL    HW227621   3.370   2.483   6.539
 8908SOL     OW27622   0.677   3.216   2.865
 8908SOL    HW127623   0.630   3.169   2.941
 8908SOL    HW227624   0.766   3.247   2.896
 8909SOL     OW27625   3.453   6.888   5.468
 8909SOL    HW127626   3.380   6.820   5.472
 8909SOL    HW227627   3.537   6.849   5.506
 8910SOL     OW27628   4.301   2.835   0.243
 8910SOL    HW127629   4.326   2.929   0.217
 8910SOL    HW227630   4.244   2.795   0.171
 8911SOL     OW27631   5.177   2.557   3.842
 8911SOL    HW127632   5.172   2.650   3.805
 8911SOL    HW227633   5.101   2.540   3.904
 8912SOL     OW27634   4.645   0.996   7.004
 8912SOL    HW127635   4.695   1.081   6.996
 8912SOL    HW227636   4.548   1.012   6.982
 8913SOL     OW27637   4.315   4.080   0.605
 8913SOL    HW127638   4.354   4.045   0.520
 8913SOL    HW227639   4.389   4.106   0.667
 8914SOL     OW27640   5.031   2.421   3.584
 8914SOL    HW127641   4.968   2.444   3.658
 8914SOL    HW227642   5.094   2.497   3.568
 8915SOL     OW27643   0.578   5.278   2.501
 8915SOL    HW127644   0.479   5.287   2.510
 8915SOL    HW227645   0.620   5.275   2.592
 8916SOL     OW27646   6.138   3.132   1.884
 8916SOL    HW127647   6.141   3.113   1.982
 8916SOL    HW227648   6.059   3.191   1.864
 8917SOL     OW27649   5.205   4.312   5.304
 8917SOL    HW127650   5.218   4.266   5.392
 8917SOL    HW227651   5.288   4.364   5.281
 8918SOL     OW27652   4.973   3.843   6.096
 8918SOL    HW127653   4.952   3.927   6.045
 8918SOL    HW227654   4.952   3.764   6.039
 8919SOL     OW27655   2.076   3.439   1.739
 8919SOL    HW127656   2.056   3.427   1.642
 8919SOL    HW227657   2.001   3.401   1.794
 8920SOL     OW27658   6.490   5.484   5.915
 8920SOL    HW127659   6.499   5.386   5.894
 8920SOL    HW227660   6.442   5.530   5.841
 8921SOL     OW27661   1.208   5.679   3.546
 8921SOL    HW127662   1.276   5.622   3.592
 8921SOL    HW227663   1.117   5.637   3.555
 8922SOL     OW27664   0.265   3.193   6.836
 8922SOL    HW127665   0.314   3.280   6.833
 8922SOL    HW227666   0.184   3.202   6.894
 8923SOL     OW27667   2.733   4.956   4.339
 8923SOL    HW127668   2.723   4.933   4.242
 8923SOL    HW227669   2.662   4.908   4.392
 8924SOL     OW27670   2.170   6.622   4.352
 8924SOL    HW127671   2.197   6.582   4.440
 8924SOL    HW227672   2.074   6.601   4.334
 8925SOL     OW27673   4.357   5.508   1.056
 8925SOL    HW127674   4.355   5.561   1.141
 8925SOL    HW227675   4.264   5.486   1.028
 8926SOL     OW27676   5.717   0.084   6.659
 8926SOL    HW127677   5.700   0.047   6.568
 8926SOL    HW227678   5.773   0.019   6.711
 8927SOL     OW27679   2.825   2.013   4.797
 8927SOL    HW127680   2.877   1.954   4.858
 8927SOL    HW227681   2.889   2.068   4.742
 8928SOL     OW27682   0.736   0.433   5.553
 8928SOL    HW127683   0.805   0.500   5.578
 8928SOL    HW227684   0.778   0.361   5.497
 8929SOL     OW27685   5.107   4.400   3.058
 8929SOL    HW127686   5.022   4.413   3.109
 8929SOL    HW227687   5.179   4.457   3.097
 8930SOL     OW27688   0.308   5.603   5.475
 8930SOL    HW127689   0.295   5.702   5.469
 8930SOL    HW227690   0.389   5.577   5.422
 8931SOL     OW27691   4.488   0.977   1.549
 8931SOL    HW127692   4.396   0.992   1.513
 8931SOL    HW227693   4.499   1.029   1.634
 8932SOL     OW27694   4.879   0.741   0.656
 8932SOL    HW127695   4.835   0.830   0.649
 8932SOL    HW227696   4.850   0.696   0.740
 8933SOL     OW27697   1.699   6.794   5.202
 8933SOL    HW127698   1.685   6.695   5.210
 8933SOL    HW227699   1.796   6.813   5.189
 8934SOL     OW27700   3.621   6.545   3.946
 8934SOL    HW127701   3.629   6.620   3.881
 8934SOL    HW227702   3.699   6.483   3.936
 8935SOL     OW27703   5.747   1.787   2.700
 8935SOL    HW127704   5.769   1.691   2.679
 8935SOL    HW227705   5.831   1.836   2.720
 8936SOL     OW27706   1.448   4.087   2.299
 8936SOL    HW127707   1.530   4.139   2.274
 8936SOL    HW227708   1.460   3.991   2.276
 8937SOL     OW27709   3.255   6.685   4.961
 8937SOL    HW127710   3.201   6.727   5.034
 8937SOL    HW227711   3.330   6.633   5.002
 8938SOL     OW27712   5.216   6.499   1.741
 8938SOL    HW127713   5.294   6.437   1.733
 8938SOL    HW227714   5.231   6.561   1.818
 8939SOL     OW27715   6.699   2.728   4.205
 8939SOL    HW127716   6.756   2.751   4.126
 8939SOL    HW227717   6.635   2.655   4.181
 8940SOL     OW27718   6.187   3.262   2.408
 8940SOL    HW127719   6.097   3.221   2.399
 8940SOL    HW227720   6.184   3.357   2.376
 8941SOL     OW27721   5.426   2.198   3.354
 8941SOL    HW127722   5.379   2.117   3.389
 8941SOL    HW227723   5.368   2.278   3.365
 8942SOL     OW27724   4.829   5.222   3.871
 8942SOL    HW127725   4.855   5.240   3.776
 8942SOL    HW227726   4.730   5.216   3.878
 8943SOL     OW27727   4.114   3.604   0.506
 8943SOL    HW127728   4.092   3.701   0.511
 8943SOL    HW227729   4.136   3.570   0.597
 8944SOL     OW27730   4.704   5.990   4.786
 8944SOL    HW127731   4.657   6.073   4.757
 8944SOL    HW227732   4.703   5.984   4.886
 8945SOL     OW27733   6.507   5.051   1.595
 8945SOL    HW127734   6.438   5.012   1.656
 8945SOL    HW227735   6.492   5.018   1.502
 8946SOL     OW27736   3.296   1.783   4.427
 8946SOL    HW127737   3.298   1.873   4.471
 8946SOL    HW227738   3.201   1.752   4.418
 8947SOL     OW27739   2.669   5.098   0.355
 8947SOL    HW127740   2.637   5.163   0.286
 8947SOL    HW227741   2.714   5.021   0.310
 8948SOL     OW27742   5.396   0.543   2.636
 8948SOL    HW127743   5.320   0.600   2.604
 8948SOL    HW227744   5.458   0.526   2.560
 8949SOL     OW27745   4.174   6.502   0.672
 8949SOL    HW127746   4.211   6.538   0.587
 8949SOL    HW227747   4.074   6.504   0.668
 8950SOL     OW27748   3.376   4.121   3.672
 8950SOL    HW127749   3.474   4.134   3.683
 8950SOL    HW227750   3.327   4.194   3.721
 8951SOL     OW27751   0.523   0.744   3.932
 8951SOL    HW127752   0.484   0.789   3.853
 8951SOL    HW227753   0.462   0.754   4.011
 8952SOL     OW27754   1.481   3.828   4.800
 8952SOL    HW127755   1.432   3.908   4.764
 8952SOL    HW227756   1.568   3.859   4.839
 8953SOL     OW27757   0.560   5.378   0.668
 8953SOL    HW127758   0.643   5.429   0.691
 8953SOL    HW227759   0.482   5.441   0.668
 8954SOL     OW27760   2.428   4.324   5.450
 8954SOL    HW127761   2.427   4.408   5.504
 8954SOL    HW227762   2.523   4.293   5.438
 8955SOL     OW27763   5.917   3.302   6.051
 8955SOL    HW127764   5.839   3.272   6.105
 8955SOL    HW227765   5.949   3.227   5.993
 8956SOL     OW27766   1.028   6.327   0.999
 8956SOL    HW127767   0.974   6.406   1.026
 8956SOL    HW227768   1.090   6.352   0.924
 8957SOL     OW27769   0.853   0.021   3.773
 8957SOL    HW127770   0.916   6.977   3.803
 8957SOL    HW227771   0.793   7.014   3.702
 8958SOL     OW27772   0.008   3.408   4.989
 8958SOL    HW127773   6.988   3.493   5.009
 8958SOL    HW227774   6.974   3.330   5.001
 8959SOL     OW27775   4.999   1.414   3.797
 8959SOL    HW127776   4.910   1.405   3.753
 8959SOL    HW227777   5.043   1.324   3.804
 8960SOL     OW27778   4.742   5.614   2.186
 8960SOL    HW127779   4.835   5.623   2.151
 8960SOL    HW227780   4.683   5.682   2.142
 8961SOL     OW27781   2.350   1.725   5.791
 8961SOL    HW127782   2.419   1.792   5.818
 8961SOL    HW227783   2.344   1.654   5.861
 8962SOL     OW27784   7.027   6.198   1.424
 8962SOL    HW127785   6.929   6.183   1.413
 8962SOL    HW227786   0.018   6.296   1.432
 8963SOL     OW27787   2.147   5.201   5.758
 8963SOL    HW127788   2.127   5.263   5.681
 8963SOL    HW227789   2.178   5.113   5.722
 8964SOL     OW27790   1.062   2.592   4.031
 8964SOL    HW127791   1.100   2.613   4.121
 8964SOL    HW227792   1.128   2.539   3.978
 8965SOL     OW27793   3.306   5.652   0.118
 8965SOL    HW127794   3.231   5.714   0.139
 8965SOL    HW227795   3.327   5.597   0.198
 8966SOL     OW27796   4.762   0.136   5.769
 8966SOL    HW127797   4.688   0.119   5.704
 8966SOL    HW227798   4.766   0.234   5.790
 8967SOL     OW27799   2.710   0.502   3.222
 8967SOL    HW127800   2.685   0.531   3.130
 8967SOL    HW227801   2.807   0.516   3.237
 8968SOL     OW27802   2.953   5.271   2.236
 8968SOL    HW127803   2.906   5.239   2.153
 8968SOL    HW227804   3.008   5.197   2.274
 8969SOL     OW27805   6.901   0.912   2.733
 8969SOL    HW127806   6.913   0.816   2.705
 8969SOL    HW227807   6.897   0.970   2.652
 8970SOL     OW27808   2.046   1.702   4.453
 8970SOL    HW127809   2.095   1.776   4.500
 8970SOL    HW227810   2.110   1.628   4.431
 8971SOL     OW27811   3.165   4.824   1.291
 8971SOL    HW127812   3.202   4.733   1.307
 8971SOL    HW227813   3.080   4.817   1.239
 8972SOL     OW27814   6.208   4.033   6.548
 8972SOL    HW127815   6.297   4.028   6.592
 8972SOL    HW227816   6.183   3.944   6.510
 8973SOL     OW27817   2.596   1.832   3.640
 8973SOL    HW127818   2.666   1.789   3.698
 8973SOL    HW227819   2.587   1.928   3.664
 8974SOL     OW27820   1.616   4.694   5.438
 8974SOL    HW127821   1.649   4.609   5.478
 8974SOL    HW227822   1.518   4.688   5.424
 8975SOL     OW27823   0.776   3.580   6.157
 8975SOL    HW127824   0.727   3.563   6.071
 8975SOL    HW227825   0.757   3.507   6.222
 8976SOL     OW27826   6.085   0.447   1.548
 8976SOL    HW127827   6.077   0.440   1.648
 8976SOL    HW227828   6.014   0.509   1.514
 8977SOL     OW27829   0.362   4.912   5.950
 8977SOL    HW127830   0.287   4.965   5.910
 8977SOL    HW227831   0.340   4.814   5.945
 8978SOL     OW27832   6.568   5.266   5.410
 8978SOL    HW127833   6.615   5.189   5.453
 8978SOL    HW227834   6.524   5.235   5.326
 8979SOL     OW27835   1.747   4.469   3.770
 8979SOL    HW127836   1.678   4.458   3.842
 8979SOL    HW227837   1.703   4.466   3.681
 8980SOL     OW27838   4.875   0.574   0.923
 8980SOL    HW127839   4.967   0.602   0.952
 8980SOL    HW227840   4.807   0.619   0.979
 8981SOL     OW27841   4.079   2.436   6.981
 8981SOL    HW127842   3.987   2.420   7.016
 8981SOL    HW227843   4.145   2.384   0.008
 8982SOL     OW27844   0.306   0.760   2.596
 8982SOL    HW127845   0.317   0.858   2.611
 8982SOL    HW227846   0.377   0.710   2.645
 8983SOL     OW27847   1.288   6.427   2.521
 8983SOL    HW127848   1.368   6.484   2.544
 8983SOL    HW227849   1.208   6.461   2.570
 8984SOL     OW27850   5.977   1.209   3.901
 8984SOL    HW127851   5.977   1.233   3.804
 8984SOL    HW227852   5.898   1.252   3.945
 8985SOL     OW27853   5.276   7.015   1.921
 8985SOL    HW127854   5.341   7.024   1.845
 8985SOL    HW227855   5.254   0.077   1.957
 8986SOL     OW27856   0.650   6.727   6.911
 8986SOL    HW127857   0.589   6.656   6.877
 8986SOL    HW227858   0.744   6.708   6.883
 8987SOL     OW27859   3.382   6.302   2.318
 8987SOL    HW127860   3.306   6.238   2.331
 8987SOL    HW227861   3.350   6.381   2.265
 8988SOL     OW27862   2.303   0.219   0.812
 8988SOL    HW127863   2.224   0.234   0.872
 8988SOL    HW227864   2.372   0.289   0.830
 8989SOL     OW27865   6.327   0.910   1.969
 8989SOL    HW127866   6.291   1.003   1.962
 8989SOL    HW227867   6.371   0.885   1.883
 8990SOL     OW27868   3.709   1.283   2.661
 8990SOL    HW127869   3.747   1.306   2.572
 8990SOL    HW227870   3.646   1.356   2.690
 8991SOL     OW27871   1.117   2.153   0.878
 8991SOL    HW127872   1.162   2.208   0.807
 8991SOL    HW227873   1.046   2.208   0.922
 8992SOL     OW27874   0.835   5.261   5.414
 8992SOL    HW127875   0.808   5.227   5.324
 8992SOL    HW227876   0.840   5.185   5.479
 8993SOL     OW27877   5.339   3.918   4.038
 8993SOL    HW127878   5.412   3.861   4.077
 8993SOL    HW227879   5.334   4.004   4.089
 8994SOL     OW27880   1.935   5.847   1.794
 8994SOL    HW127881   1.961   5.886   1.883
 8994SOL    HW227882   2.017   5.830   1.740
 8995SOL     OW27883   2.128   4.005   3.596
 8995SOL    HW127884   2.169   4.012   3.687
 8995SOL    HW227885   2.169   4.075   3.536
 8996SOL     OW27886   2.755   3.668   1.190
 8996SOL    HW127887   2.690   3.712   1.252
 8996SOL    HW227888   2.705   3.615   1.121
 8997SOL     OW27889   4.513   1.835   4.789
 8997SOL    HW127890   4.528   1.797   4.698
 8997SOL    HW227891   4.584   1.901   4.810
 8998SOL     OW27892   0.923   1.621   6.845
 8998SOL    HW127893   0.869   1.669   6.914
 8998SOL    HW227894   0.879   1.630   6.756
 8999SOL     OW27895   5.742   2.893   5.427
 8999SOL    HW127896   5.678   2.969   5.424
 8999SOL    HW227897   5.693   2.807   5.411
 9000SOL     OW27898   4.719   4.738   1.268
 9000SOL    HW127899   4.654   4.664   1.255
 9000SOL    HW227900   4.707   4.778   1.359
 9001SOL     OW27901   1.184   3.483   4.085
 9001SOL    HW127902   1.235   3.428   4.152
 9001SOL    HW227903   1.175   3.431   4.000
 9002SOL     OW27904   5.088   2.606   5.325
 9002SOL    HW127905   5.089   2.703   5.302
 9002SOL    HW227906   4.998   2.580   5.358
 9003SOL     OW27907   6.783   3.053   6.668
 9003SOL    HW127908   6.698   3.003   6.682
 9003SOL    HW227909   6.763   3.151   6.660
 9004SOL     OW27910   4.844   5.582   0.376
 9004SOL    HW127911   4.765   5.525   0.352
 9004SOL    HW227912   4.898   5.536   0.446
 9005SOL     OW27913   4.927   3.528   3.827
 9005SOL    HW127914   5.021   3.531   3.861
 9005SOL    HW227915   4.883   3.617   3.843
 9006SOL     OW27916   2.993   6.294   1.626
 9006SOL    HW127917   2.921   6.247   1.677
 9006SOL    HW227918   3.039   6.230   1.564
 9007SOL     OW27919   1.499   6.203   5.347
 9007SOL    HW127920   1.562   6.164   5.413
 9007SOL    HW227921   1.549   6.231   5.265
 9008SOL     OW27922   0.021   4.273   2.241
 9008SOL    HW127923   0.098   4.295   2.302
 9008SOL    HW227924   0.047   4.292   2.146
 9009SOL     OW27925   4.276   6.341   0.009
 9009SOL    HW127926   4.243   6.435   0.003
 9009SOL    HW227927   4.217   6.289   0.070
 9010SOL     OW27928   6.864   5.791   4.648
 9010SOL    HW127929   6.930   5.855   4.608
 9010SOL    HW227930   6.913   5.711   4.683
 9011SOL     OW27931   4.453   2.468   1.774
 9011SOL    HW127932   4.523   2.429   1.714
 9011SOL    HW227933   4.496   2.531   1.839
 9012SOL     OW27934   4.503   4.716   2.591
 9012SOL    HW127935   4.428   4.707   2.526
 9012SOL    HW227936   4.505   4.809   2.627
 9013SOL     OW27937   4.310   5.845   1.719
 9013SOL    HW127938   4.404   5.811   1.707
 9013SOL    HW227939   4.294   5.861   1.816
 9014SOL     OW27940   2.301   0.949   1.892
 9014SOL    HW127941   2.231   0.925   1.959
 9014SOL    HW227942   2.375   0.999   1.937
 9015SOL     OW27943   6.428   2.325   4.570
 9015SOL    HW127944   6.365   2.293   4.499
 9015SOL    HW227945   6.441   2.254   4.638
 9016SOL     OW27946   0.217   5.984   0.045
 9016SOL    HW127947   0.140   5.931   0.082
 9016SOL    HW227948   0.303   5.940   0.071
 9017SOL     OW27949   6.252   3.033   2.669
 9017SOL    HW127950   6.155   3.021   2.644
 9017SOL    HW227951   6.283   3.123   2.639
 9018SOL     OW27952   4.526   1.502   6.748
 9018SOL    HW127953   4.602   1.443   6.722
 9018SOL    HW227954   4.509   1.493   6.846
 9019SOL     OW27955   1.863   5.289   7.004
 9019SOL    HW127956   1.836   5.383   6.985
 9019SOL    HW227957   1.803   5.250   0.046
 9020SOL     OW27958   0.765   5.038   4.653
 9020SOL    HW127959   0.826   5.117   4.642
 9020SOL    HW227960   0.807   4.972   4.715
 9021SOL     OW27961   6.120   5.446   5.707
 9021SOL    HW127962   6.202   5.494   5.739
 9021SOL    HW227963   6.133   5.415   5.613
 9022SOL     OW27964   1.967   6.859   6.270
 9022SOL    HW127965   1.913   6.943   6.269
 9022SOL    HW227966   2.055   6.877   6.314
 9023SOL     OW27967   3.518   4.175   4.247
 9023SOL    HW127968   3.596   4.165   4.186
 9023SOL    HW227969   3.475   4.264   4.232
 9024SOL     OW27970   1.148   0.161   6.766
 9024SOL    HW127971   1.234   0.142   6.719
 9024SOL    HW227972   1.163   0.167   6.864
 9025SOL     OW27973   0.467   3.362   0.339
 9025SOL    HW127974   0.495   3.354   0.434
 9025SOL    HW227975   0.519   3.297   0.283
 9026SOL     OW27976   2.951   3.421   5.590
 9026SOL    HW127977   2.940   3.519   5.573
 9026SOL    HW227978   3.044   3.394   5.567
 9027SOL     OW27979   1.697   3.380   2.538
 9027SOL    HW127980   1.737   3.455   2.485
 9027SOL    HW227981   1.735   3.381   2.631
 9028SOL     OW27982   2.048   4.598   4.830
 9028SOL    HW127983   2.139   4.639   4.821
 9028SOL    HW227984   2.033   4.571   4.925
 9029SOL     OW27985   5.485   5.127   2.779
 9029SOL    HW127986   5.519   5.143   2.872
 9029SOL    HW227987   5.409   5.061   2.783
 9030SOL     OW27988   4.838   2.518   3.141
 9030SOL    HW127989   4.916   2.560   3.187
 9030SOL    HW227990   4.796   2.451   3.201
 9031SOL     OW27991   2.487   1.267   1.889
 9031SOL    HW127992   2.464   1.245   1.794
 9031SOL    HW227993   2.515   1.183   1.936
 9032SOL     OW27994   0.160   3.329   2.371
 9032SOL    HW127995   0.099   3.280   2.309
 9032SOL    HW227996   0.108   3.401   2.418
 9033SOL     OW27997   1.191   3.586   2.823
 9033SOL    HW127998   1.125   3.579   2.747
 9033SOL    HW227999   1.247   3.668   2.810
 9034SOL     OW28000   1.819   6.718   6.651
 9034SOL    HW128001   1.787   6.727   6.745
 9034SOL    HW228002   1.914   6.750   6.645
 9035SOL     OW28003   6.328   1.055   4.284
 9035SOL    HW128004   6.320   1.089   4.378
 9035SOL    HW228005   6.256   1.095   4.228
 9036SOL     OW28006   0.435   1.684   4.826
 9036SOL    HW128007   0.427   1.661   4.730
 9036SOL    HW228008   0.464   1.604   4.878
 9037SOL     OW28009   2.399   4.240   5.879
 9037SOL    HW128010   2.348   4.188   5.811
 9037SOL    HW228011   2.474   4.290   5.833
 9038SOL     OW28012   4.177   5.426   5.357
 9038SOL    HW128013   4.161   5.379   5.270
 9038SOL    HW228014   4.271   5.458   5.360
 9039SOL     OW28015   2.950   4.864   6.980
 9039SOL    HW128016   3.033   4.870   0.007
 9039SOL    HW228017   2.966   4.905   6.890
 9040SOL     OW28018   3.121   1.141   2.314
 9040SOL    HW128019   3.072   1.208   2.259
 9040SOL    HW228020   3.086   1.143   2.408
 9041SOL     OW28021   2.381   2.430   5.865
 9041SOL    HW128022   2.360   2.525   5.839
 9041SOL    HW228023   2.326   2.404   5.944
 9042SOL     OW28024   1.773   5.587   2.420
 9042SOL    HW128025   1.742   5.677   2.389
 9042SOL    HW228026   1.849   5.597   2.484
 9043SOL     OW28027   0.274   1.844   6.828
 9043SOL    HW128028   0.326   1.889   6.900
 9043SOL    HW228029   0.223   1.767   6.867
 9044SOL     OW28030   0.790   4.163   0.349
 9044SOL    HW128031   0.885   4.193   0.337
 9044SOL    HW228032   0.753   4.136   0.260
 9045SOL     OW28033   2.360   5.134   4.779
 9045SOL    HW128034   2.412   5.124   4.864
 9045SOL    HW228035   2.417   5.180   4.711
 9046SOL     OW28036   3.520   4.490   6.216
 9046SOL    HW128037   3.594   4.451   6.161
 9046SOL    HW228038   3.442   4.428   6.215
 9047SOL     OW28039   1.117   4.072   4.446
 9047SOL    HW128040   1.094   4.007   4.519
 9047SOL    HW228041   1.033   4.107   4.405
 9048SOL     OW28042   1.545   2.784   5.069
 9048SOL    HW128043   1.451   2.759   5.094
 9048SOL    HW228044   1.609   2.727   5.120
 9049SOL     OW28045   4.894   6.469   5.805
 9049SOL    HW128046   4.903   6.380   5.761
 9049SOL    HW228047   4.798   6.496   5.806
 9050SOL     OW28048   6.758   4.373   6.011
 9050SOL    HW128049   6.833   4.333   6.063
 9050SOL    HW228050   6.736   4.463   6.049
 9051SOL     OW28051   6.379   6.384   6.329
 9051SOL    HW128052   6.391   6.288   6.303
 9051SOL    HW228053   6.293   6.418   6.292
 9052SOL     OW28054   2.989   5.198   4.608
 9052SOL    HW128055   3.088   5.190   4.618
 9052SOL    HW228056   2.943   5.130   4.665
 9053SOL     OW28057   2.110   1.208   2.761
 9053SOL    HW128058   2.201   1.246   2.775
 9053SOL    HW228059   2.047   1.281   2.736
 9054SOL     OW28060   1.465   0.179   1.640
 9054SOL    HW128061   1.522   0.206   1.717
 9054SOL    HW228062   1.382   0.134   1.674
 9055SOL     OW28063   1.257   2.323   5.220
 9055SOL    HW128064   1.255   2.423   5.224
 9055SOL    HW228065   1.348   2.293   5.191
 9056SOL     OW28066   5.227   2.365   1.356
 9056SOL    HW128067   5.224   2.408   1.446
 9056SOL    HW228068   5.283   2.420   1.294
 9057SOL     OW28069   3.727   6.795   6.864
 9057SOL    HW128070   3.701   6.868   6.800
 9057SOL    HW228071   3.646   6.763   6.912
 9058SOL     OW28072   2.382   2.350   4.160
 9058SOL    HW128073   2.336   2.427   4.205
 9058SOL    HW228074   2.480   2.368   4.156
 9059SOL     OW28075   6.946   0.638   2.255
 9059SOL    HW128076   7.022   0.654   2.319
 9059SOL    HW228077   6.929   0.540   2.247
 9060SOL     OW28078   6.592   5.191   7.000
 9060SOL    HW128079   6.680   5.151   0.000
 9060SOL    HW228080   6.591   5.199   6.900
 9061SOL     OW28081   4.626   4.257   2.453
 9061SOL    HW128082   4.563   4.305   2.392
 9061SOL    HW228083   4.674   4.186   2.402
 9062SOL     OW28084   0.160   5.788   2.977
 9062SOL    HW128085   0.138   5.873   3.025
 9062SOL    HW228086   0.254   5.790   2.945
 9063SOL     OW28087   5.393   6.879   1.035
 9063SOL    HW128088   5.330   6.853   0.961
 9063SOL    HW228089   5.432   6.969   1.015
 9064SOL     OW28090   1.417   5.639   3.002
 9064SOL    HW128091   1.337   5.698   3.009
 9064SOL    HW228092   1.494   5.682   3.048
 9065SOL     OW28093   3.303   4.146   6.569
 9065SOL    HW128094   3.290   4.189   6.480
 9065SOL    HW228095   3.274   4.209   6.641
 9066SOL     OW28096   5.424   4.818   3.548
 9066SOL    HW128097   5.329   4.837   3.522
 9066SOL    HW228098   5.432   4.721   3.574
 9067SOL     OW28099   2.045   6.647   4.080
 9067SOL    HW128100   2.043   6.739   4.040
 9067SOL    HW228101   1.972   6.639   4.148
 9068SOL     OW28102   5.182   0.304   5.787
 9068SOL    HW128103   5.152   0.227   5.843
 9068SOL    HW228104   5.140   0.299   5.697
 9069SOL     OW28105   4.716   2.485   2.061
 9069SOL    HW128106   4.661   2.403   2.077
 9069SOL    HW228107   4.682   2.533   1.981
 9070SOL     OW28108   1.313   0.807   6.416
 9070SOL    HW128109   1.311   0.896   6.370
 9070SOL    HW228110   1.363   0.741   6.360
 9071SOL     OW28111   5.114   2.610   6.951
 9071SOL    HW128112   5.167   2.567   7.025
 9071SOL    HW228113   5.155   2.698   6.927
 9072SOL     OW28114   6.610   1.011   2.077
 9072SOL    HW128115   6.595   0.912   2.073
 9072SOL    HW228116   6.709   1.029   2.073
 9073SOL     OW28117   4.609   2.468   5.999
 9073SOL    HW128118   4.669   2.412   6.055
 9073SOL    HW228119   4.516   2.433   6.004
 9074SOL     OW28120   2.254   1.081   3.604
 9074SOL    HW128121   2.300   1.074   3.693
 9074SOL    HW228122   2.156   1.097   3.618
 9075SOL     OW28123   5.006   5.459   0.557
 9075SOL    HW128124   5.020   5.486   0.653
 9075SOL    HW228125   5.008   5.360   0.550
 9076SOL     OW28126   1.676   5.862   2.380
 9076SOL    HW128127   1.758   5.892   2.430
 9076SOL    HW228128   1.614   5.939   2.368
 9077SOL     OW28129   6.353   1.493   6.053
 9077SOL    HW128130   6.301   1.530   5.976
 9077SOL    HW228131   6.441   1.540   6.060
 9078SOL     OW28132   5.131   6.788   6.902
 9078SOL    HW128133   5.173   6.731   6.973
 9078SOL    HW228134   5.068   6.852   6.944
 9079SOL     OW28135   1.409   1.317   6.531
 9079SOL    HW128136   1.427   1.269   6.618
 9079SOL    HW228137   1.316   1.354   6.534
 9080SOL     OW28138   6.227   4.374   1.125
 9080SOL    HW128139   6.132   4.381   1.097
 9080SOL    HW228140   6.285   4.429   1.064
 9081SOL     OW28141   5.221   1.491   0.255
 9081SOL    HW128142   5.291   1.484   0.184
 9081SOL    HW228143   5.208   1.587   0.280
 9082SOL     OW28144   3.149   4.740   6.472
 9082SOL    HW128145   3.097   4.745   6.557
 9082SOL    HW228146   3.220   4.670   6.480
 9083SOL     OW28147   4.086   0.728   1.041
 9083SOL    HW128148   4.101   0.747   1.138
 9083SOL    HW228149   4.118   0.805   0.986
 9084SOL     OW28150   6.790   4.641   4.478
 9084SOL    HW128151   6.759   4.549   4.502
 9084SOL    HW228152   6.776   4.657   4.380
 9085SOL     OW28153   2.864   4.547   1.183
 9085SOL    HW128154   2.781   4.570   1.234
 9085SOL    HW228155   2.842   4.481   1.111
 9086SOL     OW28156   6.603   2.425   0.762
 9086SOL    HW128157   6.530   2.389   0.704
 9086SOL    HW228158   6.635   2.512   0.725
 9087SOL     OW28159   4.775   1.048   1.387
 9087SOL    HW128160   4.742   0.995   1.465
 9087SOL    HW228161   4.863   1.091   1.410
 9088SOL     OW28162   5.548   6.174   6.490
 9088SOL    HW128163   5.547   6.205   6.586
 9088SOL    HW228164   5.603   6.237   6.436
 9089SOL     OW28165   5.221   5.349   2.536
 9089SOL    HW128166   5.193   5.393   2.450
 9089SOL    HW228167   5.244   5.420   2.603
 9090SOL     OW28168   6.214   5.946   5.389
 9090SOL    HW128169   6.174   6.007   5.320
 9090SOL    HW228170   6.222   5.854   5.352
 9091SOL     OW28171   2.514   1.985   1.789
 9091SOL    HW128172   2.485   2.080   1.777
 9091SOL    HW228173   2.575   1.959   1.713
 9092SOL     OW28174   2.524   1.849   5.191
 9092SOL    HW128175   2.483   1.853   5.282
 9092SOL    HW228176   2.507   1.934   5.143
 9093SOL     OW28177   2.130   3.509   0.835
 9093SOL    HW128178   2.130   3.430   0.896
 9093SOL    HW228179   2.045   3.511   0.782
 9094SOL     OW28180   6.302   2.916   0.585
 9094SOL    HW128181   6.388   2.888   0.543
 9094SOL    HW228182   6.321   2.961   0.673
 9095SOL     OW28183   1.700   2.536   0.042
 9095SOL    HW128184   1.676   2.602   0.112
 9095SOL    HW228185   1.702   2.444   0.082
 9096SOL     OW28186   6.559   5.026   2.913
 9096SOL    HW128187   6.511   5.070   2.989
 9096SOL    HW228188   6.492   4.999   2.843
 9097SOL     OW28189   6.466   5.858   6.108
 9097SOL    HW128190   6.392   5.875   6.173
 9097SOL    HW228191   6.528   5.789   6.145
 9098SOL     OW28192   3.748   3.339   5.022
 9098SOL    HW128193   3.667   3.352   5.080
 9098SOL    HW228194   3.746   3.248   4.982
 9099SOL     OW28195   1.551   2.495   6.801
 9099SOL    HW128196   1.476   2.562   6.798
 9099SOL    HW228197   1.603   2.508   6.885
 9100SOL     OW28198   1.276   2.655   0.741
 9100SOL    HW128199   1.211   2.680   0.670
 9100SOL    HW228200   1.358   2.616   0.698
 9101SOL     OW28201   2.032   2.379   6.924
 9101SOL    HW128202   1.998   2.405   7.014
 9101SOL    HW228203   2.100   2.306   6.934
 9102SOL     OW28204   4.456   6.395   1.751
 9102SOL    HW128205   4.528   6.334   1.787
 9102SOL    HW228206   4.495   6.456   1.682
 9103SOL     OW28207   0.697   4.586   6.320
 9103SOL    HW128208   0.793   4.574   6.347
 9103SOL    HW228209   0.650   4.499   6.325
 9104SOL     OW28210   4.745   0.334   3.085
 9104SOL    HW128211   4.778   0.251   3.040
 9104SOL    HW228212   4.656   0.359   3.048
 9105SOL     OW28213   3.021   1.971   6.320
 9105SOL    HW128214   3.048   2.065   6.339
 9105SOL    HW228215   2.977   1.932   6.401
 9106SOL     OW28216   6.397   5.709   1.797
 9106SOL    HW128217   6.477   5.738   1.744
 9106SOL    HW228218   6.325   5.777   1.790
 9107SOL     OW28219   5.105   6.244   6.548
 9107SOL    HW128220   5.195   6.263   6.507
 9107SOL    HW228221   5.033   6.262   6.481
 9108SOL     OW28222   3.542   5.806   0.200
 9108SOL    HW128223   3.523   5.746   0.278
 9108SOL    HW228224   3.476   5.788   0.127
 9109SOL     OW28225   3.154   1.499   4.101
 9109SOL    HW128226   3.093   1.578   4.092
 9109SOL    HW228227   3.240   1.518   4.054
 9110SOL     OW28228   1.178   3.877   3.162
 9110SOL    HW128229   1.225   3.941   3.101
 9110SOL    HW228230   1.110   3.825   3.110
 9111SOL     OW28231   4.251   3.820   1.288
 9111SOL    HW128232   4.292   3.748   1.232
 9111SOL    HW228233   4.291   3.908   1.264
 9112SOL     OW28234   0.737   5.807   2.267
 9112SOL    HW128235   0.638   5.794   2.264
 9112SOL    HW228236   0.761   5.888   2.214
 9113SOL     OW28237   2.586   5.505   0.007
 9113SOL    HW128238   2.594   5.497   6.936
 9113SOL    HW228239   2.564   5.600   0.031
 9114SOL     OW28240   2.555   3.727   1.681
 9114SOL    HW128241   2.519   3.817   1.705
 9114SOL    HW228242   2.502   3.656   1.727
 9115SOL     OW28243   1.975   4.212   4.654
 9115SOL    HW128244   2.064   4.169   4.669
 9115SOL    HW228245   1.918   4.153   4.597
 9116SOL     OW28246   2.633   1.850   6.436
 9116SOL    HW128247   2.707   1.900   6.481
 9116SOL    HW228248   2.667   1.761   6.406
 9117SOL     OW28249   0.634   3.600   0.382
 9117SOL    HW128250   0.602   3.509   0.408
 9117SOL    HW228251   0.570   3.669   0.417
 9118SOL     OW28252   0.860   6.380   1.709
 9118SOL    HW128253   0.846   6.308   1.641
 9118SOL    HW228254   0.947   6.365   1.756
 9119SOL     OW28255   6.334   0.330   0.922
 9119SOL    HW128256   6.429   0.359   0.918
 9119SOL    HW228257   6.330   0.230   0.931
 9120SOL     OW28258   6.136   0.729   6.696
 9120SOL    HW128259   6.124   0.633   6.719
 9120SOL    HW228260   6.047   0.775   6.700
 9121SOL     OW28261   1.470   1.766   6.613
 9121SOL    HW128262   1.545   1.753   6.678
 9121SOL    HW228263   1.452   1.680   6.565
 9122SOL     OW28264   0.863   2.857   1.371
 9122SOL    HW128265   0.897   2.823   1.283
 9122SOL    HW228266   0.785   2.801   1.400
 9123SOL     OW28267   2.335   6.742   6.778
 9123SOL    HW128268   2.380   6.712   6.694
 9123SOL    HW228269   2.359   6.681   6.853
 9124SOL     OW28270   6.871   4.516   5.514
 9124SOL    HW128271   6.870   4.566   5.601
 9124SOL    HW228272   6.802   4.444   5.517
 9125SOL     OW28273   4.792   5.608   0.912
 9125SOL    HW128274   4.873   5.638   0.962
 9125SOL    HW228275   4.772   5.513   0.933
 9126SOL     OW28276   5.778   6.926   3.053
 9126SOL    HW128277   5.777   6.982   2.971
 9126SOL    HW228278   5.772   6.829   3.028
 9127SOL     OW28279   5.620   5.652   5.729
 9127SOL    HW128280   5.697   5.599   5.694
 9127SOL    HW228281   5.647   5.695   5.816
 9128SOL     OW28282   4.873   2.529   5.472
 9128SOL    HW128283   4.778   2.512   5.444
 9128SOL    HW228284   4.888   2.489   5.562
 9129SOL     OW28285   2.230   1.610   6.878
 9129SOL    HW128286   2.286   1.690   6.857
 9129SOL    HW228287   2.133   1.636   6.876
 9130SOL     OW28288   6.209   6.019   1.093
 9130SOL    HW128289   6.287   6.072   1.125
 9130SOL    HW228290   6.226   5.921   1.108
 9131SOL     OW28291   1.375   4.868   4.082
 9131SOL    HW128292   1.457   4.840   4.132
 9131SOL    HW228293   1.384   4.963   4.054
 9132SOL     OW28294   1.511   3.006   4.224
 9132SOL    HW128295   1.599   3.013   4.272
 9132SOL    HW228296   1.520   3.043   4.132
 9133SOL     OW28297   1.870   4.987   1.560
 9133SOL    HW128298   1.969   4.988   1.552
 9133SOL    HW228299   1.829   4.976   1.470
 9134SOL     OW28300   2.772   4.778   6.080
 9134SOL    HW128301   2.718   4.764   5.997
 9134SOL    HW228302   2.713   4.765   6.160
 9135SOL     OW28303   1.028   6.545   4.344
 9135SOL    HW128304   1.104   6.577   4.400
 9135SOL    HW228305   0.948   6.529   4.402
 9136SOL     OW28306   3.588   5.390   5.304
 9136SOL    HW128307   3.500   5.361   5.266
 9136SOL    HW228308   3.573   5.458   5.376
 9137SOL     OW28309   3.857   0.647   1.785
 9137SOL    HW128310   3.813   0.727   1.825
 9137SOL    HW228311   3.950   0.637   1.821
 9138SOL     OW28312   2.941   4.117   0.891
 9138SOL    HW128313   2.965   4.025   0.921
 9138SOL    HW228314   2.989   4.139   0.807
 9139SOL     OW28315   3.529   0.819   6.062
 9139SOL    HW128316   3.446   0.766   6.074
 9139SOL    HW228317   3.607   0.768   6.097
 9140SOL     OW28318   6.578   2.721   3.673
 9140SOL    HW128319   6.604   2.790   3.740
 9140SOL    HW228320   6.593   2.757   3.581
 9141SOL     OW28321   5.687   0.502   5.724
 9141SOL    HW128322   5.675   0.438   5.800
 9141SOL    HW228323   5.599   0.542   5.699
 9142SOL     OW28324   1.098   4.558   6.843
 9142SOL    HW128325   1.005   4.527   6.862
 9142SOL    HW228326   1.128   4.521   6.755
 9143SOL     OW28327   5.744   4.354   0.743
 9143SOL    HW128328   5.836   4.392   0.749
 9143SOL    HW228329   5.743   4.261   0.780
 9144SOL     OW28330   1.513   5.153   4.654
 9144SOL    HW128331   1.561   5.075   4.613
 9144SOL    HW228332   1.448   5.119   4.723
 9145SOL     OW28333   0.546   4.047   6.333
 9145SOL    HW128334   0.608   3.992   6.276
 9145SOL    HW228335   0.451   4.026   6.308
 9146SOL     OW28336   0.627   2.051   1.240
 9146SOL    HW128337   0.681   2.073   1.159
 9146SOL    HW228338   0.620   1.952   1.250
 9147SOL     OW28339   4.558   6.068   5.906
 9147SOL    HW128340   4.577   6.083   5.809
 9147SOL    HW228341   4.461   6.085   5.923
 9148SOL     OW28342   3.445   5.251   2.906
 9148SOL    HW128343   3.413   5.239   2.812
 9148SOL    HW228344   3.432   5.346   2.934
 9149SOL     OW28345   6.185   2.974   4.719
 9149SOL    HW128346   6.187   2.895   4.658
 9149SOL    HW228347   6.274   2.986   4.762
 9150SOL     OW28348   4.399   1.556   2.727
 9150SOL    HW128349   4.302   1.542   2.706
 9150SOL    HW228350   4.414   1.545   2.826
 9151SOL     OW28351   0.781   3.363   1.909
 9151SOL    HW128352   0.698   3.413   1.883
 9151SOL    HW228353   0.756   3.277   1.952
 9152SOL     OW28354   2.202   5.047   3.434
 9152SOL    HW128355   2.211   4.985   3.356
 9152SOL    HW228356   2.291   5.058   3.479
 9153SOL     OW28357   1.544   2.992   6.923
 9153SOL    HW128358   1.490   2.947   6.852
 9153SOL    HW228359   1.622   2.936   6.947
 9154SOL     OW28360   1.521   5.385   0.591
 9154SOL    HW128361   1.441   5.344   0.547
 9154SOL    HW228362   1.580   5.312   0.627
 9155SOL     OW28363   1.734   4.580   6.897
 9155SOL    HW128364   1.699   4.546   6.985
 9155SOL    HW228365   1.660   4.622   6.845
 9156SOL     OW28366   5.171   2.449   1.636
 9156SOL    HW128367   5.085   2.397   1.638
 9156SOL    HW228368   5.165   2.525   1.701
 9157SOL     OW28369   5.434   3.611   5.665
 9157SOL    HW128370   5.492   3.640   5.589
 9157SOL    HW228371   5.488   3.607   5.749
 9158SOL     OW28372   0.731   3.771   3.508
 9158SOL    HW128373   0.792   3.851   3.503
 9158SOL    HW228374   0.684   3.771   3.597
 9159SOL     OW28375   0.009   4.727   2.387
 9159SOL    HW128376   0.003   4.673   2.471
 9159SOL    HW228377   6.981   4.684   2.316
 9160SOL     OW28378   0.185   0.242   0.738
 9160SOL    HW128379   0.088   0.226   0.757
 9160SOL    HW228380   0.226   0.157   0.704
 9161SOL     OW28381   5.150   4.047   2.648
 9161SOL    HW128382   5.176   4.064   2.553
 9161SOL    HW228383   5.207   3.974   2.686
 9162SOL     OW28384   5.326   2.496   2.623
 9162SOL    HW128385   5.377   2.424   2.577
 9162SOL    HW228386   5.329   2.580   2.568
 9163SOL     OW28387   3.334   1.021   4.977
 9163SOL    HW128388   3.373   1.091   4.917
 9163SOL    HW228389   3.260   1.061   5.031
 9164SOL     OW28390   2.868   0.400   0.860
 9164SOL    HW128391   2.823   0.382   0.948
 9164SOL    HW228392   2.966   0.408   0.874
 9165SOL     OW28393   4.707   5.881   0.258
 9165SOL    HW128394   4.623   5.827   0.262
 9165SOL    HW228395   4.769   5.852   0.331
 9166SOL     OW28396   2.546   5.644   1.226
 9166SOL    HW128397   2.460   5.628   1.273
 9166SOL    HW228398   2.574   5.562   1.175
 9167SOL     OW28399   0.148   3.980   4.663
 9167SOL    HW128400   0.086   3.952   4.590
 9167SOL    HW228401   0.147   3.912   4.736
 9168SOL     OW28402   3.396   0.554   0.203
 9168SOL    HW128403   3.362   0.531   0.112
 9168SOL    HW228404   3.342   0.628   0.241
 9169SOL     OW28405   0.532   6.706   3.249
 9169SOL    HW128406   0.523   6.707   3.349
 9169SOL    HW228407   0.474   6.632   3.212
 9170SOL     OW28408   6.254   6.011   6.930
 9170SOL    HW128409   6.279   5.915   6.917
 9170SOL    HW228410   6.233   6.027   7.027
 9171SOL     OW28411   3.164   5.785   5.392
 9171SOL    HW128412   3.169   5.745   5.300
 9171SOL    HW228413   3.068   5.789   5.421
 9172SOL     OW28414   2.766   2.374   4.315
 9172SOL    HW128415   2.732   2.358   4.408
 9172SOL    HW228416   2.845   2.315   4.298
 9173SOL     OW28417   0.722   5.199   5.057
 9173SOL    HW128418   0.760   5.290   5.037
 9173SOL    HW228419   0.649   5.179   4.992
 9174SOL     OW28420   0.360   5.941   6.766
 9174SOL    HW128421   0.262   5.963   6.764
 9174SOL    HW228422   0.409   6.012   6.816
 9175SOL     OW28423   1.700   6.766   5.501
 9175SOL    HW128424   1.698   6.716   5.414
 9175SOL    HW228425   1.659   6.856   5.488
 9176SOL     OW28426   1.404   1.921   5.853
 9176SOL    HW128427   1.462   2.001   5.869
 9176SOL    HW228428   1.459   1.838   5.864
 9177SOL     OW28429   1.280   4.609   3.092
 9177SOL    HW128430   1.208   4.670   3.125
 9177SOL    HW228431   1.273   4.521   3.140
 9178SOL     OW28432   2.015   4.229   0.536
 9178SOL    HW128433   2.083   4.160   0.511
 9178SOL    HW228434   1.971   4.203   0.622
 9179SOL     OW28435   2.489   5.078   5.014
 9179SOL    HW128436   2.425   5.031   5.075
 9179SOL    HW228437   2.578   5.085   5.059
 9180SOL     OW28438   5.633   2.283   2.965
 9180SOL    HW128439   5.555   2.325   2.919
 9180SOL    HW228440   5.627   2.299   3.063
 9181SOL     OW28441   3.809   1.085   2.093
 9181SOL    HW128442   3.833   1.074   1.997
 9181SOL    HW228443   3.809   0.995   2.137
 9182SOL     OW28444   2.534   6.624   1.956
 9182SOL    HW128445   2.628   6.658   1.956
 9182SOL    HW228446   2.485   6.664   2.034
 9183SOL     OW28447   5.249   5.572   5.914
 9183SOL    HW128448   5.280   5.663   5.940
 9183SOL    HW228449   5.171   5.580   5.851
 9184SOL     OW28450   4.917   6.595   0.031
 9184SOL    HW128451   5.009   6.628   0.053
 9184SOL    HW228452   4.911   6.497   0.051
 9185SOL     OW28453   4.475   1.481   4.486
 9185SOL    HW128454   4.533   1.518   4.558
 9185SOL    HW228455   4.391   1.445   4.526
 9186SOL     OW28456   5.152   6.945   6.560
 9186SOL    HW128457   5.136   6.911   6.467
 9186SOL    HW228458   5.216   7.022   6.556
 9187SOL     OW28459   2.576   6.448   2.461
 9187SOL    HW128460   2.610   6.540   2.439
 9187SOL    HW228461   2.638   6.405   2.527
 9188SOL     OW28462   2.383   6.061   0.953
 9188SOL    HW128463   2.302   6.086   1.006
 9188SOL    HW228464   2.404   5.965   0.967
 9189SOL     OW28465   5.215   5.155   1.738
 9189SOL    HW128466   5.294   5.155   1.798
 9189SOL    HW228467   5.131   5.160   1.793
 9190SOL     OW28468   0.832   5.948   0.505
 9190SOL    HW128469   0.891   5.943   0.425
 9190SOL    HW228470   0.873   6.009   0.573
 9191SOL     OW28471   6.690   0.488   6.076
 9191SOL    HW128472   6.614   0.553   6.086
 9191SOL    HW228473   6.772   0.538   6.046
 9192SOL     OW28474   1.209   3.731   4.877
 9192SOL    HW128475   1.229   3.809   4.936
 9192SOL    HW228476   1.188   3.650   4.932
 9193SOL     OW28477   2.503   3.639   0.262
 9193SOL    HW128478   2.524   3.549   0.299
 9193SOL    HW228479   2.471   3.699   0.336
 9194SOL     OW28480   3.104   0.639   4.640
 9194SOL    HW128481   3.158   0.719   4.668
 9194SOL    HW228482   3.163   0.576   4.589
 9195SOL     OW28483   1.600   1.121   3.981
 9195SOL    HW128484   1.604   1.025   4.009
 9195SOL    HW228485   1.585   1.178   4.061
 9196SOL     OW28486   5.002   1.531   5.755
 9196SOL    HW128487   4.940   1.518   5.832
 9196SOL    HW228488   4.953   1.575   5.680
 9197SOL     OW28489   2.498   4.005   0.403
 9197SOL    HW128490   2.539   4.036   0.317
 9197SOL    HW228491   2.546   4.047   0.480
 9198SOL     OW28492   0.891   4.977   4.043
 9198SOL    HW128493   0.904   5.003   4.138
 9198SOL    HW228494   0.962   4.911   4.017
 9199SOL     OW28495   5.911   3.853   4.935
 9199SOL    HW128496   5.847   3.897   4.873
 9199SOL    HW228497   5.935   3.916   5.009
 9200SOL     OW28498   3.372   0.319   0.333
 9200SOL    HW128499   3.329   0.265   0.262
 9200SOL    HW228500   3.380   0.414   0.303
 9201SOL     OW28501   1.796   4.642   0.926
 9201SOL    HW128502   1.729   4.700   0.879
 9201SOL    HW228503   1.753   4.600   1.006
 9202SOL     OW28504   2.440   0.892   3.931
 9202SOL    HW128505   2.459   0.810   3.877
 9202SOL    HW228506   2.355   0.878   3.983
 9203SOL     OW28507   6.396   6.808   0.469
 9203SOL    HW128508   6.434   6.741   0.532
 9203SOL    HW228509   6.430   6.791   0.377
 9204SOL     OW28510   6.017   0.318   5.075
 9204SOL    HW128511   6.055   0.369   4.998
 9204SOL    HW228512   5.985   0.382   5.145
 9205SOL     OW28513   7.012   5.405   1.748
 9205SOL    HW128514   6.932   5.379   1.803
 9205SOL    HW228515   0.045   5.326   1.740
 9206SOL     OW28516   3.600   6.608   0.304
 9206SOL    HW128517   3.673   6.539   0.304
 9206SOL    HW228518   3.532   6.584   0.234
 9207SOL     OW28519   5.357   5.804   5.991
 9207SOL    HW128520   5.311   5.880   5.945
 9207SOL    HW228521   5.384   5.833   6.083
 9208SOL     OW28522   1.267   3.935   2.661
 9208SOL    HW128523   1.307   3.852   2.623
 9208SOL    HW228524   1.315   4.015   2.625
 9209SOL     OW28525   2.244   6.963   6.908
 9209SOL    HW128526   2.273   6.948   7.003
 9209SOL    HW228527   2.274   6.886   6.851
 9210SOL     OW28528   6.451   0.698   3.737
 9210SOL    HW128529   6.514   0.721   3.812
 9210SOL    HW228530   6.504   0.678   3.654
 9211SOL     OW28531   0.660   1.814   2.586
 9211SOL    HW128532   0.655   1.903   2.541
 9211SOL    HW228533   0.572   1.793   2.630
 9212SOL     OW28534   3.788   5.614   4.589
 9212SOL    HW128535   3.881   5.609   4.626
 9212SOL    HW228536   3.744   5.524   4.600
 9213SOL     OW28537   6.200   4.578   6.810
 9213SOL    HW128538   6.267   4.565   6.737
 9213SOL    HW228539   6.109   4.557   6.775
 9214SOL     OW28540   0.126   5.179   0.154
 9214SOL    HW128541   0.101   5.264   0.201
 9214SOL    HW228542   0.152   5.199   0.060
 9215SOL     OW28543   1.095   1.567   1.083
 9215SOL    HW128544   1.084   1.560   1.182
 9215SOL    HW228545   1.166   1.634   1.062
 9216SOL     OW28546   2.187   0.280   3.659
 9216SOL    HW128547   2.121   0.276   3.584
 9216SOL    HW228548   2.263   0.340   3.633
 9217SOL     OW28549   0.516   2.918   0.674
 9217SOL    HW128550   0.468   2.852   0.732
 9217SOL    HW228551   0.471   2.922   0.584
 9218SOL     OW28552   2.122   1.099   0.482
 9218SOL    HW128553   2.096   1.050   0.399
 9218SOL    HW228554   2.084   1.191   0.480
 9219SOL     OW28555   6.433   1.780   0.554
 9219SOL    HW128556   6.513   1.730   0.588
 9219SOL    HW228557   6.383   1.723   0.489
 9220SOL     OW28558   3.665   6.040   0.906
 9220SOL    HW128559   3.765   6.030   0.904
 9220SOL    HW228560   3.635   6.095   0.828
 9221SOL     OW28561   2.705   4.726   4.780
 9221SOL    HW128562   2.735   4.694   4.870
 9221SOL    HW228563   2.607   4.742   4.782
 9222SOL     OW28564   2.859   2.123   6.574
 9222SOL    HW128565   2.959   2.119   6.576
 9222SOL    HW228566   2.824   2.123   6.668
 9223SOL     OW28567   2.878   3.173   5.195
 9223SOL    HW128568   2.819   3.116   5.138
 9223SOL    HW228569   2.842   3.266   5.197
 9224SOL     OW28570   2.142   4.711   5.676
 9224SOL    HW128571   2.099   4.792   5.717
 9224SOL    HW228572   2.107   4.698   5.583
 9225SOL     OW28573   1.853   6.505   0.262
 9225SOL    HW128574   1.776   6.478   0.203
 9225SOL    HW228575   1.853   6.605   0.272
 9226SOL     OW28576   4.691   6.563   0.715
 9226SOL    HW128577   4.788   6.584   0.700
 9226SOL    HW228578   4.638   6.647   0.719
 9227SOL     OW28579   1.402   6.671   2.167
 9227SOL    HW128580   1.396   6.717   2.079
 9227SOL    HW228581   1.458   6.589   2.158
 9228SOL     OW28582   0.785   6.990   6.858
 9228SOL    HW128583   0.738   6.906   6.884
 9228SOL    HW228584   0.878   6.968   6.828
 9229SOL     OW28585   0.587   5.810   5.355
 9229SOL    HW128586   0.493   5.834   5.379
 9229SOL    HW228587   0.599   5.711   5.363
 9230SOL     OW28588   4.935   1.155   3.422
 9230SOL    HW128589   4.942   1.254   3.406
 9230SOL    HW228590   4.839   1.130   3.433
 9231SOL     OW28591   2.101   3.539   3.689
 9231SOL    HW128592   2.164   3.571   3.760
 9231SOL    HW228593   2.138   3.564   3.599
 9232SOL     OW28594   4.159   4.811   0.844
 9232SOL    HW128595   4.205   4.727   0.814
 9232SOL    HW228596   4.185   4.887   0.785
 9233SOL     OW28597   5.112   4.414   0.698
 9233SOL    HW128598   5.055   4.485   0.741
 9233SOL    HW228599   5.181   4.383   0.762
 9234SOL     OW28600   1.659   6.192   3.774
 9234SOL    HW128601   1.578   6.240   3.807
 9234SOL    HW228602   1.667   6.104   3.820
 9235SOL     OW28603   0.775   2.447   3.678
 9235SOL    HW128604   0.768   2.518   3.609
 9235SOL    HW228605   0.802   2.487   3.765
 9236SOL     OW28606   4.251   2.597   5.961
 9236SOL    HW128607   4.273   2.500   5.948
 9236SOL    HW228608   4.152   2.609   5.959
 9237SOL     OW28609   1.628   3.767   3.289
 9237SOL    HW128610   1.579   3.680   3.286
 9237SOL    HW228611   1.725   3.752   3.274
 9238SOL     OW28612   4.438   3.316   6.689
 9238SOL    HW128613   4.382   3.284   6.766
 9238SOL    HW228614   4.517   3.366   6.725
 9239SOL     OW28615   1.200   3.372   6.398
 9239SOL    HW128616   1.286   3.394   6.444
 9239SOL    HW228617   1.134   3.445   6.413
 9240SOL     OW28618   4.736   0.951   1.811
 9240SOL    HW128619   4.744   1.035   1.758
 9240SOL    HW228620   4.761   0.968   1.906
 9241SOL     OW28621   0.781   5.176   6.364
 9241SOL    HW128622   0.731   5.263   6.352
 9241SOL    HW228623   0.807   5.141   6.274
 9242SOL     OW28624   6.052   6.058   1.663
 9242SOL    HW128625   5.972   5.999   1.648
 9242SOL    HW228626   6.042   6.106   1.750
 9243SOL     OW28627   5.673   6.476   4.150
 9243SOL    HW128628   5.710   6.407   4.089
 9243SOL    HW228629   5.674   6.565   4.105
 9244SOL     OW28630   3.712   5.574   0.663
 9244SOL    HW128631   3.695   5.648   0.729
 9244SOL    HW228632   3.671   5.490   0.696
 9245SOL     OW28633   0.608   6.833   1.361
 9245SOL    HW128634   0.689   6.834   1.303
 9245SOL    HW228635   0.619   6.899   1.435
 9246SOL     OW28636   6.802   4.883   3.984
 9246SOL    HW128637   6.855   4.803   3.957
 9246SOL    HW228638   6.738   4.907   3.911
 9247SOL     OW28639   1.547   0.062   3.632
 9247SOL    HW128640   1.534   0.073   3.533
 9247SOL    HW228641   1.523   0.148   3.678
 9248SOL     OW28642   3.667   2.023   6.220
 9248SOL    HW128643   3.724   2.056   6.145
 9248SOL    HW228644   3.605   1.952   6.186
 9249SOL     OW28645   4.351   6.496   3.322
 9249SOL    HW128646   4.426   6.464   3.381
 9249SOL    HW228647   4.380   6.576   3.271
 9250SOL     OW28648   5.144   3.848   3.289
 9250SOL    HW128649   5.056   3.806   3.269
 9250SOL    HW228650   5.145   3.942   3.255
 9251SOL     OW28651   4.005   2.127   2.931
 9251SOL    HW128652   4.014   2.077   2.845
 9251SOL    HW228653   3.915   2.111   2.970
 9252SOL     OW28654   1.544   6.958   4.247
 9252SOL    HW128655   1.470   6.984   4.185
 9252SOL    HW228656   1.631   6.964   4.198
 9253SOL     OW28657   1.663   6.630   5.724
 9253SOL    HW128658   1.576   6.664   5.759
 9253SOL    HW228659   1.681   6.672   5.634
 9254SOL     OW28660   5.393   2.537   1.116
 9254SOL    HW128661   5.484   2.520   1.153
 9254SOL    HW228662   5.380   2.482   1.033
 9255SOL     OW28663   6.964   5.259   0.542
 9255SOL    HW128664   6.864   5.257   0.545
 9255SOL    HW228665   6.993   5.306   0.458
 9256SOL     OW28666   3.880   5.203   2.150
 9256SOL    HW128667   3.803   5.153   2.110
 9256SOL    HW228668   3.853   5.240   2.239
 9257SOL     OW28669   1.002   3.739   0.884
 9257SOL    HW128670   1.035   3.766   0.975
 9257SOL    HW228671   1.068   3.677   0.842
 9258SOL     OW28672   3.133   3.186   3.646
 9258SOL    HW128673   3.147   3.170   3.744
 9258SOL    HW228674   3.200   3.252   3.613
 9259SOL     OW28675   1.295   2.468   0.409
 9259SOL    HW128676   1.372   2.476   0.472
 9259SOL    HW228677   1.327   2.439   0.319
 9260SOL     OW28678   6.529   3.730   0.065
 9260SOL    HW128679   6.497   3.637   0.083
 9260SOL    HW228680   6.564   3.770   0.150
 9261SOL     OW28681   3.606   6.938   6.104
 9261SOL    HW128682   3.536   6.868   6.088
 9261SOL    HW228683   3.571   7.027   6.074
 9262SOL     OW28684   5.403   0.515   5.737
 9262SOL    HW128685   5.355   0.543   5.654
 9262SOL    HW228686   5.354   0.439   5.780
 9263SOL     OW28687   5.995   3.966   1.943
 9263SOL    HW128688   6.090   3.987   1.968
 9263SOL    HW228689   5.987   3.868   1.921
 9264SOL     OW28690   6.032   2.467   0.031
 9264SOL    HW128691   5.973   2.410   7.003
 9264SOL    HW228692   6.118   2.485   7.010
 9265SOL     OW28693   1.671   1.550   5.670
 9265SOL    HW128694   1.674   1.461   5.626
 9265SOL    HW228695   1.675   1.622   5.600
 9266SOL     OW28696   3.005   6.160   1.937
 9266SOL    HW128697   3.067   6.239   1.941
 9266SOL    HW228698   2.918   6.188   1.898
 9267SOL     OW28699   2.768   5.163   5.655
 9267SOL    HW128700   2.862   5.138   5.635
 9267SOL    HW228701   2.716   5.172   5.570
 9268SOL     OW28702   0.628   1.515   3.076
 9268SOL    HW128703   0.704   1.580   3.068
 9268SOL    HW228704   0.664   1.422   3.067
 9269SOL     OW28705   4.156   1.761   5.482
 9269SOL    HW128706   4.097   1.842   5.476
 9269SOL    HW228707   4.251   1.789   5.470
 9270SOL     OW28708   1.377   0.338   6.087
 9270SOL    HW128709   1.413   0.429   6.107
 9270SOL    HW228710   1.335   0.339   5.996
 9271SOL     OW28711   0.717   5.177   5.873
 9271SOL    HW128712   0.691   5.081   5.864
 9271SOL    HW228713   0.638   5.231   5.901
 9272SOL     OW28714   2.093   4.982   6.606
 9272SOL    HW128715   2.068   4.886   6.617
 9272SOL    HW228716   2.028   5.039   6.656
 9273SOL     OW28717   4.098   5.682   5.448
 9273SOL    HW128718   4.023   5.714   5.390
 9273SOL    HW228719   4.145   5.606   5.401
 9274SOL     OW28720   5.514   2.294   1.794
 9274SOL    HW128721   5.538   2.384   1.830
 9274SOL    HW228722   5.434   2.258   1.842
 9275SOL     OW28723   0.196   0.626   6.229
 9275SOL    HW128724   0.138   0.696   6.271
 9275SOL    HW228725   0.184   0.540   6.278
 9276SOL     OW28726   4.761   6.675   3.662
 9276SOL    HW128727   4.796   6.581   3.668
 9276SOL    HW228728   4.708   6.686   3.578
 9277SOL     OW28729   3.599   2.765   0.537
 9277SOL    HW128730   3.536   2.799   0.607
 9277SOL    HW228731   3.691   2.801   0.555
 9278SOL     OW28732   1.886   2.562   1.520
 9278SOL    HW128733   1.863   2.546   1.424
 9278SOL    HW228734   1.803   2.561   1.575
 9279SOL     OW28735   1.950   6.382   0.853
 9279SOL    HW128736   2.010   6.347   0.925
 9279SOL    HW228737   2.005   6.427   0.782
 9280SOL     OW28738   2.031   0.476   2.831
 9280SOL    HW128739   2.108   0.539   2.838
 9280SOL    HW228740   1.989   0.464   2.921
 9281SOL     OW28741   2.375   2.682   0.602
 9281SOL    HW128742   2.438   2.714   0.530
 9281SOL    HW228743   2.382   2.583   0.611
 9282SOL     OW28744   4.295   1.135   6.493
 9282SOL    HW128745   4.348   1.072   6.550
 9282SOL    HW228746   4.344   1.223   6.488
 9283SOL     OW28747   5.439   2.472   2.873
 9283SOL    HW128748   5.422   2.478   2.774
 9283SOL    HW228749   5.512   2.535   2.898
 9284SOL     OW28750   3.567   3.903   1.801
 9284SOL    HW128751   3.548   3.959   1.882
 9284SOL    HW228752   3.642   3.943   1.749
 9285SOL     OW28753   6.161   2.267   6.805
 9285SOL    HW128754   6.090   2.212   6.761
 9285SOL    HW228755   6.249   2.222   6.796
 9286SOL     OW28756   5.742   5.513   5.066
 9286SOL    HW128757   5.763   5.571   4.988
 9286SOL    HW228758   5.703   5.427   5.034
 9287SOL     OW28759   2.600   0.080   1.949
 9287SOL    HW128760   2.664   0.032   1.889
 9287SOL    HW228761   2.603   0.178   1.929
 9288SOL     OW28762   4.965   1.824   5.944
 9288SOL    HW128763   5.026   1.838   5.866
 9288SOL    HW228764   4.961   1.907   6.000
 9289SOL     OW28765   5.852   3.952   2.684
 9289SOL    HW128766   5.834   4.049   2.702
 9289SOL    HW228767   5.774   3.898   2.714
 9290SOL     OW28768   4.398   1.743   4.442
 9290SOL    HW128769   4.414   1.778   4.349
 9290SOL    HW228770   4.412   1.644   4.442
 9291SOL     OW28771   1.107   1.556   4.919
 9291SOL    HW128772   1.031   1.611   4.955
 9291SOL    HW228773   1.128   1.482   4.982
 9292SOL     OW28774   0.333   3.591   0.229
 9292SOL    HW128775   0.394   3.515   0.254
 9292SOL    HW228776   0.258   3.596   0.294
 9293SOL     OW28777   6.568   3.847   6.322
 9293SOL    HW128778   6.588   3.831   6.418
 9293SOL    HW228779   6.498   3.784   6.290
 9294SOL     OW28780   5.402   5.887   6.241
 9294SOL    HW128781   5.449   5.835   6.313
 9294SOL    HW228782   5.321   5.932   6.280
 9295SOL     OW28783   4.625   1.975   3.475
 9295SOL    HW128784   4.565   2.011   3.404
 9295SOL    HW228785   4.718   2.009   3.461
 9296SOL     OW28786   6.889   6.903   5.140
 9296SOL    HW128787   6.818   6.974   5.145
 9296SOL    HW228788   6.915   6.888   5.044
 9297SOL     OW28789   0.713   0.672   1.563
 9297SOL    HW128790   0.658   0.591   1.545
 9297SOL    HW228791   0.766   0.694   1.480
 9298SOL     OW28792   0.634   6.209   4.659
 9298SOL    HW128793   0.698   6.253   4.722
 9298SOL    HW228794   0.541   6.216   4.696
 9299SOL     OW28795   1.747   3.058   3.572
 9299SOL    HW128796   1.837   3.028   3.543
 9299SOL    HW228797   1.716   3.133   3.514
 9300SOL     OW28798   5.753   4.360   3.729
 9300SOL    HW128799   5.698   4.349   3.812
 9300SOL    HW228800   5.837   4.409   3.752
 9301SOL     OW28801   6.421   4.295   1.589
 9301SOL    HW128802   6.516   4.326   1.578
 9301SOL    HW228803   6.377   4.293   1.500
 9302SOL     OW28804   2.134   1.868   2.486
 9302SOL    HW128805   2.187   1.933   2.541
 9302SOL    HW228806   2.173   1.862   2.394
 9303SOL     OW28807   4.719   4.314   0.558
 9303SOL    HW128808   4.705   4.353   0.467
 9303SOL    HW228809   4.814   4.285   0.568
 9304SOL     OW28810   4.464   3.516   0.129
 9304SOL    HW128811   4.399   3.533   0.055
 9304SOL    HW228812   4.548   3.477   0.092
 9305SOL     OW28813   4.884   3.753   2.136
 9305SOL    HW128814   4.884   3.702   2.050
 9305SOL    HW228815   4.873   3.850   2.118
 9306SOL     OW28816   6.004   5.025   4.222
 9306SOL    HW128817   5.950   4.941   4.232
 9306SOL    HW228818   6.006   5.075   4.309
 9307SOL     OW28819   2.016   0.688   6.015
 9307SOL    HW128820   2.112   0.704   5.994
 9307SOL    HW228821   2.007   0.654   6.108
 9308SOL     OW28822   6.724   2.208   0.586
 9308SOL    HW128823   6.709   2.302   0.557
 9308SOL    HW228824   6.649   2.151   0.553
 9309SOL     OW28825   5.110   2.820   6.401
 9309SOL    HW128826   5.068   2.753   6.341
 9309SOL    HW228827   5.055   2.903   6.403
 9310SOL     OW28828   4.449   6.252   0.921
 9310SOL    HW128829   4.529   6.311   0.908
 9310SOL    HW228830   4.474   6.157   0.903
 9311SOL     OW28831   6.844   3.225   1.733
 9311SOL    HW128832   6.831   3.129   1.758
 9311SOL    HW228833   6.762   3.277   1.757
 9312SOL     OW28834   1.943   4.486   5.094
 9312SOL    HW128835   1.848   4.514   5.077
 9312SOL    HW228836   1.955   4.391   5.067
 9313SOL     OW28837   6.185   6.629   2.566
 9313SOL    HW128838   6.136   6.547   2.536
 9313SOL    HW228839   6.139   6.711   2.531
 9314SOL     OW28840   5.850   4.271   6.971
 9314SOL    HW128841   5.875   4.294   0.037
 9314SOL    HW228842   5.871   4.348   6.911
 9315SOL     OW28843   0.484   6.742   6.480
 9315SOL    HW128844   0.454   6.658   6.525
 9315SOL    HW228845   0.495   6.814   6.549
 9316SOL     OW28846   3.281   6.114   4.390
 9316SOL    HW128847   3.332   6.038   4.349
 9316SOL    HW228848   3.289   6.110   4.489
 9317SOL     OW28849   4.629   4.144   5.376
 9317SOL    HW128850   4.725   4.125   5.397
 9317SOL    HW228851   4.572   4.122   5.455
 9318SOL     OW28852   6.704   6.526   6.262
 9318SOL    HW128853   6.756   6.521   6.177
 9318SOL    HW228854   6.616   6.570   6.245
 9319SOL     OW28855   6.600   2.940   4.367
 9319SOL    HW128856   6.586   3.019   4.306
 9319SOL    HW228857   6.666   2.878   4.325
 9320SOL     OW28858   3.870   2.792   6.197
 9320SOL    HW128859   3.839   2.887   6.195
 9320SOL    HW228860   3.946   2.784   6.262
 9321SOL     OW28861   5.488   6.011   4.175
 9321SOL    HW128862   5.435   6.030   4.093
 9321SOL    HW228863   5.455   5.926   4.217
 9322SOL     OW28864   0.850   6.677   0.408
 9322SOL    HW128865   0.943   6.709   0.387
 9322SOL    HW228866   0.829   6.696   0.503
 9323SOL     OW28867   0.597   1.297   6.570
 9323SOL    HW128868   0.686   1.270   6.533
 9323SOL    HW228869   0.595   1.278   6.668
 9324SOL     OW28870   1.643   5.511   6.750
 9324SOL    HW128871   1.621   5.529   6.654
 9324SOL    HW228872   1.605   5.423   6.777
 9325SOL     OW28873   0.151   2.887   0.660
 9325SOL    HW128874   0.061   2.912   0.623
 9325SOL    HW228875   0.219   2.892   0.586
 9326SOL     OW28876   2.153   5.667   1.367
 9326SOL    HW128877   2.086   5.623   1.307
 9326SOL    HW228878   2.232   5.606   1.379
 9327SOL     OW28879   3.551   1.053   3.588
 9327SOL    HW128880   3.493   0.973   3.571
 9327SOL    HW228881   3.565   1.103   3.503
 9328SOL     OW28882   2.902   0.631   1.909
 9328SOL    HW128883   2.919   0.600   1.816
 9328SOL    HW228884   2.918   0.555   1.973
 9329SOL     OW28885   1.268   4.118   1.982
 9329SOL    HW128886   1.354   4.151   2.021
 9329SOL    HW228887   1.191   4.154   2.034
 9330SOL     OW28888   5.496   6.746   6.582
 9330SOL    HW128889   5.593   6.721   6.580
 9330SOL    HW228890   5.487   6.840   6.616
 9331SOL     OW28891   0.397   1.969   0.008
 9331SOL    HW128892   0.453   2.042   0.046
 9331SOL    HW228893   0.422   1.882   0.049
 9332SOL     OW28894   3.877   3.827   5.302
 9332SOL    HW128895   3.949   3.771   5.341
 9332SOL    HW228896   3.789   3.780   5.309
 9333SOL     OW28897   5.358   5.545   0.910
 9333SOL    HW128898   5.299   5.480   0.957
 9333SOL    HW228899   5.303   5.605   0.852
 9334SOL     OW28900   2.667   6.949   4.852
 9334SOL    HW128901   2.582   6.897   4.851
 9334SOL    HW228902   2.745   6.887   4.856
 9335SOL     OW28903   0.951   1.002   2.064
 9335SOL    HW128904   1.038   0.971   2.027
 9335SOL    HW228905   0.889   0.924   2.076
 9336SOL     OW28906   3.133   7.003   5.331
 9336SOL    HW128907   3.094   6.929   5.276
 9336SOL    HW228908   3.217   0.007   5.288
 9337SOL     OW28909   4.555   6.817   2.647
 9337SOL    HW128910   4.524   6.740   2.591
 9337SOL    HW228911   4.502   6.899   2.622
 9338SOL     OW28912   3.317   6.716   1.873
 9338SOL    HW128913   3.297   6.801   1.825
 9338SOL    HW228914   3.384   6.734   1.945
 9339SOL     OW28915   3.472   5.537   1.461
 9339SOL    HW128916   3.524   5.622   1.456
 9339SOL    HW228917   3.448   5.507   1.368
 9340SOL     OW28918   6.419   3.440   0.882
 9340SOL    HW128919   6.443   3.517   0.824
 9340SOL    HW228920   6.322   3.445   0.907
 9341SOL     OW28921   6.743   4.336   5.739
 9341SOL    HW128922   6.800   4.258   5.713
 9341SOL    HW228923   6.759   4.359   5.835
 9342SOL     OW28924   1.424   0.130   6.337
 9342SOL    HW128925   1.491   0.115   6.264
 9342SOL    HW228926   1.332   0.113   6.301
 9343SOL     OW28927   5.829   6.272   3.976
 9343SOL    HW128928   5.909   6.318   4.015
 9343SOL    HW228929   5.832   6.175   4.000
 9344SOL     OW28930   4.920   6.574   1.037
 9344SOL    HW128931   4.989   6.613   1.099
 9344SOL    HW228932   4.959   6.565   0.946
 9345SOL     OW28933   0.553   3.259   0.878
 9345SOL    HW128934   0.599   3.178   0.913
 9345SOL    HW228935   0.544   3.327   0.951
 9346SOL     OW28936   6.018   0.685   0.398
 9346SOL    HW128937   5.965   0.601   0.389
 9346SOL    HW228938   5.959   0.764   0.383
 9347SOL     OW28939   2.404   6.332   1.770
 9347SOL    HW128940   2.475   6.401   1.759
 9347SOL    HW228941   2.332   6.347   1.702
 9348SOL     OW28942   3.142   4.993   0.483
 9348SOL    HW128943   3.091   5.068   0.441
 9348SOL    HW228944   3.201   4.950   0.415
 9349SOL     OW28945   1.893   5.946   2.530
 9349SOL    HW128946   1.920   5.969   2.624
 9349SOL    HW228947   1.971   5.959   2.469
 9350SOL     OW28948   6.972   2.817   5.924
 9350SOL    HW128949   6.925   2.835   5.838
 9350SOL    HW228950   0.034   2.859   5.923
 9351SOL     OW28951   3.047   0.520   6.541
 9351SOL    HW128952   3.035   0.575   6.458
 9351SOL    HW228953   2.961   0.514   6.590
 9352SOL     OW28954   2.544   5.080   5.779
 9352SOL    HW128955   2.549   5.107   5.876
 9352SOL    HW228956   2.610   5.134   5.726
 9353SOL     OW28957   5.781   0.999   0.989
 9353SOL    HW128958   5.688   1.019   1.017
 9353SOL    HW228959   5.843   1.068   1.027
 9354SOL     OW28960   0.915   1.470   6.443
 9354SOL    HW128961   0.860   1.429   6.370
 9354SOL    HW228962   0.990   1.523   6.403
 9355SOL     OW28963   0.737   1.475   5.180
 9355SOL    HW128964   0.741   1.376   5.166
 9355SOL    HW228965   0.799   1.520   5.116
 9356SOL     OW28966   4.611   6.976   3.671
 9356SOL    HW128967   4.701   6.979   3.626
 9356SOL    HW228968   4.592   0.036   3.713
 9357SOL     OW28969   1.168   2.143   0.318
 9357SOL    HW128970   1.146   2.230   0.275
 9357SOL    HW228971   1.267   2.130   0.320
 9358SOL     OW28972   1.161   2.228   1.289
 9358SOL    HW128973   1.113   2.164   1.229
 9358SOL    HW228974   1.095   2.287   1.335
 9359SOL     OW28975   0.884   0.249   5.399
 9359SOL    HW128976   0.948   0.277   5.327
 9359SOL    HW228977   0.922   0.170   5.448
 9360SOL     OW28978   0.433   0.765   6.162
 9360SOL    HW128979   0.351   0.718   6.195
 9360SOL    HW228980   0.442   0.750   6.063
 9361SOL     OW28981   2.544   5.671   4.611
 9361SOL    HW128982   2.617   5.635   4.552
 9361SOL    HW228983   2.472   5.710   4.553
 9362SOL     OW28984   2.103   0.851   2.344
 9362SOL    HW128985   2.186   0.866   2.397
 9362SOL    HW228986   2.036   0.802   2.399
 9363SOL     OW28987   1.853   3.350   2.235
 9363SOL    HW128988   1.869   3.285   2.160
 9363SOL    HW228989   1.829   3.300   2.318
 9364SOL     OW28990   6.915   2.363   0.234
 9364SOL    HW128991   6.997   2.356   0.291
 9364SOL    HW228992   6.838   2.395   0.288
 9365SOL     OW28993   2.266   0.732   5.267
 9365SOL    HW128994   2.206   0.775   5.200
 9365SOL    HW228995   2.340   0.795   5.292
 9366SOL     OW28996   3.922   6.548   2.284
 9366SOL    HW128997   4.018   6.570   2.266
 9366SOL    HW228998   3.869   6.557   2.199
 9367SOL     OW28999   6.883   0.549   1.373
 9367SOL    HW129000   6.885   0.544   1.273
 9367SOL    HW229001   6.805   0.496   1.407
 9368SOL     OW29002   2.299   0.784   2.663
 9368SOL    HW129003   2.237   0.862   2.664
 9368SOL    HW229004   2.329   0.763   2.756
 9369SOL     OW29005   3.579   4.929   0.881
 9369SOL    HW129006   3.657   4.984   0.911
 9369SOL    HW229007   3.500   4.947   0.940
 9370SOL     OW29008   4.311   2.277   4.943
 9370SOL    HW129009   4.250   2.330   5.002
 9370SOL    HW229010   4.263   2.196   4.910
 9371SOL     OW29011   4.355   4.575   0.794
 9371SOL    HW129012   4.354   4.500   0.728
 9371SOL    HW229013   4.384   4.659   0.749
 9372SOL     OW29014   4.207   6.305   1.038
 9372SOL    HW129015   4.229   6.252   1.119
 9372SOL    HW229016   4.280   6.294   0.970
 9373SOL     OW29017   0.378   2.562   1.705
 9373SOL    HW129018   0.399   2.540   1.800
 9373SOL    HW229019   0.412   2.654   1.684
 9374SOL     OW29020   0.011   5.460   6.347
 9374SOL    HW129021   6.944   5.434   6.361
 9374SOL    HW229022   0.066   5.430   6.425
 9375SOL     OW29023   1.207   1.337   0.076
 9375SOL    HW129024   1.230   1.387   0.159
 9375SOL    HW229025   1.206   1.239   0.096
 9376SOL     OW29026   2.771   3.467   0.669
 9376SOL    HW129027   2.790   3.474   0.572
 9376SOL    HW229028   2.711   3.542   0.697
 9377SOL     OW29029   0.987   0.820   3.164
 9377SOL    HW129030   1.004   0.868   3.250
 9377SOL    HW229031   1.060   0.841   3.099
 9378SOL     OW29032   3.503   1.158   4.777
 9378SOL    HW129033   3.458   1.124   4.694
 9378SOL    HW229034   3.585   1.104   4.796
 9379SOL     OW29035   4.166   0.645   4.318
 9379SOL    HW129036   4.102   0.609   4.249
 9379SOL    HW229037   4.251   0.592   4.314
 9380SOL     OW29038   4.764   5.693   0.626
 9380SOL    HW129039   4.794   5.636   0.549
 9380SOL    HW229040   4.790   5.650   0.712
 9381SOL     OW29041   5.520   0.919   4.842
 9381SOL    HW129042   5.523   0.878   4.751
 9381SOL    HW229043   5.608   0.962   4.862
 9382SOL     OW29044   3.325   5.784   6.174
 9382SOL    HW129045   3.412   5.775   6.223
 9382SOL    HW229046   3.339   5.763   6.077
 9383SOL     OW29047   5.799   3.826   1.736
 9383SOL    HW129048   5.701   3.845   1.748
 9383SOL    HW229049   5.834   3.881   1.660
 9384SOL     OW29050   3.969   0.067   1.127
 9384SOL    HW129051   4.062   0.104   1.133
 9384SOL    HW229052   3.972   7.004   1.087
 9385SOL     OW29053   4.094   2.172   4.012
 9385SOL    HW129054   4.177   2.200   3.964
 9385SOL    HW229055   4.096   2.207   4.106
 9386SOL     OW29056   5.574   7.010   1.322
 9386SOL    HW129057   5.640   7.028   1.249
 9386SOL    HW229058   5.481   7.016   1.284
 9387SOL     OW29059   1.841   1.950   6.441
 9387SOL    HW129060   1.752   1.992   6.419
 9387SOL    HW229061   1.894   1.940   6.357
 9388SOL     OW29062   2.733   7.015   4.477
 9388SOL    HW129063   2.698   0.023   4.563
 9388SOL    HW229064   2.662   6.961   4.432
 9389SOL     OW29065   2.018   4.068   1.796
 9389SOL    HW129066   2.050   4.120   1.716
 9389SOL    HW229067   2.083   4.080   1.871
 9390SOL     OW29068   5.810   5.000   3.977
 9390SOL    HW129069   5.758   4.921   4.010
 9390SOL    HW229070   5.747   5.065   3.933
 9391SOL     OW29071   1.852   4.456   4.601
 9391SOL    HW129072   1.912   4.381   4.631
 9391SOL    HW229073   1.761   4.442   4.638
 9392SOL     OW29074   4.893   4.442   2.376
 9392SOL    HW129075   4.880   4.360   2.431
 9392SOL    HW229076   4.825   4.444   2.302
 9393SOL     OW29077   1.705   5.207   6.331
 9393SOL    HW129078   1.755   5.251   6.257
 9393SOL    HW229079   1.703   5.268   6.410
 9394SOL     OW29080   4.779   0.209   0.653
 9394SOL    HW129081   4.870   0.240   0.680
 9394SOL    HW229082   4.710   0.268   0.695
 9395SOL     OW29083   1.326   1.564   1.759
 9395SOL    HW129084   1.228   1.580   1.753
 9395SOL    HW229085   1.345   1.466   1.752
 9396SOL     OW29086   0.832   0.700   6.214
 9396SOL    HW129087   0.762   0.652   6.267
 9396SOL    HW229088   0.844   0.655   6.126
 9397SOL     OW29089   2.949   1.102   4.765
 9397SOL    HW129090   2.857   1.127   4.732
 9397SOL    HW229091   2.982   1.022   4.715
 9398SOL     OW29092   6.883   1.654   0.133
 9398SOL    HW129093   6.939   1.678   0.212
 9398SOL    HW229094   6.786   1.655   0.159
 9399SOL     OW29095   1.253   2.050   5.019
 9399SOL    HW129096   1.315   2.024   5.092
 9399SOL    HW229097   1.160   2.022   5.042
 9400SOL     OW29098   5.781   1.878   1.271
 9400SOL    HW129099   5.700   1.896   1.215
 9400SOL    HW229100   5.818   1.788   1.247
 9401SOL     OW29101   0.242   2.316   3.790
 9401SOL    HW129102   0.148   2.293   3.764
 9401SOL    HW229103   0.305   2.276   3.724
 9402SOL     OW29104   3.709   6.169   5.340
 9402SOL    HW129105   3.697   6.070   5.334
 9402SOL    HW229106   3.692   6.210   5.251
 9403SOL     OW29107   5.737   2.337   1.091
 9403SOL    HW129108   5.666   2.290   1.037
 9403SOL    HW229109   5.816   2.277   1.101
 9404SOL     OW29110   2.118   2.958   0.944
 9404SOL    HW129111   2.160   2.960   1.035
 9404SOL    HW229112   2.180   2.915   0.879
 9405SOL     OW29113   6.413   5.990   5.071
 9405SOL    HW129114   6.400   5.903   5.025
 9405SOL    HW229115   6.507   6.023   5.055
 9406SOL     OW29116   1.592   1.823   1.036
 9406SOL    HW129117   1.627   1.755   0.971
 9406SOL    HW229118   1.640   1.910   1.022
 9407SOL     OW29119   1.733   4.220   4.958
 9407SOL    HW129120   1.827   4.193   4.978
 9407SOL    HW229121   1.686   4.241   5.043
 9408SOL     OW29122   5.793   4.210   4.208
 9408SOL    HW129123   5.849   4.191   4.127
 9408SOL    HW229124   5.741   4.127   4.232
 9409SOL     OW29125   5.682   5.718   1.281
 9409SOL    HW129126   5.705   5.621   1.266
 9409SOL    HW229127   5.679   5.737   1.379
 9410SOL     OW29128   4.535   0.248   1.333
 9410SOL    HW129129   4.599   0.265   1.409
 9410SOL    HW229130   4.495   0.334   1.303
 9411SOL     OW29131   3.225   4.000   3.501
 9411SOL    HW129132   3.181   3.945   3.572
 9411SOL    HW229133   3.293   4.060   3.542
 9412SOL     OW29134   4.502   7.027   1.843
 9412SOL    HW129135   4.476   0.086   1.802
 9412SOL    HW229136   4.601   7.016   1.841
 9413SOL     OW29137   3.736   4.978   3.358
 9413SOL    HW129138   3.736   5.078   3.347
 9413SOL    HW229139   3.653   4.950   3.407
 9414SOL     OW29140   2.198   1.520   2.233
 9414SOL    HW129141   2.138   1.545   2.158
 9414SOL    HW229142   2.264   1.452   2.202
 9415SOL     OW29143   5.223   0.332   1.300
 9415SOL    HW129144   5.155   0.382   1.352
 9415SOL    HW229145   5.305   0.389   1.288
 9416SOL     OW29146   6.164   5.095   5.377
 9416SOL    HW129147   6.076   5.076   5.420
 9416SOL    HW229148   6.238   5.072   5.440
 9417SOL     OW29149   3.675   6.002   2.278
 9417SOL    HW129150   3.729   5.924   2.312
 9417SOL    HW229151   3.649   6.060   2.355
 9418SOL     OW29152   3.078   2.163   4.760
 9418SOL    HW129153   3.111   2.091   4.821
 9418SOL    HW229154   3.035   2.236   4.815
 9419SOL     OW29155   1.989   2.381   6.120
 9419SOL    HW129156   2.032   2.469   6.140
 9419SOL    HW229157   2.049   2.306   6.149
 9420SOL     OW29158   5.582   3.599   5.890
 9420SOL    HW129159   5.655   3.667   5.888
 9420SOL    HW229160   5.622   3.508   5.898
 9421SOL     OW29161   4.028   6.430   6.779
 9421SOL    HW129162   4.024   6.342   6.828
 9421SOL    HW229163   4.079   6.418   6.694
 9422SOL     OW29164   2.324   6.645   5.755
 9422SOL    HW129165   2.270   6.565   5.782
 9422SOL    HW229166   2.272   6.700   5.689
 9423SOL     OW29167   4.231   5.142   1.298
 9423SOL    HW129168   4.310   5.203   1.287
 9423SOL    HW229169   4.252   5.072   1.367
 9424SOL     OW29170   6.503   0.304   4.180
 9424SOL    HW129171   6.567   0.338   4.111
 9424SOL    HW229172   6.432   0.250   4.136
 9425SOL     OW29173   0.129   5.276   0.719
 9425SOL    HW129174   0.051   5.266   0.657
 9425SOL    HW229175   0.154   5.372   0.727
 9426SOL     OW29176   4.165   2.852   6.252
 9426SOL    HW129177   4.200   2.861   6.159
 9426SOL    HW229178   4.223   2.788   6.302
 9427SOL     OW29179   3.694   5.560   1.907
 9427SOL    HW129180   3.776   5.573   1.852
 9427SOL    HW229181   3.719   5.546   2.003
 9428SOL     OW29182   0.776   6.394   5.586
 9428SOL    HW129183   0.722   6.310   5.594
 9428SOL    HW229184   0.806   6.405   5.491
 9429SOL     OW29185   3.040   2.178   3.952
 9429SOL    HW129186   3.070   2.146   4.042
 9429SOL    HW229187   3.117   2.178   3.889
 9430SOL     OW29188   1.136   0.210   4.307
 9430SOL    HW129189   1.183   0.124   4.325
 9430SOL    HW229190   1.204   0.282   4.292
 9431SOL     OW29191   1.311   4.842   4.951
 9431SOL    HW129192   1.324   4.941   4.955
 9431SOL    HW229193   1.258   4.812   5.030
 9432SOL     OW29194   6.811   1.310   3.510
 9432SOL    HW129195   6.759   1.344   3.432
 9432SOL    HW229196   6.908   1.307   3.487
 9433SOL     OW29197   4.433   5.460   1.628
 9433SOL    HW129198   4.339   5.486   1.608
 9433SOL    HW229199   4.434   5.386   1.695
 9434SOL     OW29200   4.372   5.843   5.120
 9434SOL    HW129201   4.419   5.928   5.093
 9434SOL    HW229202   4.283   5.865   5.158
 9435SOL     OW29203   6.413   4.098   0.133
 9435SOL    HW129204   6.330   4.062   0.091
 9435SOL    HW229205   6.399   4.107   0.232
 9436SOL     OW29206   3.187   1.195   2.987
 9436SOL    HW129207   3.217   1.273   3.041
 9436SOL    HW229208   3.183   1.113   3.045
 9437SOL     OW29209   5.027   1.000   4.395
 9437SOL    HW129210   5.113   0.987   4.444
 9437SOL    HW229211   5.046   0.999   4.296
 9438SOL     OW29212   5.089   0.436   2.558
 9438SOL    HW129213   5.157   0.383   2.507
 9438SOL    HW229214   5.008   0.450   2.501
 9439SOL     OW29215   2.265   4.819   1.036
 9439SOL    HW129216   2.167   4.836   1.032
 9439SOL    HW229217   2.288   4.737   0.983
 9440SOL     OW29218   1.823   5.394   5.241
 9440SOL    HW129219   1.859   5.411   5.149
 9440SOL    HW229220   1.890   5.342   5.294
 9441SOL     OW29221   0.106   6.140   4.226
 9441SOL    HW129222   0.195   6.098   4.208
 9441SOL    HW229223   0.110   6.238   4.206
 9442SOL     OW29224   6.371   2.941   1.323
 9442SOL    HW129225   6.452   2.962   1.268
 9442SOL    HW229226   6.370   2.844   1.345
 9443SOL     OW29227   2.609   4.365   1.462
 9443SOL    HW129228   2.674   4.298   1.426
 9443SOL    HW229229   2.652   4.416   1.536
 9444SOL     OW29230   1.987   5.419   6.532
 9444SOL    HW129231   1.955   5.328   6.508
 9444SOL    HW229232   2.076   5.436   6.489
 9445SOL     OW29233   0.382   0.745   4.170
 9445SOL    HW129234   0.480   0.763   4.178
 9445SOL    HW229235   0.338   0.761   4.258
 9446SOL     OW29236   5.809   4.866   4.328
 9446SOL    HW129237   5.711   4.888   4.325
 9446SOL    HW229238   5.837   4.852   4.423
 9447SOL     OW29239   5.770   5.222   1.868
 9447SOL    HW129240   5.792   5.319   1.872
 9447SOL    HW229241   5.854   5.169   1.868
 9448SOL     OW29242   4.965   2.132   6.872
 9448SOL    HW129243   5.017   2.201   6.821
 9448SOL    HW229244   4.988   2.138   6.969
 9449SOL     OW29245   4.882   6.365   2.540
 9449SOL    HW129246   4.809   6.365   2.608
 9449SOL    HW229247   4.971   6.357   2.586
 9450SOL     OW29248   0.935   0.372   2.358
 9450SOL    HW129249   0.897   0.432   2.288
 9450SOL    HW229250   0.947   0.422   2.444
 9451SOL     OW29251   4.104   5.080   0.271
 9451SOL    HW129252   4.166   5.014   0.313
 9451SOL    HW229253   4.020   5.035   0.243
 9452SOL     OW29254   5.986   3.873   6.433
 9452SOL    HW129255   5.916   3.940   6.455
 9452SOL    HW229256   5.959   3.783   6.470
 9453SOL     OW29257   6.963   5.040   2.189
 9453SOL    HW129258   7.000   4.965   2.134
 9453SOL    HW229259   7.000   5.034   2.282
 9454SOL     OW29260   5.238   5.528   0.458
 9454SOL    HW129261   5.165   5.499   0.520
 9454SOL    HW229262   5.326   5.506   0.499
 9455SOL     OW29263   4.373   0.530   1.771
 9455SOL    HW129264   4.359   0.552   1.675
 9455SOL    HW229265   4.318   0.592   1.828
 9456SOL     OW29266   6.878   2.375   2.639
 9456SOL    HW129267   6.943   2.419   2.701
 9456SOL    HW229268   6.832   2.445   2.584
 9457SOL     OW29269   6.574   6.514   4.336
 9457SOL    HW129270   6.615   6.497   4.425
 9457SOL    HW229271   6.640   6.491   4.264
 9458SOL     OW29272   6.571   3.601   0.347
 9458SOL    HW129273   6.503   3.566   0.410
 9458SOL    HW229274   6.650   3.635   0.398
 9459SOL     OW29275   5.304   4.478   4.905
 9459SOL    HW129276   5.273   4.402   4.962
 9459SOL    HW229277   5.225   4.522   4.862
 9460SOL     OW29278   1.960   2.847   3.016
 9460SOL    HW129279   1.991   2.771   2.959
 9460SOL    HW229280   2.038   2.905   3.040
 9461SOL     OW29281   2.688   1.895   1.621
 9461SOL    HW129282   2.671   1.934   1.530
 9461SOL    HW229283   2.732   1.806   1.611
 9462SOL     OW29284   0.062   1.454   5.730
 9462SOL    HW129285   7.010   1.446   5.790
 9462SOL    HW229286   0.036   1.429   5.636
 9463SOL     OW29287   6.684   4.892   0.762
 9463SOL    HW129288   6.766   4.950   0.765
 9463SOL    HW229289   6.662   4.870   0.667
 9464SOL     OW29290   1.321   6.943   1.603
 9464SOL    HW129291   1.241   6.937   1.662
 9464SOL    HW229292   1.349   6.852   1.574
 9465SOL     OW29293   6.506   5.798   0.396
 9465SOL    HW129294   6.460   5.711   0.376
 9465SOL    HW229295   6.496   5.860   0.318
 9466SOL     OW29296   4.222   3.802   5.621
 9466SOL    HW129297   4.255   3.893   5.596
 9466SOL    HW229298   4.141   3.811   5.680
 9467SOL     OW29299   1.198   4.101   0.975
 9467SOL    HW129300   1.238   4.009   0.976
 9467SOL    HW229301   1.170   4.126   1.067
 9468SOL     OW29302   6.210   1.257   1.222
 9468SOL    HW129303   6.293   1.217   1.261
 9468SOL    HW229304   6.181   1.334   1.279
 9469SOL     OW29305   6.601   6.891   2.021
 9469SOL    HW129306   6.634   6.834   1.945
 9469SOL    HW229307   6.540   6.961   1.984
 9470SOL     OW29308   3.214   2.939   0.868
 9470SOL    HW129309   3.236   2.894   0.781
 9470SOL    HW229310   3.263   2.893   0.942
 9471SOL     OW29311   6.325   3.142   4.332
 9471SOL    HW129312   6.408   3.159   4.386
 9471SOL    HW229313   6.249   3.121   4.393
 9472SOL     OW29314   2.127   3.299   6.585
 9472SOL    HW129315   2.105   3.267   6.493
 9472SOL    HW229316   2.050   3.280   6.646
 9473SOL     OW29317   2.725   3.464   1.438
 9473SOL    HW129318   2.683   3.395   1.379
 9473SOL    HW229319   2.665   3.482   1.516
 9474SOL     OW29320   5.815   4.398   0.457
 9474SOL    HW129321   5.750   4.413   0.532
 9474SOL    HW229322   5.813   4.301   0.431
 9475SOL     OW29323   5.954   3.707   6.733
 9475SOL    HW129324   5.907   3.618   6.732
 9475SOL    HW229325   5.890   3.778   6.704
 9476SOL     OW29326   4.128   3.883   0.775
 9476SOL    HW129327   4.083   3.888   0.864
 9476SOL    HW229328   4.164   3.973   0.750
 9477SOL     OW29329   1.476   5.094   0.485
 9477SOL    HW129330   1.390   5.073   0.532
 9477SOL    HW229331   1.457   5.150   0.404
 9478SOL     OW29332   6.849   3.083   5.507
 9478SOL    HW129333   6.864   3.180   5.522
 9478SOL    HW229334   6.892   3.056   5.421
 9479SOL     OW29335   4.368   0.722   2.057
 9479SOL    HW129336   4.453   0.683   2.092
 9479SOL    HW229337   4.389   0.799   1.996
 9480SOL     OW29338   5.851   7.005   0.915
 9480SOL    HW129339   5.771   7.009   0.855
 9480SOL    HW229340   5.928   0.024   0.871
 9481SOL     OW29341   4.867   7.006   3.292
 9481SOL    HW129342   4.914   0.066   3.288
 9481SOL    HW229343   4.780   7.012   3.244
 9482SOL     OW29344   5.988   4.730   5.163
 9482SOL    HW129345   6.025   4.751   5.253
 9482SOL    HW229346   6.021   4.640   5.133
 9483SOL     OW29347   6.037   4.860   6.777
 9483SOL    HW129348   5.940   4.879   6.767
 9483SOL    HW229349   6.053   4.803   6.858
 9484SOL     OW29350   1.723   6.477   4.055
 9484SOL    HW129351   1.625   6.463   4.045
 9484SOL    HW229352   1.772   6.416   3.993
 9485SOL     OW29353   0.390   1.191   5.110
 9485SOL    HW129354   0.399   1.178   5.012
 9485SOL    HW229355   0.299   1.227   5.131
 9486SOL     OW29356   6.723   5.746   0.232
 9486SOL    HW129357   6.630   5.725   0.200
 9486SOL    HW229358   6.718   5.807   0.311
 9487SOL     OW29359   3.166   3.545   3.323
 9487SOL    HW129360   3.261   3.542   3.353
 9487SOL    HW229361   3.154   3.483   3.245
 9488SOL     OW29362   1.512   1.135   2.190
 9488SOL    HW129363   1.506   1.043   2.152
 9488SOL    HW229364   1.504   1.203   2.117
 9489SOL     OW29365   6.518   4.465   0.111
 9489SOL    HW129366   6.514   4.443   0.013
 9489SOL    HW229367   6.610   4.447   0.145
 9490SOL     OW29368   5.600   3.645   4.831
 9490SOL    HW129369   5.504   3.672   4.838
 9490SOL    HW229370   5.630   3.652   4.736
 9491SOL     OW29371   5.374   0.256   2.640
 9491SOL    HW129372   5.381   0.355   2.642
 9491SOL    HW229373   5.368   0.221   2.734
 9492SOL     OW29374   4.693   2.600   4.371
 9492SOL    HW129375   4.664   2.688   4.409
 9492SOL    HW229376   4.622   2.564   4.311
 9493SOL     OW29377   2.901   6.182   2.271
 9493SOL    HW129378   2.898   6.260   2.208
 9493SOL    HW229379   2.929   6.100   2.221
 9494SOL     OW29380   4.701   2.791   2.574
 9494SOL    HW129381   4.666   2.748   2.491
 9494SOL    HW229382   4.760   2.868   2.550
 9495SOL     OW29383   5.351   3.255   1.253
 9495SOL    HW129384   5.362   3.255   1.154
 9495SOL    HW229385   5.258   3.284   1.276
 9496SOL     OW29386   5.817   2.973   1.423
 9496SOL    HW129387   5.760   2.913   1.367
 9496SOL    HW229388   5.890   3.012   1.367
 9497SOL     OW29389   4.942   4.768   5.262
 9497SOL    HW129390   4.953   4.718   5.176
 9497SOL    HW229391   5.032   4.784   5.303
 9498SOL     OW29392   1.033   5.541   5.979
 9498SOL    HW129393   0.992   5.513   6.066
 9498SOL    HW229394   0.993   5.488   5.904
 9499SOL     OW29395   5.407   6.389   4.052
 9499SOL    HW129396   5.408   6.291   4.074
 9499SOL    HW229397   5.491   6.413   4.004
 9500SOL     OW29398   2.764   1.410   0.761
 9500SOL    HW129399   2.688   1.451   0.812
 9500SOL    HW229400   2.738   1.399   0.666
 9501SOL     OW29401   1.836   3.617   5.430
 9501SOL    HW129402   1.872   3.638   5.521
 9501SOL    HW229403   1.908   3.628   5.362
 9502SOL     OW29404   5.589   4.855   3.331
 9502SOL    HW129405   5.643   4.770   3.332
 9502SOL    HW229406   5.514   4.848   3.397
 9503SOL     OW29407   5.619   1.233   0.350
 9503SOL    HW129408   5.654   1.198   0.437
 9503SOL    HW229409   5.674   1.312   0.321
 9504SOL     OW29410   6.369   5.789   2.603
 9504SOL    HW129411   6.372   5.888   2.600
 9504SOL    HW229412   6.283   5.757   2.564
 9505SOL     OW29413   4.778   3.073   6.545
 9505SOL    HW129414   4.716   3.138   6.502
 9505SOL    HW229415   4.828   3.023   6.474
 9506SOL     OW29416   3.177   1.526   1.906
 9506SOL    HW129417   3.268   1.485   1.915
 9506SOL    HW229418   3.177   1.590   1.829
 9507SOL     OW29419   0.054   6.076   1.113
 9507SOL    HW129420   0.150   6.089   1.138
 9507SOL    HW229421   0.012   6.011   1.176
 9508SOL     OW29422   5.117   1.024   1.913
 9508SOL    HW129423   5.213   1.051   1.911
 9508SOL    HW229424   5.068   1.068   1.838
 9509SOL     OW29425   5.871   1.622   4.034
 9509SOL    HW129426   5.811   1.610   3.955
 9509SOL    HW229427   5.821   1.602   4.118
 9510SOL     OW29428   1.422   3.415   2.799
 9510SOL    HW129429   1.424   3.358   2.717
 9510SOL    HW229430   1.334   3.461   2.806
 9511SOL     OW29431   1.050   1.902   1.341
 9511SOL    HW129432   0.999   1.934   1.262
 9511SOL    HW229433   1.124   1.841   1.311
 9512SOL     OW29434   6.433   2.336   1.469
 9512SOL    HW129435   6.512   2.396   1.455
 9512SOL    HW229436   6.415   2.329   1.567
 9513SOL     OW29437   4.765   4.121   5.080
 9513SOL    HW129438   4.729   4.084   5.166
 9513SOL    HW229439   4.703   4.191   5.046
 9514SOL     OW29440   3.814   3.033   1.455
 9514SOL    HW129441   3.736   3.056   1.397
 9514SOL    HW229442   3.879   3.109   1.456
 9515SOL     OW29443   0.045   6.025   2.796
 9515SOL    HW129444   6.984   6.065   2.815
 9515SOL    HW229445   0.048   5.931   2.830
 9516SOL     OW29446   0.226   4.028   5.728
 9516SOL    HW129447   0.314   4.001   5.767
 9516SOL    HW229448   0.209   4.125   5.748
 9517SOL     OW29449   1.304   5.840   1.663
 9517SOL    HW129450   1.378   5.907   1.667
 9517SOL    HW229451   1.341   5.748   1.681
 9518SOL     OW29452   0.829   0.791   1.015
 9518SOL    HW129453   0.739   0.776   1.056
 9518SOL    HW229454   0.892   0.824   1.085
 9519SOL     OW29455   1.707   2.267   5.372
 9519SOL    HW129456   1.609   2.265   5.351
 9519SOL    HW229457   1.724   2.334   5.445
 9520SOL     OW29458   4.440   6.782   1.727
 9520SOL    HW129459   4.342   6.802   1.728
 9520SOL    HW229460   4.489   6.855   1.775
 9521SOL     OW29461   5.365   4.466   3.181
 9521SOL    HW129462   5.377   4.370   3.158
 9521SOL    HW229463   5.434   4.521   3.134
 9522SOL     OW29464   3.025   5.115   5.813
 9522SOL    HW129465   3.050   5.186   5.747
 9522SOL    HW229466   3.106   5.061   5.837
 9523SOL     OW29467   1.865   0.042   5.145
 9523SOL    HW129468   1.938   0.104   5.116
 9523SOL    HW229469   1.904   6.998   5.202
 9524SOL     OW29470   5.963   3.300   0.038
 9524SOL    HW129471   5.894   3.268   0.103
 9524SOL    HW229472   6.039   3.342   0.088
 9525SOL     OW29473   3.843   0.383   4.604
 9525SOL    HW129474   3.785   0.350   4.529
 9525SOL    HW229475   3.915   0.442   4.567
 9526SOL     OW29476   5.078   5.194   0.607
 9526SOL    HW129477   5.158   5.171   0.552
 9526SOL    HW229478   5.049   5.113   0.658
 9527SOL     OW29479   0.119   2.350   0.381
 9527SOL    HW129480   0.145   2.269   0.434
 9527SOL    HW229481   0.130   2.431   0.438
 9528SOL     OW29482   6.571   1.178   1.848
 9528SOL    HW129483   6.631   1.138   1.779
 9528SOL    HW229484   6.567   1.119   1.928
 9529SOL     OW29485   1.919   2.405   5.283
 9529SOL    HW129486   1.857   2.329   5.298
 9529SOL    HW229487   2.010   2.383   5.319
 9530SOL     OW29488   2.582   1.108   4.071
 9530SOL    HW129489   2.617   1.172   4.003
 9530SOL    HW229490   2.552   1.025   4.025
 9531SOL     OW29491   2.841   6.649   3.694
 9531SOL    HW129492   2.891   6.734   3.715
 9531SOL    HW229493   2.825   6.598   3.778
 9532SOL     OW29494   3.415   1.423   1.951
 9532SOL    HW129495   3.443   1.469   2.035
 9532SOL    HW229496   3.494   1.411   1.891
 9533SOL     OW29497   0.430   1.666   4.223
 9533SOL    HW129498   0.383   1.680   4.136
 9533SOL    HW229499   0.362   1.650   4.296
 9534SOL     OW29500   5.748   1.640   4.274
 9534SOL    HW129501   5.714   1.718   4.222
 9534SOL    HW229502   5.803   1.673   4.351
 9535SOL     OW29503   2.932   1.657   4.695
 9535SOL    HW129504   2.858   1.717   4.726
 9535SOL    HW229505   2.989   1.632   4.773
 9536SOL     OW29506   2.153   6.552   6.475
 9536SOL    HW129507   2.250   6.574   6.487
 9536SOL    HW229508   2.139   6.455   6.495
 9537SOL     OW29509   1.770   0.973   0.494
 9537SOL    HW129510   1.816   0.930   0.571
 9537SOL    HW229511   1.835   0.984   0.418
 9538SOL     OW29512   6.044   3.892   2.493
 9538SOL    HW129513   5.970   3.940   2.540
 9538SOL    HW229514   6.101   3.844   2.561
 9539SOL     OW29515   0.167   3.638   7.004
 9539SOL    HW129516   0.116   3.553   6.999
 9539SOL    HW229517   0.234   3.633   0.050
 9540SOL     OW29518   5.713   3.367   5.860
 9540SOL    HW129519   5.772   3.347   5.938
 9540SOL    HW229520   5.719   3.292   5.794
 9541SOL     OW29521   6.432   2.192   3.340
 9541SOL    HW129522   6.333   2.196   3.354
 9541SOL    HW229523   6.467   2.105   3.374
 9542SOL     OW29524   4.741   4.184   4.427
 9542SOL    HW129525   4.652   4.228   4.442
 9542SOL    HW229526   4.752   4.110   4.493
 9543SOL     OW29527   3.911   2.205   0.629
 9543SOL    HW129528   3.980   2.257   0.680
 9543SOL    HW229529   3.821   2.242   0.647
 9544SOL     OW29530   5.226   0.305   1.004
 9544SOL    HW129531   5.171   0.315   1.087
 9544SOL    HW229532   5.234   0.208   0.981
 9545SOL     OW29533   1.494   0.057   4.655
 9545SOL    HW129534   1.397   0.042   4.633
 9545SOL    HW229535   1.525   0.142   4.611
 9546SOL     OW29536   2.446   4.437   1.811
 9546SOL    HW129537   2.356   4.468   1.840
 9546SOL    HW229538   2.438   4.345   1.771
 9547SOL     OW29539   5.278   6.140   2.812
 9547SOL    HW129540   5.268   6.187   2.724
 9547SOL    HW229541   5.198   6.158   2.868
 9548SOL     OW29542   5.489   6.619   2.361
 9548SOL    HW129543   5.581   6.619   2.320
 9548SOL    HW229544   5.431   6.555   2.310
 9549SOL     OW29545   2.075   5.456   0.118
 9549SOL    HW129546   2.017   5.418   0.046
 9549SOL    HW229547   2.156   5.498   0.076
 9550SOL     OW29548   1.903   1.064   0.288
 9550SOL    HW129549   1.826   1.064   0.225
 9550SOL    HW229550   1.987   1.084   0.238
 9551SOL     OW29551   1.419   5.660   5.054
 9551SOL    HW129552   1.458   5.655   4.963
 9551SOL    HW229553   1.464   5.593   5.114
 9552SOL     OW29554   6.977   5.565   2.625
 9552SOL    HW129555   6.965   5.657   2.662
 9552SOL    HW229556   6.901   5.507   2.653
 9553SOL     OW29557   5.556   4.454   6.575
 9553SOL    HW129558   5.548   4.381   6.507
 9553SOL    HW229559   5.616   4.526   6.538
 9554SOL     OW29560   2.203   1.875   2.215
 9554SOL    HW129561   2.278   1.883   2.149
 9554SOL    HW229562   2.156   1.788   2.200
 9555SOL     OW29563   6.573   2.407   6.496
 9555SOL    HW129564   6.647   2.393   6.431
 9555SOL    HW229565   6.528   2.494   6.478
 9556SOL     OW29566   6.396   0.754   1.052
 9556SOL    HW129567   6.495   0.746   1.040
 9556SOL    HW229568   6.359   0.814   0.981
 9557SOL     OW29569   4.902   1.375   1.555
 9557SOL    HW129570   4.983   1.322   1.532
 9557SOL    HW229571   4.839   1.377   1.477
 9558SOL     OW29572   7.024   3.745   1.019
 9558SOL    HW129573   7.027   3.833   1.067
 9558SOL    HW229574   6.931   3.730   0.985
 9559SOL     OW29575   0.480   4.264   3.093
 9559SOL    HW129576   0.414   4.258   3.168
 9559SOL    HW229577   0.434   4.296   3.010
 9560SOL     OW29578   3.619   1.904   5.786
 9560SOL    HW129579   3.536   1.904   5.730
 9560SOL    HW229580   3.626   1.818   5.835
 9561SOL     OW29581   3.498   4.903   7.020
 9561SOL    HW129582   3.576   4.965   7.021
 9561SOL    HW229583   3.424   4.943   6.965
 9562SOL     OW29584   6.608   5.466   4.117
 9562SOL    HW129585   6.688   5.443   4.173
 9562SOL    HW229586   6.628   5.444   4.022
 9563SOL     OW29587   0.551   6.977   6.627
 9563SOL    HW129588   0.536   0.010   6.704
 9563SOL    HW229589   0.645   6.987   6.594
 9564SOL     OW29590   0.839   0.582   5.960
 9564SOL    HW129591   0.878   0.574   5.868
 9564SOL    HW229592   0.786   0.499   5.981
 9565SOL     OW29593   2.761   5.754   5.502
 9565SOL    HW129594   2.803   5.685   5.562
 9565SOL    HW229595   2.768   5.724   5.407
 9566SOL     OW29596   2.690   5.913   5.147
 9566SOL    HW129597   2.704   5.941   5.052
 9566SOL    HW229598   2.606   5.859   5.154
 9567SOL     OW29599   5.571   4.738   4.623
 9567SOL    HW129600   5.542   4.708   4.714
 9567SOL    HW229601   5.643   4.677   4.589
 9568SOL     OW29602   5.980   3.307   5.446
 9568SOL    HW129603   5.927   3.280   5.527
 9568SOL    HW229604   5.964   3.404   5.427
 9569SOL     OW29605   5.211   6.937   1.506
 9569SOL    HW129606   5.294   6.958   1.558
 9569SOL    HW229607   5.236   6.902   1.416
 9570SOL     OW29608   0.595   2.427   6.908
 9570SOL    HW129609   0.678   2.466   6.868
 9570SOL    HW229610   0.554   2.362   6.844
 9571SOL     OW29611   3.613   1.895   0.111
 9571SOL    HW129612   3.627   1.798   0.126
 9571SOL    HW229613   3.659   1.947   0.183
 9572SOL     OW29614   0.878   4.293   0.967
 9572SOL    HW129615   0.890   4.196   0.946
 9572SOL    HW229616   0.800   4.305   1.027
 9573SOL     OW29617   4.990   2.444   2.082
 9573SOL    HW129618   5.020   2.400   2.167
 9573SOL    HW229619   4.892   2.463   2.088
 9574SOL     OW29620   2.592   1.548   3.881
 9574SOL    HW129621   2.668   1.519   3.822
 9574SOL    HW229622   2.564   1.471   3.938
 9575SOL     OW29623   3.222   1.528   3.151
 9575SOL    HW129624   3.162   1.606   3.171
 9575SOL    HW229625   3.315   1.561   3.134
 9576SOL     OW29626   3.723   3.542   5.576
 9576SOL    HW129627   3.676   3.602   5.511
 9576SOL    HW229628   3.664   3.464   5.597
 9577SOL     OW29629   0.493   4.972   3.799
 9577SOL    HW129630   0.397   4.992   3.819
 9577SOL    HW229631   0.500   4.886   3.749
 9578SOL     OW29632   6.760   4.242   1.439
 9578SOL    HW129633   6.841   4.266   1.493
 9578SOL    HW229634   6.689   4.311   1.454
 9579SOL     OW29635   1.974   4.575   3.069
 9579SOL    HW129636   1.890   4.606   3.025
 9579SOL    HW229637   1.989   4.478   3.049
 9580SOL     OW29638   4.182   3.809   5.245
 9580SOL    HW129639   4.124   3.748   5.299
 9580SOL    HW229640   4.277   3.799   5.274
 9581SOL     OW29641   1.669   6.450   5.961
 9581SOL    HW129642   1.741   6.519   5.950
 9581SOL    HW229643   1.606   6.455   5.883
 9582SOL     OW29644   3.583   6.164   3.236
 9582SOL    HW129645   3.545   6.169   3.328
 9582SOL    HW229646   3.682   6.150   3.242
 9583SOL     OW29647   1.263   5.014   2.028
 9583SOL    HW129648   1.206   4.953   2.084
 9583SOL    HW229649   1.205   5.081   1.982
 9584SOL     OW29650   5.221   3.972   6.843
 9584SOL    HW129651   5.158   3.908   6.799
 9584SOL    HW229652   5.200   4.065   6.814
 9585SOL     OW29653   5.999   1.362   3.053
 9585SOL    HW129654   6.070   1.300   3.020
 9585SOL    HW229655   5.955   1.321   3.133
 9586SOL     OW29656   4.807   4.074   2.328
 9586SOL    HW129657   4.898   4.116   2.321
 9586SOL    HW229658   4.794   4.039   2.421
 9587SOL     OW29659   4.557   6.125   1.623
 9587SOL    HW129660   4.599   6.200   1.572
 9587SOL    HW229661   4.458   6.133   1.618
 9588SOL     OW29662   5.995   1.183   3.628
 9588SOL    HW129663   6.025   1.163   3.535
 9588SOL    HW229664   5.904   1.145   3.643
 9589SOL     OW29665   3.989   1.941   5.411
 9589SOL    HW129666   3.902   1.954   5.457
 9589SOL    HW229667   3.976   1.882   5.331
 9590SOL     OW29668   7.026   4.788   4.451
 9590SOL    HW129669   7.015   4.842   4.367
 9590SOL    HW229670   6.948   4.727   4.462
 9591SOL     OW29671   6.887   4.540   2.570
 9591SOL    HW129672   6.961   4.480   2.601
 9591SOL    HW229673   6.889   4.548   2.470
 9592SOL     OW29674   4.219   5.581   0.246
 9592SOL    HW129675   4.140   5.643   0.252
 9592SOL    HW229676   4.191   5.489   0.275
 9593SOL     OW29677   2.099   2.104   3.818
 9593SOL    HW129678   2.149   2.190   3.817
 9593SOL    HW229679   2.002   2.122   3.802
 9594SOL     OW29680   5.717   0.105   1.117
 9594SOL    HW129681   5.760   0.194   1.129
 9594SOL    HW229682   5.758   0.059   1.038
 9595SOL     OW29683   2.314   4.995   5.687
 9595SOL    HW129684   2.388   5.045   5.731
 9595SOL    HW229685   2.318   4.899   5.712
 9596SOL     OW29686   5.837   5.055   2.246
 9596SOL    HW129687   5.844   5.032   2.343
 9596SOL    HW229688   5.907   5.005   2.194
 9597SOL     OW29689   2.270   4.670   1.696
 9597SOL    HW129690   2.220   4.751   1.725
 9597SOL    HW229691   2.355   4.698   1.650
 9598SOL     OW29692   0.652   6.148   5.667
 9598SOL    HW129693   0.684   6.126   5.575
 9598SOL    HW229694   0.579   6.084   5.693
 9599SOL     OW29695   3.716   1.974   5.520
 9599SOL    HW129696   3.686   1.940   5.609
 9599SOL    HW229697   3.670   1.923   5.447
 9600SOL     OW29698   1.282   6.083   6.726
 9600SOL    HW129699   1.207   6.054   6.785
 9600SOL    HW229700   1.367   6.083   6.779
 9601SOL     OW29701   1.664   6.876   4.805
 9601SOL    HW129702   1.586   6.832   4.849
 9601SOL    HW229703   1.636   6.962   4.763
 9602SOL     OW29704   1.251   5.889   6.365
 9602SOL    HW129705   1.260   5.978   6.411
 9602SOL    HW229706   1.278   5.816   6.427
 9603SOL     OW29707   0.894   5.487   1.579
 9603SOL    HW129708   0.966   5.510   1.513
 9603SOL    HW229709   0.911   5.537   1.664
 9604SOL     OW29710   6.641   0.694   6.376
 9604SOL    HW129711   6.565   0.672   6.315
 9604SOL    HW229712   6.706   0.752   6.327
 9605SOL     OW29713   3.760   4.607   0.943
 9605SOL    HW129714   3.672   4.626   0.900
 9605SOL    HW229715   3.807   4.534   0.894
 9606SOL     OW29716   0.319   1.360   5.405
 9606SOL    HW129717   0.355   1.442   5.362
 9606SOL    HW229718   0.375   1.281   5.379
 9607SOL     OW29719   6.945   2.791   4.073
 9607SOL    HW129720   6.932   2.745   3.985
 9607SOL    HW229721   0.010   2.774   4.105
 9608SOL     OW29722   6.178   0.916   1.669
 9608SOL    HW129723   6.188   0.882   1.575
 9608SOL    HW229724   6.268   0.939   1.706
 9609SOL     OW29725   1.529   2.200   4.486
 9609SOL    HW129726   1.582   2.170   4.407
 9609SOL    HW229727   1.562   2.289   4.518
 9610SOL     OW29728   5.142   0.771   5.807
 9610SOL    HW129729   5.058   0.733   5.845
 9610SOL    HW229730   5.201   0.805   5.881
 9611SOL     OW29731   4.723   5.292   0.931
 9611SOL    HW129732   4.711   5.241   1.017
 9611SOL    HW229733   4.647   5.271   0.870
 9612SOL     OW29734   5.705   4.070   3.738
 9612SOL    HW129735   5.657   4.022   3.664
 9612SOL    HW229736   5.707   4.168   3.717
 9613SOL     OW29737   5.342   0.613   4.611
 9613SOL    HW129738   5.345   0.518   4.580
 9613SOL    HW229739   5.293   0.617   4.699
 9614SOL     OW29740   2.826   2.622   0.470
 9614SOL    HW129741   2.769   2.669   0.539
 9614SOL    HW229742   2.816   2.669   0.382
 9615SOL     OW29743   6.890   5.807   3.821
 9615SOL    HW129744   6.791   5.809   3.837
 9615SOL    HW229745   6.932   5.737   3.879
 9616SOL     OW29746   0.899   2.281   0.993
 9616SOL    HW129747   0.822   2.285   0.928
 9616SOL    HW229748   0.889   2.354   1.060
 9617SOL     OW29749   0.142   3.131   3.902
 9617SOL    HW129750   0.238   3.157   3.888
 9617SOL    HW229751   0.128   3.037   3.869
 9618SOL     OW29752   5.163   3.719   1.942
 9618SOL    HW129753   5.071   3.682   1.933
 9618SOL    HW229754   5.223   3.674   1.875
 9619SOL     OW29755   1.085   0.442   0.675
 9619SOL    HW129756   1.078   0.535   0.639
 9619SOL    HW229757   1.145   0.441   0.755
 9620SOL     OW29758   4.256   0.868   6.301
 9620SOL    HW129759   4.328   0.937   6.291
 9620SOL    HW229760   4.249   0.841   6.397
 9621SOL     OW29761   6.956   1.059   1.327
 9621SOL    HW129762   6.947   1.092   1.422
 9621SOL    HW229763   0.019   1.019   1.315
 9622SOL     OW29764   6.807   6.546   4.727
 9622SOL    HW129765   6.797   6.467   4.667
 9622SOL    HW229766   6.798   6.630   4.674
 9623SOL     OW29767   2.333   6.070   6.046
 9623SOL    HW129768   2.423   6.110   6.064
 9623SOL    HW229769   2.319   5.992   6.107
 9624SOL     OW29770   4.515   5.005   6.567
 9624SOL    HW129771   4.558   5.061   6.496
 9624SOL    HW229772   4.572   4.925   6.585
 9625SOL     OW29773   5.178   4.424   5.646
 9625SOL    HW129774   5.183   4.434   5.746
 9625SOL    HW229775   5.103   4.480   5.611
 9626SOL     OW29776   2.556   2.637   6.841
 9626SOL    HW129777   2.471   2.640   6.895
 9626SOL    HW229778   2.618   2.707   6.873
 9627SOL     OW29779   6.652   6.448   0.702
 9627SOL    HW129780   6.607   6.368   0.742
 9627SOL    HW229781   6.749   6.429   0.688
 9628SOL     OW29782   5.550   1.153   5.464
 9628SOL    HW129783   5.557   1.239   5.513
 9628SOL    HW229784   5.581   1.078   5.523
 9629SOL     OW29785   0.474   5.212   4.300
 9629SOL    HW129786   0.409   5.286   4.283
 9629SOL    HW229787   0.557   5.228   4.247
 9630SOL     OW29788   6.047   6.866   6.678
 9630SOL    HW129789   6.122   6.802   6.660
 9630SOL    HW229790   6.038   6.879   6.777
 9631SOL     OW29791   5.221   5.855   0.292
 9631SOL    HW129792   5.316   5.844   0.324
 9631SOL    HW229793   5.159   5.838   0.369
 9632SOL     OW29794   2.976   5.352   2.826
 9632SOL    HW129795   2.958   5.371   2.730
 9632SOL    HW229796   2.966   5.254   2.843
 9633SOL     OW29797   3.132   2.956   5.172
 9633SOL    HW129798   3.099   3.043   5.135
 9633SOL    HW229799   3.119   2.956   5.271
 9634SOL     OW29800   6.431   4.670   2.611
 9634SOL    HW129801   6.525   4.663   2.646
 9634SOL    HW229802   6.384   4.745   2.657
 9635SOL     OW29803   0.637   5.784   4.438
 9635SOL    HW129804   0.690   5.854   4.485
 9635SOL    HW229805   0.541   5.811   4.436
 9636SOL     OW29806   5.186   3.533   3.935
 9636SOL    HW129807   5.271   3.559   3.980
 9636SOL    HW229808   5.185   3.434   3.920
 9637SOL     OW29809   2.647   2.446   6.682
 9637SOL    HW129810   2.605   2.524   6.729
 9637SOL    HW229811   2.740   2.433   6.716
 9638SOL     OW29812   0.121   4.492   5.539
 9638SOL    HW129813   0.025   4.502   5.514
 9638SOL    HW229814   0.175   4.470   5.457
 9639SOL     OW29815   4.593   2.947   1.400
 9639SOL    HW129816   4.618   2.850   1.396
 9639SOL    HW229817   4.601   2.979   1.495
 9640SOL     OW29818   3.137   6.762   3.356
 9640SOL    HW129819   3.156   6.668   3.331
 9640SOL    HW229820   3.223   6.812   3.366
 9641SOL     OW29821   0.802   2.978   4.900
 9641SOL    HW129822   0.828   2.934   4.813
 9641SOL    HW229823   0.737   3.052   4.882
 9642SOL     OW29824   0.701   3.393   5.375
 9642SOL    HW129825   0.684   3.327   5.302
 9642SOL    HW229826   0.783   3.366   5.425
 9643SOL     OW29827   5.729   5.239   4.569
 9643SOL    HW129828   5.702   5.335   4.563
 9643SOL    HW229829   5.656   5.181   4.531
 9644SOL     OW29830   0.722   4.405   3.647
 9644SOL    HW129831   0.821   4.412   3.664
 9644SOL    HW229832   0.673   4.403   3.734
 9645SOL     OW29833   1.272   4.927   0.036
 9645SOL    HW129834   1.277   4.840   0.085
 9645SOL    HW229835   1.216   4.916   6.982
 9646SOL     OW29836   2.747   5.002   0.635
 9646SOL    HW129837   2.688   4.982   0.713
 9646SOL    HW229838   2.704   5.073   0.578
 9647SOL     OW29839   5.919   6.941   3.300
 9647SOL    HW129840   5.861   6.872   3.343
 9647SOL    HW229841   5.909   6.937   3.201
 9648SOL     OW29842   3.492   2.424   1.098
 9648SOL    HW129843   3.408   2.476   1.113
 9648SOL    HW229844   3.475   2.327   1.114
 9649SOL     OW29845   6.818   6.216   1.053
 9649SOL    HW129846   6.899   6.169   1.087
 9649SOL    HW229847   6.825   6.314   1.071
 9650SOL     OW29848   0.575   5.480   4.455
 9650SOL    HW129849   0.587   5.569   4.411
 9650SOL    HW229850   0.621   5.480   4.544
 9651SOL     OW29851   4.490   1.434   7.005
 9651SOL    HW129852   4.448   1.508   0.028
 9651SOL    HW229853   4.423   1.394   6.942
 9652SOL     OW29854   6.985   3.820   0.692
 9652SOL    HW129855   6.939   3.733   0.672
 9652SOL    HW229856   0.044   3.802   0.737
 9653SOL     OW29857   5.366   3.894   5.440
 9653SOL    HW129858   5.321   3.943   5.515
 9653SOL    HW229859   5.428   3.955   5.392
 9654SOL     OW29860   3.926   3.048   4.358
 9654SOL    HW129861   3.831   3.021   4.342
 9654SOL    HW229862   3.987   2.977   4.324
 9655SOL     OW29863   5.096   0.122   0.531
 9655SOL    HW129864   5.139   0.208   0.505
 9655SOL    HW229865   5.004   0.117   0.492
 9656SOL     OW29866   5.837   4.295   6.185
 9656SOL    HW129867   5.922   4.314   6.135
 9656SOL    HW229868   5.829   4.197   6.201
 9657SOL     OW29869   4.783   5.326   2.899
 9657SOL    HW129870   4.772   5.226   2.894
 9657SOL    HW229871   4.700   5.370   2.864
 9658SOL     OW29872   5.418   0.879   2.632
 9658SOL    HW129873   5.334   0.838   2.667
 9658SOL    HW229874   5.479   0.900   2.708
 9659SOL     OW29875   3.258   2.757   0.358
 9659SOL    HW129876   3.177   2.719   0.313
 9659SOL    HW229877   3.334   2.693   0.348
 9660SOL     OW29878   2.521   6.927   1.747
 9660SOL    HW129879   2.490   6.972   1.831
 9660SOL    HW229880   2.442   6.913   1.687
 9661SOL     OW29881   4.080   3.844   2.455
 9661SOL    HW129882   4.175   3.864   2.431
 9661SOL    HW229883   4.063   3.746   2.445
 9662SOL     OW29884   4.331   0.370   5.303
 9662SOL    HW129885   4.260   0.436   5.329
 9662SOL    HW229886   4.289   0.283   5.277
 9663SOL     OW29887   1.185   5.871   2.763
 9663SOL    HW129888   1.202   5.894   2.858
 9663SOL    HW229889   1.258   5.812   2.729
 9664SOL     OW29890   2.056   4.659   3.498
 9664SOL    HW129891   2.048   4.572   3.451
 9664SOL    HW229892   2.133   4.711   3.461
 9665SOL     OW29893   6.458   4.297   6.507
 9665SOL    HW129894   6.538   4.293   6.566
 9665SOL    HW229895   6.482   4.264   6.416
 9666SOL     OW29896   5.299   3.640   0.748
 9666SOL    HW129897   5.275   3.720   0.802
 9666SOL    HW229898   5.361   3.667   0.674
 9667SOL     OW29899   5.679   5.935   6.402
 9667SOL    HW129900   5.625   6.018   6.409
 9667SOL    HW229901   5.743   5.930   6.478
 9668SOL     OW29902   2.570   0.232   0.293
 9668SOL    HW129903   2.563   0.239   0.393
 9668SOL    HW229904   2.548   0.321   0.252
 9669SOL     OW29905   3.648   0.388   7.021
 9669SOL    HW129906   3.635   0.419   6.927
 9669SOL    HW229907   3.696   0.459   0.045
 9670SOL     OW29908   0.920   0.096   2.060
 9670SOL    HW129909   0.956   0.156   1.989
 9670SOL    HW229910   0.824   0.121   2.078
 9671SOL     OW29911   1.061   6.431   6.232
 9671SOL    HW129912   1.030   6.390   6.319
 9671SOL    HW229913   1.007   6.513   6.214
 9672SOL     OW29914   1.378   4.068   4.551
 9672SOL    HW129915   1.282   4.057   4.525
 9672SOL    HW229916   1.394   4.162   4.580
 9673SOL     OW29917   2.689   3.357   6.040
 9673SOL    HW129918   2.647   3.378   5.951
 9673SOL    HW229919   2.620   3.314   6.099
 9674SOL     OW29920   1.916   0.444   3.682
 9674SOL    HW129921   1.923   0.345   3.696
 9674SOL    HW229922   1.910   0.489   3.771
 9675SOL     OW29923   5.970   4.014   5.961
 9675SOL    HW129924   5.889   3.974   5.917
 9675SOL    HW229925   5.957   4.013   6.060
 9676SOL     OW29926   1.265   3.104   5.909
 9676SOL    HW129927   1.256   3.196   5.871
 9676SOL    HW229928   1.293   3.110   6.005
 9677SOL     OW29929   0.548   4.728   2.625
 9677SOL    HW129930   0.477   4.791   2.656
 9677SOL    HW229931   0.510   4.637   2.615
 9678SOL     OW29932   4.520   2.920   6.235
 9678SOL    HW129933   4.590   2.951   6.170
 9678SOL    HW229934   4.523   2.820   6.240
 9679SOL     OW29935   0.961   1.025   4.094
 9679SOL    HW129936   0.903   0.987   4.021
 9679SOL    HW229937   1.047   1.056   4.055
 9680SOL     OW29938   4.714   0.255   1.779
 9680SOL    HW129939   4.812   0.253   1.799
 9680SOL    HW229940   4.693   0.337   1.726
 9681SOL     OW29941   0.885   3.454   1.466
 9681SOL    HW129942   0.937   3.522   1.414
 9681SOL    HW229943   0.906   3.463   1.563
 9682SOL     OW29944   4.068   6.540   5.402
 9682SOL    HW129945   4.069   6.451   5.356
 9682SOL    HW229946   4.100   6.610   5.338
 9683SOL     OW29947   3.272   5.906   3.850
 9683SOL    HW129948   3.319   5.831   3.896
 9683SOL    HW229949   3.314   5.922   3.761
 9684SOL     OW29950   0.675   2.616   6.359
 9684SOL    HW129951   0.755   2.557   6.355
 9684SOL    HW229952   0.703   2.711   6.345
 9685SOL     OW29953   3.624   4.426   1.694
 9685SOL    HW129954   3.630   4.514   1.742
 9685SOL    HW229955   3.529   4.394   1.696
 9686SOL     OW29956   0.591   1.813   6.036
 9686SOL    HW129957   0.578   1.835   5.939
 9686SOL    HW229958   0.502   1.800   6.079
 9687SOL     OW29959   5.206   1.297   3.613
 9687SOL    HW129960   5.260   1.268   3.692
 9687SOL    HW229961   5.109   1.293   3.636
 9688SOL     OW29962   0.381   5.208   2.200
 9688SOL    HW129963   0.380   5.193   2.299
 9688SOL    HW229964   0.287   5.217   2.166
 9689SOL     OW29965   1.957   5.441   1.522
 9689SOL    HW129966   1.871   5.453   1.572
 9689SOL    HW229967   1.958   5.501   1.442
 9690SOL     OW29968   6.040   4.456   5.109
 9690SOL    HW129969   6.054   4.391   5.033
 9690SOL    HW229970   6.102   4.434   5.183
 9691SOL     OW29971   3.902   3.298   2.167
 9691SOL    HW129972   3.963   3.376   2.181
 9691SOL    HW229973   3.808   3.325   2.189
 9692SOL     OW29974   5.030   4.865   0.555
 9692SOL    HW129975   5.120   4.896   0.587
 9692SOL    HW229976   5.040   4.821   0.466
 9693SOL     OW29977   4.348   3.021   6.511
 9693SOL    HW129978   4.250   3.038   6.517
 9693SOL    HW229979   4.395   3.103   6.480
 9694SOL     OW29980   2.606   6.563   0.966
 9694SOL    HW129981   2.554   6.495   1.017
 9694SOL    HW229982   2.701   6.562   0.996
 9695SOL     OW29983   2.066   2.819   3.586
 9695SOL    HW129984   2.037   2.871   3.506
 9695SOL    HW229985   2.149   2.861   3.624
 9696SOL     OW29986   4.939   3.479   3.319
 9696SOL    HW129987   4.894   3.404   3.369
 9696SOL    HW229988   4.980   3.542   3.385
 9697SOL     OW29989   6.712   6.705   1.858
 9697SOL    HW129990   6.811   6.709   1.870
 9697SOL    HW229991   6.691   6.663   1.769
 9698SOL     OW29992   6.844   3.584   1.993
 9698SOL    HW129993   6.750   3.608   1.968
 9698SOL    HW229994   6.843   3.500   2.047
 9699SOL     OW29995   1.967   6.700   2.049
 9699SOL    HW129996   1.889   6.759   2.070
 9699SOL    HW229997   2.003   6.662   2.134
 9700SOL     OW29998   6.337   0.626   5.987
 9700SOL    HW129999   6.290   0.551   5.940
 9700SOL    HW230000   6.269   0.694   6.015
 9701SOL     OW30001   5.321   3.714   6.669
 9701SOL    HW130002   5.225   3.740   6.673
 9701SOL    HW230003   5.353   3.719   6.574
 9702SOL     OW30004   3.338   4.001   1.698
 9702SOL    HW130005   3.406   3.938   1.737
 9702SOL    HW230006   3.277   3.951   1.637
 9703SOL     OW30007   6.334   5.232   2.897
 9703SOL    HW130008   6.396   5.309   2.886
 9703SOL    HW230009   6.327   5.181   2.811
 9704SOL     OW30010   0.874   4.453   1.863
 9704SOL    HW130011   0.937   4.508   1.917
 9704SOL    HW230012   0.882   4.357   1.890
 9705SOL     OW30013   0.058   3.818   5.753
 9705SOL    HW130014   0.048   3.781   5.661
 9705SOL    HW230015   0.141   3.873   5.759
 9706SOL     OW30016   1.409   6.178   2.016
 9706SOL    HW130017   1.394   6.230   1.932
 9706SOL    HW230018   1.361   6.090   2.009
 9707SOL     OW30019   1.150   5.555   2.263
 9707SOL    HW130020   1.235   5.602   2.241
 9707SOL    HW230021   1.090   5.616   2.314
 9708SOL     OW30022   2.440   1.370   2.153
 9708SOL    HW130023   2.470   1.339   2.062
 9708SOL    HW230024   2.520   1.403   2.204
 9709SOL     OW30025   4.664   1.429   1.793
 9709SOL    HW130026   4.626   1.463   1.707
 9709SOL    HW230027   4.602   1.361   1.832
 9710SOL     OW30028   4.682   4.227   4.120
 9710SOL    HW130029   4.683   4.325   4.143
 9710SOL    HW230030   4.659   4.174   4.202
 9711SOL     OW30031   2.816   0.924   6.896
 9711SOL    HW130032   2.753   0.872   6.839
 9711SOL    HW230033   2.900   0.871   6.910
 9712SOL     OW30034   4.953   6.692   5.048
 9712SOL    HW130035   5.025   6.711   5.115
 9712SOL    HW230036   4.989   6.708   4.956
 9713SOL     OW30037   1.170   0.700   2.710
 9713SOL    HW130038   1.084   0.725   2.756
 9713SOL    HW230039   1.245   0.704   2.776
 9714SOL     OW30040   2.226   2.568   4.303
 9714SOL    HW130041   2.144   2.621   4.285
 9714SOL    HW230042   2.304   2.609   4.254
 9715SOL     OW30043   0.274   1.949   5.912
 9715SOL    HW130044   0.198   2.004   5.945
 9715SOL    HW230045   0.280   1.865   5.965
 9716SOL     OW30046   2.085   6.724   0.925
 9716SOL    HW130047   2.022   6.688   0.856
 9716SOL    HW230048   2.075   6.673   1.010
 9717SOL     OW30049   3.763   2.663   6.431
 9717SOL    HW130050   3.771   2.712   6.344
 9717SOL    HW230051   3.729   2.570   6.413
 9718SOL     OW30052   3.116   2.293   6.477
 9718SOL    HW130053   3.187   2.330   6.416
 9718SOL    HW230054   3.132   2.327   6.570
 9719SOL     OW30055   3.989   6.964   5.234
 9719SOL    HW130056   3.928   6.934   5.307
 9719SOL    HW230057   3.936   6.981   5.151
 9720SOL     OW30058   1.804   2.784   2.323
 9720SOL    HW130059   1.778   2.690   2.301
 9720SOL    HW230060   1.895   2.785   2.364
 9721SOL     OW30061   1.143   2.294   1.933
 9721SOL    HW130062   1.176   2.248   2.015
 9721SOL    HW230063   1.051   2.329   1.949
 9722SOL     OW30064   3.485   2.702   5.364
 9722SOL    HW130065   3.450   2.608   5.367
 9722SOL    HW230066   3.464   2.743   5.275
 9723SOL     OW30067   5.807   0.253   4.912
 9723SOL    HW130068   5.871   0.277   4.986
 9723SOL    HW230069   5.713   0.258   4.946
 9724SOL     OW30070   2.122   5.271   1.178
 9724SOL    HW130071   2.150   5.226   1.093
 9724SOL    HW230072   2.200   5.320   1.217
 9725SOL     OW30073   5.450   5.400   4.126
 9725SOL    HW130074   5.546   5.370   4.123
 9725SOL    HW230075   5.399   5.356   4.052
 9726SOL     OW30076   0.087   0.375   3.276
 9726SOL    HW130077   0.158   0.359   3.345
 9726SOL    HW230078   0.086   0.299   3.211
 9727SOL     OW30079   6.586   2.807   1.654
 9727SOL    HW130080   6.612   2.834   1.562
 9727SOL    HW230081   6.486   2.797   1.659
 9728SOL     OW30082   5.866   1.838   4.759
 9728SOL    HW130083   5.878   1.739   4.757
 9728SOL    HW230084   5.943   1.880   4.807
 9729SOL     OW30085   0.052   3.579   2.500
 9729SOL    HW130086   7.010   3.645   2.529
 9729SOL    HW230087   0.136   3.596   2.552
 9730SOL     OW30088   0.845   5.510   3.880
 9730SOL    HW130089   0.941   5.537   3.887
 9730SOL    HW230090   0.837   5.431   3.818
 9731SOL     OW30091   6.597   1.762   1.416
 9731SOL    HW130092   6.639   1.791   1.502
 9731SOL    HW230093   6.661   1.780   1.340
 9732SOL     OW30094   0.473   2.924   3.521
 9732SOL    HW130095   0.499   3.020   3.529
 9732SOL    HW230096   0.522   2.870   3.590
 9733SOL     OW30097   5.854   5.670   1.037
 9733SOL    HW130098   5.836   5.758   1.081
 9733SOL    HW230099   5.767   5.629   1.008
 9734SOL     OW30100   4.074   3.859   7.007
 9734SOL    HW130101   4.011   3.854   0.056
 9734SOL    HW230102   4.121   3.947   7.006
 9735SOL     OW30103   0.927   1.545   0.667
 9735SOL    HW130104   0.916   1.509   0.760
 9735SOL    HW230105   1.024   1.564   0.650
 9736SOL     OW30106   5.059   2.285   5.405
 9736SOL    HW130107   5.090   2.376   5.378
 9736SOL    HW230108   4.978   2.292   5.464
 9737SOL     OW30109   5.324   3.111   4.876
 9737SOL    HW130110   5.410   3.153   4.846
 9737SOL    HW230111   5.256   3.122   4.804
 9738SOL     OW30112   2.195   6.335   1.554
 9738SOL    HW130113   2.166   6.412   1.612
 9738SOL    HW230114   2.254   6.369   1.482
 9739SOL     OW30115   5.693   6.731   0.128
 9739SOL    HW130116   5.781   6.759   0.089
 9739SOL    HW230117   5.707   6.699   0.222
 9740SOL     OW30118   6.861   0.973   0.985
 9740SOL    HW130119   6.952   0.983   1.025
 9740SOL    HW230120   6.801   1.045   1.018
 9741SOL     OW30121   2.448   2.727   3.549
 9741SOL    HW130122   2.527   2.667   3.559
 9741SOL    HW230123   2.420   2.761   3.638
 9742SOL     OW30124   4.250   0.842   6.999
 9742SOL    HW130125   4.170   0.830   6.941
 9742SOL    HW230126   4.232   0.803   0.061
 9743SOL     OW30127   6.817   3.511   4.734
 9743SOL    HW130128   6.908   3.471   4.742
 9743SOL    HW230129   6.769   3.473   4.655
 9744SOL     OW30130   1.889   2.434   2.581
 9744SOL    HW130131   1.937   2.423   2.494
 9744SOL    HW230132   1.909   2.357   2.641
 9745SOL     OW30133   1.479   6.156   6.124
 9745SOL    HW130134   1.491   6.180   6.027
 9745SOL    HW230135   1.390   6.115   6.137
 9746SOL     OW30136   3.328   6.377   6.416
 9746SOL    HW130137   3.334   6.313   6.339
 9746SOL    HW230138   3.318   6.327   6.501
 9747SOL     OW30139   4.128   1.687   3.061
 9747SOL    HW130140   4.166   1.620   3.125
 9747SOL    HW230141   4.156   1.665   2.968
 9748SOL     OW30142   0.762   2.102   3.145
 9748SOL    HW130143   0.729   2.185   3.188
 9748SOL    HW230144   0.804   2.043   3.214
 9749SOL     OW30145   6.469   0.417   1.239
 9749SOL    HW130146   6.381   0.396   1.281
 9749SOL    HW230147   6.484   0.355   1.162
 9750SOL     OW30148   5.660   2.011   4.821
 9750SOL    HW130149   5.727   1.937   4.827
 9750SOL    HW230150   5.584   1.982   4.762
 9751SOL     OW30151   2.863   6.276   0.915
 9751SOL    HW130152   2.772   6.264   0.875
 9751SOL    HW230153   2.882   6.200   0.976
 9752SOL     OW30154   3.654   3.478   1.056
 9752SOL    HW130155   3.733   3.529   1.021
 9752SOL    HW230156   3.678   3.382   1.066
 9753SOL     OW30157   6.666   6.310   3.319
 9753SOL    HW130158   6.642   6.213   3.317
 9753SOL    HW230159   6.611   6.360   3.252
 9754SOL     OW30160   3.379   1.129   1.994
 9754SOL    HW130161   3.402   1.106   2.088
 9754SOL    HW230162   3.335   1.219   1.990
 9755SOL     OW30163   3.031   3.860   0.952
 9755SOL    HW130164   3.114   3.883   1.002
 9755SOL    HW230165   3.010   3.763   0.964
 9756SOL     OW30166   5.461   6.972   6.708
 9756SOL    HW130167   5.395   0.020   6.708
 9756SOL    HW230168   5.477   6.943   6.802
 9757SOL     OW30169   5.236   4.018   4.439
 9757SOL    HW130170   5.309   4.085   4.421
 9757SOL    HW230171   5.156   4.040   4.383
 9758SOL     OW30172   3.530   1.009   2.486
 9758SOL    HW130173   3.477   1.080   2.532
 9758SOL    HW230174   3.622   1.003   2.526
 9759SOL     OW30175   0.060   2.178   1.161
 9759SOL    HW130176   0.008   2.115   1.102
 9759SOL    HW230177   0.004   2.202   1.241
 9760SOL     OW30178   4.882   0.464   6.331
 9760SOL    HW130179   4.857   0.398   6.261
 9760SOL    HW230180   4.838   0.552   6.311
 9761SOL     OW30181   0.675   1.822   1.597
 9761SOL    HW130182   0.702   1.906   1.550
 9761SOL    HW230183   0.676   1.838   1.696
 9762SOL     OW30184   4.010   0.955   6.217
 9762SOL    HW130185   4.083   0.887   6.231
 9762SOL    HW230186   4.051   1.044   6.197
 9763SOL     OW30187   6.131   1.731   1.147
 9763SOL    HW130188   6.192   1.670   1.198
 9763SOL    HW230189   6.164   1.826   1.157
 9764SOL     OW30190   0.072   2.734   3.357
 9764SOL    HW130191   0.051   2.660   3.294
 9764SOL    HW230192   0.067   2.822   3.309
 9765SOL     OW30193   6.510   2.109   1.315
 9765SOL    HW130194   6.431   2.058   1.282
 9765SOL    HW230195   6.480   2.189   1.367
 9766SOL     OW30196   0.355   2.857   3.095
 9766SOL    HW130197   0.395   2.897   3.012
 9766SOL    HW230198   0.323   2.764   3.074
 9767SOL     OW30199   3.998   1.514   4.999
 9767SOL    HW130200   4.080   1.488   5.051
 9767SOL    HW230201   3.917   1.490   5.052
 9768SOL     OW30202   5.055   1.809   6.633
 9768SOL    HW130203   5.135   1.865   6.656
 9768SOL    HW230204   5.030   1.823   6.537
 9769SOL     OW30205   4.050   0.917   5.167
 9769SOL    HW130206   4.016   1.005   5.135
 9769SOL    HW230207   4.113   0.931   5.243
 9770SOL     OW30208   1.707   3.343   5.288
 9770SOL    HW130209   1.775   3.415   5.305
 9770SOL    HW230210   1.718   3.307   5.196
 9771SOL     OW30211   3.397   1.037   2.260
 9771SOL    HW130212   3.457   1.023   2.339
 9771SOL    HW230213   3.306   1.064   2.292
 9772SOL     OW30214   0.252   0.445   2.144
 9772SOL    HW130215   0.284   0.373   2.205
 9772SOL    HW230216   0.327   0.508   2.124
 9773SOL     OW30217   5.684   6.174   1.778
 9773SOL    HW130218   5.697   6.268   1.811
 9773SOL    HW230219   5.654   6.177   1.682
 9774SOL     OW30220   1.796   6.140   4.528
 9774SOL    HW130221   1.742   6.158   4.446
 9774SOL    HW230222   1.891   6.168   4.513
 9775SOL     OW30223   1.203   1.327   3.211
 9775SOL    HW130224   1.255   1.395   3.263
 9775SOL    HW230225   1.164   1.370   3.129
 9776SOL     OW30226   1.739   6.010   1.644
 9776SOL    HW130227   1.795   5.980   1.722
 9776SOL    HW230228   1.650   6.040   1.677
 9777SOL     OW30229   4.325   1.659   5.170
 9777SOL    HW130230   4.254   1.712   5.217
 9777SOL    HW230231   4.325   1.683   5.073
 9778SOL     OW30232   1.870   3.853   2.972
 9778SOL    HW130233   1.868   3.891   3.065
 9778SOL    HW230234   1.796   3.891   2.918
 9779SOL     OW30235   3.050   0.749   3.313
 9779SOL    HW130236   2.978   0.818   3.321
 9779SOL    HW230237   3.027   0.685   3.240
 9780SOL     OW30238   0.843   1.483   0.974
 9780SOL    HW130239   0.934   1.486   1.015
 9780SOL    HW230240   0.777   1.524   1.037
 9781SOL     OW30241   1.176   1.323   2.408
 9781SOL    HW130242   1.155   1.226   2.398
 9781SOL    HW230243   1.275   1.335   2.412
 9782SOL     OW30244   6.903   2.692   0.553
 9782SOL    HW130245   6.918   2.790   0.570
 9782SOL    HW230246   6.990   2.643   0.560
 9783SOL     OW30247   4.985   2.115   2.348
 9783SOL    HW130248   4.894   2.098   2.312
 9783SOL    HW230249   5.037   2.029   2.350
 9784SOL     OW30250   2.036   1.356   0.458
 9784SOL    HW130251   2.065   1.372   0.363
 9784SOL    HW230252   2.027   1.443   0.506
 9785SOL     OW30253   1.817   3.549   4.723
 9785SOL    HW130254   1.908   3.562   4.683
 9785SOL    HW230255   1.748   3.559   4.651
 9786SOL     OW30256   2.894   4.543   6.863
 9786SOL    HW130257   2.905   4.636   6.827
 9786SOL    HW230258   2.853   4.485   6.792
 9787SOL     OW30259   2.493   3.426   1.100
 9787SOL    HW130260   2.475   3.511   1.051
 9787SOL    HW230261   2.454   3.349   1.049
 9788SOL     OW30262   2.901   6.857   2.450
 9788SOL    HW130263   2.976   6.796   2.474
 9788SOL    HW230264   2.858   6.892   2.533
 9789SOL     OW30265   4.525   1.865   0.645
 9789SOL    HW130266   4.504   1.902   0.735
 9789SOL    HW230267   4.623   1.846   0.638
 9790SOL     OW30268   4.503   5.905   4.567
 9790SOL    HW130269   4.424   5.869   4.617
 9790SOL    HW230270   4.581   5.913   4.628
 9791SOL     OW30271   0.345   1.198   1.302
 9791SOL    HW130272   0.411   1.219   1.374
 9791SOL    HW230273   0.381   1.226   1.214
 9792SOL     OW30274   3.623   3.853   0.750
 9792SOL    HW130275   3.627   3.845   0.651
 9792SOL    HW230276   3.529   3.870   0.779
 9793SOL     OW30277   6.113   1.111   2.531
 9793SOL    HW130278   6.210   1.087   2.527
 9793SOL    HW230279   6.102   1.210   2.525
 9794SOL     OW30280   3.990   5.278   4.506
 9794SOL    HW130281   4.062   5.221   4.544
 9794SOL    HW230282   4.008   5.374   4.528
 9795SOL     OW30283   1.941   4.069   3.169
 9795SOL    HW130284   1.931   4.061   3.268
 9795SOL    HW230285   2.037   4.050   3.144
 9796SOL     OW30286   3.373   3.681   4.557
 9796SOL    HW130287   3.461   3.710   4.593
 9796SOL    HW230288   3.351   3.733   4.475
 9797SOL     OW30289   3.563   5.459   6.947
 9797SOL    HW130290   3.657   5.430   6.928
 9797SOL    HW230291   3.537   5.429   0.011
 9798SOL     OW30292   6.983   4.250   6.101
 9798SOL    HW130293   0.030   4.305   6.137
 9798SOL    HW230294   7.020   4.168   6.057
 9799SOL     OW30295   4.054   6.132   6.808
 9799SOL    HW130296   4.115   6.056   6.784
 9799SOL    HW230297   3.963   6.114   6.772
 9800SOL     OW30298   6.638   4.602   5.049
 9800SOL    HW130299   6.650   4.679   4.986
 9800SOL    HW230300   6.668   4.518   5.005
 9801SOL     OW30301   4.086   0.267   0.537
 9801SOL    HW130302   4.035   0.185   0.513
 9801SOL    HW230303   4.178   0.262   0.497
 9802SOL     OW30304   4.058   3.283   0.455
 9802SOL    HW130305   4.045   3.376   0.420
 9802SOL    HW230306   3.982   3.260   0.516
 9803SOL     OW30307   2.315   3.341   7.018
 9803SOL    HW130308   2.286   3.280   0.064
 9803SOL    HW230309   2.301   3.436   0.017
 9804SOL     OW30310   1.327   4.424   2.712
 9804SOL    HW130311   1.342   4.388   2.804
 9804SOL    HW230312   1.326   4.524   2.715
 9805SOL     OW30313   0.263   5.755   4.682
 9805SOL    HW130314   0.269   5.674   4.623
 9805SOL    HW230315   0.197   5.737   4.755
 9806SOL     OW30316   3.455   1.281   6.771
 9806SOL    HW130317   3.466   1.226   6.688
 9806SOL    HW230318   3.366   1.262   6.812
 9807SOL     OW30319   3.523   3.198   3.758
 9807SOL    HW130320   3.600   3.166   3.703
 9807SOL    HW230321   3.465   3.258   3.703
 9808SOL     OW30322   3.268   5.916   2.490
 9808SOL    HW130323   3.367   5.908   2.479
 9808SOL    HW230324   3.225   5.827   2.474
 9809SOL     OW30325   5.988   2.709   1.108
 9809SOL    HW130326   6.022   2.646   1.038
 9809SOL    HW230327   6.015   2.676   1.198
 9810SOL     OW30328   3.029   2.661   0.798
 9810SOL    HW130329   3.110   2.705   0.758
 9810SOL    HW230330   3.009   2.577   0.749
 9811SOL     OW30331   5.073   3.685   4.134
 9811SOL    HW130332   5.124   3.639   4.061
 9811SOL    HW230333   5.137   3.724   4.200
 9812SOL     OW30334   3.581   5.594   6.670
 9812SOL    HW130335   3.534   5.542   6.740
 9812SOL    HW230336   3.674   5.614   6.700
 9813SOL     OW30337   4.679   1.288   2.072
 9813SOL    HW130338   4.636   1.339   2.146
 9813SOL    HW230339   4.611   1.231   2.027
 9814SOL     OW30340   6.715   1.871   6.182
 9814SOL    HW130341   6.622   1.885   6.217
 9814SOL    HW230342   6.778   1.858   6.258
 9815SOL     OW30343   5.073   2.337   4.347
 9815SOL    HW130344   4.990   2.393   4.347
 9815SOL    HW230345   5.053   2.247   4.309
 9816SOL     OW30346   3.184   0.913   0.087
 9816SOL    HW130347   3.204   1.011   0.093
 9816SOL    HW230348   3.266   0.861   0.113
 9817SOL     OW30349   6.821   0.223   1.533
 9817SOL    HW130350   6.775   0.309   1.513
 9817SOL    HW230351   6.803   0.196   1.628
 9818SOL     OW30352   3.635   2.231   5.438
 9818SOL    HW130353   3.565   2.229   5.366
 9818SOL    HW230354   3.663   2.137   5.458
 9819SOL     OW30355   2.616   0.591   1.589
 9819SOL    HW130356   2.707   0.620   1.617
 9819SOL    HW230357   2.567   0.555   1.668
 9820SOL     OW30358   3.805   2.819   6.931
 9820SOL    HW130359   3.788   2.721   6.940
 9820SOL    HW230360   3.888   2.844   6.981
 9821SOL     OW30361   6.756   5.474   0.310
 9821SOL    HW130362   6.679   5.412   0.299
 9821SOL    HW230363   6.730   5.565   0.279
 9822SOL     OW30364   0.079   0.654   2.463
 9822SOL    HW130365   0.145   0.716   2.505
 9822SOL    HW230366   0.076   0.568   2.513
 9823SOL     OW30367   3.627   6.532   1.738
 9823SOL    HW130368   3.594   6.627   1.741
 9823SOL    HW230369   3.581   6.484   1.664
 9824SOL     OW30370   1.925   3.837   5.886
 9824SOL    HW130371   1.826   3.847   5.896
 9824SOL    HW230372   1.968   3.835   5.976
 9825SOL     OW30373   4.176   5.555   4.945
 9825SOL    HW130374   4.157   5.458   4.959
 9825SOL    HW230375   4.090   5.606   4.946
 9826SOL     OW30376   5.954   6.399   5.221
 9826SOL    HW130377   5.893   6.344   5.278
 9826SOL    HW230378   5.995   6.340   5.150
 9827SOL     OW30379   1.275   5.110   4.871
 9827SOL    HW130380   1.280   5.181   4.801
 9827SOL    HW230381   1.180   5.095   4.897
 9828SOL     OW30382   2.499   1.840   0.128
 9828SOL    HW130383   2.545   1.925   0.103
 9828SOL    HW230384   2.449   1.805   0.050
 9829SOL     OW30385   2.341   4.286   1.453
 9829SOL    HW130386   2.294   4.345   1.388
 9829SOL    HW230387   2.435   4.317   1.464
 9830SOL     OW30388   6.595   1.143   0.984
 9830SOL    HW130389   6.623   1.184   1.071
 9830SOL    HW230390   6.587   1.215   0.915
 9831SOL     OW30391   5.991   6.631   1.093
 9831SOL    HW130392   5.973   6.699   1.165
 9831SOL    HW230393   5.984   6.675   1.004
 9832SOL     OW30394   3.589   4.287   0.915
 9832SOL    HW130395   3.679   4.293   0.871
 9832SOL    HW230396   3.524   4.344   0.866
 9833SOL     OW30397   4.620   4.506   6.168
 9833SOL    HW130398   4.562   4.587   6.161
 9833SOL    HW230399   4.566   4.423   6.153
 9834SOL     OW30400   2.418   2.269   3.874
 9834SOL    HW130401   2.459   2.288   3.964
 9834SOL    HW230402   2.319   2.279   3.880
 9835SOL     OW30403   5.556   1.284   4.868
 9835SOL    HW130404   5.482   1.218   4.879
 9835SOL    HW230405   5.622   1.272   4.942
 9836SOL     OW30406   5.144   4.948   1.308
 9836SOL    HW130407   5.097   4.926   1.393
 9836SOL    HW230408   5.214   5.017   1.325
 9837SOL     OW30409   2.662   6.072   5.915
 9837SOL    HW130410   2.599   6.036   5.846
 9837SOL    HW230411   2.684   6.167   5.893
 9838SOL     OW30412   6.677   5.802   4.886
 9838SOL    HW130413   6.665   5.707   4.855
 9838SOL    HW230414   6.677   5.805   4.985
 9839SOL     OW30415   6.001   2.996   2.542
 9839SOL    HW130416   5.962   2.989   2.450
 9839SOL    HW230417   5.932   3.033   2.605
 9840SOL     OW30418   5.822   0.497   0.432
 9840SOL    HW130419   5.763   0.532   0.506
 9840SOL    HW230420   5.793   0.535   0.345
 9841SOL     OW30421   2.124   2.930   4.552
 9841SOL    HW130422   2.066   3.011   4.545
 9841SOL    HW230423   2.198   2.947   4.618
 9842SOL     OW30424   3.224   3.443   3.776
 9842SOL    HW130425   3.300   3.477   3.832
 9842SOL    HW230426   3.254   3.430   3.682
 9843SOL     OW30427   6.004   4.910   3.079
 9843SOL    HW130428   5.972   4.929   2.986
 9843SOL    HW230429   5.995   4.813   3.098
 9844SOL     OW30430   5.156   0.206   2.035
 9844SOL    HW130431   5.177   0.295   2.075
 9844SOL    HW230432   5.147   0.138   2.108
 9845SOL     OW30433   1.408   1.799   3.517
 9845SOL    HW130434   1.388   1.875   3.456
 9845SOL    HW230435   1.357   1.810   3.602
 9846SOL     OW30436   3.042   3.651   3.542
 9846SOL    HW130437   3.094   3.629   3.459
 9846SOL    HW230438   2.994   3.569   3.573
 9847SOL     OW30439   2.184   4.551   5.198
 9847SOL    HW130440   2.094   4.550   5.154
 9847SOL    HW230441   2.219   4.458   5.203
 9848SOL     OW30442   5.829   3.737   0.305
 9848SOL    HW130443   5.853   3.723   0.209
 9848SOL    HW230444   5.747   3.794   0.310
 9849SOL     OW30445   6.996   6.276   5.371
 9849SOL    HW130446   6.899   6.252   5.359
 9849SOL    HW230447   7.024   6.339   5.299
 9850SOL     OW30448   4.489   0.192   2.818
 9850SOL    HW130449   4.517   0.102   2.852
 9850SOL    HW230450   4.471   0.253   2.895
 9851SOL     OW30451   5.394   2.882   5.024
 9851SOL    HW130452   5.309   2.885   5.077
 9851SOL    HW230453   5.383   2.938   4.941
 9852SOL     OW30454   5.594   1.576   4.803
 9852SOL    HW130455   5.588   1.497   4.865
 9852SOL    HW230456   5.541   1.558   4.720
 9853SOL     OW30457   0.584   4.805   1.411
 9853SOL    HW130458   0.540   4.818   1.500
 9853SOL    HW230459   0.683   4.799   1.424
 9854SOL     OW30460   3.796   6.697   3.800
 9854SOL    HW130461   3.856   6.777   3.795
 9854SOL    HW230462   3.851   6.614   3.804
 9855SOL     OW30463   1.707   4.251   0.915
 9855SOL    HW130464   1.612   4.253   0.883
 9855SOL    HW230465   1.713   4.290   1.006
 9856SOL     OW30466   3.602   3.116   1.306
 9856SOL    HW130467   3.536   3.171   1.358
 9856SOL    HW230468   3.554   3.047   1.253
 9857SOL     OW30469   6.526   4.671   2.965
 9857SOL    HW130470   6.443   4.725   2.946
 9857SOL    HW230471   6.606   4.728   2.950
 9858SOL     OW30472   3.506   1.612   1.375
 9858SOL    HW130473   3.407   1.623   1.392
 9858SOL    HW230474   3.555   1.686   1.423
 9859SOL     OW30475   0.174   0.139   1.470
 9859SOL    HW130476   0.143   0.045   1.465
 9859SOL    HW230477   0.154   0.186   1.383
 9860SOL     OW30478   0.787   0.732   2.595
 9860SOL    HW130479   0.767   0.753   2.691
 9860SOL    HW230480   0.847   0.803   2.558
 9861SOL     OW30481   2.872   6.436   4.332
 9861SOL    HW130482   2.957   6.397   4.367
 9861SOL    HW230483   2.875   6.536   4.338
 9862SOL     OW30484   0.499   2.282   0.976
 9862SOL    HW130485   0.407   2.267   0.939
 9862SOL    HW230486   0.510   2.227   1.059
 9863SOL     OW30487   3.589   6.863   0.385
 9863SOL    HW130488   3.596   6.771   0.347
 9863SOL    HW230489   3.574   6.929   0.311
 9864SOL     OW30490   4.544   6.030   3.196
 9864SOL    HW130491   4.614   6.086   3.242
 9864SOL    HW230492   4.457   6.038   3.245
 9865SOL     OW30493   1.820   2.760   3.869
 9865SOL    HW130494   1.752   2.809   3.814
 9865SOL    HW230495   1.783   2.743   3.960
 9866SOL     OW30496   3.362   5.233   3.627
 9866SOL    HW130497   3.360   5.162   3.698
 9866SOL    HW230498   3.454   5.237   3.587
 9867SOL     OW30499   4.058   6.958   6.399
 9867SOL    HW130500   4.047   7.022   6.323
 9867SOL    HW230501   4.115   7.000   6.470
 9868SOL     OW30502   0.925   5.077   5.594
 9868SOL    HW130503   0.919   4.996   5.653
 9868SOL    HW230504   0.968   5.152   5.644
 9869SOL     OW30505   1.385   4.252   2.957
 9869SOL    HW130506   1.332   4.167   2.954
 9869SOL    HW230507   1.481   4.230   2.974
 9870SOL     OW30508   4.326   4.612   1.849
 9870SOL    HW130509   4.407   4.563   1.817
 9870SOL    HW230510   4.313   4.595   1.947
 9871SOL     OW30511   1.556   2.164   5.830
 9871SOL    HW130512   1.635   2.149   5.771
 9871SOL    HW230513   1.585   2.209   5.914
 9872SOL     OW30514   1.374   4.036   3.495
 9872SOL    HW130515   1.454   4.004   3.444
 9872SOL    HW230516   1.403   4.067   3.586
 9873SOL     OW30517   1.642   1.876   0.158
 9873SOL    HW130518   1.709   1.813   0.198
 9873SOL    HW230519   1.677   1.911   0.072
 9874SOL     OW30520   1.090   3.886   4.651
 9874SOL    HW130521   1.114   3.822   4.724
 9874SOL    HW230522   1.067   3.975   4.690
 9875SOL     OW30523   0.819   1.221   2.808
 9875SOL    HW130524   0.858   1.306   2.771
 9875SOL    HW230525   0.800   1.234   2.905
 9876SOL     OW30526   0.132   5.242   2.115
 9876SOL    HW130527   0.058   5.199   2.169
 9876SOL    HW230528   0.093   5.313   2.057
 9877SOL     OW30529   3.430   6.880   1.383
 9877SOL    HW130530   3.527   6.905   1.390
 9877SOL    HW230531   3.409   6.809   1.449
 9878SOL     OW30532   0.319   0.349   5.038
 9878SOL    HW130533   0.296   0.340   4.941
 9878SOL    HW230534   0.371   0.269   5.067
 9879SOL     OW30535   5.432   5.828   5.185
 9879SOL    HW130536   5.462   5.770   5.261
 9879SOL    HW230537   5.333   5.842   5.190
 9880SOL     OW30538   1.735   1.571   3.810
 9880SOL    HW130539   1.809   1.504   3.813
 9880SOL    HW230540   1.701   1.587   3.903
 9881SOL     OW30541   0.043   1.406   6.146
 9881SOL    HW130542   0.082   1.370   6.231
 9881SOL    HW230543   0.116   1.424   6.080
 9882SOL     OW30544   2.028   2.248   3.419
 9882SOL    HW130545   2.101   2.181   3.407
 9882SOL    HW230546   1.951   2.205   3.467
 9883SOL     OW30547   2.794   1.334   2.108
 9883SOL    HW130548   2.893   1.349   2.119
 9883SOL    HW230549   2.749   1.343   2.196
 9884SOL     OW30550   3.258   0.354   4.273
 9884SOL    HW130551   3.323   0.425   4.246
 9884SOL    HW230552   3.184   0.350   4.206
 9885SOL     OW30553   6.684   4.259   4.327
 9885SOL    HW130554   6.678   4.159   4.318
 9885SOL    HW230555   6.696   4.299   4.236
 9886SOL     OW30556   0.975   3.449   1.739
 9886SOL    HW130557   1.032   3.495   1.807
 9886SOL    HW230558   0.893   3.412   1.784
 9887SOL     OW30559   4.365   6.621   6.015
 9887SOL    HW130560   4.415   6.568   6.083
 9887SOL    HW230561   4.369   6.575   5.926
 9888SOL     OW30562   6.407   5.497   6.860
 9888SOL    HW130563   6.470   5.498   6.783
 9888SOL    HW230564   6.351   5.414   6.856
 9889SOL     OW30565   0.519   5.055   0.339
 9889SOL    HW130566   0.529   5.151   0.313
 9889SOL    HW230567   0.480   5.049   0.431
 9890SOL     OW30568   1.346   3.211   0.705
 9890SOL    HW130569   1.428   3.154   0.712
 9890SOL    HW230570   1.277   3.178   0.770
 9891SOL     OW30571   5.018   1.929   1.936
 9891SOL    HW130572   5.028   2.026   1.914
 9891SOL    HW230573   4.936   1.915   1.991
 9892SOL     OW30574   0.924   6.678   6.908
 9892SOL    HW130575   0.979   6.717   6.982
 9892SOL    HW230576   0.979   6.669   6.826
 9893SOL     OW30577   2.134   1.629   0.580
 9893SOL    HW130578   2.101   1.699   0.643
 9893SOL    HW230579   2.192   1.564   0.629
 9894SOL     OW30580   2.116   1.056   1.336
 9894SOL    HW130581   2.131   1.097   1.426
 9894SOL    HW230582   2.193   1.078   1.276
 9895SOL     OW30583   4.527   2.881   5.344
 9895SOL    HW130584   4.533   2.858   5.441
 9895SOL    HW230585   4.523   2.981   5.334
 9896SOL     OW30586   7.001   6.269   6.339
 9896SOL    HW130587   0.013   6.357   6.312
 9896SOL    HW230588   6.969   6.221   6.257
 9897SOL     OW30589   5.394   4.925   4.675
 9897SOL    HW130590   5.465   4.860   4.648
 9897SOL    HW230591   5.407   5.012   4.626
 9898SOL     OW30592   2.602   6.690   5.741
 9898SOL    HW130593   2.638   6.711   5.832
 9898SOL    HW230594   2.506   6.662   5.748
 9899SOL     OW30595   6.924   5.341   6.980
 9899SOL    HW130596   6.927   5.398   6.898
 9899SOL    HW230597   6.899   5.397   0.031
 9900SOL     OW30598   2.337   4.267   3.857
 9900SOL    HW130599   2.367   4.318   3.938
 9900SOL    HW230600   2.305   4.176   3.885
 9901SOL     OW30601   2.457   3.154   5.722
 9901SOL    HW130602   2.466   3.071   5.666
 9901SOL    HW230603   2.473   3.234   5.665
 9902SOL     OW30604   2.558   4.349   0.524
 9902SOL    HW130605   2.526   4.261   0.560
 9902SOL    HW230606   2.483   4.393   0.475
 9903SOL     OW30607   5.400   0.752   4.379
 9903SOL    HW130608   5.408   0.685   4.453
 9903SOL    HW230609   5.416   0.706   4.291
 9904SOL     OW30610   6.131   2.351   0.801
 9904SOL    HW130611   6.150   2.411   0.879
 9904SOL    HW230612   6.112   2.407   0.720
 9905SOL     OW30613   5.318   0.446   0.433
 9905SOL    HW130614   5.238   0.440   0.375
 9905SOL    HW230615   5.306   0.387   0.513
 9906SOL     OW30616   3.433   2.842   4.910
 9906SOL    HW130617   3.448   2.747   4.937
 9906SOL    HW230618   3.459   2.854   4.815
 9907SOL     OW30619   1.342   6.605   1.722
 9907SOL    HW130620   1.277   6.634   1.792
 9907SOL    HW230621   1.412   6.675   1.711
 9908SOL     OW30622   4.868   3.670   2.423
 9908SOL    HW130623   4.812   3.726   2.484
 9908SOL    HW230624   4.890   3.722   2.341
 9909SOL     OW30625   2.021   0.450   5.071
 9909SOL    HW130626   2.064   0.511   5.005
 9909SOL    HW230627   2.052   0.356   5.056
 9910SOL     OW30628   0.071   5.079   3.560
 9910SOL    HW130629   0.124   5.123   3.487
 9910SOL    HW230630   0.042   4.988   3.530
 9911SOL     OW30631   2.867   5.513   2.328
 9911SOL    HW130632   2.777   5.550   2.305
 9911SOL    HW230633   2.878   5.423   2.286
 9912SOL     OW30634   5.065   0.720   6.876
 9912SOL    HW130635   5.124   0.671   6.940
 9912SOL    HW230636   5.109   0.722   6.786
 9913SOL     OW30637   4.731   3.379   0.017
 9913SOL    HW130638   4.734   3.351   0.113
 9913SOL    HW230639   4.823   3.403   7.015
 9914SOL     OW30640   0.161   4.359   4.204
 9914SOL    HW130641   0.105   4.277   4.206
 9914SOL    HW230642   0.192   4.380   4.297
 9915SOL     OW30643   5.321   1.096   3.416
 9915SOL    HW130644   5.302   1.135   3.506
 9915SOL    HW230645   5.271   1.147   3.346
 9916SOL     OW30646   1.469   3.174   2.244
 9916SOL    HW130647   1.505   3.089   2.282
 9916SOL    HW230648   1.492   3.180   2.147
 9917SOL     OW30649   6.102   4.057   5.040
 9917SOL    HW130650   6.189   4.024   5.003
 9917SOL    HW230651   6.121   4.118   5.118
 9918SOL     OW30652   4.945   2.821   2.288
 9918SOL    HW130653   4.929   2.909   2.333
 9918SOL    HW230654   5.038   2.790   2.308
 9919SOL     OW30655   5.910   6.197   0.777
 9919SOL    HW130656   6.001   6.203   0.735
 9919SOL    HW230657   5.843   6.175   0.707
 9920SOL     OW30658   4.937   1.798   2.580
 9920SOL    HW130659   5.020   1.832   2.536
 9920SOL    HW230660   4.881   1.875   2.610
 9921SOL     OW30661   3.489   4.871   6.145
 9921SOL    HW130662   3.448   4.934   6.210
 9921SOL    HW230663   3.572   4.831   6.185
 9922SOL     OW30664   0.146   5.538   0.813
 9922SOL    HW130665   0.163   5.599   0.891
 9922SOL    HW230666   0.065   5.482   0.833
 9923SOL     OW30667   5.568   4.484   1.191
 9923SOL    HW130668   5.640   4.461   1.257
 9923SOL    HW230669   5.503   4.547   1.233
 9924SOL     OW30670   1.243   3.466   4.679
 9924SOL    HW130671   1.335   3.429   4.681
 9924SOL    HW230672   1.239   3.549   4.734
 9925SOL     OW30673   5.715   1.927   3.235
 9925SOL    HW130674   5.668   1.923   3.323
 9925SOL    HW230675   5.723   1.835   3.198
 9926SOL     OW30676   2.975   5.154   0.345
 9926SOL    HW130677   2.892   5.153   0.400
 9926SOL    HW230678   2.951   5.151   0.248
 9927SOL     OW30679   5.066   0.220   3.856
 9927SOL    HW130680   4.995   0.175   3.912
 9927SOL    HW230681   5.054   0.193   3.761
 9928SOL     OW30682   4.665   5.034   2.159
 9928SOL    HW130683   4.713   4.975   2.222
 9928SOL    HW230684   4.640   5.119   2.205
 9929SOL     OW30685   1.262   4.703   2.637
 9929SOL    HW130686   1.209   4.705   2.552
 9929SOL    HW230687   1.331   4.775   2.635
 9930SOL     OW30688   5.853   0.839   3.580
 9930SOL    HW130689   5.808   0.755   3.550
 9930SOL    HW230690   5.909   0.820   3.661
 9931SOL     OW30691   0.497   5.336   6.041
 9931SOL    HW130692   0.400   5.347   6.020
 9931SOL    HW230693   0.538   5.425   6.058
 9932SOL     OW30694   0.603   6.628   5.368
 9932SOL    HW130695   0.535   6.673   5.425
 9932SOL    HW230696   0.671   6.584   5.427
 9933SOL     OW30697   0.304   6.094   2.068
 9933SOL    HW130698   0.228   6.070   2.007
 9933SOL    HW230699   0.274   6.088   2.163
 9934SOL     OW30700   0.015   1.993   5.215
 9934SOL    HW130701   0.019   2.083   5.172
 9934SOL    HW230702   0.107   1.954   5.219
 9935SOL     OW30703   2.771   0.461   6.257
 9935SOL    HW130704   2.703   0.505   6.199
 9935SOL    HW230705   2.816   0.388   6.205
 9936SOL     OW30706   1.313   4.208   4.262
 9936SOL    HW130707   1.243   4.153   4.308
 9936SOL    HW230708   1.348   4.158   4.183
 9937SOL     OW30709   6.609   2.598   6.195
 9937SOL    HW130710   6.685   2.545   6.232
 9937SOL    HW230711   6.586   2.564   6.103
 9938SOL     OW30712   6.890   6.175   2.519
 9938SOL    HW130713   6.922   6.248   2.579
 9938SOL    HW230714   6.944   6.092   2.534
 9939SOL     OW30715   3.172   3.451   2.825
 9939SOL    HW130716   3.077   3.447   2.855
 9939SOL    HW230717   3.208   3.543   2.842
 9940SOL     OW30718   0.200   0.705   1.167
 9940SOL    HW130719   0.127   0.700   1.099
 9940SOL    HW230720   0.279   0.752   1.128
 9941SOL     OW30721   3.387   5.515   4.510
 9941SOL    HW130722   3.440   5.599   4.518
 9941SOL    HW230723   3.379   5.489   4.413
 9942SOL     OW30724   2.421   5.765   3.997
 9942SOL    HW130725   2.456   5.721   4.080
 9942SOL    HW230726   2.321   5.762   3.997
 9943SOL     OW30727   0.545   0.094   5.030
 9943SOL    HW130728   0.558   0.172   4.969
 9943SOL    HW230729   0.448   0.077   5.043
 9944SOL     OW30730   1.571   4.286   6.614
 9944SOL    HW130731   1.533   4.278   6.706
 9944SOL    HW230732   1.639   4.214   6.599
 9945SOL     OW30733   0.317   6.101   0.283
 9945SOL    HW130734   0.316   6.127   0.186
 9945SOL    HW230735   0.349   6.006   0.291
 9946SOL     OW30736   5.880   1.572   4.755
 9946SOL    HW130737   5.912   1.482   4.727
 9946SOL    HW230738   5.782   1.569   4.775
 9947SOL     OW30739   5.960   4.638   3.041
 9947SOL    HW130740   5.982   4.639   3.139
 9947SOL    HW230741   5.893   4.566   3.022
 9948SOL     OW30742   5.631   3.419   4.228
 9948SOL    HW130743   5.619   3.335   4.282
 9948SOL    HW230744   5.727   3.428   4.201
 9949SOL     OW30745   6.292   5.216   1.837
 9949SOL    HW130746   6.293   5.316   1.830
 9949SOL    HW230747   6.206   5.187   1.879
 9950SOL     OW30748   2.998   6.304   6.646
 9950SOL    HW130749   2.999   6.403   6.635
 9950SOL    HW230750   2.917   6.276   6.697
 9951SOL     OW30751   6.429   2.516   3.043
 9951SOL    HW130752   6.399   2.428   3.080
 9951SOL    HW230753   6.395   2.525   2.949
 9952SOL     OW30754   6.802   4.884   6.149
 9952SOL    HW130755   6.715   4.919   6.185
 9952SOL    HW230756   6.869   4.958   6.149
 9953SOL     OW30757   5.478   2.731   3.717
 9953SOL    HW130758   5.529   2.726   3.803
 9953SOL    HW230759   5.430   2.645   3.702
 9954SOL     OW30760   4.047   0.573   4.582
 9954SOL    HW130761   4.010   0.635   4.651
 9954SOL    HW230762   4.074   0.626   4.501
 9955SOL     OW30763   0.656   4.884   4.441
 9955SOL    HW130764   0.592   4.835   4.500
 9955SOL    HW230765   0.649   4.847   4.348
 9956SOL     OW30766   1.111   6.369   0.216
 9956SOL    HW130767   1.196   6.332   0.256
 9956SOL    HW230768   1.033   6.337   0.270
 9957SOL     OW30769   5.503   5.776   2.094
 9957SOL    HW130770   5.497   5.697   2.033
 9957SOL    HW230771   5.412   5.801   2.126
 9958SOL     OW30772   2.998   4.459   0.787
 9958SOL    HW130773   3.090   4.469   0.748
 9958SOL    HW230774   2.951   4.547   0.782
 9959SOL     OW30775   3.546   4.038   1.319
 9959SOL    HW130776   3.527   4.031   1.221
 9959SOL    HW230777   3.530   3.950   1.363
 9960SOL     OW30778   0.607   1.364   2.455
 9960SOL    HW130779   0.594   1.463   2.457
 9960SOL    HW230780   0.589   1.330   2.362
 9961SOL     OW30781   2.092   3.896   4.902
 9961SOL    HW130782   2.050   3.841   4.974
 9961SOL    HW230783   2.180   3.931   4.934
 9962SOL     OW30784   4.949   6.608   4.103
 9962SOL    HW130785   4.902   6.535   4.152
 9962SOL    HW230786   5.046   6.608   4.127
 9963SOL     OW30787   3.412   1.288   0.978
 9963SOL    HW130788   3.359   1.220   0.929
 9963SOL    HW230789   3.397   1.277   1.076
 9964SOL     OW30790   5.240   6.484   4.832
 9964SOL    HW130791   5.218   6.551   4.761
 9964SOL    HW230792   5.183   6.403   4.821
 9965SOL     OW30793   5.155   6.807   0.348
 9965SOL    HW130794   5.218   6.740   0.386
 9965SOL    HW230795   5.201   6.896   0.342
 9966SOL     OW30796   6.209   1.067   3.231
 9966SOL    HW130797   6.130   1.067   3.292
 9966SOL    HW230798   6.290   1.037   3.282
 9967SOL     OW30799   1.016   5.215   0.624
 9967SOL    HW130800   0.965   5.269   0.690
 9967SOL    HW230801   0.953   5.155   0.574
 9968SOL     OW30802   3.167   3.711   3.102
 9968SOL    HW130803   3.133   3.638   3.161
 9968SOL    HW230804   3.113   3.794   3.116
 9969SOL     OW30805   1.239   3.411   1.384
 9969SOL    HW130806   1.182   3.344   1.433
 9969SOL    HW230807   1.335   3.387   1.396
 9970SOL     OW30808   6.261   4.668   1.666
 9970SOL    HW130809   6.187   4.694   1.728
 9970SOL    HW230810   6.285   4.572   1.682
 9971SOL     OW30811   2.765   7.018   6.639
 9971SOL    HW130812   2.766   0.035   6.550
 9971SOL    HW230813   2.822   6.936   6.636
 9972SOL     OW30814   6.640   5.183   1.242
 9972SOL    HW130815   6.712   5.156   1.305
 9972SOL    HW230816   6.603   5.102   1.196
 9973SOL     OW30817   5.522   6.952   3.537
 9973SOL    HW130818   5.425   6.944   3.557
 9973SOL    HW230819   5.541   6.915   3.446
 9974SOL     OW30820   2.472   0.091   4.241
 9974SOL    HW130821   2.477   7.025   4.274
 9974SOL    HW230822   2.533   0.149   4.295
 9975SOL     OW30823   0.068   4.549   1.010
 9975SOL    HW130824   0.037   4.557   0.915
 9975SOL    HW230825   7.022   4.574   1.072
 9976SOL     OW30826   2.839   6.436   4.933
 9976SOL    HW130827   2.852   6.521   4.984
 9976SOL    HW230828   2.843   6.359   4.997
 9977SOL     OW30829   6.112   4.406   3.483
 9977SOL    HW130830   6.036   4.348   3.514
 9977SOL    HW230831   6.194   4.384   3.535
 9978SOL     OW30832   6.912   2.370   4.732
 9978SOL    HW130833   6.909   2.386   4.831
 9978SOL    HW230834   6.828   2.406   4.690
 9979SOL     OW30835   0.916   3.884   4.878
 9979SOL    HW130836   0.909   3.976   4.840
 9979SOL    HW230837   0.963   3.888   4.966
 9980SOL     OW30838   2.527   6.311   5.952
 9980SOL    HW130839   2.443   6.332   6.001
 9980SOL    HW230840   2.587   6.392   5.952
 9981SOL     OW30841   4.001   2.135   3.742
 9981SOL    HW130842   4.013   2.154   3.840
 9981SOL    HW230843   3.940   2.057   3.730
 9982SOL     OW30844   6.516   6.438   3.133
 9982SOL    HW130845   6.587   6.480   3.075
 9982SOL    HW230846   6.444   6.400   3.075
 9983SOL     OW30847   6.334   0.922   0.858
 9983SOL    HW130848   6.360   1.015   0.879
 9983SOL    HW230849   6.260   0.923   0.790
 9984SOL     OW30850   3.001   1.123   6.371
 9984SOL    HW130851   2.902   1.124   6.360
 9984SOL    HW230852   3.025   1.097   6.464
 9985SOL     OW30853   2.325   1.636   1.602
 9985SOL    HW130854   2.375   1.551   1.590
 9985SOL    HW230855   2.329   1.689   1.517
 9986SOL     OW30856   4.723   4.199   4.764
 9986SOL    HW130857   4.717   4.239   4.855
 9986SOL    HW230858   4.736   4.100   4.772
 9987SOL     OW30859   0.472   4.356   5.399
 9987SOL    HW130860   0.513   4.447   5.407
 9987SOL    HW230861   0.379   4.364   5.364
 9988SOL     OW30862   6.649   0.489   4.378
 9988SOL    HW130863   6.737   0.442   4.369
 9988SOL    HW230864   6.590   0.464   4.301
 9989SOL     OW30865   1.419   2.994   4.708
 9989SOL    HW130866   1.395   3.075   4.762
 9989SOL    HW230867   1.488   3.019   4.640
 9990SOL     OW30868   1.543   4.950   1.704
 9990SOL    HW130869   1.567   5.045   1.724
 9990SOL    HW230870   1.482   4.947   1.624
 9991SOL     OW30871   4.017   1.947   3.342
 9991SOL    HW130872   4.012   2.020   3.273
 9991SOL    HW230873   4.091   1.967   3.406
 9992SOL     OW30874   6.245   5.478   6.112
 9992SOL    HW130875   6.174   5.415   6.083
 9992SOL    HW230876   6.322   5.475   6.048
 9993SOL     OW30877   1.260   0.391   1.853
 9993SOL    HW130878   1.268   0.402   1.754
 9993SOL    HW230879   1.313   0.463   1.898
 9994SOL     OW30880   6.470   5.131   3.166
 9994SOL    HW130881   6.430   5.052   3.212
 9994SOL    HW230882   6.561   5.149   3.204
 9995SOL     OW30883   4.958   1.140   4.891
 9995SOL    HW130884   5.014   1.057   4.885
 9995SOL    HW230885   4.924   1.164   4.800
 9996SOL     OW30886   2.587   2.997   0.258
 9996SOL    HW130887   2.639   3.068   0.211
 9996SOL    HW230888   2.497   2.989   0.216
 9997SOL     OW30889   2.146   0.659   4.225
 9997SOL    HW130890   2.092   0.623   4.302
 9997SOL    HW230891   2.227   0.602   4.212
 9998SOL     OW30892   5.786   5.993   4.947
 9998SOL    HW130893   5.867   5.944   4.979
 9998SOL    HW230894   5.724   6.009   5.024
 9999SOL     OW30895   0.096   0.851   5.052
 9999SOL    HW130896   0.126   0.885   5.141
 9999SOL    HW230897   0.093   0.751   5.053
10000SOL     OW30898   6.930   4.711   0.494
10000SOL    HW130899   7.024   4.676   0.489
10000SOL    HW230900   6.923   4.796   0.442
10001SOL     OW30901   3.884   0.196   3.278
10001SOL    HW130902   3.881   0.103   3.315
10001SOL    HW230903   3.825   0.256   3.332
10002SOL     OW30904   1.478   2.140   1.705
10002SOL    HW130905   1.420   2.132   1.625
10002SOL    HW230906   1.542   2.063   1.709
10003SOL     OW30907   5.268   3.400   2.699
10003SOL    HW130908   5.247   3.384   2.795
10003SOL    HW230909   5.185   3.431   2.651
10004SOL     OW30910   6.721   3.390   3.845
10004SOL    HW130911   6.694   3.368   3.939
10004SOL    HW230912   6.820   3.377   3.834
10005SOL     OW30913   4.571   0.183   3.865
10005SOL    HW130914   4.583   0.150   3.958
10005SOL    HW230915   4.599   0.279   3.859
10006SOL     OW30916   4.697   1.832   4.044
10006SOL    HW130917   4.662   1.740   4.061
10006SOL    HW230918   4.780   1.847   4.099
10007SOL     OW30919   5.648   4.448   4.152
10007SOL    HW130920   5.690   4.363   4.182
10007SOL    HW230921   5.673   4.466   4.057
10008SOL     OW30922   3.270   7.016   3.877
10008SOL    HW130923   3.255   6.919   3.897
10008SOL    HW230924   3.278   0.039   3.963
10009SOL     OW30925   2.464   4.505   1.261
10009SOL    HW130926   2.365   4.507   1.276
10009SOL    HW230927   2.511   4.480   1.346
10010SOL     OW30928   6.019   0.941   6.454
10010SOL    HW130929   5.947   0.899   6.509
10010SOL    HW230930   6.079   0.870   6.417
10011SOL     OW30931   6.861   6.344   3.625
10011SOL    HW130932   6.866   6.430   3.574
10011SOL    HW230933   6.884   6.268   3.564
10012SOL     OW30934   5.443   0.392   4.508
10012SOL    HW130935   5.418   0.314   4.450
10012SOL    HW230936   5.483   0.464   4.451
10013SOL     OW30937   1.508   0.596   1.616
10013SOL    HW130938   1.500   0.512   1.562
10013SOL    HW230939   1.604   0.625   1.619
10014SOL     OW30940   1.408   4.680   5.854
10014SOL    HW130941   1.502   4.711   5.838
10014SOL    HW230942   1.381   4.703   5.948
10015SOL     OW30943   2.344   5.837   6.193
10015SOL    HW130944   2.256   5.810   6.232
10015SOL    HW230945   2.371   5.771   6.123
10016SOL     OW30946   2.195   1.233   4.937
10016SOL    HW130947   2.209   1.329   4.913
10016SOL    HW230948   2.096   1.213   4.939
10017SOL     OW30949   0.257   1.832   3.721
10017SOL    HW130950   0.287   1.908   3.664
10017SOL    HW230951   0.233   1.754   3.664
10018SOL     OW30952   5.005   6.707   5.859
10018SOL    HW130953   4.956   6.626   5.828
10018SOL    HW230954   5.035   6.761   5.781
10019SOL     OW30955   0.955   0.793   2.867
10019SOL    HW130956   0.952   0.880   2.816
10019SOL    HW230957   0.943   0.812   2.964
10020SOL     OW30958   0.180   3.216   0.378
10020SOL    HW130959   0.269   3.235   0.335
10020SOL    HW230960   0.119   3.175   0.310
10021SOL     OW30961   4.888   2.837   1.273
10021SOL    HW130962   4.818   2.789   1.325
10021SOL    HW230963   4.852   2.925   1.242
10022SOL     OW30964   1.595   0.667   6.079
10022SOL    HW130965   1.630   0.758   6.099
10022SOL    HW230966   1.667   0.612   6.036
10023SOL     OW30967   0.817   3.534   0.900
10023SOL    HW130968   0.875   3.613   0.882
10023SOL    HW230969   0.816   3.516   0.998
10024SOL     OW30970   1.222   4.018   2.912
10024SOL    HW130971   1.128   4.054   2.911
10024SOL    HW230972   1.246   3.986   2.820
10025SOL     OW30973   0.514   1.310   1.094
10025SOL    HW130974   0.460   1.230   1.069
10025SOL    HW230975   0.611   1.285   1.095
10026SOL     OW30976   6.640   0.607   4.683
10026SOL    HW130977   6.564   0.672   4.681
10026SOL    HW230978   6.662   0.578   4.590
10027SOL     OW30979   5.962   2.875   5.603
10027SOL    HW130980   6.040   2.900   5.545
10027SOL    HW230981   5.877   2.901   5.558
10028SOL     OW30982   1.638   1.582   1.966
10028SOL    HW130983   1.645   1.678   1.939
10028SOL    HW230984   1.726   1.537   1.957
10029SOL     OW30985   3.581   1.292   4.005
10029SOL    HW130986   3.630   1.269   4.090
10029SOL    HW230987   3.617   1.236   3.931
10030SOL     OW30988   1.191   1.080   2.678
10030SOL    HW130989   1.266   1.027   2.719
10030SOL    HW230990   1.218   1.176   2.672
10031SOL     OW30991   6.666   4.863   3.751
10031SOL    HW130992   6.581   4.850   3.802
10031SOL    HW230993   6.654   4.937   3.686
10032SOL     OW30994   3.896   1.778   5.201
10032SOL    HW130995   3.888   1.746   5.106
10032SOL    HW230996   3.806   1.774   5.244
10033SOL     OW30997   5.452   3.271   3.810
10033SOL    HW130998   5.471   3.234   3.720
10033SOL    HW230999   5.534   3.267   3.867
10034SOL     OW31000   4.355   6.418   5.768
10034SOL    HW131001   4.354   6.473   5.684
10034SOL    HW231002   4.262   6.395   5.794
10035SOL     OW31003   0.987   6.805   3.810
10035SOL    HW131004   1.065   6.789   3.870
10035SOL    HW231005   0.903   6.780   3.858
10036SOL     OW31006   6.014   0.726   0.038
10036SOL    HW131007   6.082   0.661   0.003
10036SOL    HW231008   6.058   0.790   0.101
10037SOL     OW31009   0.084   6.864   1.390
10037SOL    HW131010   0.044   6.846   1.480
10037SOL    HW231011   0.156   6.797   1.371
10038SOL     OW31012   6.179   0.138   1.232
10038SOL    HW131013   6.210   0.122   1.138
10038SOL    HW231014   6.243   0.199   1.279
10039SOL     OW31015   4.183   1.000   2.602
10039SOL    HW131016   4.246   0.925   2.580
10039SOL    HW231017   4.228   1.088   2.586
10040SOL     OW31018   0.861   2.557   0.725
10040SOL    HW131019   0.932   2.510   0.672
10040SOL    HW231020   0.903   2.605   0.802
10041SOL     OW31021   1.294   6.960   0.395
10041SOL    HW131022   1.371   6.913   0.438
10041SOL    HW231023   1.328   7.021   0.323
10042SOL     OW31024   5.977   1.844   3.664
10042SOL    HW131025   5.906   1.861   3.732
10042SOL    HW231026   5.935   1.824   3.575
10043SOL     OW31027   1.669   2.500   5.507
10043SOL    HW131028   1.757   2.535   5.538
10043SOL    HW231029   1.602   2.509   5.580
10044SOL     OW31030   4.758   0.705   6.971
10044SOL    HW131031   4.740   0.803   6.969
10044SOL    HW231032   4.854   0.688   6.951
10045SOL     OW31033   2.309   1.125   1.154
10045SOL    HW131034   2.400   1.099   1.185
10045SOL    HW231035   2.285   1.073   1.072
10046SOL     OW31036   0.607   5.737   0.572
10046SOL    HW131037   0.644   5.769   0.659
10046SOL    HW231038   0.673   5.753   0.499
10047SOL     OW31039   1.496   3.477   0.726
10047SOL    HW131040   1.472   3.397   0.673
10047SOL    HW231041   1.570   3.455   0.790
10048SOL     OW31042   5.955   3.678   1.910
10048SOL    HW131043   5.879   3.731   1.871
10048SOL    HW231044   5.921   3.622   1.985
10049SOL     OW31045   6.472   1.715   5.017
10049SOL    HW131046   6.496   1.806   5.051
10049SOL    HW231047   6.374   1.699   5.029
10050SOL     OW31048   6.786   2.353   6.327
10050SOL    HW131049   6.882   2.381   6.332
10050SOL    HW231050   6.776   2.284   6.255
10051SOL     OW31051   1.998   1.155   3.619
10051SOL    HW131052   1.974   1.150   3.716
10051SOL    HW231053   1.931   1.212   3.571
10052SOL     OW31054   0.904   0.540   3.837
10052SOL    HW131055   0.954   0.563   3.920
10052SOL    HW231056   0.806   0.537   3.856
10053SOL     OW31057   6.243   5.752   2.856
10053SOL    HW131058   6.280   5.721   2.943
10053SOL    HW231059   6.309   5.735   2.783
10054SOL     OW31060   5.914   3.915   3.875
10054SOL    HW131061   5.930   3.816   3.873
10054SOL    HW231062   5.851   3.940   3.801
10055SOL     OW31063   1.967   1.745   6.839
10055SOL    HW131064   1.947   1.833   6.881
10055SOL    HW231065   1.981   1.757   6.741
10056SOL     OW31066   5.288   1.946   4.117
10056SOL    HW131067   5.278   1.898   4.030
10056SOL    HW231068   5.263   2.042   4.105
10057SOL     OW31069   6.056   4.201   5.307
10057SOL    HW131070   6.082   4.152   5.390
10057SOL    HW231071   5.961   4.180   5.284
10058SOL     OW31072   6.382   3.958   3.624
10058SOL    HW131073   6.290   3.921   3.609
10058SOL    HW231074   6.450   3.886   3.609
10059SOL     OW31075   5.095   5.692   6.140
10059SOL    HW131076   5.178   5.731   6.099
10059SOL    HW231077   5.108   5.681   6.239
10060SOL     OW31078   2.587   1.716   2.209
10060SOL    HW131079   2.589   1.697   2.307
10060SOL    HW231080   2.680   1.722   2.174
10061SOL     OW31081   3.764   6.878   3.124
10061SOL    HW131082   3.770   6.802   3.059
10061SOL    HW231083   3.709   6.951   3.083
10062SOL     OW31084   6.602   6.948   4.573
10062SOL    HW131085   6.570   6.951   4.668
10062SOL    HW231086   6.538   6.895   4.518
10063SOL     OW31087   3.539   2.147   4.392
10063SOL    HW131088   3.550   2.243   4.367
10063SOL    HW231089   3.621   2.116   4.441
10064SOL     OW31090   3.301   6.521   2.124
10064SOL    HW131091   3.376   6.561   2.070
10064SOL    HW231092   3.231   6.590   2.140
10065SOL     OW31093   0.029   1.904   1.928
10065SOL    HW131094   0.062   1.916   1.834
10065SOL    HW231095   0.007   1.992   1.967
10066SOL     OW31096   6.120   3.808   3.595
10066SOL    HW131097   6.114   3.740   3.523
10066SOL    HW231098   6.102   3.765   3.683
10067SOL     OW31099   5.490   3.403   5.215
10067SOL    HW131100   5.422   3.356   5.271
10067SOL    HW231101   5.539   3.337   5.158
10068SOL     OW31102   2.146   3.306   2.683
10068SOL    HW131103   2.101   3.395   2.684
10068SOL    HW231104   2.183   3.289   2.592
10069SOL     OW31105   3.048   5.022   1.832
10069SOL    HW131106   2.982   4.947   1.822
10069SOL    HW231107   3.134   4.996   1.789
10070SOL     OW31108   4.833   6.932   0.424
10070SOL    HW131109   4.796   6.930   0.517
10070SOL    HW231110   4.933   6.922   0.428
10071SOL     OW31111   5.253   0.580   5.129
10071SOL    HW131112   5.296   0.516   5.193
10071SOL    HW231113   5.209   0.654   5.180
10072SOL     OW31114   5.599   3.091   2.220
10072SOL    HW131115   5.554   3.180   2.228
10072SOL    HW231116   5.584   3.054   2.128
10073SOL     OW31117   5.894   6.082   5.250
10073SOL    HW131118   5.894   6.068   5.349
10073SOL    HW231119   5.803   6.062   5.214
10074SOL     OW31120   1.667   4.540   1.138
10074SOL    HW131121   1.646   4.594   1.220
10074SOL    HW231122   1.590   4.480   1.117
10075SOL     OW31123   1.188   3.138   2.348
10075SOL    HW131124   1.159   3.175   2.436
10075SOL    HW231125   1.285   3.158   2.334
10076SOL     OW31126   5.795   4.630   3.346
10076SOL    HW131127   5.774   4.630   3.444
10076SOL    HW231128   5.891   4.609   3.332
10077SOL     OW31129   4.149   3.650   6.565
10077SOL    HW131130   4.233   3.599   6.548
10077SOL    HW231131   4.132   3.653   6.664
10078SOL     OW31132   5.753   5.365   4.105
10078SOL    HW131133   5.851   5.384   4.104
10078SOL    HW231134   5.736   5.279   4.154
10079SOL     OW31135   5.785   5.146   2.963
10079SOL    HW131136   5.846   5.194   3.025
10079SOL    HW231137   5.708   5.107   3.015
10080SOL     OW31138   5.670   2.662   5.259
10080SOL    HW131139   5.590   2.632   5.207
10080SOL    HW231140   5.721   2.729   5.206
10081SOL     OW31141   1.562   5.037   0.791
10081SOL    HW131142   1.636   5.065   0.729
10081SOL    HW231143   1.549   4.938   0.784
10082SOL     OW31144   0.999   4.694   1.611
10082SOL    HW131145   1.002   4.594   1.601
10082SOL    HW231146   1.091   4.729   1.626
10083SOL     OW31147   3.000   6.345   2.516
10083SOL    HW131148   3.013   6.272   2.450
10083SOL    HW231149   2.902   6.366   2.522
10084SOL     OW31150   1.766   3.016   5.265
10084SOL    HW131151   1.763   2.981   5.171
10084SOL    HW231152   1.858   3.048   5.286
10085SOL     OW31153   3.691   6.951   1.377
10085SOL    HW131154   3.723   6.859   1.395
10085SOL    HW231155   3.765   7.005   1.336
10086SOL     OW31156   3.265   0.716   2.973
10086SOL    HW131157   3.228   0.650   2.907
10086SOL    HW231158   3.355   0.686   3.004
10087SOL     OW31159   1.848   4.941   6.101
10087SOL    HW131160   1.799   4.943   6.014
10087SOL    HW231161   1.944   4.917   6.085
10088SOL     OW31162   6.022   1.636   0.875
10088SOL    HW131163   5.957   1.562   0.892
10088SOL    HW231164   6.113   1.608   0.907
10089SOL     OW31165   3.838   6.613   2.019
10089SOL    HW131166   3.798   6.703   2.036
10089SOL    HW231167   3.779   6.562   1.956
10090SOL     OW31168   2.906   5.418   1.880
10090SOL    HW131169   2.998   5.436   1.917
10090SOL    HW231170   2.861   5.348   1.936
10091SOL     OW31171   5.637   5.604   2.826
10091SOL    HW131172   5.657   5.506   2.822
10091SOL    HW231173   5.545   5.618   2.864
10092SOL     OW31174   0.167   1.153   2.584
10092SOL    HW131175   0.157   1.116   2.491
10092SOL    HW231176   0.076   1.178   2.619
10093SOL     OW31177   4.500   4.274   6.074
10093SOL    HW131178   4.423   4.320   6.029
10093SOL    HW231179   4.465   4.212   6.145
10094SOL     OW31180   3.622   2.497   0.852
10094SOL    HW131181   3.575   2.508   0.940
10094SOL    HW231182   3.711   2.543   0.855
10095SOL     OW31183   4.388   2.658   5.274
10095SOL    HW131184   4.291   2.652   5.251
10095SOL    HW231185   4.412   2.753   5.295
10096SOL     OW31186   6.733   4.948   2.001
10096SOL    HW131187   6.830   4.926   2.013
10096SOL    HW231188   6.683   4.926   2.085
10097SOL     OW31189   1.141   1.202   1.064
10097SOL    HW131190   1.129   1.104   1.047
10097SOL    HW231191   1.186   1.215   1.153
10098SOL     OW31192   4.248   5.215   0.071
10098SOL    HW131193   4.229   5.135   0.128
10098SOL    HW231194   4.167   5.274   0.069
10099SOL     OW31195   6.930   6.144   3.450
10099SOL    HW131196   6.959   6.190   3.366
10099SOL    HW231197   7.010   6.103   3.494
10100SOL     OW31198   5.070   5.077   3.957
10100SOL    HW131199   4.986   5.124   3.929
10100SOL    HW231200   5.103   5.116   4.042
10101SOL     OW31201   6.936   2.560   7.024
10101SOL    HW131202   6.946   2.507   6.939
10101SOL    HW231203   6.934   2.497   0.073
10102SOL     OW31204   0.003   4.837   3.037
10102SOL    HW131205   0.080   4.784   3.072
10102SOL    HW231206   0.034   4.898   2.965
10103SOL     OW31207   6.992   0.105   7.008
10103SOL    HW131208   6.986   0.184   6.948
10103SOL    HW231209   0.058   0.074   7.014
10104SOL     OW31210   2.247   1.512   4.864
10104SOL    HW131211   2.294   1.522   4.777
10104SOL    HW231212   2.301   1.557   4.936
10105SOL     OW31213   3.003   1.413   4.483
10105SOL    HW131214   2.986   1.509   4.458
10105SOL    HW231215   2.988   1.401   4.581
10106SOL     OW31216   5.977   3.925   1.188
10106SOL    HW131217   5.978   3.861   1.265
10106SOL    HW231218   6.069   3.931   1.149
10107SOL     OW31219   5.076   5.937   5.856
10107SOL    HW131220   5.118   6.017   5.814
10107SOL    HW231221   5.047   5.959   5.949
10108SOL     OW31222   2.425   2.088   5.140
10108SOL    HW131223   2.341   2.050   5.101
10108SOL    HW231224   2.418   2.088   5.240
10109SOL     OW31225   0.954   3.097   1.429
10109SOL    HW131226   1.005   3.122   1.347
10109SOL    HW231227   0.899   3.015   1.410
10110SOL     OW31228   6.067   6.593   2.207
10110SOL    HW131229   6.092   6.538   2.286
10110SOL    HW231230   6.077   6.539   2.124
10111SOL     OW31231   0.234   2.886   1.660
10111SOL    HW131232   0.166   2.814   1.647
10111SOL    HW231233   0.263   2.921   1.571
10112SOL     OW31234   6.967   3.059   4.074
10112SOL    HW131235   6.974   2.960   4.075
10112SOL    HW231236   0.005   3.097   4.010
10113SOL     OW31237   6.980   6.169   6.600
10113SOL    HW131238   6.993   6.180   6.501
10113SOL    HW231239   6.940   6.079   6.619
10114SOL     OW31240   5.266   4.079   1.518
10114SOL    HW131241   5.252   4.133   1.601
10114SOL    HW231242   5.307   4.137   1.447
10115SOL     OW31243   3.954   1.657   6.748
10115SOL    HW131244   3.880   1.611   6.699
10115SOL    HW231245   3.920   1.744   6.785
10116SOL     OW31246   0.297   0.017   6.572
10116SOL    HW131247   0.385   7.006   6.545
10116SOL    HW231248   0.313   0.095   6.633
10117SOL     OW31249   0.255   4.419   1.440
10117SOL    HW131250   0.290   4.466   1.359
10117SOL    HW231251   0.329   4.366   1.482
10118SOL     OW31252   4.139   5.064   3.582
10118SOL    HW131253   4.135   5.002   3.504
10118SOL    HW231254   4.125   5.158   3.552
10119SOL     OW31255   5.864   6.176   6.758
10119SOL    HW131256   5.833   6.241   6.827
10119SOL    HW231257   5.831   6.084   6.782
10120SOL     OW31258   2.399   2.539   3.041
10120SOL    HW131259   2.445   2.512   3.126
10120SOL    HW231260   2.456   2.512   2.963
10121SOL     OW31261   6.568   5.636   1.466
10121SOL    HW131262   6.579   5.673   1.374
10121SOL    HW231263   6.501   5.691   1.516
10122SOL     OW31264   1.741   0.320   3.313
10122SOL    HW131265   1.682   0.257   3.363
10122SOL    HW231266   1.741   0.409   3.358
10123SOL     OW31267   6.208   6.458   6.807
10123SOL    HW131268   6.197   6.363   6.778
10123SOL    HW231269   6.246   6.512   6.732
10124SOL     OW31270   0.950   4.433   3.307
10124SOL    HW131271   0.949   4.377   3.224
10124SOL    HW231272   1.044   4.447   3.338
10125SOL     OW31273   1.721   1.812   4.856
10125SOL    HW131274   1.725   1.866   4.940
10125SOL    HW231275   1.812   1.776   4.835
10126SOL     OW31276   6.633   6.093   4.514
10126SOL    HW131277   6.571   6.145   4.455
10126SOL    HW231278   6.719   6.142   4.524
10127SOL     OW31279   2.178   0.866   5.029
10127SOL    HW131280   2.192   0.784   4.973
10127SOL    HW231281   2.262   0.921   5.029
10128SOL     OW31282   3.175   1.019   0.449
10128SOL    HW131283   3.195   1.114   0.424
10128SOL    HW231284   3.081   0.997   0.422
10129SOL     OW31285   6.677   2.039   5.507
10129SOL    HW131286   6.578   2.030   5.500
10129SOL    HW231287   6.721   1.967   5.454
10130SOL     OW31288   1.222   2.760   3.132
10130SOL    HW131289   1.209   2.840   3.073
10130SOL    HW231290   1.317   2.730   3.127
10131SOL     OW31291   2.072   0.995   5.271
10131SOL    HW131292   2.089   0.981   5.174
10131SOL    HW231293   2.040   0.910   5.312
10132SOL     OW31294   5.995   0.587   2.175
10132SOL    HW131295   6.026   0.588   2.079
10132SOL    HW231296   6.029   0.668   2.222
10133SOL     OW31297   4.684   5.146   1.149
10133SOL    HW131298   4.609   5.180   1.206
10133SOL    HW231299   4.667   5.050   1.125
10134SOL     OW31300   6.353   0.450   3.041
10134SOL    HW131301   6.314   0.470   2.951
10134SOL    HW231302   6.447   0.483   3.045
10135SOL     OW31303   5.959   6.598   3.497
10135SOL    HW131304   5.912   6.685   3.512
10135SOL    HW231305   6.022   6.581   3.573
10136SOL     OW31306   4.762   0.855   2.789
10136SOL    HW131307   4.815   0.832   2.708
10136SOL    HW231308   4.823   0.878   2.864
10137SOL     OW31309   6.496   5.807   3.066
10137SOL    HW131310   6.408   5.799   3.113
10137SOL    HW231311   6.570   5.808   3.133
10138SOL     OW31312   0.351   1.834   2.273
10138SOL    HW131313   0.349   1.740   2.306
10138SOL    HW231314   0.260   1.859   2.238
10139SOL     OW31315   4.007   2.536   1.104
10139SOL    HW131316   3.931   2.576   1.154
10139SOL    HW231317   4.018   2.440   1.130
10140SOL     OW31318   5.985   6.742   4.114
10140SOL    HW131319   5.966   6.816   4.178
10140SOL    HW231320   5.929   6.754   4.032
10141SOL     OW31321   0.855   2.012   4.362
10141SOL    HW131322   0.802   2.095   4.383
10141SOL    HW231323   0.793   1.933   4.360
10142SOL     OW31324   4.285   6.156   1.591
10142SOL    HW131325   4.236   6.074   1.561
10142SOL    HW231326   4.252   6.183   1.681
10143SOL     OW31327   6.580   3.299   6.955
10143SOL    HW131328   6.525   3.373   6.994
10143SOL    HW231329   6.527   3.214   6.955
10144SOL     OW31330   4.010   0.952   1.319
10144SOL    HW131331   4.066   0.985   1.243
10144SOL    HW231332   3.964   0.868   1.292
10145SOL     OW31333   6.375   0.381   5.176
10145SOL    HW131334   6.421   0.362   5.263
10145SOL    HW231335   6.383   0.301   5.117
10146SOL     OW31336   1.655   1.280   5.548
10146SOL    HW131337   1.577   1.218   5.558
10146SOL    HW231338   1.739   1.227   5.539
10147SOL     OW31339   3.353   4.874   0.636
10147SOL    HW131340   3.451   4.893   0.638
10147SOL    HW231341   3.311   4.927   0.562
10148SOL     OW31342   0.278   5.490   6.269
10148SOL    HW131343   0.178   5.488   6.261
10148SOL    HW231344   0.311   5.399   6.294
10149SOL     OW31345   2.958   3.406   3.653
10149SOL    HW131346   3.001   3.316   3.651
10149SOL    HW231347   2.973   3.448   3.742
10150SOL     OW31348   5.716   4.484   0.173
10150SOL    HW131349   5.659   4.565   0.178
10150SOL    HW231350   5.789   4.491   0.241
10151SOL     OW31351   0.365   0.900   0.529
10151SOL    HW131352   0.277   0.869   0.493
10151SOL    HW231353   0.354   0.929   0.624
10152SOL     OW31354   3.161   6.599   3.613
10152SOL    HW131355   3.253   6.597   3.573
10152SOL    HW231356   3.094   6.620   3.541
10153SOL     OW31357   4.955   3.953   1.278
10153SOL    HW131358   4.905   4.026   1.233
10153SOL    HW231359   4.895   3.905   1.342
10154SOL     OW31360   4.666   5.462   5.804
10154SOL    HW131361   4.642   5.557   5.785
10154SOL    HW231362   4.730   5.429   5.735
10155SOL     OW31363   4.862   2.584   4.737
10155SOL    HW131364   4.789   2.542   4.790
10155SOL    HW231365   4.896   2.519   4.669
10156SOL     OW31366   3.415   1.688   6.807
10156SOL    HW131367   3.502   1.654   6.843
10156SOL    HW231368   3.404   1.784   6.833
10157SOL     OW31369   0.709   5.078   1.763
10157SOL    HW131370   0.639   5.090   1.693
10157SOL    HW231371   0.771   5.157   1.762
10158SOL     OW31372   6.429   4.966   6.683
10158SOL    HW131373   6.510   4.963   6.625
10158SOL    HW231374   6.426   4.885   6.742
10159SOL     OW31375   3.833   3.131   1.764
10159SOL    HW131376   3.777   3.214   1.761
10159SOL    HW231377   3.925   3.152   1.734
10160SOL     OW31378   0.049   4.372   2.660
10160SOL    HW131379   0.128   4.386   2.720
10160SOL    HW231380   0.006   4.284   2.683
10161SOL     OW31381   6.456   3.018   0.247
10161SOL    HW131382   6.509   3.100   0.269
10161SOL    HW231383   6.405   3.033   0.162
10162SOL     OW31384   2.340   2.456   1.866
10162SOL    HW131385   2.253   2.423   1.901
10162SOL    HW231386   2.349   2.553   1.887
10163SOL     OW31387   3.397   5.563   4.841
10163SOL    HW131388   3.480   5.611   4.870
10163SOL    HW231389   3.417   5.510   4.759
10164SOL     OW31390   0.204   0.692   3.930
10164SOL    HW131391   0.148   0.694   4.013
10164SOL    HW231392   0.172   0.619   3.870
10165SOL     OW31393   2.113   3.205   3.969
10165SOL    HW131394   2.099   3.245   3.878
10165SOL    HW231395   2.030   3.219   4.024
10166SOL     OW31396   2.841   6.422   3.107
10166SOL    HW131397   2.924   6.415   3.052
10166SOL    HW231398   2.815   6.332   3.141
10167SOL     OW31399   4.055   1.489   6.936
10167SOL    HW131400   3.998   1.407   6.935
10167SOL    HW231401   4.016   1.557   6.874
10168SOL     OW31402   0.759   1.100   6.711
10168SOL    HW131403   0.741   1.071   6.805
10168SOL    HW231404   0.791   1.194   6.711
10169SOL     OW31405   4.517   4.982   2.668
10169SOL    HW131406   4.484   5.063   2.716
10169SOL    HW231407   4.616   4.975   2.680
10170SOL     OW31408   4.916   6.098   6.724
10170SOL    HW131409   4.999   6.141   6.690
10170SOL    HW231410   4.848   6.168   6.744
10171SOL     OW31411   1.624   4.039   3.390
10171SOL    HW131412   1.631   3.944   3.359
10171SOL    HW231413   1.714   4.072   3.416
10172SOL     OW31414   0.416   1.306   3.388
10172SOL    HW131415   0.405   1.261   3.477
10172SOL    HW231416   0.461   1.242   3.324
10173SOL     OW31417   4.591   2.716   5.031
10173SOL    HW131418   4.539   2.749   5.109
10173SOL    HW231419   4.648   2.791   4.995
10174SOL     OW31420   4.955   4.587   1.249
10174SOL    HW131421   4.970   4.533   1.332
10174SOL    HW231422   4.873   4.643   1.259
10175SOL     OW31423   6.287   0.073   3.402
10175SOL    HW131424   6.301   0.103   3.308
10175SOL    HW231425   6.341   0.129   3.464
10176SOL     OW31426   6.861   1.445   5.151
10176SOL    HW131427   6.858   1.361   5.096
10176SOL    HW231428   6.768   1.478   5.166
10177SOL     OW31429   3.015   0.902   4.330
10177SOL    HW131430   2.964   0.976   4.287
10177SOL    HW231431   2.951   0.836   4.369
10178SOL     OW31432   6.959   1.586   2.501
10178SOL    HW131433   6.948   1.684   2.516
10178SOL    HW231434   6.948   1.566   2.404
10179SOL     OW31435   0.293   5.956   0.671
10179SOL    HW131436   0.349   5.918   0.745
10179SOL    HW231437   0.204   5.982   0.706
10180SOL     OW31438   2.195   0.118   6.224
10180SOL    HW131439   2.219   0.165   6.309
10180SOL    HW231440   2.199   0.019   6.238
10181SOL     OW31441   6.725   4.010   2.331
10181SOL    HW131442   6.811   3.962   2.311
10181SOL    HW231443   6.650   3.943   2.335
10182SOL     OW31444   3.457   6.781   6.598
10182SOL    HW131445   3.466   6.756   6.502
10182SOL    HW231446   3.380   6.732   6.639
10183SOL     OW31447   3.951   6.132   6.188
10183SOL    HW131448   3.980   6.222   6.154
10183SOL    HW231449   4.031   6.077   6.207
10184SOL     OW31450   4.860   2.249   4.082
10184SOL    HW131451   4.764   2.276   4.092
10184SOL    HW231452   4.879   2.170   4.140
10185SOL     OW31453   3.013   4.843   2.042
10185SOL    HW131454   2.970   4.767   1.992
10185SOL    HW231455   3.020   4.923   1.981
10186SOL     OW31456   3.598   2.947   1.644
10186SOL    HW131457   3.681   2.987   1.607
10186SOL    HW231458   3.608   2.933   1.742
10187SOL     OW31459   1.656   3.870   5.680
10187SOL    HW131460   1.616   3.791   5.634
10187SOL    HW231461   1.630   3.871   5.776
10188SOL     OW31462   2.308   0.413   6.637
10188SOL    HW131463   2.272   0.343   6.699
10188SOL    HW231464   2.314   0.500   6.686
10189SOL     OW31465   1.996   1.913   5.201
10189SOL    HW131466   1.918   1.855   5.179
10189SOL    HW231467   1.979   2.006   5.169
10190SOL     OW31468   3.357   3.826   0.835
10190SOL    HW131469   3.300   3.782   0.905
10190SOL    HW231470   3.394   3.756   0.773
10191SOL     OW31471   5.727   0.650   0.215
10191SOL    HW131472   5.780   0.696   0.144
10191SOL    HW231473   5.682   0.718   0.273
10192SOL     OW31474   2.695   0.291   4.340
10192SOL    HW131475   2.765   0.234   4.382
10192SOL    HW231476   2.664   0.360   4.405
10193SOL     OW31477   4.126   3.372   3.837
10193SOL    HW131478   4.109   3.298   3.772
10193SOL    HW231479   4.144   3.334   3.927
10194SOL     OW31480   3.107   5.803   3.401
10194SOL    HW131481   3.073   5.896   3.388
10194SOL    HW231482   3.202   5.798   3.369
10195SOL     OW31483   5.239   0.316   2.280
10195SOL    HW131484   5.329   0.338   2.240
10195SOL    HW231485   5.232   0.218   2.293
10196SOL     OW31486   4.437   4.561   3.860
10196SOL    HW131487   4.517   4.501   3.858
10196SOL    HW231488   4.449   4.631   3.931
10197SOL     OW31489   5.143   1.841   2.888
10197SOL    HW131490   5.074   1.795   2.832
10197SOL    HW231491   5.118   1.937   2.899
10198SOL     OW31492   3.385   1.891   1.970
10198SOL    HW131493   3.418   1.882   1.876
10198SOL    HW231494   3.305   1.950   1.972
10199SOL     OW31495   1.440   1.680   0.103
10199SOL    HW131496   1.526   1.726   0.123
10199SOL    HW231497   1.368   1.748   0.091
10200SOL     OW31498   5.677   0.017   3.738
10200SOL    HW131499   5.638   7.021   3.649
10200SOL    HW231500   5.775   0.035   3.727
10201SOL     OW31501   1.122   5.042   2.919
10201SOL    HW131502   1.083   4.975   2.857
10201SOL    HW231503   1.058   5.118   2.931
10202SOL     OW31504   1.287   2.279   3.549
10202SOL    HW131505   1.224   2.285   3.471
10202SOL    HW231506   1.277   2.360   3.606
10203SOL     OW31507   6.755   2.515   1.002
10203SOL    HW131508   6.702   2.468   0.931
10203SOL    HW231509   6.729   2.481   1.092
10204SOL     OW31510   1.947   6.201   4.167
10204SOL    HW131511   1.953   6.265   4.243
10204SOL    HW231512   2.032   6.204   4.113
10205SOL     OW31513   3.134   6.825   0.920
10205SOL    HW131514   3.083   6.911   0.929
10205SOL    HW231515   3.177   6.803   1.008
10206SOL     OW31516   5.730   6.294   6.969
10206SOL    HW131517   5.815   6.325   7.011
10206SOL    HW231518   5.652   6.319   7.028
10207SOL     OW31519   3.449   1.349   2.495
10207SOL    HW131520   3.368   1.361   2.553
10207SOL    HW231521   3.508   1.429   2.502
10208SOL     OW31522   0.157   2.595   6.398
10208SOL    HW131523   0.164   2.627   6.493
10208SOL    HW231524   0.097   2.656   6.347
10209SOL     OW31525   3.975   6.198   0.033
10209SOL    HW131526   3.877   6.179   0.038
10209SOL    HW231527   4.008   6.180   6.969
10210SOL     OW31528   4.766   6.333   6.761
10210SOL    HW131529   4.816   6.419   6.768
10210SOL    HW231530   4.712   6.319   6.844
10211SOL     OW31531   3.521   5.279   4.994
10211SOL    HW131532   3.621   5.272   5.000
10211SOL    HW231533   3.496   5.348   4.927
10212SOL     OW31534   6.278   6.099   5.627
10212SOL    HW131535   6.364   6.146   5.609
10212SOL    HW231536   6.257   6.039   5.550
10213SOL     OW31537   3.995   0.202   4.325
10213SOL    HW131538   4.093   0.188   4.310
10213SOL    HW231539   3.962   0.134   4.391
10214SOL     OW31540   0.128   0.791   0.409
10214SOL    HW131541   0.131   0.718   0.340
10214SOL    HW231542   0.051   0.852   0.389
10215SOL     OW31543   4.505   2.654   0.388
10215SOL    HW131544   4.441   2.731   0.387
10215SOL    HW231545   4.479   2.591   0.461
10216SOL     OW31546   5.203   0.684   2.514
10216SOL    HW131547   5.135   0.610   2.523
10216SOL    HW231548   5.197   0.724   2.423
10217SOL     OW31549   2.981   2.197   5.889
10217SOL    HW131550   2.929   2.198   5.804
10217SOL    HW231551   2.947   2.123   5.947
10218SOL     OW31552   3.958   0.686   6.545
10218SOL    HW131553   4.051   0.687   6.580
10218SOL    HW231554   3.908   0.765   6.580
10219SOL     OW31555   0.180   4.881   0.131
10219SOL    HW131556   0.213   4.964   0.086
10219SOL    HW231557   0.229   4.869   0.218
10220SOL     OW31558   4.038   2.401   6.726
10220SOL    HW131559   4.069   2.415   6.820
10220SOL    HW231560   3.987   2.482   6.696
10221SOL     OW31561   2.529   0.717   4.304
10221SOL    HW131562   2.481   0.649   4.249
10221SOL    HW231563   2.614   0.743   4.260
10222SOL     OW31564   2.461   4.663   5.162
10222SOL    HW131565   2.534   4.599   5.183
10222SOL    HW231566   2.372   4.619   5.178
10223SOL     OW31567   1.026   4.692   5.982
10223SOL    HW131568   1.119   4.663   5.959
10223SOL    HW231569   1.030   4.763   6.052
10224SOL     OW31570   3.353   5.705   5.584
10224SOL    HW131571   3.423   5.774   5.562
10224SOL    HW231572   3.280   5.709   5.515
10225SOL     OW31573   5.366   6.972   4.465
10225SOL    HW131574   5.344   6.895   4.406
10225SOL    HW231575   5.296   6.981   4.536
10226SOL     OW31576   0.074   2.347   6.304
10226SOL    HW131577   0.113   2.272   6.357
10226SOL    HW231578   0.130   2.429   6.317
10227SOL     OW31579   4.743   4.485   5.349
10227SOL    HW131580   4.661   4.439   5.315
10227SOL    HW231581   4.824   4.434   5.320
10228SOL     OW31582   1.003   2.560   1.604
10228SOL    HW131583   1.103   2.556   1.594
10228SOL    HW231584   0.975   2.655   1.617
10229SOL     OW31585   2.830   1.129   1.874
10229SOL    HW131586   2.930   1.128   1.879
10229SOL    HW231587   2.792   1.164   1.960
10230SOL     OW31588   5.508   6.913   3.180
10230SOL    HW131589   5.478   6.835   3.125
10230SOL    HW231590   5.602   6.937   3.156
10231SOL     OW31591   4.826   5.805   4.653
10231SOL    HW131592   4.924   5.816   4.667
10231SOL    HW231593   4.776   5.876   4.702
10232SOL     OW31594   4.309   2.302   3.215
10232SOL    HW131595   4.362   2.217   3.215
10232SOL    HW231596   4.212   2.281   3.230
10233SOL     OW31597   4.758   6.540   5.511
10233SOL    HW131598   4.820   6.618   5.516
10233SOL    HW231599   4.803   6.465   5.463
10234SOL     OW31600   4.328   4.365   1.022
10234SOL    HW131601   4.259   4.361   1.095
10234SOL    HW231602   4.305   4.439   0.959
10235SOL     OW31603   4.559   0.181   0.022
10235SOL    HW131604   4.486   0.171   0.090
10235SOL    HW231605   4.597   0.273   0.028
10236SOL     OW31606   1.307   5.001   1.217
10236SOL    HW131607   1.244   4.987   1.141
10236SOL    HW231608   1.332   5.098   1.222
10237SOL     OW31609   5.938   2.909   3.218
10237SOL    HW131610   5.840   2.904   3.197
10237SOL    HW231611   5.956   2.854   3.300
10238SOL     OW31612   4.937   5.349   6.215
10238SOL    HW131613   5.015   5.336   6.153
10238SOL    HW231614   4.852   5.349   6.161
10239SOL     OW31615   5.384   3.298   4.589
10239SOL    HW131616   5.441   3.328   4.665
10239SOL    HW231617   5.402   3.202   4.569
10240SOL     OW31618   5.075   3.697   2.781
10240SOL    HW131619   5.154   3.748   2.815
10240SOL    HW231620   5.038   3.641   2.855
10241SOL     OW31621   1.378   2.505   2.912
10241SOL    HW131622   1.342   2.511   2.819
10241SOL    HW231623   1.450   2.574   2.924
10242SOL     OW31624   1.267   5.345   6.509
10242SOL    HW131625   1.284   5.250   6.537
10242SOL    HW231626   1.181   5.377   6.549
10243SOL     OW31627   0.465   5.730   3.534
10243SOL    HW131628   0.372   5.700   3.554
10243SOL    HW231629   0.530   5.669   3.579
10244SOL     OW31630   2.424   5.765   6.914
10244SOL    HW131631   2.391   5.832   6.981
10244SOL    HW231632   2.523   5.777   6.902
10245SOL     OW31633   3.432   3.045   0.601
10245SOL    HW131634   3.409   2.973   0.666
10245SOL    HW231635   3.359   3.054   0.534
10246SOL     OW31636   3.931   4.094   4.973
10246SOL    HW131637   3.985   4.010   4.984
10246SOL    HW231638   3.837   4.069   4.950
10247SOL     OW31639   1.619   5.860   6.430
10247SOL    HW131640   1.576   5.832   6.515
10247SOL    HW231641   1.688   5.930   6.448
10248SOL     OW31642   5.852   0.706   3.910
10248SOL    HW131643   5.805   0.702   3.998
10248SOL    HW231644   5.951   0.712   3.925
10249SOL     OW31645   4.825   0.774   6.313
10249SOL    HW131646   4.745   0.815   6.356
10249SOL    HW231647   4.823   0.795   6.215
10250SOL     OW31648   4.450   5.707   0.893
10250SOL    HW131649   4.428   5.610   0.907
10250SOL    HW231650   4.449   5.727   0.795
10251SOL     OW31651   4.074   4.363   1.183
10251SOL    HW131652   3.992   4.306   1.194
10251SOL    HW231653   4.055   4.455   1.219
10252SOL     OW31654   0.303   3.991   0.745
10252SOL    HW131655   0.263   4.068   0.794
10252SOL    HW231656   0.275   3.905   0.788
10253SOL     OW31657   4.358   4.240   0.052
10253SOL    HW131658   4.423   4.226   0.127
10253SOL    HW231659   4.335   4.337   0.045
10254SOL     OW31660   2.795   1.937   5.241
10254SOL    HW131661   2.704   1.920   5.202
10254SOL    HW231662   2.812   1.873   5.315
10255SOL     OW31663   3.383   4.919   4.088
10255SOL    HW131664   3.292   4.885   4.063
10255SOL    HW231665   3.386   4.937   4.187
10256SOL     OW31666   5.489   5.831   0.134
10256SOL    HW131667   5.403   5.861   0.091
10256SOL    HW231668   5.468   5.761   0.202
10257SOL     OW31669   1.764   4.453   5.630
10257SOL    HW131670   1.824   4.449   5.550
10257SOL    HW231671   1.788   4.380   5.694
10258SOL     OW31672   4.791   1.123   2.439
10258SOL    HW131673   4.784   1.141   2.341
10258SOL    HW231674   4.710   1.158   2.485
10259SOL     OW31675   6.641   3.462   4.477
10259SOL    HW131676   6.718   3.484   4.416
10259SOL    HW231677   6.605   3.372   4.454
10260SOL     OW31678   0.223   5.620   2.104
10260SOL    HW131679   0.200   5.628   2.007
10260SOL    HW231680   0.306   5.565   2.114
10261SOL     OW31681   2.117   0.414   1.957
10261SOL    HW131682   2.048   0.342   1.967
10261SOL    HW231683   2.200   0.375   1.919
10262SOL     OW31684   0.113   6.409   4.149
10262SOL    HW131685   0.126   6.406   4.049
10262SOL    HW231686   0.109   6.504   4.179
10263SOL     OW31687   6.551   3.199   4.496
10263SOL    HW131688   6.620   3.152   4.441
10263SOL    HW231689   6.581   3.202   4.591
10264SOL     OW31690   0.848   0.430   0.568
10264SOL    HW131691   0.798   0.346   0.548
10264SOL    HW231692   0.939   0.407   0.603
10265SOL     OW31693   4.984   2.495   4.018
10265SOL    HW131694   5.002   2.544   4.104
10265SOL    HW231695   4.945   2.405   4.039
10266SOL     OW31696   3.437   3.717   0.103
10266SOL    HW131697   3.498   3.661   0.159
10266SOL    HW231698   3.347   3.674   0.100
10267SOL     OW31699   7.017   0.897   6.620
10267SOL    HW131700   6.938   0.953   6.596
10267SOL    HW231701   0.037   0.870   6.537
10268SOL     OW31702   6.840   4.008   0.456
10268SOL    HW131703   6.840   4.059   0.370
10268SOL    HW231704   6.923   3.952   0.461
10269SOL     OW31705   4.063   1.772   6.009
10269SOL    HW131706   4.013   1.688   5.987
10269SOL    HW231707   4.114   1.759   6.094
10270SOL     OW31708   3.788   6.087   2.907
10270SOL    HW131709   3.769   6.125   2.816
10270SOL    HW231710   3.704   6.090   2.961
10271SOL     OW31711   2.031   4.726   1.424
10271SOL    HW131712   2.076   4.802   1.472
10271SOL    HW231713   1.966   4.681   1.486
10272SOL     OW31714   1.910   3.002   4.046
10272SOL    HW131715   1.866   2.913   4.055
10272SOL    HW231716   1.902   3.034   3.951
10273SOL     OW31717   4.674   6.245   3.809
10273SOL    HW131718   4.576   6.233   3.793
10273SOL    HW231719   4.689   6.265   3.906
10274SOL     OW31720   2.318   4.340   6.552
10274SOL    HW131721   2.267   4.302   6.475
10274SOL    HW231722   2.318   4.275   6.628
10275SOL     OW31723   1.005   5.865   1.713
10275SOL    HW131724   1.100   5.870   1.684
10275SOL    HW231725   0.989   5.777   1.758
10276SOL     OW31726   1.345   0.118   0.207
10276SOL    HW131727   1.255   0.143   0.244
10276SOL    HW231728   1.402   0.200   0.202
10277SOL     OW31729   6.865   6.076   2.000
10277SOL    HW131730   6.918   6.065   2.084
10277SOL    HW231731   6.807   5.996   1.987
10278SOL     OW31732   6.221   1.141   5.504
10278SOL    HW131733   6.310   1.160   5.463
10278SOL    HW231734   6.148   1.169   5.441
10279SOL     OW31735   3.849   6.011   4.123
10279SOL    HW131736   3.750   6.026   4.122
10279SOL    HW231737   3.893   6.085   4.174
10280SOL     OW31738   2.467   2.713   0.355
10280SOL    HW131739   2.380   2.671   0.329
10280SOL    HW231740   2.476   2.802   0.312
10281SOL     OW31741   4.344   0.863   4.434
10281SOL    HW131742   4.286   0.808   4.373
10281SOL    HW231743   4.286   0.924   4.488
10282SOL     OW31744   1.694   3.310   4.273
10282SOL    HW131745   1.718   3.214   4.288
10282SOL    HW231746   1.778   3.365   4.273
10283SOL     OW31747   1.639   5.285   5.962
10283SOL    HW131748   1.579   5.204   5.965
10283SOL    HW231749   1.734   5.255   5.959
10284SOL     OW31750   5.024   2.912   0.254
10284SOL    HW131751   5.042   2.970   0.175
10284SOL    HW231752   4.969   2.833   0.226
10285SOL     OW31753   5.192   1.364   1.311
10285SOL    HW131754   5.158   1.458   1.316
10285SOL    HW231755   5.226   1.346   1.219
10286SOL     OW31756   3.422   0.117   4.115
10286SOL    HW131757   3.513   0.105   4.075
10286SOL    HW231758   3.405   0.215   4.131
10287SOL     OW31759   2.278   4.231   1.975
10287SOL    HW131760   2.263   4.327   1.951
10287SOL    HW231761   2.357   4.196   1.925
10288SOL     OW31762   4.182   5.853   4.187
10288SOL    HW131763   4.193   5.907   4.103
10288SOL    HW231764   4.116   5.780   4.172
10289SOL     OW31765   2.743   1.607   1.549
10289SOL    HW131766   2.775   1.578   1.640
10289SOL    HW231767   2.820   1.606   1.486
10290SOL     OW31768   3.250   2.984   3.276
10290SOL    HW131769   3.207   2.896   3.295
10290SOL    HW231770   3.349   2.972   3.267
10291SOL     OW31771   3.765   0.219   4.191
10291SOL    HW131772   3.683   0.223   4.247
10291SOL    HW231773   3.846   0.230   4.249
10292SOL     OW31774   6.852   2.570   3.919
10292SOL    HW131775   6.781   2.515   3.875
10292SOL    HW231776   6.913   2.509   3.971
10293SOL     OW31777   1.883   4.768   2.769
10293SOL    HW131778   1.830   4.683   2.771
10293SOL    HW231779   1.839   4.834   2.709
10294SOL     OW31780   5.622   0.802   3.269
10294SOL    HW131781   5.715   0.775   3.243
10294SOL    HW231782   5.596   0.753   3.352
10295SOL     OW31783   1.901   3.769   3.322
10295SOL    HW131784   1.869   3.804   3.410
10295SOL    HW231785   1.998   3.791   3.311
10296SOL     OW31786   6.044   3.391   1.527
10296SOL    HW131787   6.025   3.335   1.607
10296SOL    HW231788   5.966   3.390   1.465
10297SOL     OW31789   3.810   5.006   4.974
10297SOL    HW131790   3.751   4.989   4.895
10297SOL    HW231791   3.798   5.101   5.004
10298SOL     OW31792   5.830   3.219   2.994
10298SOL    HW131793   5.758   3.281   3.024
10298SOL    HW231794   5.897   3.270   2.940
10299SOL     OW31795   4.134   4.844   2.080
10299SOL    HW131796   4.229   4.851   2.050
10299SOL    HW231797   4.130   4.791   2.165
10300SOL     OW31798   0.192   6.116   2.411
10300SOL    HW131799   0.227   6.023   2.418
10300SOL    HW231800   0.216   6.167   2.494
10301SOL     OW31801   4.404   0.267   1.807
10301SOL    HW131802   4.346   0.264   1.889
10301SOL    HW231803   4.403   0.360   1.769
10302SOL     OW31804   0.789   3.608   3.320
10302SOL    HW131805   0.743   3.663   3.390
10302SOL    HW231806   0.792   3.659   3.234
10303SOL     OW31807   4.475   3.388   1.086
10303SOL    HW131808   4.494   3.341   1.000
10303SOL    HW231809   4.467   3.321   1.160
10304SOL     OW31810   5.577   5.739   3.453
10304SOL    HW131811   5.676   5.730   3.467
10304SOL    HW231812   5.559   5.752   3.356
10305SOL     OW31813   2.362   5.494   1.399
10305SOL    HW131814   2.362   5.395   1.389
10305SOL    HW231815   2.404   5.520   1.486
10306SOL     OW31816   4.862   3.832   6.944
10306SOL    HW131817   4.828   3.793   0.001
10306SOL    HW231818   4.897   3.924   6.961
10307SOL     OW31819   2.907   1.994   6.051
10307SOL    HW131820   2.916   1.968   6.147
10307SOL    HW231821   2.932   1.917   5.993
10308SOL     OW31822   3.100   5.135   4.181
10308SOL    HW131823   3.042   5.130   4.100
10308SOL    HW231824   3.114   5.043   4.218
10309SOL     OW31825   0.044   6.317   3.852
10309SOL    HW131826   0.052   6.218   3.845
10309SOL    HW231827   0.088   6.360   3.773
10310SOL     OW31828   3.670   4.147   4.818
10310SOL    HW131829   3.657   4.151   4.719
10310SOL    HW231830   3.745   4.209   4.843
10311SOL     OW31831   1.119   0.086   1.152
10311SOL    HW131832   1.026   0.122   1.158
10311SOL    HW231833   1.129   0.034   1.067
10312SOL     OW31834   3.085   4.694   0.438
10312SOL    HW131835   2.989   4.673   0.458
10312SOL    HW231836   3.101   4.791   0.451
10313SOL     OW31837   6.645   5.963   4.158
10313SOL    HW131838   6.660   5.882   4.102
10313SOL    HW231839   6.563   5.950   4.214
10314SOL     OW31840   0.051   5.561   5.396
10314SOL    HW131841   0.031   5.477   5.345
10314SOL    HW231842   0.145   5.559   5.428
10315SOL     OW31843   4.637   6.415   5.736
10315SOL    HW131844   4.667   6.450   5.647
10315SOL    HW231845   4.538   6.424   5.744
10316SOL     OW31846   0.758   3.475   4.219
10316SOL    HW131847   0.712   3.513   4.299
10316SOL    HW231848   0.714   3.389   4.192
10317SOL     OW31849   5.858   4.473   6.402
10317SOL    HW131850   5.783   4.537   6.390
10317SOL    HW231851   5.845   4.395   6.341
10318SOL     OW31852   5.250   4.950   2.852
10318SOL    HW131853   5.202   4.915   2.772
10318SOL    HW231854   5.331   4.894   2.870
10319SOL     OW31855   4.588   6.673   3.441
10319SOL    HW131856   4.562   6.692   3.346
10319SOL    HW231857   4.519   6.709   3.503
10320SOL     OW31858   3.915   6.366   1.689
10320SOL    HW131859   3.953   6.455   1.714
10320SOL    HW231860   3.902   6.311   1.772
10321SOL     OW31861   4.564   6.238   4.683
10321SOL    HW131862   4.565   6.284   4.772
10321SOL    HW231863   4.473   6.203   4.664
10322SOL     OW31864   6.683   1.520   6.691
10322SOL    HW131865   6.647   1.471   6.611
10322SOL    HW231866   6.769   1.563   6.668
10323SOL     OW31867   0.565   2.468   5.418
10323SOL    HW131868   0.527   2.456   5.326
10323SOL    HW231869   0.640   2.404   5.431
10324SOL     OW31870   2.865   3.498   4.311
10324SOL    HW131871   2.768   3.522   4.323
10324SOL    HW231872   2.914   3.514   4.396
10325SOL     OW31873   0.749   3.271   3.728
10325SOL    HW131874   0.781   3.233   3.814
10325SOL    HW231875   0.819   3.259   3.657
10326SOL     OW31876   5.624   2.016   1.460
10326SOL    HW131877   5.707   1.966   1.435
10326SOL    HW231878   5.631   2.110   1.426
10327SOL     OW31879   6.062   1.514   3.760
10327SOL    HW131880   6.072   1.605   3.801
10327SOL    HW231881   6.082   1.520   3.662
10328SOL     OW31882   6.992   3.766   2.274
10328SOL    HW131883   0.039   3.705   2.298
10328SOL    HW231884   6.905   3.721   2.294
10329SOL     OW31885   2.864   5.887   3.149
10329SOL    HW131886   2.822   5.816   3.206
10329SOL    HW231887   2.839   5.873   3.054
10330SOL     OW31888   3.021   3.574   1.000
10330SOL    HW131889   3.077   3.526   1.068
10330SOL    HW231890   2.928   3.539   1.003
10331SOL     OW31891   4.990   1.449   4.538
10331SOL    HW131892   5.052   1.377   4.506
10331SOL    HW231893   5.018   1.479   4.629
10332SOL     OW31894   1.349   2.676   6.828
10332SOL    HW131895   1.345   2.708   6.923
10332SOL    HW231896   1.256   2.668   6.792
10333SOL     OW31897   7.026   4.704   5.332
10333SOL    HW131898   6.972   4.626   5.299
10333SOL    HW231899   6.976   4.789   5.314
10334SOL     OW31900   0.644   5.095   5.290
10334SOL    HW131901   0.559   5.048   5.266
10334SOL    HW231902   0.691   5.123   5.206
10335SOL     OW31903   3.219   5.409   3.195
10335SOL    HW131904   3.174   5.445   3.277
10335SOL    HW231905   3.162   5.337   3.155
10336SOL     OW31906   4.555   6.969   2.881
10336SOL    HW131907   4.472   6.957   2.935
10336SOL    HW231908   4.565   6.893   2.818
10337SOL     OW31909   1.115   3.624   6.419
10337SOL    HW131910   1.062   3.625   6.504
10337SOL    HW231911   1.173   3.706   6.416
10338SOL     OW31912   2.526   4.501   2.635
10338SOL    HW131913   2.610   4.473   2.681
10338SOL    HW231914   2.506   4.597   2.655
10339SOL     OW31915   3.245   5.880   6.943
10339SOL    HW131916   3.302   5.811   6.987
10339SOL    HW231917   3.296   5.924   6.869
10340SOL     OW31918   2.011   6.599   1.173
10340SOL    HW131919   2.092   6.589   1.231
10340SOL    HW231920   1.968   6.510   1.160
10341SOL     OW31921   0.295   3.389   2.090
10341SOL    HW131922   0.338   3.456   2.150
10341SOL    HW231923   0.204   3.367   2.125
10342SOL     OW31924   2.969   5.722   3.963
10342SOL    HW131925   3.018   5.635   3.972
10342SOL    HW231926   3.019   5.783   3.901
10343SOL     OW31927   2.563   2.295   5.078
10343SOL    HW131928   2.497   2.224   5.104
10343SOL    HW231929   2.656   2.261   5.090
10344SOL     OW31930   4.758   3.823   1.415
10344SOL    HW131931   4.758   3.763   1.335
10344SOL    HW231932   4.711   3.778   1.491
10345SOL     OW31933   3.703   1.560   6.627
10345SOL    HW131934   3.694   1.519   6.536
10345SOL    HW231935   3.664   1.652   6.627
10346SOL     OW31936   6.172   5.927   0.155
10346SOL    HW131937   6.168   5.832   0.187
10346SOL    HW231938   6.080   5.966   0.155
10347SOL     OW31939   4.013   0.051   1.919
10347SOL    HW131940   4.050   0.078   1.830
10347SOL    HW231941   4.076   7.017   1.964
10348SOL     OW31942   6.800   3.876   5.509
10348SOL    HW131943   6.891   3.834   5.514
10348SOL    HW231944   6.741   3.819   5.452
10349SOL     OW31945   5.760   1.952   0.233
10349SOL    HW131946   5.820   1.883   0.191
10349SOL    HW231947   5.814   2.034   0.253
10350SOL     OW31948   2.264   4.996   4.460
10350SOL    HW131949   2.229   4.977   4.552
10350SOL    HW231950   2.194   4.976   4.392
10351SOL     OW31951   3.934   5.674   4.908
10351SOL    HW131952   3.917   5.766   4.942
10351SOL    HW231953   3.848   5.630   4.886
10352SOL     OW31954   0.343   1.111   1.653
10352SOL    HW131955   0.339   1.209   1.632
10352SOL    HW231956   0.332   1.058   1.569
10353SOL     OW31957   5.641   3.014   3.414
10353SOL    HW131958   5.651   2.984   3.320
10353SOL    HW231959   5.689   2.951   3.475
10354SOL     OW31960   0.019   2.715   1.652
10354SOL    HW131961   7.010   2.643   1.593
10354SOL    HW231962   0.018   2.683   1.747
10355SOL     OW31963   6.960   2.232   0.743
10355SOL    HW131964   6.871   2.235   0.697
10355SOL    HW231965   0.005   2.243   0.675
10356SOL     OW31966   5.790   2.611   6.653
10356SOL    HW131967   5.810   2.538   6.719
10356SOL    HW231968   5.876   2.647   6.616
10357SOL     OW31969   0.204   0.403   6.379
10357SOL    HW131970   0.228   0.455   6.461
10357SOL    HW231971   0.272   0.333   6.361
10358SOL     OW31972   0.910   2.815   4.056
10358SOL    HW131973   0.890   2.851   4.148
10358SOL    HW231974   0.986   2.751   4.062
10359SOL     OW31975   0.817   2.496   2.578
10359SOL    HW131976   0.891   2.560   2.560
10359SOL    HW231977   0.856   2.408   2.607
10360SOL     OW31978   5.964   4.640   1.066
10360SOL    HW131979   5.878   4.669   1.024
10360SOL    HW231980   6.038   4.701   1.037
10361SOL     OW31981   5.828   2.100   3.049
10361SOL    HW131982   5.776   2.042   3.112
10361SOL    HW231983   5.766   2.160   2.999
10362SOL     OW31984   0.522   6.222   1.371
10362SOL    HW131985   0.526   6.265   1.462
10362SOL    HW231986   0.609   6.236   1.324
10363SOL     OW31987   5.501   5.182   5.971
10363SOL    HW131988   5.589   5.155   5.933
10363SOL    HW231989   5.471   5.267   5.927
10364SOL     OW31990   6.189   5.179   1.512
10364SOL    HW131991   6.104   5.130   1.531
10364SOL    HW231992   6.201   5.252   1.579
10365SOL     OW31993   5.902   5.975   0.029
10365SOL    HW131994   5.983   6.017   7.017
10365SOL    HW231995   5.831   5.966   6.988
10366SOL     OW31996   2.805   0.115   2.992
10366SOL    HW131997   2.825   0.205   2.953
10366SOL    HW231998   2.732   0.124   3.060
10367SOL     OW31999   5.166   6.043   1.598
10367SOL    HW132000   5.216   5.973   1.649
10367SOL    HW232001   5.072   6.011   1.581
10368SOL     OW32002   1.482   5.629   1.723
10368SOL    HW132003   1.568   5.638   1.773
10368SOL    HW232004   1.497   5.576   1.640
10369SOL     OW32005   2.441   0.695   5.513
10369SOL    HW132006   2.513   0.722   5.578
10369SOL    HW232007   2.352   0.718   5.551
10370SOL     OW32008   1.502   2.136   6.212
10370SOL    HW132009   1.518   2.233   6.194
10370SOL    HW232010   1.531   2.114   6.305
10371SOL     OW32011   3.722   5.524   3.241
10371SOL    HW132012   3.755   5.613   3.209
10371SOL    HW232013   3.633   5.535   3.285
10372SOL     OW32014   1.223   6.200   1.385
10372SOL    HW132015   1.218   6.284   1.331
10372SOL    HW232016   1.319   6.173   1.396
10373SOL     OW32017   6.225   0.429   6.401
10373SOL    HW132018   6.318   0.426   6.438
10373SOL    HW232019   6.222   0.375   6.317
10374SOL     OW32020   2.891   4.841   3.186
10374SOL    HW132021   2.844   4.918   3.230
10374SOL    HW232022   2.825   4.770   3.164
10375SOL     OW32023   2.327   5.621   6.643
10375SOL    HW132024   2.354   5.551   6.576
10375SOL    HW232025   2.409   5.656   6.689
10376SOL     OW32026   2.108   4.981   4.258
10376SOL    HW132027   2.117   5.071   4.216
10376SOL    HW232028   2.150   4.912   4.199
10377SOL     OW32029   2.507   0.669   3.796
10377SOL    HW132030   2.450   0.587   3.787
10377SOL    HW232031   2.597   0.643   3.830
10378SOL     OW32032   0.431   6.871   6.019
10378SOL    HW132033   0.466   6.954   6.063
10378SOL    HW232034   0.466   6.866   5.925
10379SOL     OW32035   0.939   5.829   3.480
10379SOL    HW132036   1.039   5.829   3.480
10379SOL    HW232037   0.905   5.784   3.562
10380SOL     OW32038   2.807   1.099   4.226
10380SOL    HW132039   2.777   1.030   4.292
10380SOL    HW232040   2.744   1.101   4.149
10381SOL     OW32041   2.706   0.518   2.517
10381SOL    HW132042   2.703   0.424   2.550
10381SOL    HW232043   2.786   0.531   2.459
10382SOL     OW32044   4.145   5.616   1.895
10382SOL    HW132045   4.163   5.602   1.798
10382SOL    HW232046   4.064   5.563   1.922
10383SOL     OW32047   0.472   0.115   7.008
10383SOL    HW132048   0.500   0.034   0.031
10383SOL    HW232049   0.545   0.142   6.946
10384SOL     OW32050   4.903   4.852   1.061
10384SOL    HW132051   4.856   4.847   1.149
10384SOL    HW232052   4.905   4.762   1.019
10385SOL     OW32053   4.127   4.675   6.600
10385SOL    HW132054   4.194   4.748   6.582
10385SOL    HW232055   4.038   4.717   6.622
10386SOL     OW32056   0.048   0.096   2.185
10386SOL    HW132057   0.095   0.049   2.111
10386SOL    HW232058   7.020   0.170   2.148
10387SOL     OW32059   5.487   1.951   1.770
10387SOL    HW132060   5.534   1.866   1.795
10387SOL    HW232061   5.507   1.973   1.675
10388SOL     OW32062   1.178   0.261   4.862
10388SOL    HW132063   1.258   0.202   4.871
10388SOL    HW232064   1.095   0.205   4.865
10389SOL     OW32065   0.588   3.605   0.751
10389SOL    HW132066   0.681   3.596   0.787
10389SOL    HW232067   0.581   3.690   0.698
10390SOL     OW32068   2.338   2.156   2.063
10390SOL    HW132069   2.362   2.217   1.988
10390SOL    HW232070   2.316   2.065   2.027
10391SOL     OW32071   6.267   6.919   3.047
10391SOL    HW132072   6.351   6.956   3.008
10391SOL    HW232073   6.269   6.819   3.041
10392SOL     OW32074   6.527   3.870   4.203
10392SOL    HW132075   6.542   3.872   4.104
10392SOL    HW232076   6.438   3.911   4.224
10393SOL     OW32077   1.853   2.299   2.299
10393SOL    HW132078   1.815   2.242   2.226
10393SOL    HW232079   1.949   2.273   2.314
10394SOL     OW32080   2.830   6.462   3.496
10394SOL    HW132081   2.820   6.519   3.578
10394SOL    HW232082   2.832   6.365   3.523
10395SOL     OW32083   1.002   0.925   1.558
10395SOL    HW132084   0.997   0.867   1.640
10395SOL    HW232085   0.941   1.003   1.568
10396SOL     OW32086   3.424   2.165   5.209
10396SOL    HW132087   3.344   2.223   5.193
10396SOL    HW232088   3.474   2.153   5.123
10397SOL     OW32089   5.148   1.364   4.065
10397SOL    HW132090   5.243   1.388   4.083
10397SOL    HW232091   5.129   1.272   4.099
10398SOL     OW32092   5.315   2.690   2.413
10398SOL    HW132093   5.376   2.641   2.351
10398SOL    HW232094   5.221   2.685   2.378
10399SOL     OW32095   0.642   3.946   2.235
10399SOL    HW132096   0.686   3.865   2.273
10399SOL    HW232097   0.543   3.930   2.228
10400SOL     OW32098   2.020   6.539   0.647
10400SOL    HW132099   1.960   6.615   0.622
10400SOL    HW232100   2.115   6.570   0.649
10401SOL     OW32101   6.993   0.667   6.033
10401SOL    HW132102   6.991   0.568   6.026
10401SOL    HW232103   0.045   0.696   6.084
10402SOL     OW32104   6.911   4.474   5.230
10402SOL    HW132105   6.917   4.384   5.188
10402SOL    HW232106   6.882   4.464   5.326
10403SOL     OW32107   2.971   0.000   0.871
10403SOL    HW132108   2.876   0.007   0.902
10403SOL    HW232109   2.999   0.088   0.832
10404SOL     OW32110   0.430   5.603   5.740
10404SOL    HW132111   0.525   5.572   5.728
10404SOL    HW232112   0.390   5.623   5.651
10405SOL     OW32113   0.118   1.633   6.891
10405SOL    HW132114   0.130   1.653   6.988
10405SOL    HW232115   0.035   1.678   6.858
10406SOL     OW32116   1.341   5.632   0.712
10406SOL    HW132117   1.373   5.544   0.678
10406SOL    HW232118   1.369   5.643   0.807
10407SOL     OW32119   2.180   6.075   6.739
10407SOL    HW132120   2.186   5.978   6.720
10407SOL    HW232121   2.271   6.112   6.756
10408SOL     OW32122   4.577   0.662   0.482
10408SOL    HW132123   4.559   0.754   0.516
10408SOL    HW232124   4.661   0.662   0.428
10409SOL     OW32125   6.120   4.253   0.782
10409SOL    HW132126   6.064   4.314   0.837
10409SOL    HW232127   6.203   4.229   0.833
10410SOL     OW32128   4.394   7.007   0.979
10410SOL    HW132129   4.369   0.043   0.906
10410SOL    HW232130   4.431   0.030   1.057
10411SOL     OW32131   2.297   5.452   4.214
10411SOL    HW132132   2.254   5.430   4.127
10411SOL    HW232133   2.274   5.382   4.282
10412SOL     OW32134   5.427   0.012   1.707
10412SOL    HW132135   5.407   0.083   1.640
10412SOL    HW232136   5.524   0.013   1.729
10413SOL     OW32137   6.126   2.652   2.768
10413SOL    HW132138   6.201   2.585   2.766
10413SOL    HW232139   6.138   2.713   2.847
10414SOL     OW32140   5.874   3.391   4.096
10414SOL    HW132141   5.916   3.308   4.134
10414SOL    HW232142   5.946   3.454   4.066
10415SOL     OW32143   0.639   0.998   6.956
10415SOL    HW132144   0.688   1.077   6.992
10415SOL    HW232145   0.683   0.914   6.987
10416SOL     OW32146   5.085   3.032   3.676
10416SOL    HW132147   5.014   3.060   3.610
10416SOL    HW232148   5.163   2.993   3.627
10417SOL     OW32149   2.018   4.307   3.045
10417SOL    HW132150   1.958   4.240   3.089
10417SOL    HW232151   2.114   4.285   3.065
10418SOL     OW32152   1.736   5.580   6.303
10418SOL    HW132153   1.778   5.655   6.354
10418SOL    HW232154   1.698   5.513   6.367
10419SOL     OW32155   1.301   0.688   6.887
10419SOL    HW132156   1.293   0.655   6.793
10419SOL    HW232157   1.314   0.787   6.887
10420SOL     OW32158   0.423   2.903   2.829
10420SOL    HW132159   0.416   2.805   2.809
10420SOL    HW232160   0.495   2.943   2.773
10421SOL     OW32161   0.926   2.192   2.934
10421SOL    HW132162   0.853   2.161   2.995
10421SOL    HW232163   0.936   2.127   2.858
10422SOL     OW32164   5.348   3.026   0.012
10422SOL    HW132165   5.391   3.031   6.950
10422SOL    HW232166   5.401   2.965   0.071
10423SOL     OW32167   5.048   5.198   2.704
10423SOL    HW132168   5.129   5.224   2.651
10423SOL    HW232169   5.057   5.228   2.798
10424SOL     OW32170   4.530   1.705   6.535
10424SOL    HW132171   4.482   1.793   6.535
10424SOL    HW232172   4.495   1.647   6.608
10425SOL     OW32173   1.711   6.851   2.067
10425SOL    HW132174   1.687   6.814   2.157
10425SOL    HW232175   1.629   6.887   2.023
10426SOL     OW32176   6.684   4.113   0.090
10426SOL    HW132177   6.735   4.163   0.160
10426SOL    HW232178   6.586   4.124   0.106
10427SOL     OW32179   5.234   0.809   1.226
10427SOL    HW132180   5.218   0.851   1.315
10427SOL    HW232181   5.328   0.827   1.197
10428SOL     OW32182   4.690   1.431   3.470
10428SOL    HW132183   4.702   1.406   3.566
10428SOL    HW232184   4.779   1.435   3.425
10429SOL     OW32185   5.806   5.475   1.924
10429SOL    HW132186   5.851   5.555   1.884
10429SOL    HW232187   5.834   5.467   2.020
10430SOL     OW32188   4.378   6.040   2.733
10430SOL    HW132189   4.396   5.976   2.659
10430SOL    HW232190   4.463   6.058   2.782
10431SOL     OW32191   2.424   1.351   5.373
10431SOL    HW132192   2.420   1.408   5.455
10431SOL    HW232193   2.332   1.317   5.352
10432SOL     OW32194   4.296   0.492   4.584
10432SOL    HW132195   4.341   0.523   4.668
10432SOL    HW232196   4.197   0.503   4.593
10433SOL     OW32197   2.708   6.798   0.853
10433SOL    HW132198   2.789   6.764   0.804
10433SOL    HW232199   2.656   6.721   0.889
10434SOL     OW32200   2.951   1.890   5.002
10434SOL    HW132201   2.912   1.869   5.091
10434SOL    HW232202   3.037   1.940   5.014
10435SOL     OW32203   5.764   5.396   6.239
10435SOL    HW132204   5.824   5.440   6.306
10435SOL    HW232205   5.703   5.464   6.198
10436SOL     OW32206   0.646   0.924   2.902
10436SOL    HW132207   0.613   0.998   2.843
10436SOL    HW232208   0.589   0.843   2.889
10437SOL     OW32209   0.669   4.059   5.984
10437SOL    HW132210   0.605   3.989   6.014
10437SOL    HW232211   0.755   4.050   6.036
10438SOL     OW32212   3.310   6.875   5.965
10438SOL    HW132213   3.387   6.836   5.916
10438SOL    HW232214   3.256   6.932   5.903
10439SOL     OW32215   3.641   0.797   5.125
10439SOL    HW132216   3.654   0.720   5.187
10439SOL    HW232217   3.551   0.839   5.141
10440SOL     OW32218   0.823   5.471   0.692
10440SOL    HW132219   0.792   5.470   0.787
10440SOL    HW232220   0.878   5.552   0.676
10441SOL     OW32221   3.901   0.099   0.431
10441SOL    HW132222   3.812   0.144   0.423
10441SOL    HW232223   3.887   0.004   0.461
10442SOL     OW32224   4.978   6.045   5.244
10442SOL    HW132225   4.943   5.978   5.178
10442SOL    HW232226   4.950   6.137   5.217
10443SOL     OW32227   5.958   2.369   4.422
10443SOL    HW132228   6.039   2.327   4.382
10443SOL    HW232229   5.889   2.298   4.440
10444SOL     OW32230   3.889   4.896   4.622
10444SOL    HW132231   3.800   4.877   4.664
10444SOL    HW232232   3.954   4.825   4.649
10445SOL     OW32233   6.288   6.336   2.170
10445SOL    HW132234   6.341   6.413   2.134
10445SOL    HW232235   6.348   6.256   2.180
10446SOL     OW32236   1.127   6.423   6.580
10446SOL    HW132237   1.139   6.352   6.649
10446SOL    HW232238   1.085   6.503   6.623
10447SOL     OW32239   5.624   1.651   0.487
10447SOL    HW132240   5.630   1.750   0.502
10447SOL    HW232241   5.701   1.621   0.430
10448SOL     OW32242   3.406   3.795   2.439
10448SOL    HW132243   3.392   3.890   2.411
10448SOL    HW232244   3.479   3.790   2.506
10449SOL     OW32245   1.871   5.459   4.959
10449SOL    HW132246   1.779   5.419   4.956
10449SOL    HW232247   1.927   5.418   4.887
10450SOL     OW32248   0.041   3.407   1.142
10450SOL    HW132249   0.118   3.455   1.100
10450SOL    HW232250   0.050   3.308   1.125
10451SOL     OW32251   2.370   4.568   2.266
10451SOL    HW132252   2.386   4.477   2.303
10451SOL    HW232253   2.327   4.561   2.176
10452SOL     OW32254   1.921   3.026   5.916
10452SOL    HW132255   1.872   3.013   5.830
10452SOL    HW232256   1.870   2.983   5.990
10453SOL     OW32257   5.079   0.491   1.474
10453SOL    HW132258   5.058   0.588   1.460
10453SOL    HW232259   5.006   0.436   1.433
10454SOL     OW32260   5.834   4.368   1.910
10454SOL    HW132261   5.804   4.272   1.911
10454SOL    HW232262   5.869   4.393   2.000
10455SOL     OW32263   0.531   4.547   3.235
10455SOL    HW132264   0.587   4.562   3.316
10455SOL    HW232265   0.590   4.528   3.157
10456SOL     OW32266   3.827   6.189   1.210
10456SOL    HW132267   3.728   6.182   1.208
10456SOL    HW232268   3.866   6.124   1.144
10457SOL     OW32269   3.676   2.888   3.754
10457SOL    HW132270   3.578   2.906   3.747
10457SOL    HW232271   3.710   2.925   3.841
10458SOL     OW32272   0.249   6.089   1.712
10458SOL    HW132273   0.206   6.051   1.793
10458SOL    HW232274   0.319   6.156   1.739
10459SOL     OW32275   6.781   4.707   1.740
10459SOL    HW132276   6.846   4.681   1.669
10459SOL    HW232277   6.688   4.706   1.702
10460SOL     OW32278   1.330   4.131   1.724
10460SOL    HW132279   1.388   4.209   1.703
10460SOL    HW232280   1.305   4.134   1.821
10461SOL     OW32281   3.208   0.315   6.341
10461SOL    HW132282   3.193   0.396   6.397
10461SOL    HW232283   3.299   0.318   6.300
10462SOL     OW32284   5.376   6.383   1.098
10462SOL    HW132285   5.283   6.350   1.081
10462SOL    HW232286   5.412   6.426   1.015
10463SOL     OW32287   3.367   3.225   0.907
10463SOL    HW132288   3.268   3.230   0.894
10463SOL    HW232289   3.406   3.317   0.902
10464SOL     OW32290   5.899   6.411   2.022
10464SOL    HW132291   5.901   6.333   2.084
10464SOL    HW232292   5.804   6.433   1.999
10465SOL     OW32293   0.326   4.933   4.451
10465SOL    HW132294   0.278   4.867   4.508
10465SOL    HW232295   0.394   4.982   4.506
10466SOL     OW32296   4.840   6.516   5.230
10466SOL    HW132297   4.915   6.497   5.294
10466SOL    HW232298   4.871   6.582   5.162
10467SOL     OW32299   4.772   1.283   3.708
10467SOL    HW132300   4.683   1.265   3.751
10467SOL    HW232301   4.845   1.246   3.764
10468SOL     OW32302   2.855   5.074   3.569
10468SOL    HW132303   2.925   5.145   3.571
10468SOL    HW232304   2.783   5.097   3.634
10469SOL     OW32305   0.964   4.533   6.408
10469SOL    HW132306   0.945   4.591   6.487
10469SOL    HW232307   1.060   4.541   6.383
10470SOL     OW32308   2.398   2.160   4.703
10470SOL    HW132309   2.453   2.096   4.650
10470SOL    HW232310   2.415   2.253   4.671
10471SOL     OW32311   4.591   3.941   6.920
10471SOL    HW132312   4.544   3.853   6.931
10471SOL    HW232313   4.684   3.925   6.887
10472SOL     OW32314   3.835   1.348   3.353
10472SOL    HW132315   3.924   1.377   3.390
10472SOL    HW232316   3.846   1.259   3.307
10473SOL     OW32317   4.896   5.216   0.094
10473SOL    HW132318   4.859   5.228   0.002
10473SOL    HW232319   4.935   5.302   0.126
10474SOL     OW32320   5.330   1.002   3.694
10474SOL    HW132321   5.358   0.916   3.736
10474SOL    HW232322   5.230   1.007   3.689
10475SOL     OW32323   4.393   6.428   1.294
10475SOL    HW132324   4.321   6.477   1.245
10475SOL    HW232325   4.353   6.368   1.362
10476SOL     OW32326   0.301   4.854   6.512
10476SOL    HW132327   0.325   4.927   6.448
10476SOL    HW232328   0.344   4.872   6.601
10477SOL     OW32329   4.640   4.360   5.008
10477SOL    HW132330   4.609   4.378   5.101
10477SOL    HW232331   4.593   4.421   4.944
10478SOL     OW32332   0.479   6.255   3.323
10478SOL    HW132333   0.485   6.161   3.357
10478SOL    HW232334   0.538   6.266   3.243
10479SOL     OW32335   1.022   4.175   2.125
10479SOL    HW132336   0.929   4.212   2.126
10479SOL    HW232337   1.053   4.160   2.218
10480SOL     OW32338   5.112   1.104   0.809
10480SOL    HW132339   5.143   1.009   0.807
10480SOL    HW232340   5.075   1.129   0.719
10481SOL     OW32341   2.627   1.525   4.565
10481SOL    HW132342   2.693   1.467   4.613
10481SOL    HW232343   2.627   1.616   4.606
10482SOL     OW32344   1.082   6.325   6.842
10482SOL    HW132345   1.113   6.240   6.885
10482SOL    HW232346   0.984   6.318   6.821
10483SOL     OW32347   0.075   5.705   0.401
10483SOL    HW132348   0.055   5.792   0.355
10483SOL    HW232349   0.160   5.668   0.365
10484SOL     OW32350   6.774   1.729   1.647
10484SOL    HW132351   6.702   1.691   1.706
10484SOL    HW232352   6.827   1.653   1.609
10485SOL     OW32353   3.623   4.113   4.532
10485SOL    HW132354   3.603   4.174   4.455
10485SOL    HW232355   3.706   4.061   4.512
10486SOL     OW32356   5.871   5.528   5.987
10486SOL    HW132357   5.923   5.470   6.050
10486SOL    HW232358   5.812   5.589   6.038
10487SOL     OW32359   5.584   3.834   2.770
10487SOL    HW132360   5.615   3.849   2.864
10487SOL    HW232361   5.526   3.753   2.766
10488SOL     OW32362   0.621   2.243   5.595
10488SOL    HW132363   0.700   2.298   5.619
10488SOL    HW232364   0.580   2.204   5.677
10489SOL     OW32365   5.907   4.932   2.815
10489SOL    HW132366   5.924   4.947   2.718
10489SOL    HW232367   5.823   4.980   2.842
10490SOL     OW32368   5.325   6.280   6.368
10490SOL    HW132369   5.343   6.368   6.411
10490SOL    HW232370   5.395   6.215   6.396
10491SOL     OW32371   2.100   2.314   5.736
10491SOL    HW132372   2.137   2.222   5.747
10491SOL    HW232373   2.152   2.363   5.665
10492SOL     OW32374   2.605   6.506   0.441
10492SOL    HW132375   2.665   6.426   0.444
10492SOL    HW232376   2.562   6.519   0.531
10493SOL     OW32377   3.623   5.731   0.886
10493SOL    HW132378   3.633   5.828   0.909
10493SOL    HW232379   3.649   5.676   0.965
10494SOL     OW32380   0.285   5.404   4.292
10494SOL    HW132381   0.213   5.344   4.328
10494SOL    HW232382   0.276   5.411   4.193
10495SOL     OW32383   6.087   6.712   0.393
10495SOL    HW132384   6.099   6.765   0.476
10495SOL    HW232385   6.127   6.621   0.405
10496SOL     OW32386   0.665   4.905   5.911
10496SOL    HW132387   0.594   4.868   5.851
10496SOL    HW232388   0.672   4.849   5.993
10497SOL     OW32389   3.534   6.510   0.796
10497SOL    HW132390   3.548   6.464   0.708
10497SOL    HW232391   3.574   6.456   0.869
10498SOL     OW32392   3.238   3.337   6.968
10498SOL    HW132393   3.217   3.334   0.038
10498SOL    HW232394   3.274   3.427   6.945
10499SOL     OW32395   4.094   4.889   2.929
10499SOL    HW132396   4.127   4.817   2.868
10499SOL    HW232397   4.099   4.857   3.024
10500SOL     OW32398   1.763   2.952   4.986
10500SOL    HW132399   1.827   2.906   4.925
10500SOL    HW232400   1.687   2.891   5.008
10501SOL     OW32401   3.478   4.901   3.409
10501SOL    HW132402   3.379   4.916   3.420
10501SOL    HW232403   3.498   4.882   3.314
10502SOL     OW32404   3.204   4.102   2.437
10502SOL    HW132405   3.212   4.144   2.347
10502SOL    HW232406   3.154   4.015   2.429
10503SOL     OW32407   6.702   0.919   0.473
10503SOL    HW132408   6.679   0.979   0.397
10503SOL    HW232409   6.644   0.942   0.552
10504SOL     OW32410   1.479   3.074   5.670
10504SOL    HW132411   1.402   3.035   5.621
10504SOL    HW232412   1.541   3.001   5.699
10505SOL     OW32413   5.908   6.482   0.852
10505SOL    HW132414   5.872   6.389   0.852
10505SOL    HW232415   5.963   6.497   0.934
10506SOL     OW32416   1.599   4.849   4.971
10506SOL    HW132417   1.514   4.819   4.929
10506SOL    HW232418   1.669   4.779   4.959
10507SOL     OW32419   1.677   6.262   5.661
10507SOL    HW132420   1.607   6.190   5.653
10507SOL    HW232421   1.694   6.282   5.757
10508SOL     OW32422   1.843   6.361   1.131
10508SOL    HW132423   1.770   6.404   1.184
10508SOL    HW232424   1.831   6.382   1.034
10509SOL     OW32425   4.937   3.460   2.241
10509SOL    HW132426   4.857   3.431   2.187
10509SOL    HW232427   4.911   3.535   2.301
10510SOL     OW32428   5.821   6.261   2.691
10510SOL    HW132429   5.816   6.231   2.595
10510SOL    HW232430   5.903   6.222   2.734
10511SOL     OW32431   3.857   1.721   0.671
10511SOL    HW132432   3.888   1.697   0.579
10511SOL    HW232433   3.757   1.732   0.671
10512SOL     OW32434   4.229   0.708   5.051
10512SOL    HW132435   4.162   0.635   5.036
10512SOL    HW232436   4.181   0.792   5.076
10513SOL     OW32437   3.718   3.799   0.459
10513SOL    HW132438   3.803   3.793   0.512
10513SOL    HW232439   3.686   3.894   0.459
10514SOL     OW32440   1.267   5.496   1.899
10514SOL    HW132441   1.323   5.521   1.820
10514SOL    HW232442   1.322   5.503   1.982
10515SOL     OW32443   1.924   3.903   4.683
10515SOL    HW132444   1.996   3.904   4.753
10515SOL    HW232445   1.953   3.847   4.606
10516SOL     OW32446   5.304   1.625   2.014
10516SOL    HW132447   5.374   1.658   2.079
10516SOL    HW232448   5.221   1.679   2.025
10517SOL     OW32449   0.597   1.772   1.889
10517SOL    HW132450   0.584   1.815   1.978
10517SOL    HW232451   0.617   1.675   1.901
10518SOL     OW32452   0.831   6.079   2.480
10518SOL    HW132453   0.898   6.041   2.543
10518SOL    HW232454   0.860   6.062   2.386
10519SOL     OW32455   2.251   6.364   0.780
10519SOL    HW132456   2.257   6.275   0.735
10519SOL    HW232457   2.241   6.351   0.879
10520SOL     OW32458   2.804   2.613   6.264
10520SOL    HW132459   2.733   2.661   6.212
10520SOL    HW232460   2.841   2.538   6.209
10521SOL     OW32461   6.261   2.372   2.815
10521SOL    HW132462   6.182   2.326   2.857
10521SOL    HW232463   6.344   2.350   2.867
10522SOL     OW32464   4.967   1.446   3.415
10522SOL    HW132465   4.976   1.467   3.317
10522SOL    HW232466   4.996   1.524   3.469
10523SOL     OW32467   0.627   4.055   1.822
10523SOL    HW132468   0.600   4.149   1.840
10523SOL    HW232469   0.694   4.026   1.890
10524SOL     OW32470   5.773   6.492   4.569
10524SOL    HW132471   5.830   6.444   4.502
10524SOL    HW232472   5.799   6.589   4.571
10525SOL     OW32473   4.977   1.681   3.549
10525SOL    HW132474   4.897   1.693   3.490
10525SOL    HW232475   4.947   1.674   3.645
10526SOL     OW32476   1.514   6.036   5.669
10526SOL    HW132477   1.437   6.020   5.730
10526SOL    HW232478   1.529   5.955   5.612
10527SOL     OW32479   0.100   6.347   5.939
10527SOL    HW132480   0.135   6.375   6.028
10527SOL    HW232481   0.070   6.427   5.888
10528SOL     OW32482   2.089   5.929   5.410
10528SOL    HW132483   2.182   5.915   5.446
10528SOL    HW232484   2.024   5.877   5.465
10529SOL     OW32485   6.744   5.158   0.329
10529SOL    HW132486   6.678   5.204   0.388
10529SOL    HW232487   6.710   5.156   0.235
10530SOL     OW32488   6.220   0.713   1.437
10530SOL    HW132489   6.192   0.626   1.476
10530SOL    HW232490   6.310   0.702   1.394
10531SOL     OW32491   3.390   1.624   6.200
10531SOL    HW132492   3.427   1.571   6.276
10531SOL    HW232493   3.295   1.648   6.219
10532SOL     OW32494   4.705   5.844   5.865
10532SOL    HW132495   4.675   5.927   5.911
10532SOL    HW232496   4.766   5.792   5.926
10533SOL     OW32497   4.412   6.712   3.160
10533SOL    HW132498   4.353   6.780   3.119
10533SOL    HW232499   4.466   6.666   3.089
10534SOL     OW32500   1.005   6.544   4.074
10534SOL    HW132501   0.916   6.503   4.050
10534SOL    HW232502   1.003   6.574   4.170
10535SOL     OW32503   4.263   1.733   2.269
10535SOL    HW132504   4.169   1.716   2.240
10535SOL    HW232505   4.292   1.663   2.334
10536SOL     OW32506   6.031   3.734   4.493
10536SOL    HW132507   6.012   3.754   4.397
10536SOL    HW232508   6.123   3.764   4.516
10537SOL     OW32509   3.632   0.978   3.079
10537SOL    HW132510   3.544   0.966   3.126
10537SOL    HW232511   3.616   0.996   2.982
10538SOL     OW32512   6.046   2.759   3.484
10538SOL    HW132513   6.120   2.754   3.551
10538SOL    HW232514   5.963   2.791   3.529
10539SOL     OW32515   6.650   6.822   2.665
10539SOL    HW132516   6.713   6.746   2.650
10539SOL    HW232517   6.623   6.861   2.577
10540SOL     OW32518   1.672   3.511   6.316
10540SOL    HW132519   1.635   3.546   6.403
10540SOL    HW232520   1.767   3.485   6.328
10541SOL     OW32521   3.209   2.208   6.039
10541SOL    HW132522   3.129   2.193   5.980
10541SOL    HW232523   3.215   2.305   6.063
10542SOL     OW32524   4.109   6.414   2.053
10542SOL    HW132525   4.011   6.401   2.038
10542SOL    HW232526   4.125   6.500   2.101
10543SOL     OW32527   1.561   2.667   4.347
10543SOL    HW132528   1.506   2.733   4.399
10543SOL    HW232529   1.501   2.596   4.311
10544SOL     OW32530   2.860   2.084   2.168
10544SOL    HW132531   2.891   2.164   2.115
10544SOL    HW232532   2.764   2.066   2.149
10545SOL     OW32533   1.531   3.169   1.977
10545SOL    HW132534   1.617   3.118   1.970
10545SOL    HW232535   1.471   3.143   1.902
10546SOL     OW32536   1.967   6.835   5.253
10546SOL    HW132537   1.982   6.752   5.306
10546SOL    HW232538   2.032   6.838   5.177
10547SOL     OW32539   3.710   6.372   5.928
10547SOL    HW132540   3.782   6.425   5.882
10547SOL    HW232541   3.640   6.434   5.962
10548SOL     OW32542   0.979   5.526   3.465
10548SOL    HW132543   0.958   5.593   3.394
10548SOL    HW232544   0.904   5.523   3.532
10549SOL     OW32545   6.974   1.293   2.696
10549SOL    HW132546   6.898   1.262   2.752
10549SOL    HW232547   6.953   1.382   2.656
10550SOL     OW32548   6.257   5.806   3.165
10550SOL    HW132549   6.207   5.722   3.185
10550SOL    HW232550   6.199   5.885   3.186
10551SOL     OW32551   4.597   0.339   4.620
10551SOL    HW132552   4.508   0.344   4.573
10551SOL    HW232553   4.657   0.410   4.585
10552SOL     OW32554   2.481   0.008   2.998
10552SOL    HW132555   2.402   0.054   3.038
10552SOL    HW232556   2.550   7.022   3.068
10553SOL     OW32557   5.347   5.201   1.321
10553SOL    HW132558   5.354   5.158   1.411
10553SOL    HW232559   5.371   5.297   1.328
10554SOL     OW32560   6.309   5.321   1.306
10554SOL    HW132561   6.260   5.271   1.377
10554SOL    HW232562   6.403   5.337   1.335
10555SOL     OW32563   3.545   3.164   2.036
10555SOL    HW132564   3.532   3.242   1.974
10555SOL    HW232565   3.511   3.081   1.992
10556SOL     OW32566   2.508   2.257   1.750
10556SOL    HW132567   2.477   2.349   1.775
10556SOL    HW232568   2.592   2.263   1.696
10557SOL     OW32569   0.603   3.778   3.027
10557SOL    HW132570   0.531   3.797   3.093
10557SOL    HW232571   0.601   3.846   2.953
10558SOL     OW32572   4.585   4.885   4.421
10558SOL    HW132573   4.601   4.883   4.323
10558SOL    HW232574   4.663   4.844   4.469
10559SOL     OW32575   3.828   5.851   1.302
10559SOL    HW132576   3.879   5.807   1.227
10559SOL    HW232577   3.837   5.796   1.385
10560SOL     OW32578   5.551   7.016   3.984
10560SOL    HW132579   5.583   0.030   3.900
10560SOL    HW232580   5.455   6.989   3.974
10561SOL     OW32581   0.958   5.304   5.848
10561SOL    HW132582   0.870   5.256   5.849
10561SOL    HW232583   1.017   5.267   5.920
10562SOL     OW32584   3.865   6.738   2.669
10562SOL    HW132585   3.884   6.834   2.689
10562SOL    HW232586   3.796   6.703   2.733
10563SOL     OW32587   1.999   5.955   2.059
10563SOL    HW132588   2.034   5.875   2.108
10563SOL    HW232589   1.954   6.017   2.124
10564SOL     OW32590   5.179   4.687   3.259
10564SOL    HW132591   5.151   4.747   3.184
10564SOL    HW232592   5.259   4.634   3.230
10565SOL     OW32593   0.268   1.484   5.053
10565SOL    HW132594   0.220   1.423   5.115
10565SOL    HW232595   0.202   1.533   4.996
10566SOL     OW32596   3.995   1.968   0.741
10566SOL    HW132597   3.956   1.891   0.690
10566SOL    HW232598   3.966   2.054   0.699
10567SOL     OW32599   3.132   2.424   6.791
10567SOL    HW132600   3.036   2.451   6.797
10567SOL    HW232601   3.166   2.399   6.882
10568SOL     OW32602   5.655   2.282   5.641
10568SOL    HW132603   5.560   2.311   5.655
10568SOL    HW232604   5.697   2.337   5.569
10569SOL     OW32605   5.417   0.499   1.063
10569SOL    HW132606   5.329   0.545   1.048
10569SOL    HW232607   5.404   0.400   1.056
10570SOL     OW32608   1.627   4.170   3.016
10570SOL    HW132609   1.670   4.136   3.100
10570SOL    HW232610   1.623   4.096   2.948
10571SOL     OW32611   0.365   3.905   5.440
10571SOL    HW132612   0.419   3.988   5.449
10571SOL    HW232613   0.406   3.832   5.494
10572SOL     OW32614   6.692   4.606   0.833
10572SOL    HW132615   6.659   4.697   0.807
10572SOL    HW232616   6.792   4.605   0.831
10573SOL     OW32617   6.116   2.655   4.001
10573SOL    HW132618   6.199   2.707   4.016
10573SOL    HW232619   6.137   2.573   3.947
10574SOL     OW32620   5.737   2.606   2.600
10574SOL    HW132621   5.713   2.577   2.693
10574SOL    HW232622   5.823   2.657   2.602
10575SOL     OW32623   4.919   0.076   2.544
10575SOL    HW132624   4.997   0.073   2.482
10575SOL    HW232625   4.917   0.164   2.591
10576SOL     OW32626   1.724   3.237   5.025
10576SOL    HW132627   1.725   3.137   5.032
10576SOL    HW232628   1.699   3.264   4.932
10577SOL     OW32629   3.867   4.442   6.726
10577SOL    HW132630   3.847   4.350   6.760
10577SOL    HW232631   3.858   4.508   6.801
10578SOL     OW32632   1.406   3.722   2.540
10578SOL    HW132633   1.434   3.688   2.450
10578SOL    HW232634   1.483   3.712   2.604
10579SOL     OW32635   6.969   3.071   6.873
10579SOL    HW132636   0.016   3.021   6.917
10579SOL    HW232637   6.945   3.026   6.787
10580SOL     OW32638   5.543   6.301   6.743
10580SOL    HW132639   5.493   6.388   6.741
10580SOL    HW232640   5.595   6.295   6.828
10581SOL     OW32641   4.445   1.108   2.347
10581SOL    HW132642   4.478   1.015   2.358
10581SOL    HW232643   4.433   1.151   2.437
10582SOL     OW32644   6.996   3.362   6.992
10582SOL    HW132645   6.969   3.309   6.911
10582SOL    HW232646   6.917   3.413   7.025
10583SOL     OW32647   4.398   2.216   5.505
10583SOL    HW132648   4.407   2.191   5.602
10583SOL    HW232649   4.446   2.149   5.449
10584SOL     OW32650   6.262   0.916   3.717
10584SOL    HW132651   6.293   0.823   3.736
10584SOL    HW232652   6.174   0.933   3.761
10585SOL     OW32653   1.455   1.335   5.286
10585SOL    HW132654   1.525   1.280   5.332
10585SOL    HW232655   1.458   1.429   5.321
10586SOL     OW32656   4.613   3.680   5.989
10586SOL    HW132657   4.708   3.697   5.963
10586SOL    HW232658   4.554   3.689   5.909
10587SOL     OW32659   2.100   5.230   4.950
10587SOL    HW132660   2.189   5.275   4.949
10587SOL    HW232661   2.082   5.193   5.041
10588SOL     OW32662   1.125   3.905   4.197
10588SOL    HW132663   1.139   3.856   4.283
10588SOL    HW232664   1.168   3.855   4.122
10589SOL     OW32665   5.997   0.353   3.638
10589SOL    HW132666   5.979   0.282   3.570
10589SOL    HW232667   5.926   0.423   3.631
10590SOL     OW32668   0.542   5.950   1.983
10590SOL    HW132669   0.572   5.921   1.893
10590SOL    HW232670   0.458   6.003   1.975
10591SOL     OW32671   6.355   4.130   2.658
10591SOL    HW132672   6.427   4.187   2.620
10591SOL    HW232673   6.330   4.058   2.593
10592SOL     OW32674   6.860   3.181   4.694
10592SOL    HW132675   6.940   3.212   4.745
10592SOL    HW232676   6.885   3.105   4.634
10593SOL     OW32677   3.776   5.998   3.377
10593SOL    HW132678   3.821   6.029   3.461
10593SOL    HW232679   3.694   5.947   3.400
10594SOL     OW32680   3.788   5.792   3.819
10594SOL    HW132681   3.792   5.885   3.855
10594SOL    HW232682   3.874   5.745   3.838
10595SOL     OW32683   5.412   6.252   0.746
10595SOL    HW132684   5.438   6.185   0.815
10595SOL    HW232685   5.385   6.338   0.790
10596SOL     OW32686   5.915   3.774   0.033
10596SOL    HW132687   5.874   3.694   7.018
10596SOL    HW232688   5.940   3.840   6.990
10597SOL     OW32689   1.423   6.754   5.198
10597SOL    HW132690   1.425   6.661   5.232
10597SOL    HW232691   1.511   6.799   5.214
10598SOL     OW32692   3.569   1.465   0.833
10598SOL    HW132693   3.500   1.404   0.872
10598SOL    HW232694   3.609   1.521   0.905
10599SOL     OW32695   0.677   1.981   0.805
10599SOL    HW132696   0.724   1.998   0.892
10599SOL    HW232697   0.659   2.069   0.761
10600SOL     OW32698   4.369   1.377   1.636
10600SOL    HW132699   4.312   1.406   1.713
10600SOL    HW232700   4.338   1.286   1.605
10601SOL     OW32701   1.967   1.673   4.796
10601SOL    HW132702   2.056   1.648   4.834
10601SOL    HW232703   1.918   1.590   4.769
10602SOL     OW32704   6.755   6.761   1.556
10602SOL    HW132705   6.730   6.852   1.524
10602SOL    HW232706   6.726   6.693   1.488
10603SOL     OW32707   5.696   0.451   2.858
10603SOL    HW132708   5.749   0.418   2.936
10603SOL    HW232709   5.718   0.396   2.777
10604SOL     OW32710   5.477   2.576   5.050
10604SOL    HW132711   5.463   2.672   5.025
10604SOL    HW232712   5.474   2.519   4.968
10605SOL     OW32713   4.377   2.344   1.354
10605SOL    HW132714   4.314   2.355   1.276
10605SOL    HW232715   4.325   2.314   1.434
10606SOL     OW32716   5.923   1.339   0.643
10606SOL    HW132717   6.014   1.360   0.680
10606SOL    HW232718   5.863   1.418   0.655
10607SOL     OW32719   2.451   4.819   0.729
10607SOL    HW132720   2.383   4.851   0.663
10607SOL    HW232721   2.412   4.746   0.785
10608SOL     OW32722   5.424   4.215   3.083
10608SOL    HW132723   5.439   4.195   2.986
10608SOL    HW232724   5.332   4.186   3.110
10609SOL     OW32725   5.800   6.632   6.367
10609SOL    HW132726   5.883   6.577   6.363
10609SOL    HW232727   5.790   6.673   6.458
10610SOL     OW32728   0.466   1.870   3.011
10610SOL    HW132729   0.494   1.827   3.096
10610SOL    HW232730   0.539   1.930   2.978
10611SOL     OW32731   4.143   5.047   5.236
10611SOL    HW132732   4.226   4.992   5.246
10611SOL    HW232733   4.121   5.092   5.322
10612SOL     OW32734   5.391   2.782   3.370
10612SOL    HW132735   5.357   2.851   3.306
10612SOL    HW232736   5.382   2.816   3.463
10613SOL     OW32737   5.082   5.301   5.008
10613SOL    HW132738   5.009   5.347   4.956
10613SOL    HW232739   5.056   5.297   5.105
10614SOL     OW32740   3.875   2.166   6.775
10614SOL    HW132741   3.794   2.145   6.721
10614SOL    HW232742   3.928   2.238   6.729
10615SOL     OW32743   2.832   2.193   5.420
10615SOL    HW132744   2.817   2.112   5.362
10615SOL    HW232745   2.769   2.265   5.393
10616SOL     OW32746   1.304   5.398   0.043
10616SOL    HW132747   1.219   5.444   0.068
10616SOL    HW232748   1.380   5.436   0.097
10617SOL     OW32749   2.177   2.500   0.199
10617SOL    HW132750   2.242   2.439   0.243
10617SOL    HW232751   2.089   2.454   0.189
10618SOL     OW32752   0.670   4.829   4.125
10618SOL    HW132753   0.750   4.887   4.112
10618SOL    HW232754   0.692   4.735   4.100
10619SOL     OW32755   1.169   2.888   1.041
10619SOL    HW132756   1.171   2.935   1.129
10619SOL    HW232757   1.163   2.955   0.967
10620SOL     OW32758   3.778   1.103   5.612
10620SOL    HW132759   3.729   1.132   5.694
10620SOL    HW232760   3.785   1.003   5.611
10621SOL     OW32761   0.941   4.234   4.276
10621SOL    HW132762   0.943   4.329   4.306
10621SOL    HW232763   0.848   4.211   4.245
10622SOL     OW32764   4.043   2.015   5.832
10622SOL    HW132765   4.013   1.954   5.904
10622SOL    HW232766   3.965   2.041   5.775
10623SOL     OW32767   5.561   4.399   5.506
10623SOL    HW132768   5.569   4.478   5.567
10623SOL    HW232769   5.644   4.389   5.452
10624SOL     OW32770   6.844   1.702   6.363
10624SOL    HW132771   6.759   1.704   6.416
10624SOL    HW232772   6.919   1.739   6.419
10625SOL     OW32773   5.822   5.574   6.802
10625SOL    HW132774   5.731   5.564   6.842
10625SOL    HW232775   5.886   5.606   6.871
10626SOL     OW32776   5.716   3.405   2.361
10626SOL    HW132777   5.713   3.469   2.439
10626SOL    HW232778   5.623   3.374   2.341
10627SOL     OW32779   5.851   4.401   5.424
10627SOL    HW132780   5.894   4.335   5.362
10627SOL    HW232781   5.837   4.488   5.376
10628SOL     OW32782   2.679   5.775   1.472
10628SOL    HW132783   2.587   5.768   1.513
10628SOL    HW232784   2.677   5.740   1.379
10629SOL     OW32785   4.561   5.271   3.871
10629SOL    HW132786   4.517   5.300   3.786
10629SOL    HW232787   4.527   5.327   3.946
10630SOL     OW32788   3.706   0.999   1.107
10630SOL    HW132789   3.731   1.063   1.035
10630SOL    HW232790   3.777   0.929   1.115
10631SOL     OW32791   3.727   5.875   1.737
10631SOL    HW132792   3.759   5.869   1.832
10631SOL    HW232793   3.709   5.970   1.714
10632SOL     OW32794   5.798   0.186   4.440
10632SOL    HW132795   5.771   0.270   4.393
10632SOL    HW232796   5.838   0.209   4.529
10633SOL     OW32797   2.341   2.873   0.801
10633SOL    HW132798   2.354   2.813   0.722
10633SOL    HW232799   2.429   2.916   0.825
10634SOL     OW32800   0.830   4.445   0.191
10634SOL    HW132801   0.848   4.495   0.275
10634SOL    HW232802   0.885   4.484   0.117
10635SOL     OW32803   2.921   4.303   6.978
10635SOL    HW132804   2.893   4.386   6.930
10635SOL    HW232805   2.927   4.228   6.913
10636SOL     OW32806   6.572   3.212   0.901
10636SOL    HW132807   6.659   3.225   0.949
10636SOL    HW232808   6.529   3.301   0.886
10637SOL     OW32809   2.470   0.284   6.058
10637SOL    HW132810   2.388   0.340   6.051
10637SOL    HW232811   2.445   0.187   6.058
10638SOL     OW32812   5.841   5.054   6.633
10638SOL    HW132813   5.810   5.118   6.704
10638SOL    HW232814   5.930   5.084   6.598
10639SOL     OW32815   6.455   5.092   0.173
10639SOL    HW132816   6.379   5.046   0.129
10639SOL    HW232817   6.518   5.128   0.103
10640SOL     OW32818   3.564   6.127   4.126
10640SOL    HW132819   3.505   6.154   4.050
10640SOL    HW232820   3.586   6.207   4.181
10641SOL     OW32821   0.915   1.376   3.637
10641SOL    HW132822   0.979   1.371   3.714
10641SOL    HW232823   0.838   1.314   3.655
10642SOL     OW32824   0.234   2.060   6.355
10642SOL    HW132825   0.261   1.987   6.419
10642SOL    HW232826   0.315   2.113   6.330
10643SOL     OW32827   3.052   5.242   5.579
10643SOL    HW132828   3.152   5.240   5.580
10643SOL    HW232829   3.021   5.296   5.501
10644SOL     OW32830   0.671   3.568   3.758
10644SOL    HW132831   0.661   3.485   3.703
10644SOL    HW232832   0.751   3.560   3.817
10645SOL     OW32833   2.246   3.087   3.611
10645SOL    HW132834   2.291   3.021   3.672
10645SOL    HW232835   2.258   3.057   3.516
10646SOL     OW32836   4.986   0.931   2.946
10646SOL    HW132837   5.036   0.890   3.022
10646SOL    HW232838   5.029   0.906   2.860
10647SOL     OW32839   4.053   5.538   4.620
10647SOL    HW132840   4.073   5.626   4.578
10647SOL    HW232841   4.050   5.548   4.719
10648SOL     OW32842   4.807   3.731   5.566
10648SOL    HW132843   4.715   3.753   5.600
10648SOL    HW232844   4.875   3.779   5.621
10649SOL     OW32845   6.177   3.414   3.835
10649SOL    HW132846   6.221   3.325   3.844
10649SOL    HW232847   6.246   3.483   3.811
10650SOL     OW32848   0.952   6.983   2.800
10650SOL    HW132849   1.039   0.002   2.790
10650SOL    HW232850   0.951   6.932   2.886
10651SOL     OW32851   2.266   5.485   5.846
10651SOL    HW132852   2.179   5.533   5.850
10651SOL    HW232853   2.252   5.388   5.864
10652SOL     OW32854   2.889   0.439   6.906
10652SOL    HW132855   2.847   0.454   6.817
10652SOL    HW232856   2.884   0.342   6.930
10653SOL     OW32857   5.485   6.209   4.558
10653SOL    HW132858   5.413   6.269   4.592
10653SOL    HW232859   5.572   6.233   4.601
10654SOL     OW32860   6.446   1.542   4.278
10654SOL    HW132861   6.534   1.507   4.309
10654SOL    HW232862   6.392   1.468   4.238
10655SOL     OW32863   6.446   5.613   0.818
10655SOL    HW132864   6.357   5.601   0.775
10655SOL    HW232865   6.453   5.553   0.898
10656SOL     OW32866   6.132   0.728   6.351
10656SOL    HW132867   6.203   0.662   6.376
10656SOL    HW232868   6.127   0.736   6.251
10657SOL     OW32869   4.769   6.892   5.719
10657SOL    HW132870   4.763   6.988   5.744
10657SOL    HW232871   4.687   6.844   5.751
10658SOL     OW32872   0.960   1.614   5.990
10658SOL    HW132873   1.050   1.657   6.006
10658SOL    HW232874   0.937   1.621   5.893
10659SOL     OW32875   0.777   5.707   0.094
10659SOL    HW132876   0.790   5.613   0.064
10659SOL    HW232877   0.788   5.712   0.194
10660SOL     OW32878   6.140   2.549   6.754
10660SOL    HW132879   6.096   2.531   6.666
10660SOL    HW232880   6.201   2.473   6.777
10661SOL     OW32881   3.552   5.498   5.585
10661SOL    HW132882   3.479   5.566   5.590
10661SOL    HW232883   3.637   5.541   5.555
10662SOL     OW32884   3.011   1.273   0.725
10662SOL    HW132885   2.927   1.324   0.741
10662SOL    HW232886   3.024   1.205   0.798
10663SOL     OW32887   0.120   3.085   4.346
10663SOL    HW132888   0.131   3.184   4.342
10663SOL    HW232889   0.107   3.049   4.253
10664SOL     OW32890   1.222   6.529   5.104
10664SOL    HW132891   1.212   6.512   5.202
10664SOL    HW232892   1.188   6.451   5.053
10665SOL     OW32893   3.486   3.561   0.657
10665SOL    HW132894   3.449   3.647   0.623
10665SOL    HW232895   3.465   3.488   0.592
10666SOL     OW32896   4.423   3.642   1.188
10666SOL    HW132897   4.461   3.710   1.126
10666SOL    HW232898   4.449   3.550   1.157
10667SOL     OW32899   5.607   2.773   3.944
10667SOL    HW132900   5.586   2.785   4.041
10667SOL    HW232901   5.705   2.757   3.933
10668SOL     OW32902   3.721   3.783   6.032
10668SOL    HW132903   3.662   3.845   6.084
10668SOL    HW232904   3.712   3.690   6.067
10669SOL     OW32905   6.330   2.735   1.686
10669SOL    HW132906   6.326   2.705   1.782
10669SOL    HW232907   6.276   2.818   1.676
10670SOL     OW32908   4.945   4.751   3.785
10670SOL    HW132909   5.031   4.778   3.741
10670SOL    HW232910   4.964   4.696   3.866
10671SOL     OW32911   2.069   3.212   4.781
10671SOL    HW132912   2.085   3.296   4.833
10671SOL    HW232913   2.058   3.136   4.845
10672SOL     OW32914   6.148   4.766   1.445
10672SOL    HW132915   6.204   4.740   1.523
10672SOL    HW232916   6.191   4.843   1.397
10673SOL     OW32917   3.201   1.487   1.291
10673SOL    HW132918   3.105   1.471   1.316
10673SOL    HW232919   3.247   1.399   1.279
10674SOL     OW32920   3.652   3.427   4.447
10674SOL    HW132921   3.728   3.449   4.507
10674SOL    HW232922   3.683   3.428   4.352
10675SOL     OW32923   3.880   6.164   5.558
10675SOL    HW132924   3.831   6.114   5.629
10675SOL    HW232925   3.830   6.156   5.471
10676SOL     OW32926   1.138   1.055   4.732
10676SOL    HW132927   1.233   1.083   4.741
10676SOL    HW232928   1.087   1.124   4.681
10677SOL     OW32929   0.075   2.178   7.014
10677SOL    HW132930   0.118   2.105   0.039
10677SOL    HW232931   7.004   2.176   0.002
10678SOL     OW32932   3.837   5.270   2.404
10678SOL    HW132933   3.906   5.238   2.468
10678SOL    HW232934   3.754   5.215   2.414
10679SOL     OW32935   5.345   4.055   0.520
10679SOL    HW132936   5.376   4.145   0.550
10679SOL    HW232937   5.265   4.064   0.461
10680SOL     OW32938   4.990   1.136   5.691
10680SOL    HW132939   5.050   1.164   5.616
10680SOL    HW232940   4.917   1.204   5.702
10681SOL     OW32941   2.616   3.273   5.320
10681SOL    HW132942   2.640   3.349   5.260
10681SOL    HW232943   2.599   3.191   5.265
10682SOL     OW32944   5.034   3.292   6.047
10682SOL    HW132945   5.056   3.355   6.121
10682SOL    HW232946   5.033   3.341   5.960
10683SOL     OW32947   1.895   0.716   3.122
10683SOL    HW132948   1.929   0.762   3.040
10683SOL    HW232949   1.876   0.620   3.101
10684SOL     OW32950   5.067   4.362   1.433
10684SOL    HW132951   5.123   4.297   1.485
10684SOL    HW232952   4.989   4.390   1.489
10685SOL     OW32953   1.149   6.828   2.519
10685SOL    HW132954   1.103   6.850   2.432
10685SOL    HW232955   1.225   6.891   2.534
10686SOL     OW32956   2.555   1.361   6.431
10686SOL    HW132957   2.479   1.300   6.454
10686SOL    HW232958   2.545   1.446   6.483
10687SOL     OW32959   0.848   3.256   3.254
10687SOL    HW132960   0.754   3.288   3.265
10687SOL    HW232961   0.905   3.290   3.329
10688SOL     OW32962   5.465   1.269   3.802
10688SOL    HW132963   5.494   1.173   3.795
10688SOL    HW232964   5.461   1.295   3.898
10689SOL     OW32965   1.096   1.461   2.972
10689SOL    HW132966   1.018   1.522   2.989
10689SOL    HW232967   1.111   1.452   2.874
10690SOL     OW32968   1.137   6.773   4.931
10690SOL    HW132969   1.080   6.742   4.855
10690SOL    HW232970   1.159   6.696   4.990
10691SOL     OW32971   3.149   6.542   1.313
10691SOL    HW132972   3.165   6.605   1.237
10691SOL    HW232973   3.224   6.550   1.379
10692SOL     OW32974   2.772   2.060   4.405
10692SOL    HW132975   2.859   2.087   4.446
10692SOL    HW232976   2.781   2.059   4.305
10693SOL     OW32977   1.147   4.996   0.262
10693SOL    HW132978   1.186   4.989   0.170
10693SOL    HW232979   1.090   5.078   0.267
10694SOL     OW32980   4.642   0.703   5.099
10694SOL    HW132981   4.580   0.777   5.126
10694SOL    HW232982   4.593   0.616   5.103
10695SOL     OW32983   5.204   4.573   1.781
10695SOL    HW132984   5.164   4.646   1.726
10695SOL    HW232985   5.304   4.583   1.781
10696SOL     OW32986   6.332   4.410   4.512
10696SOL    HW132987   6.370   4.478   4.449
10696SOL    HW232988   6.233   4.409   4.505
10697SOL     OW32989   3.009   5.604   4.458
10697SOL    HW132990   3.022   5.532   4.389
10697SOL    HW232991   2.969   5.563   4.541
10698SOL     OW32992   3.871   4.138   0.173
10698SOL    HW132993   3.782   4.174   0.145
10698SOL    HW232994   3.878   4.042   0.144
10699SOL     OW32995   3.943   3.270   1.177
10699SOL    HW132996   3.863   3.263   1.118
10699SOL    HW232997   4.004   3.342   1.144
10700SOL     OW32998   4.900   0.341   1.357
10700SOL    HW132999   4.862   0.278   1.424
10700SOL    HW233000   4.912   0.294   1.270
10701SOL     OW33001   3.442   6.132   6.236
10701SOL    HW133002   3.358   6.081   6.252
10701SOL    HW233003   3.517   6.067   6.221
10702SOL     OW33004   5.889   2.050   1.980
10702SOL    HW133005   5.870   2.011   2.070
10702SOL    HW233006   5.881   2.149   1.984
10703SOL     OW33007   0.430   2.023   5.463
10703SOL    HW133008   0.515   2.036   5.412
10703SOL    HW233009   0.398   2.112   5.497
10704SOL     OW33010   5.244   6.733   2.200
10704SOL    HW133011   5.241   6.647   2.149
10704SOL    HW233012   5.152   6.768   2.211
10705SOL     OW33013   4.728   3.442   0.680
10705SOL    HW133014   4.725   3.354   0.633
10705SOL    HW233015   4.639   3.488   0.670
10706SOL     OW33016   3.346   0.803   1.616
10706SOL    HW133017   3.400   0.874   1.660
10706SOL    HW233018   3.290   0.843   1.543
10707SOL     OW33019   4.724   6.672   3.150
10707SOL    HW133020   4.810   6.714   3.121
10707SOL    HW233021   4.693   6.608   3.080
10708SOL     OW33022   4.222   0.857   1.768
10708SOL    HW133023   4.189   0.951   1.761
10708SOL    HW233024   4.318   0.858   1.795
10709SOL     OW33025   6.059   4.636   2.503
10709SOL    HW133026   6.101   4.698   2.569
10709SOL    HW233027   6.101   4.545   2.512
10710SOL     OW33028   4.716   1.710   3.428
10710SOL    HW133029   4.679   1.619   3.447
10710SOL    HW233030   4.663   1.778   3.479
10711SOL     OW33031   2.647   6.718   2.402
10711SOL    HW133032   2.601   6.723   2.313
10711SOL    HW233033   2.735   6.765   2.397
10712SOL     OW33034   5.401   0.411   3.430
10712SOL    HW133035   5.416   0.473   3.353
10712SOL    HW233036   5.376   0.321   3.395
10713SOL     OW33037   1.526   3.925   1.794
10713SOL    HW133038   1.526   3.883   1.703
10713SOL    HW233039   1.444   3.982   1.804
10714SOL     OW33040   3.040   4.084   5.142
10714SOL    HW133041   2.944   4.058   5.136
10714SOL    HW233042   3.087   4.058   5.058
10715SOL     OW33043   5.940   0.914   2.190
10715SOL    HW133044   5.904   0.874   2.106
10715SOL    HW233045   5.873   0.979   2.227
10716SOL     OW33046   5.227   0.779   3.392
10716SOL    HW133047   5.219   0.728   3.478
10716SOL    HW233048   5.140   0.824   3.371
10717SOL     OW33049   2.707   2.623   0.140
10717SOL    HW133050   2.708   2.682   0.060
10717SOL    HW233051   2.617   2.626   0.183
10718SOL     OW33052   1.621   4.669   6.330
10718SOL    HW133053   1.664   4.760   6.330
10718SOL    HW233054   1.672   4.608   6.391
10719SOL     OW33055   0.547   5.798   4.751
10719SOL    HW133056   0.625   5.812   4.690
10719SOL    HW233057   0.462   5.797   4.698
10720SOL     OW33058   0.244   4.927   3.238
10720SOL    HW133059   0.331   4.898   3.279
10720SOL    HW233060   0.260   4.960   3.145
10721SOL     OW33061   5.035   2.648   6.179
10721SOL    HW133062   4.973   2.584   6.222
10721SOL    HW233063   5.030   2.638   6.079
10722SOL     OW33064   0.428   3.360   5.433
10722SOL    HW133065   0.519   3.400   5.448
10722SOL    HW233066   0.438   3.268   5.395
10723SOL     OW33067   5.548   6.805   0.607
10723SOL    HW133068   5.560   6.724   0.664
10723SOL    HW233069   5.563   6.782   0.511
10724SOL     OW33070   0.184   6.534   6.833
10724SOL    HW133071   0.133   6.481   6.900
10724SOL    HW233072   0.162   6.631   6.843
10725SOL     OW33073   2.221   6.171   5.828
10725SOL    HW133074   2.175   6.083   5.815
10725SOL    HW233075   2.279   6.167   5.909
10726SOL     OW33076   3.951   0.901   3.701
10726SOL    HW133077   3.942   0.921   3.603
10726SOL    HW233078   3.990   0.981   3.748
10727SOL     OW33079   1.973   6.495   6.256
10727SOL    HW133080   2.027   6.506   6.339
10727SOL    HW233081   2.004   6.413   6.207
10728SOL     OW33082   5.056   5.526   0.817
10728SOL    HW133083   5.058   5.593   0.892
10728SOL    HW233084   5.043   5.435   0.855
10729SOL     OW33085   6.195   2.039   1.177
10729SOL    HW133086   6.265   2.105   1.152
10729SOL    HW233087   6.188   2.035   1.277
10730SOL     OW33088   4.366   0.456   2.616
10730SOL    HW133089   4.463   0.442   2.593
10730SOL    HW233090   4.348   0.416   2.706
10731SOL     OW33091   4.699   0.137   1.535
10731SOL    HW133092   4.706   0.161   1.632
10731SOL    HW233093   4.672   0.041   1.526
10732SOL     OW33094   0.863   3.617   5.736
10732SOL    HW133095   0.862   3.531   5.787
10732SOL    HW233096   0.957   3.637   5.706
10733SOL     OW33097   5.676   1.536   0.733
10733SOL    HW133098   5.646   1.553   0.639
10733SOL    HW233099   5.599   1.504   0.787
10734SOL     OW33100   6.744   2.777   1.961
10734SOL    HW133101   6.754   2.844   1.888
10734SOL    HW233102   6.789   2.811   2.044
10735SOL     OW33103   0.454   5.010   2.696
10735SOL    HW133104   0.473   5.001   2.794
10735SOL    HW233105   0.540   5.002   2.645
10736SOL     OW33106   2.208   0.877   4.065
10736SOL    HW133107   2.186   0.957   4.122
10736SOL    HW233108   2.179   0.794   4.112
10737SOL     OW33109   6.639   2.201   0.946
10737SOL    HW133110   6.628   2.116   0.893
10737SOL    HW233111   6.600   2.277   0.895
10738SOL     OW33112   3.873   0.315   3.792
10738SOL    HW133113   3.828   0.229   3.817
10738SOL    HW233114   3.956   0.296   3.740
10739SOL     OW33115   2.788   1.941   1.923
10739SOL    HW133116   2.776   1.869   1.991
10739SOL    HW233117   2.714   1.935   1.855
10740SOL     OW33118   4.551   5.518   3.251
10740SOL    HW133119   4.494   5.575   3.310
10740SOL    HW233120   4.495   5.448   3.208
10741SOL     OW33121   3.513   0.628   2.800
10741SOL    HW133122   3.415   0.611   2.810
10741SOL    HW233123   3.528   0.722   2.771
10742SOL     OW33124   6.682   5.241   0.593
10742SOL    HW133125   6.641   5.170   0.650
10742SOL    HW233126   6.618   5.319   0.587
10743SOL     OW33127   2.505   2.647   5.337
10743SOL    HW133128   2.442   2.676   5.265
10743SOL    HW233129   2.515   2.719   5.405
10744SOL     OW33130   5.607   1.897   0.572
10744SOL    HW133131   5.560   1.942   0.648
10744SOL    HW233132   5.705   1.915   0.578
10745SOL     OW33133   6.914   5.703   6.343
10745SOL    HW133134   6.973   5.628   6.315
10745SOL    HW233135   6.894   5.695   6.441
10746SOL     OW33136   1.115   4.253   5.985
10746SOL    HW133137   1.093   4.161   5.952
10746SOL    HW233138   1.082   4.321   5.919
10747SOL     OW33139   3.415   2.031   4.186
10747SOL    HW133140   3.465   2.071   4.109
10747SOL    HW233141   3.471   2.034   4.268
10748SOL     OW33142   5.105   1.384   2.307
10748SOL    HW133143   5.027   1.443   2.326
10748SOL    HW233144   5.118   1.375   2.208
10749SOL     OW33145   2.480   0.046   6.744
10749SOL    HW133146   2.548   7.002   6.756
10749SOL    HW233147   2.399   0.024   6.798
10750SOL     OW33148   3.912   6.734   6.285
10750SOL    HW133149   3.923   6.829   6.315
10750SOL    HW233150   3.841   6.690   6.339
10751SOL     OW33151   2.214   5.457   3.944
10751SOL    HW133152   2.299   5.471   3.893
10751SOL    HW233153   2.152   5.399   3.890
10752SOL     OW33154   5.313   4.976   3.934
10752SOL    HW133155   5.216   4.996   3.948
10752SOL    HW233156   5.323   4.881   3.904
10753SOL     OW33157   6.494   3.680   4.596
10753SOL    HW133158   6.440   3.620   4.655
10753SOL    HW233159   6.542   3.625   4.527
10754SOL     OW33160   1.014   6.907   2.310
10754SOL    HW133161   1.025   6.858   2.224
10754SOL    HW233162   0.922   6.945   2.316
10755SOL     OW33163   6.490   5.833   2.241
10755SOL    HW133164   6.546   5.781   2.306
10755SOL    HW233165   6.536   5.838   2.153
10756SOL     OW33166   0.688   0.015   5.241
10756SOL    HW133167   0.642   0.051   5.160
10756SOL    HW233168   0.786   0.028   5.232
10757SOL     OW33169   2.685   3.068   1.144
10757SOL    HW133170   2.781   3.091   1.126
10757SOL    HW233171   2.650   3.009   1.071
10758SOL     OW33172   0.635   5.170   3.925
10758SOL    HW133173   0.580   5.096   3.886
10758SOL    HW233174   0.710   5.131   3.978
10759SOL     OW33175   0.004   1.373   6.613
10759SOL    HW133176   6.998   1.467   6.626
10759SOL    HW233177   6.971   1.309   6.660
10760SOL     OW33178   5.655   1.284   5.170
10760SOL    HW133179   5.590   1.360   5.178
10760SOL    HW233180   5.684   1.255   5.261
10761SOL     OW33181   2.673   5.210   5.345
10761SOL    HW133182   2.708   5.295   5.307
10761SOL    HW233183   2.576   5.220   5.365
10762SOL     OW33184   2.974   1.322   4.951
10762SOL    HW133185   2.965   1.232   4.910
10762SOL    HW233186   2.991   1.312   5.050
10763SOL     OW33187   4.261   6.205   4.040
10763SOL    HW133188   4.263   6.235   3.944
10763SOL    HW233189   4.264   6.105   4.043
10764SOL     OW33190   4.835   0.409   4.823
10764SOL    HW133191   4.933   0.409   4.804
10764SOL    HW233192   4.796   0.321   4.795
10765SOL     OW33193   6.117   3.754   0.267
10765SOL    HW133194   6.181   3.804   0.327
10765SOL    HW233195   6.024   3.785   0.285
10766SOL     OW33196   3.622   3.543   1.438
10766SOL    HW133197   3.680   3.462   1.447
10766SOL    HW233198   3.527   3.517   1.452
10767SOL     OW33199   4.842   1.863   2.148
10767SOL    HW133200   4.824   1.958   2.173
10767SOL    HW233201   4.756   1.812   2.149
10768SOL     OW33202   6.420   4.769   6.893
10768SOL    HW133203   6.431   4.766   6.992
10768SOL    HW233204   6.353   4.700   6.865
10769SOL     OW33205   1.738   3.831   5.253
10769SOL    HW133206   1.713   3.754   5.312
10769SOL    HW233207   1.679   3.832   5.172
10770SOL     OW33208   3.903   6.052   3.607
10770SOL    HW133209   3.946   6.107   3.678
10770SOL    HW233210   3.891   5.959   3.640
10771SOL     OW33211   2.116   1.161   4.146
10771SOL    HW133212   2.031   1.114   4.171
10771SOL    HW233213   2.103   1.260   4.155
10772SOL     OW33214   5.291   5.606   3.208
10772SOL    HW133215   5.242   5.677   3.260
10772SOL    HW233216   5.335   5.543   3.271
10773SOL     OW33217   5.755   4.444   2.920
10773SOL    HW133218   5.712   4.446   2.830
10773SOL    HW233219   5.775   4.349   2.946
10774SOL     OW33220   0.305   6.971   3.230
10774SOL    HW133221   0.324   6.947   3.325
10774SOL    HW233222   0.288   6.887   3.177
10775SOL     OW33223   0.491   3.509   1.655
10775SOL    HW133224   0.539   3.524   1.742
10775SOL    HW233225   0.473   3.597   1.611
10776SOL     OW33226   1.197   0.605   5.995
10776SOL    HW133227   1.138   0.530   5.964
10776SOL    HW233228   1.233   0.584   6.086
10777SOL     OW33229   2.701   5.975   1.135
10777SOL    HW133230   2.800   5.987   1.126
10777SOL    HW233231   2.664   6.044   1.196
10778SOL     OW33232   5.789   5.720   2.214
10778SOL    HW133233   5.823   5.626   2.213
10778SOL    HW233234   5.689   5.719   2.210
10779SOL     OW33235   4.832   2.680   3.849
10779SOL    HW133236   4.884   2.618   3.908
10779SOL    HW233237   4.850   2.658   3.753
10780SOL     OW33238   6.605   0.676   2.450
10780SOL    HW133239   6.506   0.679   2.459
10780SOL    HW233240   6.645   0.762   2.482
10781SOL     OW33241   3.293   6.970   4.271
10781SOL    HW133242   3.195   6.991   4.273
10781SOL    HW233243   3.337   7.025   4.200
10782SOL     OW33244   6.054   5.278   3.673
10782SOL    HW133245   6.012   5.189   3.658
10782SOL    HW233246   5.984   5.344   3.700
10783SOL     OW33247   6.948   1.972   3.480
10783SOL    HW133248   6.916   2.067   3.484
10783SOL    HW233249   6.992   1.956   3.392
10784SOL     OW33250   2.634   1.751   4.709
10784SOL    HW133251   2.648   1.839   4.664
10784SOL    HW233252   2.543   1.749   4.750
10785SOL     OW33253   1.134   3.408   6.036
10785SOL    HW133254   1.090   3.483   6.085
10785SOL    HW233255   1.209   3.372   6.091
10786SOL     OW33256   0.241   4.396   3.911
10786SOL    HW133257   0.234   4.489   3.875
10786SOL    HW233258   0.254   4.400   4.010
10787SOL     OW33259   1.900   2.536   6.423
10787SOL    HW133260   1.944   2.619   6.388
10787SOL    HW233261   1.953   2.498   6.499
10788SOL     OW33262   5.787   3.790   6.051
10788SOL    HW133263   5.761   3.827   5.961
10788SOL    HW233264   5.844   3.709   6.038
10789SOL     OW33265   5.792   1.771   0.944
10789SOL    HW133266   5.765   1.718   0.863
10789SOL    HW233267   5.871   1.728   0.988
10790SOL     OW33268   6.840   6.430   2.960
10790SOL    HW133269   6.851   6.461   3.054
10790SOL    HW233270   6.766   6.481   2.917
10791SOL     OW33271   0.733   6.363   2.435
10791SOL    HW133272   0.829   6.340   2.416
10791SOL    HW233273   0.674   6.289   2.401
10792SOL     OW33274   3.925   4.042   5.576
10792SOL    HW133275   3.840   4.020   5.527
10792SOL    HW233276   4.002   4.037   5.513
10793SOL     OW33277   6.239   4.058   3.968
10793SOL    HW133278   6.287   4.121   3.907
10793SOL    HW233279   6.146   4.089   3.983
10794SOL     OW33280   3.137   4.091   4.485
10794SOL    HW133281   3.223   4.043   4.469
10794SOL    HW233282   3.120   4.157   4.411
10795SOL     OW33283   6.983   5.287   2.854
10795SOL    HW133284   6.911   5.268   2.921
10795SOL    HW233285   0.011   5.363   2.885
10796SOL     OW33286   1.287   6.312   5.536
10796SOL    HW133287   1.372   6.273   5.501
10796SOL    HW233288   1.294   6.323   5.635
10797SOL     OW33289   3.451   2.580   0.366
10797SOL    HW133290   3.525   2.606   0.304
10797SOL    HW233291   3.470   2.618   0.457
10798SOL     OW33292   6.492   1.342   0.807
10798SOL    HW133293   6.443   1.381   0.885
10798SOL    HW233294   6.543   1.414   0.760
10799SOL     OW33295   4.981   1.743   1.121
10799SOL    HW133296   4.953   1.834   1.153
10799SOL    HW233297   4.903   1.681   1.126
10800SOL     OW33298   6.984   6.576   1.821
10800SOL    HW133299   6.950   6.484   1.836
10800SOL    HW233300   6.968   6.602   1.726
10801SOL     OW33301   2.053   0.727   0.972
10801SOL    HW133302   2.104   0.660   0.918
10801SOL    HW233303   2.092   0.818   0.956
10802SOL     OW33304   6.133   1.369   3.338
10802SOL    HW133305   6.059   1.302   3.343
10802SOL    HW233306   6.205   1.344   3.403
10803SOL     OW33307   2.220   5.168   6.022
10803SOL    HW133308   2.192   5.182   5.927
10803SOL    HW233309   2.272   5.083   6.029
10804SOL     OW33310   6.914   3.022   4.488
10804SOL    HW133311   6.987   3.041   4.422
10804SOL    HW233312   6.870   2.935   4.466
10805SOL     OW33313   6.485   0.999   6.421
10805SOL    HW133314   6.468   0.907   6.455
10805SOL    HW233315   6.466   1.002   6.323
10806SOL     OW33316   1.450   5.295   6.853
10806SOL    HW133317   1.496   5.219   6.900
10806SOL    HW233318   1.387   5.340   6.916
10807SOL     OW33319   3.277   6.025   5.293
10807SOL    HW133320   3.329   6.001   5.212
10807SOL    HW233321   3.260   5.943   5.348
10808SOL     OW33322   1.004   2.970   6.342
10808SOL    HW133323   1.014   3.031   6.421
10808SOL    HW233324   0.971   3.021   6.263
10809SOL     OW33325   1.406   0.092   4.918
10809SOL    HW133326   1.418   0.038   4.834
10809SOL    HW233327   1.491   0.140   4.938
10810SOL     OW33328   6.328   0.802   4.353
10810SOL    HW133329   6.383   0.818   4.435
10810SOL    HW233330   6.316   0.888   4.304
10811SOL     OW33331   4.870   5.396   4.807
10811SOL    HW133332   4.850   5.366   4.713
10811SOL    HW233333   4.886   5.495   4.807
10812SOL     OW33334   6.863   3.109   0.302
10812SOL    HW133335   6.896   3.201   0.321
10812SOL    HW233336   6.817   3.108   0.213
10813SOL     OW33337   0.799   3.124   6.575
10813SOL    HW133338   0.751   3.211   6.563
10813SOL    HW233339   0.742   3.049   6.540
10814SOL     OW33340   3.256   1.766   0.720
10814SOL    HW133341   3.355   1.774   0.722
10814SOL    HW233342   3.223   1.737   0.810
10815SOL     OW33343   5.289   0.987   4.496
10815SOL    HW133344   5.372   1.038   4.521
10815SOL    HW233345   5.315   0.909   4.438
10816SOL     OW33346   3.062   3.104   4.654
10816SOL    HW133347   3.002   3.184   4.665
10816SOL    HW233348   3.011   3.021   4.677
10817SOL     OW33349   1.441   6.420   4.058
10817SOL    HW133350   1.444   6.425   4.157
10817SOL    HW233351   1.370   6.482   4.023
10818SOL     OW33352   3.967   4.262   6.881
10818SOL    HW133353   3.964   4.333   6.952
10818SOL    HW233354   4.045   4.202   6.897
10819SOL     OW33355   6.433   6.405   5.604
10819SOL    HW133356   6.458   6.430   5.510
10819SOL    HW233357   6.402   6.487   5.653
10820SOL     OW33358   2.679   4.483   6.161
10820SOL    HW133359   2.678   4.495   6.061
10820SOL    HW233360   2.653   4.569   6.205
10821SOL     OW33361   4.334   5.707   3.094
10821SOL    HW133362   4.349   5.708   3.193
10821SOL    HW233363   4.299   5.796   3.066
10822SOL     OW33364   5.842   1.221   2.458
10822SOL    HW133365   5.796   1.200   2.372
10822SOL    HW233366   5.917   1.156   2.472
10823SOL     OW33367   5.447   6.378   1.367
10823SOL    HW133368   5.456   6.474   1.393
10823SOL    HW233369   5.422   6.372   1.271
10824SOL     OW33370   1.383   3.034   3.657
10824SOL    HW133371   1.304   3.063   3.712
10824SOL    HW233372   1.412   3.110   3.599
10825SOL     OW33373   0.351   2.717   0.736
10825SOL    HW133374   0.338   2.619   0.720
10825SOL    HW233375   0.264   2.765   0.723
10826SOL     OW33376   6.564   3.336   2.867
10826SOL    HW133377   6.544   3.350   2.770
10826SOL    HW233378   6.479   3.318   2.917
10827SOL     OW33379   0.272   3.554   4.847
10827SOL    HW133380   0.328   3.490   4.901
10827SOL    HW233381   0.326   3.589   4.770
10828SOL     OW33382   6.696   4.075   5.072
10828SOL    HW133383   6.721   4.092   5.167
10828SOL    HW233384   6.611   4.123   5.051
10829SOL     OW33385   3.515   2.889   5.615
10829SOL    HW133386   3.606   2.890   5.656
10829SOL    HW233387   3.519   2.841   5.528
10830SOL     OW33388   4.971   2.071   2.971
10830SOL    HW133389   5.033   2.148   2.954
10830SOL    HW233390   4.884   2.107   3.004
10831SOL     OW33391   4.017   6.912   3.848
10831SOL    HW133392   4.070   6.943   3.769
10831SOL    HW233393   3.935   6.968   3.856
10832SOL     OW33394   6.525   2.589   0.291
10832SOL    HW133395   6.578   2.575   0.207
10832SOL    HW233396   6.428   2.584   0.270
10833SOL     OW33397   0.436   1.030   6.786
10833SOL    HW133398   0.458   1.025   6.689
10833SOL    HW233399   0.518   1.011   6.840
10834SOL     OW33400   6.116   6.372   1.504
10834SOL    HW133401   6.190   6.403   1.563
10834SOL    HW233402   6.063   6.451   1.474
10835SOL     OW33403   6.965   2.395   5.312
10835SOL    HW133404   6.901   2.414   5.238
10835SOL    HW233405   7.025   2.474   5.326
10836SOL     OW33406   0.061   1.281   3.724
10836SOL    HW133407   0.148   1.235   3.706
10836SOL    HW233408   0.029   1.328   3.642
10837SOL     OW33409   0.578   3.281   4.167
10837SOL    HW133410   0.522   3.344   4.113
10837SOL    HW233411   0.524   3.199   4.189
10838SOL     OW33412   0.491   5.799   2.508
10838SOL    HW133413   0.492   5.809   2.409
10838SOL    HW233414   0.511   5.887   2.552
10839SOL     OW33415   4.597   3.045   0.715
10839SOL    HW133416   4.646   2.958   0.715
10839SOL    HW233417   4.499   3.029   0.728
10840SOL     OW33418   2.310   0.154   1.846
10840SOL    HW133419   2.304   0.081   1.915
10840SOL    HW233420   2.251   0.132   1.769
10841SOL     OW33421   2.307   5.359   5.105
10841SOL    HW133422   2.256   5.400   5.180
10841SOL    HW233423   2.404   5.353   5.130
10842SOL     OW33424   6.158   4.673   2.262
10842SOL    HW133425   6.118   4.676   2.354
10842SOL    HW233426   6.136   4.585   2.220
10843SOL     OW33427   2.941   1.794   1.412
10843SOL    HW133428   2.939   1.886   1.451
10843SOL    HW233429   2.855   1.777   1.363
10844SOL     OW33430   1.559   5.500   5.219
10844SOL    HW133431   1.510   5.469   5.300
10844SOL    HW233432   1.652   5.462   5.218
10845SOL     OW33433   3.871   0.013   4.460
10845SOL    HW133434   3.819   0.031   4.543
10845SOL    HW233435   3.872   6.942   4.443
10846SOL     OW33436   5.951   0.059   6.051
10846SOL    HW133437   6.025   0.010   6.005
10846SOL    HW233438   5.982   0.090   6.141
10847SOL     OW33439   3.228   0.357   6.732
10847SOL    HW133440   3.151   0.349   6.669
10847SOL    HW233441   3.266   0.266   6.750
10848SOL     OW33442   1.613   3.795   2.004
10848SOL    HW133443   1.570   3.834   1.923
10848SOL    HW233444   1.712   3.805   1.998
10849SOL     OW33445   2.149   6.442   2.823
10849SOL    HW133446   2.078   6.424   2.755
10849SOL    HW233447   2.142   6.376   2.897
10850SOL     OW33448   4.556   4.157   0.756
10850SOL    HW133449   4.592   4.064   0.741
10850SOL    HW233450   4.614   4.223   0.708
10851SOL     OW33451   1.457   4.326   0.498
10851SOL    HW133452   1.381   4.263   0.517
10851SOL    HW233453   1.538   4.274   0.474
10852SOL     OW33454   2.366   2.028   2.559
10852SOL    HW133455   2.458   1.991   2.545
10852SOL    HW233456   2.372   2.114   2.610
10853SOL     OW33457   3.640   1.254   6.105
10853SOL    HW133458   3.559   1.313   6.112
10853SOL    HW233459   3.620   1.165   6.146
10854SOL     OW33460   3.256   6.104   5.795
10854SOL    HW133461   3.262   6.144   5.704
10854SOL    HW233462   3.188   6.030   5.794
10855SOL     OW33463   4.288   1.621   0.077
10855SOL    HW133464   4.207   1.570   0.049
10855SOL    HW233465   4.268   1.719   0.073
10856SOL     OW33466   0.793   1.521   0.428
10856SOL    HW133467   0.846   1.519   0.513
10856SOL    HW233468   0.818   1.441   0.372
10857SOL     OW33469   7.021   2.664   2.364
10857SOL    HW133470   0.039   2.577   2.347
10857SOL    HW233471   6.924   2.648   2.381
10858SOL     OW33472   2.692   6.267   2.069
10858SOL    HW133473   2.763   6.337   2.068
10858SOL    HW233474   2.622   6.292   2.136
10859SOL     OW33475   1.644   5.359   3.261
10859SOL    HW133476   1.716   5.365   3.192
10859SOL    HW233477   1.685   5.364   3.352
10860SOL     OW33478   6.988   3.754   3.327
10860SOL    HW133479   0.024   3.712   3.264
10860SOL    HW233480   6.937   3.826   3.280
10861SOL     OW33481   3.777   2.919   5.685
10861SOL    HW133482   3.804   2.849   5.751
10861SOL    HW233483   3.835   2.913   5.604
10862SOL     OW33484   0.686   0.744   5.232
10862SOL    HW133485   0.684   0.790   5.143
10862SOL    HW233486   0.669   0.646   5.219
10863SOL     OW33487   2.515   6.605   4.221
10863SOL    HW133488   2.595   6.649   4.262
10863SOL    HW233489   2.432   6.650   4.252
10864SOL     OW33490   3.610   6.483   2.830
10864SOL    HW133491   3.582   6.435   2.913
10864SOL    HW233492   3.643   6.417   2.762
10865SOL     OW33493   6.362   1.814   6.026
10865SOL    HW133494   6.317   1.808   5.937
10865SOL    HW233495   6.442   1.753   6.026
10866SOL     OW33496   5.758   4.900   6.424
10866SOL    HW133497   5.659   4.914   6.418
10866SOL    HW233498   5.794   4.953   6.501
10867SOL     OW33499   2.888   1.367   6.541
10867SOL    HW133500   2.808   1.324   6.500
10867SOL    HW233501   2.919   1.312   6.619
10868SOL     OW33502   2.497   2.432   3.273
10868SOL    HW133503   2.592   2.407   3.290
10868SOL    HW233504   2.446   2.434   3.359
10869NA      NA33505   6.173   2.451   5.675
10870NA      NA33506   4.373   4.629   5.245
10871NA      NA33507   2.172   3.629   1.840
10872NA      NA33508   4.958   3.671   5.200
10873NA      NA33509   4.116   2.417   5.354
10874NA      NA33510   3.745   4.850   1.736
10875NA      NA33511   6.670   5.917   4.686
10876NA      NA33512   3.371   3.335   4.853
10877NA      NA33513   4.617   6.567   6.376
10878NA      NA33514   2.602   0.469   5.160
10879NA      NA33515   0.549   4.821   2.358
10880NA      NA33516   2.437   0.663   2.508
10881NA      NA33517   3.426   4.444   1.294
10882NA      NA33518   3.439   3.285   2.874
   7.02817   7.02817   7.02817
