Generated by trjconv : CNT in water t= 561.00000
33518
    1C        C    1   2.850   2.773   4.751
    1C        C    2   2.896   2.713   4.870
    1C        C    3   2.844   2.772   4.987
    1C        C    4   2.852   2.778   4.262
    1C        C    5   2.899   2.729   4.386
    1C        C    6   2.844   2.773   4.508
    1C        C    7   3.018   2.648   4.631
    1C        C    8   2.899   2.724   4.628
    1C        C    9   3.082   2.610   4.750
    1C        C   10   3.010   2.630   4.870
    1C        C   11   3.187   2.489   4.979
    1C        C   12   3.062   2.552   4.974
    1C        C   13   2.852   2.768   3.772
    1C        C   14   2.897   2.719   3.897
    1C        C   15   2.847   2.771   4.019
    1C        C   16   3.019   2.646   4.144
    1C        C   17   2.902   2.726   4.141
    1C        C   18   3.086   2.624   4.266
    1C        C   19   3.018   2.653   4.387
    1C        C   20   3.211   2.565   4.509
    1C        C   21   3.079   2.614   4.508
    1C        C   22   3.284   2.539   4.627
    1C        C   23   3.212   2.550   4.748
    1C        C   24   3.416   2.482   4.866
    1C        C   25   3.274   2.500   4.866
    1C        C   26   3.491   2.478   4.984
    1C        C   27   2.854   2.769   3.283
    1C        C   28   2.907   2.727   3.407
    1C        C   29   2.857   2.774   3.530
    1C        C   30   3.027   2.644   3.654
    1C        C   31   2.910   2.724   3.651
    1C        C   32   3.083   2.608   3.779
    1C        C   33   3.016   2.643   3.898
    1C        C   34   3.212   2.562   4.021
    1C        C   35   3.081   2.614   4.021
    1C        C   36   3.281   2.539   4.142
    1C        C   37   3.216   2.568   4.264
    1C        C   38   3.420   2.523   4.384
    1C        C   39   3.281   2.547   4.388
    1C        C   40   3.492   2.506   4.504
    1C        C   41   3.421   2.505   4.626
    1C        C   42   3.634   2.478   4.746
    1C        C   43   3.492   2.479   4.745
    1C        C   44   3.709   2.486   4.865
    1C        C   45   3.630   2.476   4.980
    1C        C   46   2.837   2.749   2.798
    1C        C   47   2.895   2.707   2.920
    1C        C   48   2.844   2.759   3.041
    1C        C   49   3.018   2.633   3.164
    1C        C   50   2.902   2.714   3.161
    1C        C   51   3.081   2.602   3.287
    1C        C   52   3.019   2.641   3.408
    1C        C   53   3.213   2.554   3.529
    1C        C   54   3.082   2.606   3.530
    1C        C   55   3.278   2.531   3.653
    1C        C   56   3.213   2.552   3.776
    1C        C   57   3.420   2.515   3.898
    1C        C   58   3.280   2.537   3.900
    1C        C   59   3.490   2.507   4.020
    1C        C   60   3.419   2.510   4.143
    1C        C   61   3.633   2.500   4.261
    1C        C   62   3.492   2.508   4.263
    1C        C   63   3.706   2.505   4.382
    1C        C   64   3.634   2.501   4.503
    1C        C   65   3.842   2.534   4.625
    1C        C   66   3.704   2.502   4.626
    1C        C   67   3.912   2.556   4.745
    1C        C   68   3.844   2.527   4.865
    1C        C   69   4.052   2.587   4.979
    1C        C   70   3.929   2.520   4.977
    1C        C   71   2.826   2.733   2.311
    1C        C   72   2.883   2.690   2.432
    1C        C   73   2.832   2.743   2.553
    1C        C   74   3.007   2.623   2.674
    1C        C   75   2.891   2.703   2.675
    1C        C   76   3.076   2.598   2.795
    1C        C   77   3.014   2.631   2.917
    1C        C   78   3.209   2.551   3.039
    1C        C   79   3.077   2.601   3.040
    1C        C   80   3.276   2.528   3.162
    1C        C   81   3.212   2.549   3.286
    1C        C   82   3.420   2.506   3.406
    1C        C   83   3.280   2.529   3.407
    1C        C   84   3.489   2.503   3.529
    1C        C   85   3.418   2.510   3.651
    1C        C   86   3.628   2.500   3.773
    1C        C   87   3.486   2.504   3.774
    1C        C   88   3.698   2.512   3.895
    1C        C   89   3.631   2.508   4.019
    1C        C   90   3.843   2.539   4.139
    1C        C   91   3.704   2.513   4.140
    1C        C   92   3.910   2.567   4.260
    1C        C   93   3.842   2.542   4.382
    1C        C   94   4.033   2.633   4.501
    1C        C   95   3.910   2.563   4.505
    1C        C   96   4.096   2.666   4.622
    1C        C   97   4.038   2.622   4.743
    1C        C   98   4.192   2.767   4.866
    1C        C   99   4.105   2.653   4.864
    1C        C  100   4.207   2.850   4.978
    1C        C  101   2.826   2.736   2.071
    1C        C  102   2.989   2.592   2.192
    1C        C  103   2.875   2.679   2.189
    1C        C  104   3.063   2.574   2.312
    1C        C  105   3.007   2.621   2.432
    1C        C  106   3.205   2.540   2.552
    1C        C  107   3.072   2.589   2.553
    1C        C  108   3.274   2.521   2.674
    1C        C  109   3.206   2.544   2.796
    1C        C  110   3.415   2.500   2.917
    1C        C  111   3.275   2.524   2.917
    1C        C  112   3.486   2.498   3.039
    1C        C  113   3.415   2.506   3.161
    1C        C  114   3.629   2.501   3.281
    1C        C  115   3.488   2.501   3.283
    1C        C  116   3.698   2.511   3.404
    1C        C  117   3.631   2.504   3.528
    1C        C  118   3.837   2.541   3.649
    1C        C  119   3.699   2.509   3.651
    1C        C  120   3.902   2.563   3.772
    1C        C  121   3.835   2.548   3.895
    1C        C  122   4.032   2.632   4.013
    1C        C  123   3.906   2.568   4.015
    1C        C  124   4.090   2.674   4.134
    1C        C  125   4.032   2.638   4.257
    1C        C  126   4.199   2.766   4.379
    1C        C  127   4.094   2.673   4.379
    1C        C  128   4.245   2.819   4.501
    1C        C  129   4.198   2.765   4.623
    1C        C  130   4.326   2.936   4.742
    1C        C  131   4.246   2.818   4.744
    1C        C  132   4.357   3.003   4.863
    1C        C  133   4.281   2.968   4.975
    1C        C  134   3.176   2.472   2.081
    1C        C  135   3.041   2.511   2.086
    1C        C  136   3.261   2.482   2.192
    1C        C  137   3.196   2.522   2.311
    1C        C  138   3.409   2.482   2.432
    1C        C  139   3.270   2.508   2.431
    1C        C  140   3.482   2.484   2.552
    1C        C  141   3.412   2.494   2.675
    1C        C  142   3.627   2.499   2.793
    1C        C  143   3.486   2.492   2.795
    1C        C  144   3.698   2.509   2.914
    1C        C  145   3.627   2.501   3.037
    1C        C  146   3.836   2.541   3.160
    1C        C  147   3.699   2.506   3.158
    1C        C  148   3.904   2.563   3.282
    1C        C  149   3.836   2.541   3.403
    1C        C  150   4.029   2.626   3.523
    1C        C  151   3.903   2.563   3.526
    1C        C  152   4.084   2.669   3.646
    1C        C  153   4.024   2.634   3.769
    1C        C  154   4.196   2.762   3.890
    1C        C  155   4.088   2.671   3.889
    1C        C  156   4.247   2.813   4.011
    1C        C  157   4.202   2.761   4.135
    1C        C  158   4.339   2.924   4.258
    1C        C  159   4.254   2.811   4.256
    1C        C  160   4.379   2.985   4.379
    1C        C  161   4.333   2.930   4.500
    1C        C  162   4.437   3.117   4.620
    1C        C  163   4.368   2.994   4.621
    1C        C  164   4.465   3.187   4.739
    1C        C  165   4.428   3.125   4.860
    1C        C  166   4.515   3.323   4.973
    1C        C  167   4.477   3.189   4.975
    1C        C  168   3.477   2.444   2.076
    1C        C  169   3.401   2.463   2.192
    1C        C  170   3.620   2.470   2.309
    1C        C  171   3.478   2.462   2.310
    1C        C  172   3.695   2.493   2.427
    1C        C  173   3.623   2.495   2.548
    1C        C  174   3.831   2.543   2.670
    1C        C  175   3.695   2.503   2.669
    1C        C  176   3.900   2.563   2.791
    1C        C  177   3.834   2.544   2.915
    1C        C  178   4.030   2.623   3.033
    1C        C  179   3.901   2.565   3.037
    1C        C  180   4.087   2.664   3.155
    1C        C  181   4.031   2.625   3.279
    1C        C  182   4.201   2.750   3.401
    1C        C  183   4.093   2.660   3.401
    1C        C  184   4.247   2.803   3.524
    1C        C  185   4.196   2.755   3.647
    1C        C  186   4.340   2.915   3.768
    1C        C  187   4.250   2.807   3.767
    1C        C  188   4.379   2.976   3.889
    1C        C  189   4.337   2.922   4.012
    1C        C  190   4.444   3.106   4.131
    1C        C  191   4.377   2.982   4.134
    1C        C  192   4.473   3.172   4.252
    1C        C  193   4.446   3.109   4.375
    1C        C  194   4.509   3.314   4.493
    1C        C  195   4.468   3.179   4.496
    1C        C  196   4.521   3.388   4.612
    1C        C  197   4.506   3.323   4.737
    1C        C  198   4.557   3.538   4.853
    1C        C  199   4.532   3.397   4.855
    1C        C  200   4.589   3.626   4.961
    1C        C  201   3.616   2.426   2.074
    1C        C  202   3.827   2.517   2.185
    1C        C  203   3.693   2.467   2.188
    1C        C  204   3.900   2.545   2.304
    1C        C  205   3.834   2.519   2.426
    1C        C  206   4.026   2.615   2.546
    1C        C  207   3.899   2.554   2.547
    1C        C  208   4.086   2.658   2.666
    1C        C  209   4.026   2.628   2.790
    1C        C  210   4.204   2.745   2.910
    1C        C  211   4.094   2.657   2.911
    1C        C  212   4.254   2.794   3.033
    1C        C  213   4.203   2.746   3.156
    1C        C  214   4.341   2.907   3.276
    1C        C  215   4.253   2.796   3.278
    1C        C  216   4.377   2.969   3.398
    1C        C  217   4.334   2.915   3.521
    1C        C  218   4.433   3.100   3.643
    1C        C  219   4.376   2.971   3.643
    1C        C  220   4.460   3.168   3.764
    1C        C  221   4.445   3.101   3.888
    1C        C  222   4.502   3.308   4.005
    1C        C  223   4.470   3.170   4.008
    1C        C  224   4.511   3.379   4.127
    1C        C  225   4.505   3.310   4.250
    1C        C  226   4.515   3.525   4.370
    1C        C  227   4.516   3.384   4.370
    1C        C  228   4.512   3.600   4.489
    1C        C  229   4.526   3.529   4.611
    1C        C  230   4.504   3.744   4.729
    1C        C  231   4.534   3.605   4.729
    1C        C  232   4.494   3.822   4.847
    1C        C  233   4.544   3.759   4.962
    1C        C  234   4.024   2.609   2.064
    1C        C  235   3.902   2.543   2.070
    1C        C  236   4.089   2.649   2.182
    1C        C  237   4.025   2.611   2.303
    1C        C  238   4.205   2.730   2.421
    1C        C  239   4.087   2.651   2.423
    1C        C  240   4.255   2.786   2.541
    1C        C  241   4.197   2.745   2.663
    1C        C  242   4.335   2.906   2.788
    1C        C  243   4.250   2.793   2.785
    1C        C  244   4.376   2.965   2.909
    1C        C  245   4.340   2.905   3.033
    1C        C  246   4.437   3.095   3.152
    1C        C  247   4.380   2.966   3.154
    1C        C  248   4.457   3.163   3.275
    1C        C  249   4.433   3.099   3.399
    1C        C  250   4.487   3.304   3.518
    1C        C  251   4.458   3.166   3.520
    1C        C  252   4.502   3.375   3.639
    1C        C  253   4.495   3.305   3.762
    1C        C  254   4.520   3.518   3.882
    1C        C  255   4.512   3.377   3.882
    1C        C  256   4.516   3.590   4.003
    1C        C  257   4.513   3.520   4.126
    1C        C  258   4.486   3.733   4.243
    1C        C  259   4.510   3.594   4.246
    1C        C  260   4.465   3.804   4.363
    1C        C  261   4.487   3.739   4.487
    1C        C  262   4.429   3.944   4.606
    1C        C  263   4.475   3.811   4.608
    1C        C  264   4.403   4.016   4.725
    1C        C  265   4.436   3.950   4.846
    1C        C  266   4.323   4.136   4.961
    1C        C  267   4.391   4.015   4.962
    1C        C  268   4.268   2.776   2.065
    1C        C  269   4.205   2.728   2.181
    1C        C  270   4.353   2.886   2.304
    1C        C  271   4.264   2.775   2.301
    1C        C  272   4.386   2.956   2.422
    1C        C  273   4.342   2.897   2.543
    1C        C  274   4.442   3.085   2.665
    1C        C  275   4.377   2.960   2.664
    1C        C  276   4.466   3.155   2.785
    1C        C  277   4.445   3.088   2.908
    1C        C  278   4.500   3.295   3.030
    1C        C  279   4.468   3.157   3.029
    1C        C  280   4.511   3.367   3.151
    1C        C  281   4.496   3.298   3.273
    1C        C  282   4.507   3.512   3.393
    1C        C  283   4.502   3.371   3.394
    1C        C  284   4.509   3.583   3.516
    1C        C  285   4.514   3.515   3.640
    1C        C  286   4.490   3.729   3.755
    1C        C  287   4.514   3.589   3.760
    1C        C  288   4.469   3.796   3.877
    1C        C  289   4.490   3.729   4.000
    1C        C  290   4.427   3.935   4.119
    1C        C  291   4.471   3.801   4.120
    1C        C  292   4.400   4.003   4.240
    1C        C  293   4.424   3.939   4.364
    1C        C  294   4.330   4.133   4.481
    1C        C  295   4.397   4.008   4.484
    1C        C  296   4.291   4.195   4.602
    1C        C  297   4.330   4.138   4.725
    1C        C  298   4.208   4.323   4.841
    1C        C  299   4.288   4.204   4.844
    1C        C  300   4.173   4.407   4.951
    1C        C  301   4.354   2.886   2.065
    1C        C  302   4.475   3.066   2.181
    1C        C  303   4.402   2.943   2.184
    1C        C  304   4.485   3.145   2.299
    1C        C  305   4.449   3.083   2.420
    1C        C  306   4.512   3.284   2.540
    1C        C  307   4.476   3.148   2.543
    1C        C  308   4.513   3.358   2.661
    1C        C  309   4.494   3.293   2.785
    1C        C  310   4.526   3.503   2.904
    1C        C  311   4.510   3.363   2.907
    1C        C  312   4.516   3.578   3.024
    1C        C  313   4.511   3.508   3.147
    1C        C  314   4.484   3.719   3.268
    1C        C  315   4.502   3.579   3.269
    1C        C  316   4.471   3.790   3.390
    1C        C  317   4.487   3.723   3.513
    1C        C  318   4.425   3.929   3.630
    1C        C  319   4.473   3.796   3.632
    1C        C  320   4.398   3.995   3.751
    1C        C  321   4.426   3.931   3.874
    1C        C  322   4.329   4.120   3.992
    1C        C  323   4.399   3.998   3.995
    1C        C  324   4.288   4.178   4.114
    1C        C  325   4.331   4.126   4.238
    1C        C  326   4.193   4.291   4.357
    1C        C  327   4.290   4.189   4.358
    1C        C  328   4.146   4.350   4.476
    1C        C  329   4.198   4.301   4.598
    1C        C  330   4.030   4.438   4.714
    1C        C  331   4.147   4.357   4.717
    1C        C  332   3.972   4.495   4.830
    1C        C  333   4.055   4.482   4.942
    1C        C  334   4.556   3.270   2.066
    1C        C  335   4.532   3.132   2.068
    1C        C  336   4.540   3.354   2.177
    1C        C  337   4.514   3.285   2.297
    1C        C  338   4.522   3.497   2.415
    1C        C  339   4.519   3.356   2.418
    1C        C  340   4.513   3.568   2.537
    1C        C  341   4.513   3.499   2.660
    1C        C  342   4.492   3.710   2.779
    1C        C  343   4.520   3.571   2.781
    1C        C  344   4.478   3.785   2.898
    1C        C  345   4.492   3.717   3.021
    1C        C  346   4.431   3.920   3.140
    1C        C  347   4.470   3.784   3.144
    1C        C  348   4.394   3.984   3.260
    1C        C  349   4.424   3.923   3.384
    1C        C  350   4.322   4.110   3.504
    1C        C  351   4.398   3.991   3.506
    1C        C  352   4.283   4.174   3.624
    1C        C  353   4.329   4.119   3.745
    1C        C  354   4.187   4.275   3.871
    1C        C  355   4.285   4.173   3.868
    1C        C  356   4.131   4.322   3.992
    1C        C  357   4.187   4.277   4.114
    1C        C  358   4.012   4.400   4.233
    1C        C  359   4.132   4.327   4.234
    1C        C  360   3.957   4.449   4.354
    1C        C  361   4.027   4.425   4.474
    1C        C  362   3.831   4.517   4.595
    1C        C  363   3.962   4.465   4.593
    1C        C  364   3.764   4.547   4.716
    1C        C  365   3.840   4.545   4.835
    1C        C  366   3.631   4.596   4.952
    1C        C  367   3.769   4.577   4.951
    1C        C  368   4.504   3.567   2.056
    1C        C  369   4.524   3.494   2.174
    1C        C  370   4.502   3.709   2.291
    1C        C  371   4.516   3.569   2.294
    1C        C  372   4.481   3.777   2.413
    1C        C  373   4.495   3.709   2.536
    1C        C  374   4.427   3.911   2.652
    1C        C  375   4.475   3.778   2.657
    1C        C  376   4.395   3.978   2.773
    1C        C  377   4.429   3.917   2.895
    1C        C  378   4.326   4.102   3.015
    1C        C  379   4.402   3.983   3.017
    1C        C  380   4.279   4.160   3.135
    1C        C  381   4.322   4.106   3.258
    1C        C  382   4.181   4.265   3.380
    1C        C  383   4.277   4.161   3.380
    1C        C  384   4.128   4.313   3.502
    1C        C  385   4.182   4.273   3.626
    1C        C  386   4.009   4.391   3.744
    1C        C  387   4.129   4.316   3.749
    1C        C  388   3.948   4.427   3.866
    1C        C  389   4.009   4.392   3.988
    1C        C  390   3.821   4.490   4.108
    1C        C  391   3.952   4.437   4.110
    1C        C  392   3.754   4.513   4.231
    1C        C  393   3.824   4.496   4.352
    1C        C  394   3.619   4.549   4.475
    1C        C  395   3.759   4.527   4.474
    1C        C  396   3.549   4.560   4.597
    1C        C  397   3.624   4.565   4.716
    1C        C  398   3.414   4.550   4.842
    1C        C  399   3.553   4.576   4.837
    1C        C  400   3.346   4.518   4.960
    1C        C  401   4.505   3.706   2.053
    1C        C  402   4.462   3.920   2.171
    1C        C  403   4.495   3.782   2.170
    1C        C  404   4.422   3.983   2.291
    1C        C  405   4.440   3.912   2.412
    1C        C  406   4.332   4.100   2.525
    1C        C  407   4.404   3.979   2.531
    1C        C  408   4.284   4.155   2.646
    1C        C  409   4.323   4.100   2.769
    1C        C  410   4.183   4.257   2.891
    1C        C  411   4.281   4.155   2.892
    1C        C  412   4.128   4.305   3.012
    1C        C  413   4.180   4.261   3.136
    1C        C  414   4.010   4.388   3.254
    1C        C  415   4.128   4.310   3.258
    1C        C  416   3.949   4.420   3.378
    1C        C  417   4.010   4.391   3.502
    1C        C  418   3.815   4.478   3.622
    1C        C  419   3.948   4.429   3.623
    1C        C  420   3.750   4.505   3.745
    1C        C  421   3.819   4.486   3.867
    1C        C  422   3.611   4.531   3.989
    1C        C  423   3.751   4.511   3.988
    1C        C  424   3.542   4.539   4.112
    1C        C  425   3.615   4.540   4.233
    1C        C  426   3.404   4.547   4.356
    1C        C  427   3.545   4.548   4.355
    1C        C  428   3.335   4.540   4.479
    1C        C  429   3.408   4.550   4.600
    1C        C  430   3.198   4.518   4.726
    1C        C  431   3.338   4.544   4.723
    1C        C  432   3.128   4.495   4.848
    1C        C  433   3.209   4.496   4.962
    1C        C  434   4.387   4.124   2.052
    1C        C  435   4.450   3.999   2.056
    1C        C  436   4.307   4.164   2.164
    1C        C  437   4.341   4.100   2.286
    1C        C  438   4.189   4.258   2.402
    1C        C  439   4.288   4.158   2.404
    1C        C  440   4.129   4.299   2.523
    1C        C  441   4.180   4.251   2.645
    1C        C  442   4.014   4.382   2.767
    1C        C  443   4.130   4.301   2.768
    1C        C  444   3.951   4.420   2.887
    1C        C  445   4.009   4.381   3.010
    1C        C  446   3.815   4.468   3.131
    1C        C  447   3.947   4.418   3.132
    1C        C  448   3.750   4.488   3.254
    1C        C  449   3.818   4.474   3.377
    1C        C  450   3.611   4.526   3.497
    1C        C  451   3.749   4.495   3.499
    1C        C  452   3.544   4.538   3.621
    1C        C  453   3.612   4.531   3.745
    1C        C  454   3.400   4.547   3.868
    1C        C  455   3.541   4.541   3.867
    1C        C  456   3.330   4.537   3.990
    1C        C  457   3.400   4.538   4.113
    1C        C  458   3.193   4.503   4.241
    1C        C  459   3.330   4.537   4.236
    1C        C  460   3.129   4.479   4.364
    1C        C  461   3.198   4.507   4.485
    1C        C  462   2.999   4.434   4.608
    1C        C  463   3.129   4.490   4.607
    1C        C  464   2.936   4.401   4.729
    1C        C  465   2.994   4.444   4.852
    1C        C  466   2.805   4.338   4.964
    1C        C  467   2.912   4.428   4.968
    1C        C  468   4.127   4.283   2.040
    1C        C  469   4.193   4.251   2.159
    1C        C  470   4.013   4.375   2.279
    1C        C  471   4.132   4.297   2.278
    1C        C  472   3.946   4.403   2.401
    1C        C  473   4.008   4.373   2.524
    1C        C  474   3.817   4.465   2.644
    1C        C  475   3.949   4.413   2.646
    1C        C  476   3.749   4.489   2.765
    1C        C  477   3.819   4.472   2.886
    1C        C  478   3.612   4.519   3.010
    1C        C  479   3.751   4.494   3.008
    1C        C  480   3.540   4.523   3.132
    1C        C  481   3.611   4.515   3.254
    1C        C  482   3.399   4.532   3.378
    1C        C  483   3.540   4.531   3.375
    1C        C  484   3.332   4.525   3.503
    1C        C  485   3.403   4.536   3.624
    1C        C  486   3.193   4.501   3.749
    1C        C  487   3.330   4.536   3.745
    1C        C  488   3.128   4.478   3.872
    1C        C  489   3.193   4.503   3.995
    1C        C  490   3.001   4.417   4.119
    1C        C  491   3.127   4.480   4.118
    1C        C  492   2.945   4.377   4.243
    1C        C  493   3.001   4.419   4.365
    1C        C  494   2.822   4.310   4.485
    1C        C  495   2.937   4.391   4.488
    1C        C  496   2.771   4.262   4.608
    1C        C  497   2.823   4.314   4.729
    1C        C  498   2.667   4.167   4.848
    1C        C  499   2.760   4.273   4.848
    1C        C  500   2.595   4.122   4.960
    1C        C  501   4.007   4.354   2.041
    1C        C  502   3.816   4.458   2.156
    1C        C  503   3.945   4.401   2.158
    1C        C  504   3.745   4.471   2.278
    1C        C  505   3.815   4.455   2.399
    1C        C  506   3.609   4.503   2.522
    1C        C  507   3.748   4.475   2.521
    1C        C  508   3.538   4.514   2.644
    1C        C  509   3.609   4.511   2.766
    1C        C  510   3.399   4.523   2.889
    1C        C  511   3.540   4.520   2.888
    1C        C  512   3.327   4.522   3.011
    1C        C  513   3.399   4.530   3.132
    1C        C  514   3.193   4.491   3.258
    1C        C  515   3.330   4.524   3.255
    1C        C  516   3.130   4.464   3.382
    1C        C  517   3.194   4.493   3.504
    1C        C  518   3.002   4.409   3.627
    1C        C  519   3.127   4.476   3.627
    1C        C  520   2.943   4.373   3.750
    1C        C  521   3.003   4.413   3.872
    1C        C  522   2.831   4.293   3.999
    1C        C  523   2.944   4.377   3.996
    1C        C  524   2.783   4.242   4.121
    1C        C  525   2.833   4.291   4.244
    1C        C  526   2.694   4.135   4.368
    1C        C  527   2.772   4.252   4.366
    1C        C  528   2.653   4.079   4.491
    1C        C  529   2.688   4.148   4.609
    1C        C  530   2.591   3.960   4.735
    1C        C  531   2.648   4.090   4.731
    1C        C  532   2.543   3.903   4.856
    1C        C  533   2.528   3.999   4.961
    1C        C  534   3.620   4.557   2.047
    1C        C  535   3.752   4.511   2.044
    1C        C  536   3.536   4.533   2.160
    1C        C  537   3.607   4.505   2.280
    1C        C  538   3.394   4.510   2.403
    1C        C  539   3.536   4.512   2.401
    1C        C  540   3.324   4.510   2.525
    1C        C  541   3.397   4.512   2.646
    1C        C  542   3.188   4.483   2.769
    1C        C  543   3.326   4.511   2.769
    1C        C  544   3.122   4.465   2.893
    1C        C  545   3.189   4.491   3.014
    1C        C  546   2.998   4.402   3.137
    1C        C  547   3.123   4.468   3.137
    1C        C  548   2.941   4.364   3.261
    1C        C  549   3.004   4.401   3.382
    1C        C  550   2.832   4.282   3.509
    1C        C  551   2.944   4.368   3.505
    1C        C  552   2.777   4.240   3.632
    1C        C  553   2.831   4.287   3.753
    1C        C  554   2.702   4.124   3.879
    1C        C  555   2.784   4.239   3.877
    1C        C  556   2.659   4.068   4.002
    1C        C  557   2.696   4.130   4.123
    1C        C  558   2.592   3.948   4.248
    1C        C  559   2.655   4.074   4.246
    1C        C  560   2.566   3.882   4.371
    1C        C  561   2.588   3.953   4.491
    1C        C  562   2.532   3.753   4.615
    1C        C  563   2.566   3.890   4.615
    1C        C  564   2.517   3.686   4.739
    1C        C  565   2.516   3.762   4.859
    1C        C  566   2.531   3.551   4.980
    1C        C  567   2.523   3.690   4.978
    1C        C  568   3.329   4.473   2.044
    1C        C  569   3.395   4.514   2.160
    1C        C  570   3.183   4.477   2.282
    1C        C  571   3.321   4.508   2.282
    1C        C  572   3.116   4.461   2.406
    1C        C  573   3.186   4.480   2.527
    1C        C  574   2.990   4.401   2.650
    1C        C  575   3.117   4.462   2.648
    1C        C  576   2.932   4.364   2.773
    1C        C  577   2.996   4.401   2.894
    1C        C  578   2.828   4.274   3.020
    1C        C  579   2.934   4.367   3.016
    1C        C  580   2.778   4.225   3.143
    1C        C  581   2.831   4.275   3.264
    1C        C  582   2.695   4.117   3.388
    1C        C  583   2.780   4.230   3.388
    1C        C  584   2.663   4.060   3.513
    1C        C  585   2.695   4.124   3.635
    1C        C  586   2.597   3.937   3.759
    1C        C  587   2.662   4.063   3.758
    1C        C  588   2.570   3.873   3.882
    1C        C  589   2.595   3.942   4.002
    1C        C  590   2.542   3.742   4.130
    1C        C  591   2.567   3.881   4.126
    1C        C  592   2.531   3.673   4.252
    1C        C  593   2.535   3.745   4.374
    1C        C  594   2.510   3.536   4.499
    1C        C  595   2.517   3.677   4.497
    1C        C  596   2.515   3.469   4.623
    1C        C  597   2.514   3.544   4.742
    1C        C  598   2.540   3.333   4.863
    1C        C  599   2.522   3.472   4.864
    1C        C  600   2.537   3.256   4.980
    1C        C  601   3.196   4.436   2.045
    1C        C  602   2.982   4.396   2.162
    1C        C  603   3.120   4.434   2.162
    1C        C  604   2.926   4.359   2.287
    1C        C  605   2.988   4.400   2.407
    1C        C  606   2.823   4.269   2.531
    1C        C  607   2.927   4.365   2.529
    1C        C  608   2.775   4.221   2.655
    1C        C  609   2.823   4.274   2.777
    1C        C  610   2.684   4.116   2.900
    1C        C  611   2.773   4.225   2.900
    1C        C  612   2.648   4.056   3.023
    1C        C  613   2.686   4.117   3.145
    1C        C  614   2.587   3.932   3.269
    1C        C  615   2.648   4.059   3.268
    1C        C  616   2.568   3.868   3.394
    1C        C  617   2.595   3.936   3.515
    1C        C  618   2.534   3.734   3.639
    1C        C  619   2.572   3.870   3.638
    1C        C  620   2.518   3.668   3.763
    1C        C  621   2.530   3.737   3.886
    1C        C  622   2.514   3.528   4.012
    1C        C  623   2.522   3.669   4.010
    1C        C  624   2.519   3.458   4.134
    1C        C  625   2.521   3.532   4.254
    1C        C  626   2.542   3.324   4.380
    1C        C  627   2.519   3.463   4.378
    1C        C  628   2.558   3.257   4.504
    1C        C  629   2.539   3.330   4.623
    1C        C  630   2.597   3.123   4.748
    1C        C  631   2.553   3.258   4.744
    1C        C  632   2.614   3.049   4.869
    1C        C  633   2.564   3.118   4.984
    1C        C  634   2.778   4.312   2.055
    1C        C  635   2.888   4.398   2.054
    1C        C  636   2.746   4.235   2.168
    1C        C  637   2.810   4.276   2.287
    1C        C  638   2.681   4.111   2.412
    1C        C  639   2.762   4.227   2.410
    1C        C  640   2.640   4.056   2.535
    1C        C  641   2.682   4.115   2.656
    1C        C  642   2.586   3.927   2.782
    1C        C  643   2.647   4.054   2.778
    1C        C  644   2.561   3.860   2.904
    1C        C  645   2.586   3.929   3.024
    1C        C  646   2.532   3.727   3.150
    1C        C  647   2.558   3.866   3.148
    1C        C  648   2.523   3.659   3.273
    1C        C  649   2.534   3.731   3.395
    1C        C  650   2.513   3.522   3.522
    1C        C  651   2.522   3.663   3.518
    1C        C  652   2.513   3.454   3.646
    1C        C  653   2.512   3.527   3.767
    1C        C  654   2.541   3.319   3.890
    1C        C  655   2.516   3.458   3.890
    1C        C  656   2.559   3.251   4.013
    1C        C  657   2.543   3.319   4.136
    1C        C  658   2.610   3.121   4.262
    1C        C  659   2.561   3.253   4.260
    1C        C  660   2.636   3.058   4.385
    1C        C  661   2.607   3.125   4.507
    1C        C  662   2.713   2.941   4.630
    1C        C  663   2.635   3.058   4.628
    1C        C  664   2.757   2.881   4.750
    1C        C  665   2.696   2.932   4.868
    1C        C  666   2.750   2.874   4.984
    1C        C  667   2.681   4.025   2.060
    1C        C  668   2.681   4.110   2.172
    1C        C  669   2.586   3.915   2.297
    1C        C  670   2.645   4.044   2.292
    1C        C  671   2.561   3.852   2.420
    1C        C  672   2.587   3.925   2.538
    1C        C  673   2.524   3.723   2.662
    1C        C  674   2.562   3.859   2.661
    1C        C  675   2.515   3.651   2.784
    1C        C  676   2.526   3.723   2.905
    1C        C  677   2.512   3.515   3.032
    1C        C  678   2.515   3.657   3.029
    1C        C  679   2.512   3.447   3.155
    1C        C  680   2.512   3.518   3.278
    1C        C  681   2.537   3.309   3.403
    1C        C  682   2.516   3.449   3.401
    1C        C  683   2.558   3.245   3.527
    1C        C  684   2.539   3.315   3.648
    1C        C  685   2.613   3.116   3.772
    1C        C  686   2.560   3.247   3.770
    1C        C  687   2.650   3.059   3.895
    1C        C  688   2.613   3.120   4.017
    1C        C  689   2.713   2.935   4.141
    1C        C  690   2.640   3.056   4.140
    1C        C  691   2.760   2.885   4.264
    1C        C  692   2.709   2.937   4.385
    1C        C  693   2.752   2.881   4.508
    1C        C  694   2.635   3.893   2.060
    1C        C  695   2.533   3.708   2.177
    1C        C  696   2.580   3.841   2.177
    1C        C  697   2.509   3.642   2.300
    1C        C  698   2.527   3.715   2.420
    1C        C  699   2.497   3.508   2.545
    1C        C  700   2.505   3.649   2.543
    1C        C  701   2.507   3.438   2.667
    1C        C  702   2.506   3.510   2.788
    1C        C  703   2.534   3.302   2.914
    1C        C  704   2.513   3.442   2.911
    1C        C  705   2.554   3.236   3.037
    1C        C  706   2.537   3.308   3.158
    1C        C  707   2.604   3.109   3.281
    1C        C  708   2.551   3.240   3.281
    1C        C  709   2.638   3.049   3.404
    1C        C  710   2.613   3.114   3.527
    1C        C  711   2.719   2.933   3.651
    1C        C  712   2.641   3.051   3.650
    1C        C  713   2.760   2.875   3.773
    1C        C  714   2.720   2.936   3.894
    1C        C  715   2.759   2.881   4.019
    1C        C  716   2.455   3.505   2.068
    1C        C  717   2.491   3.640   2.062
    1C        C  718   2.473   3.424   2.185
    1C        C  719   2.486   3.502   2.303
    1C        C  720   2.518   3.293   2.427
    1C        C  721   2.492   3.432   2.426
    1C        C  722   2.543   3.227   2.549
    1C        C  723   2.529   3.298   2.670
    1C        C  724   2.598   3.098   2.793
    1C        C  725   2.550   3.231   2.793
    1C        C  726   2.632   3.039   2.916
    1C        C  727   2.604   3.104   3.038
    1C        C  728   2.710   2.922   3.161
    1C        C  729   2.632   3.040   3.161
    1C        C  730   2.756   2.870   3.284
    1C        C  731   2.718   2.932   3.405
    1C        C  732   2.762   2.878   3.528
    1C        C  733   2.491   3.200   2.074
    1C        C  734   2.496   3.283   2.187
    1C        C  735   2.585   3.087   2.308
    1C        C  736   2.525   3.216   2.309
    1C        C  737   2.621   3.026   2.430
    1C        C  738   2.598   3.096   2.550
    1C        C  739   2.699   2.909   2.672
    1C        C  740   2.628   3.031   2.672
    1C        C  741   2.742   2.854   2.794
    1C        C  742   2.706   2.918   2.914
    1C        C  743   2.752   2.866   3.038
    1C        C  744   2.550   3.074   2.076
    1C        C  745   2.689   2.899   2.189
    1C        C  746   2.609   3.015   2.189
    1C        C  747   2.733   2.841   2.309
    1C        C  748   2.693   2.904   2.429
    1C        C  749   2.742   2.851   2.550
    1C        C  750   2.740   2.845   2.070
    1C        C  751   3.667   2.346   1.960
    1C        O  752   3.740   2.245   1.977
    1C        O  753   3.662   2.400   1.831
    1C        C  754   4.610   3.050   1.973
    1C        O  755   4.576   3.018   1.856
    1C        O  756   4.742   3.020   2.009
    1C        C  757   4.466   4.229   1.984
    1C        O  758   4.579   4.271   2.020
    1C        O  759   4.429   4.270   1.855
    1C        C  760   3.592   4.674   1.960
    1C        O  761   3.572   4.794   1.991
    1C        O  762   3.601   4.671   1.820
    1C        C  763   2.865   4.516   1.967
    1C        O  764   2.840   4.497   1.845
    1C        O  765   2.802   4.634   2.010
    1C        C  766   2.341   3.481   1.976
    1C        O  767   2.338   3.424   1.864
    1C        O  768   2.213   3.530   2.002
    1C        C  769   4.707   3.595   5.046
    1C        O  770   4.689   3.547   5.161
    1C        O  771   4.826   3.667   5.058
    1C        C  772   4.272   4.450   5.052
    1C        O  773   4.245   4.440   5.175
    1C        O  774   4.328   4.578   5.043
    1C        C  775   4.131   2.569   5.103
    1C        O  776   4.183   2.457   5.132
    1C        O  777   4.083   2.628   5.220
    1C        C  778   2.902   4.531   5.074
    1C        O  779   2.855   4.645   5.046
    1C        O  780   2.903   4.513   5.213
    1C        C  781   2.490   3.051   5.093
    1C        O  782   2.401   2.965   5.072
    1C        O  783   2.545   3.032   5.219
    1C        C  784   2.410   3.995   5.051
    1C        O  785   2.300   4.038   5.007
    1C        O  786   2.424   3.989   5.190
    1C        C  787   2.955   2.473   1.972
    1C        O  788   2.989   2.520   1.860
    1C        O  789   2.892   2.350   1.964
    1C        C  790   3.186   2.366   5.061
    1C        O  791   3.217   2.258   5.003
    1C        O  792   3.224   2.364   5.196
    1C        H  793   4.302   3.010   5.071
    1C        H  794   4.143   2.836   5.063
    1C        H  795   4.507   3.129   5.058
    1C        H  796   4.531   3.372   5.066
    1C        H  797   4.601   3.826   5.022
    1C        H  798   4.391   3.958   5.052
    1C        H  799   4.293   4.176   5.056
    1C        H  800   4.006   4.498   5.036
    1C        H  801   3.822   4.635   5.024
    1C        H  802   3.598   4.661   5.030
    1C        H  803   3.402   4.461   5.031
    1C        H  804   3.176   4.446   5.051
    1C        H  805   3.904   2.455   5.058
    1C        H  806   3.681   2.473   5.074
    1C        H  807   3.002   2.537   5.062
    1C        H  808   3.444   2.471   5.079
    1C        H  809   2.879   2.739   5.082
    1C        H  810   2.750   2.941   5.068
    1C        H  811   2.506   3.301   5.072
    1C        H  812   2.564   3.506   5.071
    1C        H  813   2.541   3.742   5.070
    1C        H  814   2.588   4.178   5.051
    1C        H  815   2.786   4.287   5.056
    1C        H  816   2.707   2.880   1.974
    1C        H  817   2.860   2.700   1.976
    1C        H  818   3.188   2.387   2.018
    1C        H  819   3.433   2.481   1.987
    1C        H  820   3.889   2.476   1.987
    1C        H  821   4.070   2.622   1.968
    1C        H  822   4.277   2.705   1.985
    1C        H  823   4.362   2.937   1.971
    1C        H  824   4.590   3.316   1.975
    1C        H  825   4.495   3.518   1.961
    1C        H  826   4.481   3.756   1.961
    1C        H  827   3.787   4.497   1.944
    1C        H  828   3.983   4.401   1.948
    1C        H  829   4.162   4.241   1.948
    1C        H  830   4.531   3.987   1.987
    1C        H  831   2.677   3.824   1.990
    1C        H  832   2.667   4.075   1.966
    1C        H  833   2.693   4.331   1.993
    1C        H  834   3.366   4.509   1.950
    1C        H  835   3.141   4.465   1.958
    1C        H  836   2.514   3.007   2.001
    1C        H  837   2.416   3.221   2.001
    1C        H  838   2.463   3.697   1.976
    2V3OU   H29  839   2.806   3.550   6.116
    2V3OU   C27  840   2.784   3.504   6.216
    2V3OU   H27  841   2.723   3.573   6.280
    2V3OU   H28  842   2.735   3.404   6.203
    2V3OU   O11  843   2.910   3.479   6.279
    2V3OU   C15  844   2.924   3.401   6.393
    2V3OU   C13  845   3.053   3.379   6.443
    2V3OU   C14  846   3.080   3.274   6.531
    2V3OU   C16  847   2.976   3.191   6.571
    2V3OU    H6  848   2.993   3.105   6.638
    2V3OU   C12  849   3.217   3.233   6.569
    2V3OU    O2  850   3.239   3.138   6.647
    2V3OU   C10  851   3.329   3.314   6.518
    2V3OU    C8  852   3.459   3.275   6.545
    2V3OU   O10  853   3.494   3.157   6.603
    2V3OU   H26  854   3.408   3.119   6.624
    2V3OU    C6  855   3.568   3.357   6.500
    2V3OU    C5  856   3.539   3.470   6.426
    2V3OU    C4  857   3.705   3.300   6.489
    2V3OU    H4  858   3.728   3.232   6.576
    2V3OU    H5  859   3.710   3.231   6.400
    2V3OU    C2  860   3.821   3.399   6.482
    2V3OU    O6  861   3.807   3.469   6.606
    2V3OU   H21  862   3.769   3.552   6.574
    2V3OU    C3  863   3.786   3.496   6.368
    2V3OU    H2  864   3.862   3.578   6.374
    2V3OU    H3  865   3.785   3.439   6.272
    2V3OU   C25  866   3.956   3.330   6.462
    2V3OU    O7  867   3.998   3.295   6.351
    2V3OU   C26  868   4.033   3.292   6.587
    2V3OU   H22  869   4.059   3.389   6.637
    2V3OU   H23  870   4.125   3.235   6.558
    2V3OU    O8  871   3.968   3.208   6.680
    2V3OU   H24  872   3.931   3.269   6.746
    2V3OU    C1  873   3.650   3.562   6.383
    2V3OU    H1  874   3.623   3.616   6.287
    2V3OU    O3  875   3.662   3.657   6.489
    2V3OU   C19  876   3.619   3.793   6.474
    2V3OU    H9  877   3.520   3.805   6.422
    2V3OU    O4  878   3.715   3.851   6.387
    2V3OU   C20  879   3.846   3.878   6.438
    2V3OU   H10  880   3.894   3.778   6.457
    2V3OU   C24  881   3.611   3.860   6.611
    2V3OU   H16  882   3.535   3.799   6.666
    2V3OU   H17  883   3.566   3.961   6.598
    2V3OU   C23  884   3.752   3.876   6.668
    2V3OU   H15  885   3.790   3.769   6.680
    2V3OU    N1  886   3.744   3.955   6.789
    2V3OU   H19  887   3.814   3.925   6.853
    2V3OU   H20  888   3.656   3.935   6.833
    2V3OU   C21  889   3.853   3.948   6.573
    2V3OU   H11  890   3.959   3.929   6.606
    2V3OU    O5  891   3.829   4.088   6.578
    2V3OU   H18  892   3.787   4.103   6.664
    2V3OU   C22  893   3.918   3.950   6.325
    2V3OU   H12  894   3.868   4.048   6.304
    2V3OU   H13  895   3.906   3.891   6.231
    2V3OU   H14  896   4.026   3.963   6.352
    2V3OU   C11  897   3.160   3.479   6.430
    2V3OU    O1  898   3.131   3.594   6.391
    2V3OU    C9  899   3.300   3.437   6.452
    2V3OU    C7  900   3.405   3.514   6.403
    2V3OU    O9  901   3.385   3.625   6.323
    2V3OU   H25  902   3.289   3.631   6.306
    2V3OU   C17  903   2.823   3.315   6.440
    2V3OU    H7  904   2.721   3.350   6.423
    2V3OU   C18  905   2.845   3.211   6.530
    2V3OU    H8  906   2.763   3.147   6.567
    3SOL     OW  907   2.888   3.450   4.634
    3SOL    HW1  908   2.863   3.544   4.612
    3SOL    HW2  909   2.889   3.439   4.734
    4SOL     OW  910   0.901   0.037   0.705
    4SOL    HW1  911   0.941   0.128   0.720
    4SOL    HW2  912   0.817   0.029   0.758
    5SOL     OW  913   4.215   2.235   0.665
    5SOL    HW1  914   4.169   2.300   0.726
    5SOL    HW2  915   4.150   2.164   0.638
    6SOL     OW  916   3.571   1.740   2.359
    6SOL    HW1  917   3.566   1.840   2.363
    6SOL    HW2  918   3.552   1.709   2.267
    7SOL     OW  919   2.438   2.715   4.673
    7SOL    HW1  920   2.534   2.726   4.648
    7SOL    HW2  921   2.382   2.720   4.590
    8SOL     OW  922   1.026   2.064   5.948
    8SOL    HW1  923   0.991   2.075   5.855
    8SOL    HW2  924   0.977   1.989   5.993
    9SOL     OW  925   2.088   2.215   5.846
    9SOL    HW1  926   2.182   2.181   5.837
    9SOL    HW2  927   2.028   2.163   5.784
   10SOL     OW  928   5.625   5.238   1.266
   10SOL    HW1  929   5.562   5.297   1.215
   10SOL    HW2  930   5.649   5.159   1.210
   11SOL     OW  931   3.408   1.431   0.271
   11SOL    HW1  932   3.353   1.350   0.295
   11SOL    HW2  933   3.502   1.418   0.303
   12SOL     OW  934   5.298   4.819   1.207
   12SOL    HW1  935   5.340   4.871   1.282
   12SOL    HW2  936   5.199   4.826   1.214
   13SOL     OW  937   4.994   5.835   1.805
   13SOL    HW1  938   5.038   5.907   1.752
   13SOL    HW2  939   5.056   5.756   1.812
   14SOL     OW  940   4.083   5.880   1.053
   14SOL    HW1  941   4.159   5.825   1.018
   14SOL    HW2  942   4.076   5.965   1.000
   15SOL     OW  943   0.910   6.999   6.636
   15SOL    HW1  944   0.992   0.014   6.599
   15SOL    HW2  945   0.891   6.914   6.587
   16SOL     OW  946   1.950   5.418   5.176
   16SOL    HW1  947   2.044   5.424   5.211
   16SOL    HW2  948   1.901   5.346   5.225
   17SOL     OW  949   0.156   2.036   3.883
   17SOL    HW1  950   0.155   1.939   3.858
   17SOL    HW2  951   0.135   2.045   3.981
   18SOL     OW  952   2.755   1.035   5.709
   18SOL    HW1  953   2.772   1.133   5.716
   18SOL    HW2  954   2.734   1.011   5.614
   19SOL     OW  955   3.043   5.417   3.008
   19SOL    HW1  956   3.044   5.318   3.018
   19SOL    HW2  957   3.045   5.441   2.911
   20SOL     OW  958   6.983   1.615   5.104
   20SOL    HW1  959   6.893   1.578   5.082
   20SOL    HW2  960   6.981   1.715   5.097
   21SOL     OW  961   1.083   3.493   1.903
   21SOL    HW1  962   1.087   3.539   1.992
   21SOL    HW2  963   0.989   3.463   1.886
   22SOL     OW  964   0.554   1.226   0.582
   22SOL    HW1  965   0.523   1.131   0.575
   22SOL    HW2  966   0.508   1.282   0.513
   23SOL     OW  967   6.667   5.020   6.948
   23SOL    HW1  968   6.592   4.989   6.889
   23SOL    HW2  969   6.653   5.115   6.973
   24SOL     OW  970   5.035   1.085   0.082
   24SOL    HW1  971   4.984   1.064   0.165
   24SOL    HW2  972   5.072   1.178   0.087
   25SOL     OW  973   1.186   0.813   4.839
   25SOL    HW1  974   1.196   0.821   4.938
   25SOL    HW2  975   1.265   0.855   4.794
   26SOL     OW  976   2.348   6.952   5.871
   26SOL    HW1  977   2.288   6.970   5.949
   26SOL    HW2  978   2.320   6.868   5.826
   27SOL     OW  979   0.185   6.662   2.852
   27SOL    HW1  980   0.093   6.701   2.843
   27SOL    HW2  981   0.217   6.674   2.946
   28SOL     OW  982   1.499   0.723   5.590
   28SOL    HW1  983   1.554   0.661   5.647
   28SOL    HW2  984   1.544   0.812   5.586
   29SOL     OW  985   5.733   0.899   1.343
   29SOL    HW1  986   5.771   0.919   1.433
   29SOL    HW2  987   5.797   0.928   1.272
   30SOL     OW  988   4.372   0.229   4.293
   30SOL    HW1  989   4.378   0.302   4.361
   30SOL    HW2  990   4.464   0.201   4.266
   31SOL     OW  991   6.231   4.736   4.900
   31SOL    HW1  992   6.274   4.703   4.816
   31SOL    HW2  993   6.140   4.696   4.909
   32SOL     OW  994   3.104   1.415   1.086
   32SOL    HW1  995   3.198   1.423   1.120
   32SOL    HW2  996   3.057   1.341   1.133
   33SOL     OW  997   1.533   4.552   6.047
   33SOL    HW1  998   1.617   4.601   6.070
   33SOL    HW2  999   1.552   4.486   5.975
   34SOL     OW 1000   2.525   6.519   5.230
   34SOL    HW1 1001   2.458   6.445   5.226
   34SOL    HW2 1002   2.488   6.595   5.284
   35SOL     OW 1003   1.677   2.444   4.565
   35SOL    HW1 1004   1.695   2.481   4.656
   35SOL    HW2 1005   1.762   2.443   4.512
   36SOL     OW 1006   5.525   1.248   4.244
   36SOL    HW1 1007   5.555   1.201   4.327
   36SOL    HW2 1008   5.433   1.219   4.220
   37SOL     OW 1009   1.941   6.629   4.608
   37SOL    HW1 1010   1.934   6.540   4.654
   37SOL    HW2 1011   1.850   6.669   4.599
   38SOL     OW 1012   0.917   3.280   1.086
   38SOL    HW1 1013   0.851   3.205   1.091
   38SOL    HW2 1014   0.907   3.327   0.998
   39SOL     OW 1015   6.542   5.428   1.282
   39SOL    HW1 1016   6.538   5.369   1.201
   39SOL    HW2 1017   6.456   5.480   1.289
   40SOL     OW 1018   4.215   0.837   6.949
   40SOL    HW1 1019   4.201   0.762   6.883
   40SOL    HW2 1020   4.128   0.885   6.962
   41SOL     OW 1021   5.959   4.084   1.705
   41SOL    HW1 1022   5.896   4.007   1.705
   41SOL    HW2 1023   5.930   4.151   1.773
   42SOL     OW 1024   2.556   3.771   0.321
   42SOL    HW1 1025   2.507   3.808   0.400
   42SOL    HW2 1026   2.642   3.820   0.309
   43SOL     OW 1027   4.855   0.533   3.710
   43SOL    HW1 1028   4.896   0.453   3.666
   43SOL    HW2 1029   4.917   0.567   3.780
   44SOL     OW 1030   6.927   0.586   0.165
   44SOL    HW1 1031   6.830   0.571   0.185
   44SOL    HW2 1032   6.973   0.498   0.153
   45SOL     OW 1033   2.540   3.970   5.890
   45SOL    HW1 1034   2.541   4.001   5.985
   45SOL    HW2 1035   2.628   3.929   5.867
   46SOL     OW 1036   1.631   4.600   4.645
   46SOL    HW1 1037   1.537   4.584   4.674
   46SOL    HW2 1038   1.664   4.520   4.594
   47SOL     OW 1039   6.511   4.222   6.697
   47SOL    HW1 1040   6.494   4.127   6.669
   47SOL    HW2 1041   6.583   4.260   6.639
   48SOL     OW 1042   0.459   4.249   0.003
   48SOL    HW1 1043   0.526   4.196   0.054
   48SOL    HW2 1044   0.462   4.345   0.032
   49SOL     OW 1045   3.085   1.154   6.802
   49SOL    HW1 1046   3.180   1.131   6.786
   49SOL    HW2 1047   3.054   1.113   6.888
   50SOL     OW 1048   5.078   2.292   6.236
   50SOL    HW1 1049   5.061   2.241   6.152
   50SOL    HW2 1050   5.004   2.272   6.301
   51SOL     OW 1051   1.596   6.474   2.032
   51SOL    HW1 1052   1.626   6.468   1.937
   51SOL    HW2 1053   1.501   6.446   2.039
   52SOL     OW 1054   5.661   2.551   2.464
   52SOL    HW1 1055   5.645   2.648   2.480
   52SOL    HW2 1056   5.640   2.529   2.369
   53SOL     OW 1057   4.224   0.257   0.606
   53SOL    HW1 1058   4.256   0.349   0.584
   53SOL    HW2 1059   4.139   0.264   0.659
   54SOL     OW 1060   0.250   1.039   6.194
   54SOL    HW1 1061   0.222   1.082   6.280
   54SOL    HW2 1062   0.350   1.041   6.187
   55SOL     OW 1063   2.232   3.156   6.470
   55SOL    HW1 1064   2.256   3.198   6.557
   55SOL    HW2 1065   2.177   3.074   6.486
   56SOL     OW 1066   0.575   2.276   6.295
   56SOL    HW1 1067   0.652   2.211   6.301
   56SOL    HW2 1068   0.576   2.336   6.375
   57SOL     OW 1069   3.903   5.263   1.503
   57SOL    HW1 1070   3.859   5.248   1.591
   57SOL    HW2 1071   3.832   5.275   1.433
   58SOL     OW 1072   0.567   1.082   6.973
   58SOL    HW1 1073   0.589   1.180   6.972
   58SOL    HW2 1074   0.651   1.029   6.967
   59SOL     OW 1075   3.931   2.785   6.933
   59SOL    HW1 1076   3.856   2.798   6.867
   59SOL    HW2 1077   3.992   2.864   6.930
   60SOL     OW 1078   6.383   2.706   2.546
   60SOL    HW1 1079   6.358   2.661   2.632
   60SOL    HW2 1080   6.407   2.637   2.478
   61SOL     OW 1081   1.830   5.509   2.911
   61SOL    HW1 1082   1.742   5.556   2.918
   61SOL    HW2 1083   1.848   5.486   2.816
   62SOL     OW 1084   4.922   3.061   3.602
   62SOL    HW1 1085   5.000   3.122   3.611
   62SOL    HW2 1086   4.879   3.075   3.512
   63SOL     OW 1087   4.012   7.012   6.491
   63SOL    HW1 1088   3.999   7.027   6.590
   63SOL    HW2 1089   3.974   6.924   6.465
   64SOL     OW 1090   2.019   2.209   6.707
   64SOL    HW1 1091   2.030   2.249   6.616
   64SOL    HW2 1092   2.104   2.221   6.759
   65SOL     OW 1093   0.556   5.297   5.259
   65SOL    HW1 1094   0.496   5.267   5.185
   65SOL    HW2 1095   0.519   5.379   5.302
   66SOL     OW 1096   4.470   1.129   1.280
   66SOL    HW1 1097   4.486   1.030   1.282
   66SOL    HW2 1098   4.442   1.156   1.188
   67SOL     OW 1099   0.057   3.395   1.773
   67SOL    HW1 1100   6.996   3.357   1.799
   67SOL    HW2 1101   0.106   3.423   1.856
   68SOL     OW 1102   1.076   1.145   6.509
   68SOL    HW1 1103   1.052   1.228   6.559
   68SOL    HW2 1104   1.032   1.146   6.419
   69SOL     OW 1105   1.701   0.294   6.226
   69SOL    HW1 1106   1.655   0.342   6.300
   69SOL    HW2 1107   1.709   0.354   6.146
   70SOL     OW 1108   4.512   5.105   3.226
   70SOL    HW1 1109   4.485   5.197   3.199
   70SOL    HW2 1110   4.441   5.040   3.198
   71SOL     OW 1111   5.660   1.153   5.119
   71SOL    HW1 1112   5.720   1.227   5.150
   71SOL    HW2 1113   5.565   1.176   5.139
   72SOL     OW 1114   6.903   1.173   2.550
   72SOL    HW1 1115   6.952   1.155   2.636
   72SOL    HW2 1116   6.965   1.157   2.473
   73SOL     OW 1117   3.096   0.965   1.057
   73SOL    HW1 1118   3.164   1.015   1.110
   73SOL    HW2 1119   3.141   0.891   1.007
   74SOL     OW 1120   2.638   0.769   0.448
   74SOL    HW1 1121   2.710   0.753   0.381
   74SOL    HW2 1122   2.584   0.849   0.420
   75SOL     OW 1123   2.633   2.727   1.684
   75SOL    HW1 1124   2.569   2.681   1.746
   75SOL    HW2 1125   2.614   2.826   1.685
   76SOL     OW 1126   3.430   5.248   6.623
   76SOL    HW1 1127   3.497   5.281   6.689
   76SOL    HW2 1128   3.375   5.175   6.664
   77SOL     OW 1129   6.808   4.887   4.762
   77SOL    HW1 1130   6.831   4.791   4.746
   77SOL    HW2 1131   6.888   4.934   4.797
   78SOL     OW 1132   5.331   1.384   1.205
   78SOL    HW1 1133   5.265   1.431   1.265
   78SOL    HW2 1134   5.323   1.286   1.218
   79SOL     OW 1135   1.745   4.146   4.179
   79SOL    HW1 1136   1.779   4.227   4.226
   79SOL    HW2 1137   1.645   4.147   4.179
   80SOL     OW 1138   3.876   2.371   5.349
   80SOL    HW1 1139   3.833   2.461   5.355
   80SOL    HW2 1140   3.805   2.302   5.335
   81SOL     OW 1141   2.863   4.773   3.424
   81SOL    HW1 1142   2.955   4.779   3.462
   81SOL    HW2 1143   2.808   4.709   3.478
   82SOL     OW 1144   3.136   0.696   1.686
   82SOL    HW1 1145   3.231   0.694   1.657
   82SOL    HW2 1146   3.099   0.789   1.675
   83SOL     OW 1147   6.060   2.035   3.839
   83SOL    HW1 1148   6.020   1.946   3.820
   83SOL    HW2 1149   5.995   2.107   3.813
   84SOL     OW 1150   5.156   2.079   2.915
   84SOL    HW1 1151   5.231   2.015   2.904
   84SOL    HW2 1152   5.192   2.172   2.924
   85SOL     OW 1153   2.626   5.379   3.828
   85SOL    HW1 1154   2.575   5.324   3.893
   85SOL    HW2 1155   2.629   5.474   3.860
   86SOL     OW 1156   4.868   1.070   0.301
   86SOL    HW1 1157   4.811   1.150   0.312
   86SOL    HW2 1158   4.823   0.990   0.342
   87SOL     OW 1159   2.779   2.602   0.178
   87SOL    HW1 1160   2.683   2.574   0.179
   87SOL    HW2 1161   2.787   2.691   0.132
   88SOL     OW 1162   1.659   2.026   1.301
   88SOL    HW1 1163   1.682   1.930   1.321
   88SOL    HW2 1164   1.568   2.046   1.337
   89SOL     OW 1165   3.884   3.734   4.785
   89SOL    HW1 1166   3.848   3.687   4.865
   89SOL    HW2 1167   3.967   3.783   4.810
   90SOL     OW 1168   6.932   3.701   2.649
   90SOL    HW1 1169   6.921   3.614   2.600
   90SOL    HW2 1170   6.888   3.774   2.597
   91SOL     OW 1171   4.604   5.285   0.420
   91SOL    HW1 1172   4.578   5.189   0.413
   91SOL    HW2 1173   4.594   5.316   0.515
   92SOL     OW 1174   5.940   5.872   6.507
   92SOL    HW1 1175   6.039   5.878   6.521
   92SOL    HW2 1176   5.896   5.948   6.555
   93SOL     OW 1177   3.149   3.839   1.667
   93SOL    HW1 1178   3.116   3.794   1.750
   93SOL    HW2 1179   3.120   3.787   1.587
   94SOL     OW 1180   3.201   1.167   4.251
   94SOL    HW1 1181   3.158   1.242   4.200
   94SOL    HW2 1182   3.262   1.116   4.190
   95SOL     OW 1183   1.052   6.263   4.676
   95SOL    HW1 1184   1.081   6.334   4.612
   95SOL    HW2 1185   1.101   6.178   4.656
   96SOL     OW 1186   6.983   6.342   6.773
   96SOL    HW1 1187   0.014   6.417   6.803
   96SOL    HW2 1188   6.907   6.379   6.719
   97SOL     OW 1189   4.022   4.846   4.726
   97SOL    HW1 1190   4.113   4.856   4.687
   97SOL    HW2 1191   3.968   4.928   4.708
   98SOL     OW 1192   0.485   2.453   4.902
   98SOL    HW1 1193   0.394   2.425   4.934
   98SOL    HW2 1194   0.513   2.537   4.949
   99SOL     OW 1195   4.461   4.633   4.668
   99SOL    HW1 1196   4.509   4.568   4.610
   99SOL    HW2 1197   4.367   4.644   4.635
  100SOL     OW 1198   1.321   1.921   4.976
  100SOL    HW1 1199   1.348   1.918   4.879
  100SOL    HW2 1200   1.357   2.004   5.018
  101SOL     OW 1201   5.200   2.761   2.325
  101SOL    HW1 1202   5.297   2.786   2.317
  101SOL    HW2 1203   5.159   2.757   2.234
  102SOL     OW 1204   3.916   6.318   0.531
  102SOL    HW1 1205   3.908   6.335   0.433
  102SOL    HW2 1206   3.895   6.402   0.582
  103SOL     OW 1207   1.853   2.489   1.400
  103SOL    HW1 1208   1.826   2.477   1.496
  103SOL    HW2 1209   1.825   2.408   1.348
  104SOL     OW 1210   0.662   4.418   1.442
  104SOL    HW1 1211   0.663   4.383   1.535
  104SOL    HW2 1212   0.748   4.467   1.423
  105SOL     OW 1213   6.594   1.861   5.029
  105SOL    HW1 1214   6.689   1.848   5.001
  105SOL    HW2 1215   6.591   1.910   5.116
  106SOL     OW 1216   4.679   3.291   1.482
  106SOL    HW1 1217   4.756   3.244   1.527
  106SOL    HW2 1218   4.678   3.266   1.385
  107SOL     OW 1219   4.505   6.901   2.191
  107SOL    HW1 1220   4.577   6.964   2.218
  107SOL    HW2 1221   4.470   6.854   2.272
  108SOL     OW 1222   3.339   1.306   4.536
  108SOL    HW1 1223   3.311   1.210   4.535
  108SOL    HW2 1224   3.265   1.362   4.499
  109SOL     OW 1225   2.430   1.915   5.167
  109SOL    HW1 1226   2.331   1.925   5.156
  109SOL    HW2 1227   2.452   1.911   5.265
  110SOL     OW 1228   4.192   4.571   5.486
  110SOL    HW1 1229   4.099   4.593   5.514
  110SOL    HW2 1230   4.221   4.485   5.529
  111SOL     OW 1231   6.562   3.573   1.250
  111SOL    HW1 1232   6.611   3.505   1.303
  111SOL    HW2 1233   6.471   3.586   1.289
  112SOL     OW 1234   3.983   6.450   4.940
  112SOL    HW1 1235   3.911   6.518   4.927
  112SOL    HW2 1236   3.955   6.386   5.012
  113SOL     OW 1237   0.987   5.445   2.000
  113SOL    HW1 1238   0.990   5.499   2.084
  113SOL    HW2 1239   0.896   5.404   1.990
  114SOL     OW 1240   0.137   1.814   1.675
  114SOL    HW1 1241   0.149   1.789   1.579
  114SOL    HW2 1242   0.051   1.863   1.687
  115SOL     OW 1243   4.441   1.277   3.038
  115SOL    HW1 1244   4.540   1.293   3.036
  115SOL    HW2 1245   4.413   1.255   3.132
  116SOL     OW 1246   5.858   5.850   0.275
  116SOL    HW1 1247   5.826   5.808   0.189
  116SOL    HW2 1248   5.789   5.838   0.346
  117SOL     OW 1249   2.559   1.211   0.886
  117SOL    HW1 1250   2.650   1.235   0.852
  117SOL    HW2 1251   2.560   1.117   0.920
  118SOL     OW 1252   0.578   2.304   2.152
  118SOL    HW1 1253   0.488   2.292   2.195
  118SOL    HW2 1254   0.602   2.220   2.102
  119SOL     OW 1255   5.191   5.498   5.096
  119SOL    HW1 1256   5.150   5.407   5.089
  119SOL    HW2 1257   5.237   5.507   5.184
  120SOL     OW 1258   4.579   2.017   4.750
  120SOL    HW1 1259   4.542   1.924   4.744
  120SOL    HW2 1260   4.595   2.052   4.658
  121SOL     OW 1261   0.207   5.353   5.901
  121SOL    HW1 1262   0.147   5.421   5.943
  121SOL    HW2 1263   0.210   5.367   5.802
  122SOL     OW 1264   0.415   4.704   5.749
  122SOL    HW1 1265   0.485   4.770   5.722
  122SOL    HW2 1266   0.337   4.752   5.789
  123SOL     OW 1267   0.800   2.669   1.078
  123SOL    HW1 1268   0.831   2.731   1.151
  123SOL    HW2 1269   0.864   2.592   1.072
  124SOL     OW 1270   2.089   3.843   7.025
  124SOL    HW1 1271   2.037   3.774   0.050
  124SOL    HW2 1272   2.183   3.811   7.012
  125SOL     OW 1273   4.256   2.272   0.394
  125SOL    HW1 1274   4.260   2.243   0.489
  125SOL    HW2 1275   4.195   2.351   0.386
  126SOL     OW 1276   3.827   3.346   4.803
  126SOL    HW1 1277   3.907   3.387   4.759
  126SOL    HW2 1278   3.844   3.249   4.820
  127SOL     OW 1279   0.055   5.102   5.795
  127SOL    HW1 1280   0.089   5.156   5.872
  127SOL    HW2 1281   6.984   5.092   5.803
  128SOL     OW 1282   5.008   4.093   5.743
  128SOL    HW1 1283   5.013   4.075   5.645
  128SOL    HW2 1284   4.974   4.185   5.759
  129SOL     OW 1285   0.872   5.701   1.805
  129SOL    HW1 1286   0.957   5.680   1.757
  129SOL    HW2 1287   0.867   5.799   1.823
  130SOL     OW 1288   6.429   3.527   4.926
  130SOL    HW1 1289   6.451   3.523   4.828
  130SOL    HW2 1290   6.377   3.445   4.951
  131SOL     OW 1291   0.795   3.481   2.636
  131SOL    HW1 1292   0.873   3.491   2.697
  131SOL    HW2 1293   0.729   3.418   2.676
  132SOL     OW 1294   3.990   3.095   1.773
  132SOL    HW1 1295   3.935   3.178   1.782
  132SOL    HW2 1296   3.971   3.053   1.684
  133SOL     OW 1297   4.274   4.342   5.619
  133SOL    HW1 1298   4.230   4.252   5.607
  133SOL    HW2 1299   4.334   4.338   5.699
  134SOL     OW 1300   6.540   1.558   6.814
  134SOL    HW1 1301   6.451   1.529   6.850
  134SOL    HW2 1302   6.576   1.632   6.871
  135SOL     OW 1303   4.385   4.998   3.510
  135SOL    HW1 1304   4.287   5.000   3.490
  135SOL    HW2 1305   4.436   5.036   3.433
  136SOL     OW 1306   3.960   6.602   6.105
  136SOL    HW1 1307   3.969   6.594   6.205
  136SOL    HW2 1308   3.867   6.630   6.083
  137SOL     OW 1309   2.210   4.451   0.479
  137SOL    HW1 1310   2.152   4.420   0.404
  137SOL    HW2 1311   2.306   4.434   0.457
  138SOL     OW 1312   0.495   5.195   0.983
  138SOL    HW1 1313   0.594   5.194   0.991
  138SOL    HW2 1314   0.468   5.261   0.913
  139SOL     OW 1315   0.939   0.939   1.415
  139SOL    HW1 1316   1.023   0.986   1.442
  139SOL    HW2 1317   0.897   0.896   1.495
  140SOL     OW 1318   3.178   6.885   2.132
  140SOL    HW1 1319   3.169   6.981   2.161
  140SOL    HW2 1320   3.236   6.836   2.198
  141SOL     OW 1321   1.590   2.095   0.047
  141SOL    HW1 1322   1.526   2.052   7.010
  141SOL    HW2 1323   1.592   2.193   0.031
  142SOL     OW 1324   2.020   3.893   6.692
  142SOL    HW1 1325   1.963   3.813   6.710
  142SOL    HW2 1326   1.980   3.973   6.737
  143SOL     OW 1327   5.794   5.837   2.096
  143SOL    HW1 1328   5.866   5.897   2.131
  143SOL    HW2 1329   5.831   5.745   2.083
  144SOL     OW 1330   2.297   5.469   2.996
  144SOL    HW1 1331   2.360   5.463   3.074
  144SOL    HW2 1332   2.230   5.396   3.001
  145SOL     OW 1333   6.920   5.679   3.073
  145SOL    HW1 1334   6.900   5.713   2.981
  145SOL    HW2 1335   6.836   5.647   3.116
  146SOL     OW 1336   0.209   0.294   5.308
  146SOL    HW1 1337   0.230   0.375   5.364
  146SOL    HW2 1338   0.289   0.234   5.305
  147SOL     OW 1339   5.941   0.184   4.806
  147SOL    HW1 1340   5.914   0.145   4.718
  147SOL    HW2 1341   5.862   0.228   4.848
  148SOL     OW 1342   1.480   6.649   2.627
  148SOL    HW1 1343   1.574   6.666   2.597
  148SOL    HW2 1344   1.434   6.737   2.642
  149SOL     OW 1345   2.065   2.375   4.773
  149SOL    HW1 1346   2.135   2.352   4.706
  149SOL    HW2 1347   2.097   2.452   4.829
  150SOL     OW 1348   5.515   3.198   5.522
  150SOL    HW1 1349   5.552   3.168   5.434
  150SOL    HW2 1350   5.415   3.201   5.517
  151SOL     OW 1351   6.080   2.602   2.008
  151SOL    HW1 1352   6.158   2.614   2.070
  151SOL    HW2 1353   6.113   2.595   1.914
  152SOL     OW 1354   6.735   2.687   0.566
  152SOL    HW1 1355   6.693   2.649   0.484
  152SOL    HW2 1356   6.834   2.672   0.563
  153SOL     OW 1357   1.914   1.759   4.113
  153SOL    HW1 1358   1.857   1.681   4.086
  153SOL    HW2 1359   1.968   1.790   4.034
  154SOL     OW 1360   0.057   0.849   4.291
  154SOL    HW1 1361   0.032   0.770   4.235
  154SOL    HW2 1362   0.087   0.817   4.382
  155SOL     OW 1363   5.824   4.881   3.081
  155SOL    HW1 1364   5.898   4.856   3.143
  155SOL    HW2 1365   5.761   4.804   3.072
  156SOL     OW 1366   4.242   7.009   1.433
  156SOL    HW1 1367   4.240   0.045   1.357
  156SOL    HW2 1368   4.314   0.007   1.497
  157SOL     OW 1369   5.319   6.969   0.551
  157SOL    HW1 1370   5.341   6.877   0.584
  157SOL    HW2 1371   5.372   6.988   0.468
  158SOL     OW 1372   0.639   3.018   5.333
  158SOL    HW1 1373   0.737   3.033   5.325
  158SOL    HW2 1374   0.590   3.102   5.306
  159SOL     OW 1375   6.826   4.642   6.662
  159SOL    HW1 1376   6.911   4.689   6.685
  159SOL    HW2 1377   6.809   4.649   6.564
  160SOL     OW 1378   3.997   0.251   1.519
  160SOL    HW1 1379   3.980   0.322   1.451
  160SOL    HW2 1380   3.957   0.165   1.488
  161SOL     OW 1381   6.519   6.907   0.867
  161SOL    HW1 1382   6.439   6.866   0.824
  161SOL    HW2 1383   6.528   7.002   0.837
  162SOL     OW 1384   4.636   0.043   5.167
  162SOL    HW1 1385   4.682   7.004   5.225
  162SOL    HW2 1386   4.676   0.040   5.075
  163SOL     OW 1387   1.098   4.072   2.506
  163SOL    HW1 1388   1.152   4.013   2.566
  163SOL    HW2 1389   1.004   4.040   2.504
  164SOL     OW 1390   2.148   2.278   3.036
  164SOL    HW1 1391   2.144   2.179   3.049
  164SOL    HW2 1392   2.065   2.320   3.074
  165SOL     OW 1393   0.355   5.937   4.606
  165SOL    HW1 1394   0.313   5.846   4.612
  165SOL    HW2 1395   0.420   5.949   4.680
  166SOL     OW 1396   0.808   5.121   4.575
  166SOL    HW1 1397   0.861   5.201   4.603
  166SOL    HW2 1398   0.747   5.146   4.500
  167SOL     OW 1399   0.196   1.015   2.966
  167SOL    HW1 1400   0.158   1.026   2.874
  167SOL    HW2 1401   0.267   0.944   2.964
  168SOL     OW 1402   3.356   3.870   3.784
  168SOL    HW1 1403   3.451   3.836   3.784
  168SOL    HW2 1404   3.352   3.957   3.736
  169SOL     OW 1405   4.850   2.799   5.962
  169SOL    HW1 1406   4.865   2.726   6.028
  169SOL    HW2 1407   4.814   2.760   5.877
  170SOL     OW 1408   0.405   5.190   2.342
  170SOL    HW1 1409   0.366   5.219   2.430
  170SOL    HW2 1410   0.339   5.208   2.269
  171SOL     OW 1411   3.624   2.803   0.997
  171SOL    HW1 1412   3.690   2.799   1.072
  171SOL    HW2 1413   3.535   2.771   1.029
  172SOL     OW 1414   1.660   0.966   0.075
  172SOL    HW1 1415   1.704   1.054   0.097
  172SOL    HW2 1416   1.632   0.922   0.160
  173SOL     OW 1417   5.846   0.549   4.913
  173SOL    HW1 1418   5.914   0.619   4.937
  173SOL    HW2 1419   5.758   0.593   4.896
  174SOL     OW 1420   6.626   3.908   5.035
  174SOL    HW1 1421   6.642   3.979   4.966
  174SOL    HW2 1422   6.676   3.933   5.119
  175SOL     OW 1423   1.128   5.637   3.035
  175SOL    HW1 1424   1.036   5.625   3.074
  175SOL    HW2 1425   1.125   5.710   2.966
  176SOL     OW 1426   6.030   4.327   0.774
  176SOL    HW1 1427   5.949   4.282   0.812
  176SOL    HW2 1428   6.006   4.419   0.743
  177SOL     OW 1429   5.934   2.951   3.820
  177SOL    HW1 1430   5.918   3.012   3.898
  177SOL    HW2 1431   6.008   2.989   3.764
  178SOL     OW 1432   1.511   6.006   5.021
  178SOL    HW1 1433   1.591   6.027   4.967
  178SOL    HW2 1434   1.489   6.083   5.081
  179SOL     OW 1435   3.554   4.194   1.988
  179SOL    HW1 1436   3.562   4.286   1.952
  179SOL    HW2 1437   3.541   4.198   2.088
  180SOL     OW 1438   4.428   1.081   6.251
  180SOL    HW1 1439   4.493   1.006   6.237
  180SOL    HW2 1440   4.478   1.164   6.275
  181SOL     OW 1441   3.297   0.289   5.125
  181SOL    HW1 1442   3.339   0.199   5.141
  181SOL    HW2 1443   3.266   0.327   5.212
  182SOL     OW 1444   3.168   2.972   5.681
  182SOL    HW1 1445   3.191   3.039   5.610
  182SOL    HW2 1446   3.071   2.948   5.674
  183SOL     OW 1447   2.992   0.940   3.241
  183SOL    HW1 1448   3.040   0.969   3.158
  183SOL    HW2 1449   2.903   0.902   3.217
  184SOL     OW 1450   4.925   6.397   3.812
  184SOL    HW1 1451   4.991   6.333   3.771
  184SOL    HW2 1452   4.833   6.359   3.805
  185SOL     OW 1453   0.462   6.313   5.606
  185SOL    HW1 1454   0.394   6.321   5.679
  185SOL    HW2 1455   0.462   6.397   5.551
  186SOL     OW 1456   3.034   5.617   6.445
  186SOL    HW1 1457   3.075   5.672   6.372
  186SOL    HW2 1458   3.106   5.575   6.500
  187SOL     OW 1459   3.391   5.263   0.714
  187SOL    HW1 1460   3.430   5.353   0.695
  187SOL    HW2 1461   3.318   5.244   0.648
  188SOL     OW 1462   1.955   4.098   4.013
  188SOL    HW1 1463   1.918   4.134   3.927
  188SOL    HW2 1464   1.884   4.098   4.082
  189SOL     OW 1465   6.190   4.702   5.956
  189SOL    HW1 1466   6.091   4.705   5.940
  189SOL    HW2 1467   6.212   4.624   6.015
  190SOL     OW 1468   5.783   6.521   0.253
  190SOL    HW1 1469   5.834   6.466   0.187
  190SOL    HW2 1470   5.824   6.511   0.344
  191SOL     OW 1471   1.916   3.252   5.812
  191SOL    HW1 1472   1.942   3.349   5.820
  191SOL    HW2 1473   1.945   3.203   5.894
  192SOL     OW 1474   0.818   0.302   1.299
  192SOL    HW1 1475   0.878   0.279   1.375
  192SOL    HW2 1476   0.723   0.286   1.325
  193SOL     OW 1477   3.087   7.014   1.710
  193SOL    HW1 1478   3.154   6.999   1.637
  193SOL    HW2 1479   3.039   0.072   1.694
  194SOL     OW 1480   4.059   5.818   3.528
  194SOL    HW1 1481   4.145   5.830   3.477
  194SOL    HW2 1482   3.983   5.807   3.464
  195SOL     OW 1483   3.295   0.683   1.219
  195SOL    HW1 1484   3.284   0.711   1.124
  195SOL    HW2 1485   3.209   0.699   1.268
  196SOL     OW 1486   4.040   3.054   1.264
  196SOL    HW1 1487   3.983   3.114   1.208
  196SOL    HW2 1488   4.003   3.048   1.356
  197SOL     OW 1489   1.813   5.722   0.933
  197SOL    HW1 1490   1.767   5.806   0.962
  197SOL    HW2 1491   1.744   5.650   0.919
  198SOL     OW 1492   5.895   0.037   6.027
  198SOL    HW1 1493   5.841   6.987   5.994
  198SOL    HW2 1494   5.980   0.042   5.975
  199SOL     OW 1495   2.151   1.294   3.505
  199SOL    HW1 1496   2.072   1.287   3.445
  199SOL    HW2 1497   2.123   1.334   3.592
  200SOL     OW 1498   1.690   3.868   4.152
  200SOL    HW1 1499   1.705   3.868   4.053
  200SOL    HW2 1500   1.712   3.958   4.189
  201SOL     OW 1501   4.939   1.146   6.829
  201SOL    HW1 1502   4.880   1.226   6.833
  201SOL    HW2 1503   5.028   1.167   6.870
  202SOL     OW 1504   4.358   0.390   2.669
  202SOL    HW1 1505   4.457   0.402   2.664
  202SOL    HW2 1506   4.327   0.330   2.595
  203SOL     OW 1507   6.067   3.015   0.426
  203SOL    HW1 1508   6.154   2.969   0.412
  203SOL    HW2 1509   6.014   2.967   0.496
  204SOL     OW 1510   2.013   6.082   0.723
  204SOL    HW1 1511   2.059   6.166   0.694
  204SOL    HW2 1512   1.942   6.103   0.790
  205SOL     OW 1513   5.239   0.832   1.220
  205SOL    HW1 1514   5.335   0.810   1.239
  205SOL    HW2 1515   5.181   0.789   1.289
  206SOL     OW 1516   0.066   5.892   0.904
  206SOL    HW1 1517   0.069   5.894   1.004
  206SOL    HW2 1518   0.017   5.810   0.874
  207SOL     OW 1519   6.539   2.405   5.848
  207SOL    HW1 1520   6.597   2.448   5.918
  207SOL    HW2 1521   6.597   2.365   5.777
  208SOL     OW 1522   4.378   3.735   0.147
  208SOL    HW1 1523   4.327   3.796   0.086
  208SOL    HW2 1524   4.323   3.653   0.165
  209SOL     OW 1525   6.950   7.018   4.063
  209SOL    HW1 1526   6.987   0.034   4.144
  209SOL    HW2 1527   6.995   6.929   4.049
  210SOL     OW 1528   4.018   1.674   0.708
  210SOL    HW1 1529   4.046   1.759   0.753
  210SOL    HW2 1530   4.044   1.597   0.766
  211SOL     OW 1531   0.533   3.221   2.484
  211SOL    HW1 1532   0.602   3.255   2.420
  211SOL    HW2 1533   0.566   3.233   2.578
  212SOL     OW 1534   1.453   5.176   5.552
  212SOL    HW1 1535   1.515   5.212   5.482
  212SOL    HW2 1536   1.456   5.236   5.632
  213SOL     OW 1537   3.946   2.625   1.391
  213SOL    HW1 1538   3.971   2.617   1.487
  213SOL    HW2 1539   3.986   2.708   1.353
  214SOL     OW 1540   0.758   5.833   4.127
  214SOL    HW1 1541   0.723   5.852   4.219
  214SOL    HW2 1542   0.798   5.916   4.089
  215SOL     OW 1543   3.909   3.940   3.435
  215SOL    HW1 1544   3.925   3.868   3.367
  215SOL    HW2 1545   3.927   3.904   3.527
  216SOL     OW 1546   3.015   0.091   5.749
  216SOL    HW1 1547   2.950   0.077   5.675
  216SOL    HW2 1548   3.081   0.162   5.723
  217SOL     OW 1549   6.587   2.060   5.231
  217SOL    HW1 1550   6.497   2.094   5.256
  217SOL    HW2 1551   6.656   2.098   5.292
  218SOL     OW 1552   3.355   4.417   5.790
  218SOL    HW1 1553   3.282   4.457   5.735
  218SOL    HW2 1554   3.443   4.431   5.744
  219SOL     OW 1555   3.037   5.885   6.606
  219SOL    HW1 1556   2.991   5.797   6.618
  219SOL    HW2 1557   3.009   5.947   6.680
  220SOL     OW 1558   0.939   4.806   0.346
  220SOL    HW1 1559   0.942   4.850   0.257
  220SOL    HW2 1560   0.990   4.720   0.343
  221SOL     OW 1561   5.906   3.364   4.409
  221SOL    HW1 1562   5.809   3.383   4.425
  221SOL    HW2 1563   5.919   3.267   4.387
  222SOL     OW 1564   2.095   6.962   4.532
  222SOL    HW1 1565   2.137   6.923   4.613
  222SOL    HW2 1566   2.058   6.889   4.475
  223SOL     OW 1567   5.712   4.757   2.498
  223SOL    HW1 1568   5.642   4.828   2.500
  223SOL    HW2 1569   5.686   4.683   2.560
  224SOL     OW 1570   4.759   2.746   2.974
  224SOL    HW1 1571   4.757   2.710   3.067
  224SOL    HW2 1572   4.844   2.720   2.929
  225SOL     OW 1573   4.986   6.240   1.749
  225SOL    HW1 1574   4.901   6.190   1.736
  225SOL    HW2 1575   4.994   6.313   1.681
  226SOL     OW 1576   1.293   5.915   2.507
  226SOL    HW1 1577   1.339   5.917   2.596
  226SOL    HW2 1578   1.292   6.006   2.468
  227SOL     OW 1579   1.179   4.045   3.477
  227SOL    HW1 1580   1.259   4.006   3.432
  227SOL    HW2 1581   1.193   4.043   3.576
  228SOL     OW 1582   3.958   5.691   2.888
  228SOL    HW1 1583   3.871   5.731   2.859
  228SOL    HW2 1584   3.999   5.748   2.959
  229SOL     OW 1585   6.227   5.970   2.870
  229SOL    HW1 1586   6.184   5.919   2.795
  229SOL    HW2 1587   6.208   5.923   2.957
  230SOL     OW 1588   0.756   4.807   6.017
  230SOL    HW1 1589   0.841   4.757   6.038
  230SOL    HW2 1590   0.692   4.796   6.093
  231SOL     OW 1591   0.222   1.552   6.374
  231SOL    HW1 1592   0.177   1.473   6.414
  231SOL    HW2 1593   0.312   1.565   6.417
  232SOL     OW 1594   1.586   3.775   5.618
  232SOL    HW1 1595   1.573   3.815   5.708
  232SOL    HW2 1596   1.502   3.728   5.589
  233SOL     OW 1597   3.301   0.158   6.783
  233SOL    HW1 1598   3.360   0.163   6.864
  233SOL    HW2 1599   3.343   0.097   6.716
  234SOL     OW 1600   1.473   4.962   6.847
  234SOL    HW1 1601   1.483   4.866   6.819
  234SOL    HW2 1602   1.377   4.981   6.868
  235SOL     OW 1603   4.019   3.337   5.990
  235SOL    HW1 1604   4.080   3.360   6.066
  235SOL    HW2 1605   3.933   3.301   6.027
  236SOL     OW 1606   6.803   1.070   6.261
  236SOL    HW1 1607   6.741   1.084   6.339
  236SOL    HW2 1608   6.891   1.114   6.280
  237SOL     OW 1609   6.948   6.705   2.314
  237SOL    HW1 1610   0.014   6.724   2.285
  237SOL    HW2 1611   6.949   6.632   2.382
  238SOL     OW 1612   0.421   2.550   2.711
  238SOL    HW1 1613   0.331   2.517   2.685
  238SOL    HW2 1614   0.486   2.530   2.638
  239SOL     OW 1615   6.152   4.803   0.329
  239SOL    HW1 1616   6.120   4.775   0.238
  239SOL    HW2 1617   6.250   4.820   0.326
  240SOL     OW 1618   0.197   1.835   4.502
  240SOL    HW1 1619   0.241   1.895   4.435
  240SOL    HW2 1620   0.205   1.876   4.593
  241SOL     OW 1621   6.052   2.164   4.720
  241SOL    HW1 1622   6.073   2.071   4.688
  241SOL    HW2 1623   6.133   2.222   4.709
  242SOL     OW 1624   2.961   2.251   3.925
  242SOL    HW1 1625   3.041   2.257   3.984
  242SOL    HW2 1626   2.988   2.215   3.835
  243SOL     OW 1627   4.719   1.526   6.686
  243SOL    HW1 1628   4.626   1.519   6.651
  243SOL    HW2 1629   4.783   1.540   6.611
  244SOL     OW 1630   0.640   1.453   6.346
  244SOL    HW1 1631   0.617   1.367   6.391
  244SOL    HW2 1632   0.598   1.456   6.256
  245SOL     OW 1633   5.291   1.887   3.927
  245SOL    HW1 1634   5.299   1.876   3.828
  245SOL    HW2 1635   5.203   1.851   3.958
  246SOL     OW 1636   5.396   3.689   4.396
  246SOL    HW1 1637   5.397   3.782   4.432
  246SOL    HW2 1638   5.487   3.649   4.403
  247SOL     OW 1639   2.858   0.612   2.883
  247SOL    HW1 1640   2.906   0.552   2.947
  247SOL    HW2 1641   2.925   0.661   2.826
  248SOL     OW 1642   0.570   2.738   3.197
  248SOL    HW1 1643   0.519   2.738   3.283
  248SOL    HW2 1644   0.506   2.743   3.121
  249SOL     OW 1645   2.554   5.456   5.377
  249SOL    HW1 1646   2.540   5.555   5.370
  249SOL    HW2 1647   2.633   5.439   5.436
  250SOL     OW 1648   5.110   2.548   6.848
  250SOL    HW1 1649   5.139   2.643   6.854
  250SOL    HW2 1650   5.042   2.528   6.918
  251SOL     OW 1651   1.966   0.639   1.482
  251SOL    HW1 1652   1.905   0.697   1.537
  251SOL    HW2 1653   2.057   0.680   1.480
  252SOL     OW 1654   6.882   2.426   0.367
  252SOL    HW1 1655   6.957   2.420   0.432
  252SOL    HW2 1656   6.799   2.388   0.408
  253SOL     OW 1657   2.317   4.423   6.097
  253SOL    HW1 1658   2.290   4.417   6.193
  253SOL    HW2 1659   2.236   4.429   6.039
  254SOL     OW 1660   5.027   3.506   6.421
  254SOL    HW1 1661   4.940   3.547   6.392
  254SOL    HW2 1662   5.099   3.574   6.416
  255SOL     OW 1663   4.674   2.308   2.541
  255SOL    HW1 1664   4.612   2.233   2.521
  255SOL    HW2 1665   4.639   2.392   2.500
  256SOL     OW 1666   0.213   6.157   1.196
  256SOL    HW1 1667   0.173   6.184   1.284
  256SOL    HW2 1668   0.312   6.155   1.203
  257SOL     OW 1669   2.991   5.956   6.308
  257SOL    HW1 1670   3.014   5.970   6.404
  257SOL    HW2 1671   3.054   5.889   6.268
  258SOL     OW 1672   4.481   5.564   4.269
  258SOL    HW1 1673   4.464   5.616   4.353
  258SOL    HW2 1674   4.518   5.624   4.199
  259SOL     OW 1675   0.831   1.597   1.889
  259SOL    HW1 1676   0.866   1.691   1.900
  259SOL    HW2 1677   0.891   1.534   1.937
  260SOL     OW 1678   6.604   6.846   5.596
  260SOL    HW1 1679   6.537   6.795   5.542
  260SOL    HW2 1680   6.686   6.862   5.541
  261SOL     OW 1681   0.587   0.886   4.323
  261SOL    HW1 1682   0.515   0.894   4.392
  261SOL    HW2 1683   0.600   0.789   4.299
  262SOL     OW 1684   1.836   5.480   1.186
  262SOL    HW1 1685   1.934   5.474   1.208
  262SOL    HW2 1686   1.820   5.445   1.094
  263SOL     OW 1687   0.626   4.443   4.759
  263SOL    HW1 1688   0.587   4.519   4.708
  263SOL    HW2 1689   0.663   4.476   4.846
  264SOL     OW 1690   3.724   3.717   0.709
  264SOL    HW1 1691   3.675   3.801   0.733
  264SOL    HW2 1692   3.744   3.666   0.793
  265SOL     OW 1693   4.322   5.661   3.917
  265SOL    HW1 1694   4.415   5.639   3.886
  265SOL    HW2 1695   4.268   5.577   3.922
  266SOL     OW 1696   4.359   3.606   6.862
  266SOL    HW1 1697   4.451   3.569   6.844
  266SOL    HW2 1698   4.300   3.533   6.896
  267SOL     OW 1699   2.661   2.581   6.100
  267SOL    HW1 1700   2.719   2.644   6.049
  267SOL    HW2 1701   2.566   2.592   6.072
  268SOL     OW 1702   1.469   4.001   3.851
  268SOL    HW1 1703   1.556   3.955   3.831
  268SOL    HW2 1704   1.465   4.087   3.800
  269SOL     OW 1705   3.382   1.795   5.508
  269SOL    HW1 1706   3.420   1.727   5.445
  269SOL    HW2 1707   3.429   1.882   5.496
  270SOL     OW 1708   5.430   5.539   4.906
  270SOL    HW1 1709   5.377   5.503   4.828
  270SOL    HW2 1710   5.369   5.549   4.985
  271SOL     OW 1711   2.582   1.701   0.358
  271SOL    HW1 1712   2.638   1.784   0.364
  271SOL    HW2 1713   2.525   1.705   0.275
  272SOL     OW 1714   5.437   4.928   0.092
  272SOL    HW1 1715   5.371   4.866   0.134
  272SOL    HW2 1716   5.428   5.019   0.133
  273SOL     OW 1717   1.091   6.140   4.289
  273SOL    HW1 1718   1.024   6.207   4.321
  273SOL    HW2 1719   1.043   6.056   4.261
  274SOL     OW 1720   5.233   2.519   2.713
  274SOL    HW1 1721   5.143   2.500   2.675
  274SOL    HW2 1722   5.281   2.585   2.655
  275SOL     OW 1723   5.772   5.529   5.383
  275SOL    HW1 1724   5.850   5.522   5.445
  275SOL    HW2 1725   5.757   5.441   5.338
  276SOL     OW 1726   0.924   0.389   4.625
  276SOL    HW1 1727   0.917   0.444   4.709
  276SOL    HW2 1728   0.947   0.448   4.548
  277SOL     OW 1729   3.716   3.375   5.542
  277SOL    HW1 1730   3.770   3.319   5.478
  277SOL    HW2 1731   3.717   3.333   5.632
  278SOL     OW 1732   5.918   4.355   2.116
  278SOL    HW1 1733   5.882   4.426   2.176
  278SOL    HW2 1734   5.968   4.288   2.171
  279SOL     OW 1735   0.525   3.835   4.282
  279SOL    HW1 1736   0.473   3.917   4.260
  279SOL    HW2 1737   0.541   3.831   4.381
  280SOL     OW 1738   4.785   1.619   3.179
  280SOL    HW1 1739   4.734   1.663   3.105
  280SOL    HW2 1740   4.723   1.598   3.255
  281SOL     OW 1741   4.934   4.948   5.387
  281SOL    HW1 1742   4.938   4.850   5.406
  281SOL    HW2 1743   4.847   4.985   5.418
  282SOL     OW 1744   0.379   2.333   6.920
  282SOL    HW1 1745   0.297   2.330   6.863
  282SOL    HW2 1746   0.376   2.257   6.986
  283SOL     OW 1747   6.267   3.800   2.456
  283SOL    HW1 1748   6.311   3.883   2.423
  283SOL    HW2 1749   6.319   3.763   2.532
  284SOL     OW 1750   5.802   6.638   3.447
  284SOL    HW1 1751   5.782   6.571   3.376
  284SOL    HW2 1752   5.733   6.630   3.520
  285SOL     OW 1753   4.308   6.213   6.531
  285SOL    HW1 1754   4.352   6.264   6.605
  285SOL    HW2 1755   4.268   6.130   6.568
  286SOL     OW 1756   3.612   5.099   5.404
  286SOL    HW1 1757   3.561   5.179   5.374
  286SOL    HW2 1758   3.549   5.033   5.446
  287SOL     OW 1759   3.687   6.030   0.509
  287SOL    HW1 1760   3.624   6.001   0.580
  287SOL    HW2 1761   3.771   6.066   0.550
  288SOL     OW 1762   4.434   0.992   0.096
  288SOL    HW1 1763   4.517   0.940   0.113
  288SOL    HW2 1764   4.384   0.952   0.020
  289SOL     OW 1765   5.214   5.076   4.283
  289SOL    HW1 1766   5.307   5.040   4.284
  289SOL    HW2 1767   5.176   5.072   4.375
  290SOL     OW 1768   3.141   0.502   4.924
  290SOL    HW1 1769   3.226   0.519   4.973
  290SOL    HW2 1770   3.162   0.459   4.836
  291SOL     OW 1771   5.840   0.829   4.727
  291SOL    HW1 1772   5.774   0.868   4.792
  291SOL    HW2 1773   5.805   0.742   4.693
  292SOL     OW 1774   3.172   0.579   3.451
  292SOL    HW1 1775   3.185   0.620   3.361
  292SOL    HW2 1776   3.228   0.627   3.518
  293SOL     OW 1777   5.258   1.069   2.960
  293SOL    HW1 1778   5.286   1.165   2.967
  293SOL    HW2 1779   5.272   1.024   3.048
  294SOL     OW 1780   6.743   1.406   6.986
  294SOL    HW1 1781   6.696   1.493   6.972
  294SOL    HW2 1782   6.686   1.332   6.952
  295SOL     OW 1783   0.086   0.166   4.994
  295SOL    HW1 1784   0.028   0.167   4.913
  295SOL    HW2 1785   0.072   0.250   5.046
  296SOL     OW 1786   0.204   1.900   0.741
  296SOL    HW1 1787   0.287   1.854   0.773
  296SOL    HW2 1788   0.125   1.867   0.792
  297SOL     OW 1789   5.161   3.408   3.413
  297SOL    HW1 1790   5.173   3.499   3.451
  297SOL    HW2 1791   5.218   3.397   3.332
  298SOL     OW 1792   4.169   0.212   5.020
  298SOL    HW1 1793   4.112   0.200   5.101
  298SOL    HW2 1794   4.239   0.141   5.017
  299SOL     OW 1795   0.749   1.161   6.094
  299SOL    HW1 1796   0.702   1.239   6.135
  299SOL    HW2 1797   0.758   1.175   5.995
  300SOL     OW 1798   4.354   6.108   3.936
  300SOL    HW1 1799   4.370   6.121   3.838
  300SOL    HW2 1800   4.255   6.105   3.953
  301SOL     OW 1801   6.656   6.188   4.988
  301SOL    HW1 1802   6.710   6.105   4.971
  301SOL    HW2 1803   6.658   6.245   4.906
  302SOL     OW 1804   0.434   6.492   1.973
  302SOL    HW1 1805   0.380   6.455   2.048
  302SOL    HW2 1806   0.482   6.575   2.002
  303SOL     OW 1807   5.508   5.349   2.339
  303SOL    HW1 1808   5.428   5.318   2.289
  303SOL    HW2 1809   5.485   5.362   2.435
  304SOL     OW 1810   1.410   0.332   3.879
  304SOL    HW1 1811   1.415   0.384   3.964
  304SOL    HW2 1812   1.442   0.388   3.803
  305SOL     OW 1813   2.306   2.150   1.474
  305SOL    HW1 1814   2.311   2.130   1.572
  305SOL    HW2 1815   2.350   2.238   1.455
  306SOL     OW 1816   0.538   6.759   2.664
  306SOL    HW1 1817   0.474   6.832   2.641
  306SOL    HW2 1818   0.487   6.674   2.678
  307SOL     OW 1819   4.065   3.722   4.044
  307SOL    HW1 1820   4.081   3.746   4.140
  307SOL    HW2 1821   3.971   3.688   4.034
  308SOL     OW 1822   6.474   2.160   1.913
  308SOL    HW1 1823   6.525   2.074   1.915
  308SOL    HW2 1824   6.376   2.141   1.919
  309SOL     OW 1825   1.634   4.717   0.102
  309SOL    HW1 1826   1.673   4.636   0.058
  309SOL    HW2 1827   1.698   4.794   0.093
  310SOL     OW 1828   4.789   6.506   5.037
  310SOL    HW1 1829   4.853   6.575   5.003
  310SOL    HW2 1830   4.840   6.424   5.064
  311SOL     OW 1831   1.913   6.245   2.266
  311SOL    HW1 1832   1.896   6.340   2.240
  311SOL    HW2 1833   1.976   6.203   2.201
  312SOL     OW 1834   3.209   0.550   4.452
  312SOL    HW1 1835   3.278   0.494   4.407
  312SOL    HW2 1836   3.180   0.623   4.390
  313SOL     OW 1837   3.302   3.233   3.429
  313SOL    HW1 1838   3.218   3.254   3.379
  313SOL    HW2 1839   3.281   3.221   3.526
  314SOL     OW 1840   2.551   4.875   6.519
  314SOL    HW1 1841   2.517   4.942   6.584
  314SOL    HW2 1842   2.607   4.808   6.566
  315SOL     OW 1843   6.171   0.549   5.028
  315SOL    HW1 1844   6.112   0.615   5.075
  315SOL    HW2 1845   6.132   0.457   5.038
  316SOL     OW 1846   4.013   0.826   5.017
  316SOL    HW1 1847   3.990   0.794   5.109
  316SOL    HW2 1848   4.063   0.754   4.969
  317SOL     OW 1849   0.870   2.158   1.353
  317SOL    HW1 1850   0.946   2.219   1.331
  317SOL    HW2 1851   0.905   2.072   1.390
  318SOL     OW 1852   0.918   0.779   3.372
  318SOL    HW1 1853   0.997   0.836   3.352
  318SOL    HW2 1854   0.910   0.707   3.302
  319SOL     OW 1855   1.070   1.298   2.495
  319SOL    HW1 1856   1.085   1.224   2.561
  319SOL    HW2 1857   1.041   1.381   2.544
  320SOL     OW 1858   5.170   1.345   0.093
  320SOL    HW1 1859   5.168   1.367   7.024
  320SOL    HW2 1860   5.090   1.384   0.138
  321SOL     OW 1861   4.276   3.231   0.887
  321SOL    HW1 1862   4.276   3.199   0.981
  321SOL    HW2 1863   4.232   3.163   0.829
  322SOL     OW 1864   3.016   1.743   6.909
  322SOL    HW1 1865   2.974   1.655   6.889
  322SOL    HW2 1866   3.059   1.740   6.999
  323SOL     OW 1867   1.185   4.003   2.253
  323SOL    HW1 1868   1.181   4.027   2.350
  323SOL    HW2 1869   1.276   4.025   2.217
  324SOL     OW 1870   6.116   0.335   4.287
  324SOL    HW1 1871   6.098   0.426   4.325
  324SOL    HW2 1872   6.149   0.275   4.359
  325SOL     OW 1873   6.210   3.772   0.860
  325SOL    HW1 1874   6.288   3.831   0.880
  325SOL    HW2 1875   6.242   3.688   0.817
  326SOL     OW 1876   6.695   5.631   6.999
  326SOL    HW1 1877   6.616   5.663   0.022
  326SOL    HW2 1878   6.739   5.708   6.953
  327SOL     OW 1879   4.404   6.558   6.401
  327SOL    HW1 1880   4.364   6.467   6.385
  327SOL    HW2 1881   4.331   6.626   6.406
  328SOL     OW 1882   2.017   4.234   3.528
  328SOL    HW1 1883   1.967   4.296   3.589
  328SOL    HW2 1884   2.115   4.242   3.546
  329SOL     OW 1885   3.108   3.265   2.460
  329SOL    HW1 1886   3.128   3.169   2.477
  329SOL    HW2 1887   3.104   3.282   2.362
  330SOL     OW 1888   2.434   3.574   6.618
  330SOL    HW1 1889   2.376   3.650   6.649
  330SOL    HW2 1890   2.517   3.611   6.576
  331SOL     OW 1891   5.117   5.471   3.443
  331SOL    HW1 1892   5.199   5.421   3.471
  331SOL    HW2 1893   5.137   5.527   3.363
  332SOL     OW 1894   5.964   1.812   2.821
  332SOL    HW1 1895   5.944   1.775   2.730
  332SOL    HW2 1896   6.030   1.754   2.868
  333SOL     OW 1897   3.745   6.462   3.528
  333SOL    HW1 1898   3.773   6.492   3.437
  333SOL    HW2 1899   3.802   6.505   3.597
  334SOL     OW 1900   3.697   3.196   4.325
  334SOL    HW1 1901   3.749   3.117   4.358
  334SOL    HW2 1902   3.612   3.204   4.377
  335SOL     OW 1903   4.451   1.260   0.741
  335SOL    HW1 1904   4.507   1.336   0.774
  335SOL    HW2 1905   4.359   1.293   0.720
  336SOL     OW 1906   4.102   1.951   4.999
  336SOL    HW1 1907   4.078   1.854   4.986
  336SOL    HW2 1908   4.019   2.006   4.995
  337SOL     OW 1909   0.104   1.448   5.298
  337SOL    HW1 1910   0.034   1.513   5.266
  337SOL    HW2 1911   0.188   1.461   5.245
  338SOL     OW 1912   4.646   1.140   1.764
  338SOL    HW1 1913   4.666   1.215   1.701
  338SOL    HW2 1914   4.547   1.134   1.778
  339SOL     OW 1915   3.700   4.954   5.978
  339SOL    HW1 1916   3.688   4.911   6.067
  339SOL    HW2 1917   3.611   4.985   5.944
  340SOL     OW 1918   4.969   3.280   4.842
  340SOL    HW1 1919   5.016   3.367   4.856
  340SOL    HW2 1920   4.899   3.290   4.771
  341SOL     OW 1921   0.059   0.363   1.906
  341SOL    HW1 1922   0.027   0.431   1.841
  341SOL    HW2 1923   0.007   0.278   1.894
  342SOL     OW 1924   4.284   0.846   1.977
  342SOL    HW1 1925   4.207   0.781   1.977
  342SOL    HW2 1926   4.311   0.865   2.071
  343SOL     OW 1927   6.187   0.232   1.904
  343SOL    HW1 1928   6.274   0.196   1.937
  343SOL    HW2 1929   6.139   0.277   1.979
  344SOL     OW 1930   7.019   2.239   1.489
  344SOL    HW1 1931   0.078   2.278   1.522
  344SOL    HW2 1932   6.954   2.313   1.472
  345SOL     OW 1933   0.018   2.606   4.612
  345SOL    HW1 1934   0.044   2.586   4.518
  345SOL    HW2 1935   6.948   2.592   4.623
  346SOL     OW 1936   1.507   5.907   2.305
  346SOL    HW1 1937   1.462   5.896   2.394
  346SOL    HW2 1938   1.578   5.978   2.313
  347SOL     OW 1939   2.011   4.274   1.530
  347SOL    HW1 1940   2.014   4.320   1.618
  347SOL    HW2 1941   1.947   4.321   1.469
  348SOL     OW 1942   5.311   4.601   1.442
  348SOL    HW1 1943   5.336   4.672   1.376
  348SOL    HW2 1944   5.312   4.511   1.397
  349SOL     OW 1945   5.894   5.147   0.724
  349SOL    HW1 1946   5.814   5.134   0.783
  349SOL    HW2 1947   5.873   5.111   0.633
  350SOL     OW 1948   2.522   0.798   0.772
  350SOL    HW1 1949   2.476   0.735   0.711
  350SOL    HW2 1950   2.539   0.885   0.724
  351SOL     OW 1951   3.756   4.273   1.295
  351SOL    HW1 1952   3.802   4.202   1.348
  351SOL    HW2 1953   3.793   4.275   1.202
  352SOL     OW 1954   4.360   6.828   2.413
  352SOL    HW1 1955   4.262   6.828   2.434
  352SOL    HW2 1956   4.411   6.868   2.489
  353SOL     OW 1957   2.532   5.931   0.429
  353SOL    HW1 1958   2.513   5.833   0.427
  353SOL    HW2 1959   2.487   5.973   0.508
  354SOL     OW 1960   1.413   2.317   0.567
  354SOL    HW1 1961   1.416   2.247   0.638
  354SOL    HW2 1962   1.503   2.325   0.524
  355SOL     OW 1963   0.245   2.832   3.188
  355SOL    HW1 1964   0.260   2.842   3.090
  355SOL    HW2 1965   0.185   2.754   3.205
  356SOL     OW 1966   2.714   0.223   5.842
  356SOL    HW1 1967   2.704   0.279   5.923
  356SOL    HW2 1968   2.772   0.270   5.775
  357SOL     OW 1969   5.471   5.521   4.304
  357SOL    HW1 1970   5.565   5.540   4.276
  357SOL    HW2 1971   5.472   5.480   4.395
  358SOL     OW 1972   3.389   6.410   6.936
  358SOL    HW1 1973   3.352   6.498   6.907
  358SOL    HW2 1974   3.340   6.336   6.890
  359SOL     OW 1975   2.072   2.839   1.919
  359SOL    HW1 1976   1.997   2.898   1.890
  359SOL    HW2 1977   2.154   2.861   1.866
  360SOL     OW 1978   2.219   4.139   3.183
  360SOL    HW1 1979   2.289   4.185   3.238
  360SOL    HW2 1980   2.227   4.166   3.087
  361SOL     OW 1981   6.604   2.652   2.985
  361SOL    HW1 1982   6.541   2.723   2.952
  361SOL    HW2 1983   6.564   2.562   2.966
  362SOL     OW 1984   4.075   3.244   2.729
  362SOL    HW1 1985   4.129   3.203   2.655
  362SOL    HW2 1986   3.994   3.289   2.690
  363SOL     OW 1987   4.309   4.733   0.398
  363SOL    HW1 1988   4.395   4.764   0.438
  363SOL    HW2 1989   4.320   4.640   0.364
  364SOL     OW 1990   1.438   0.428   0.310
  364SOL    HW1 1991   1.398   0.505   0.261
  364SOL    HW2 1992   1.446   0.350   0.248
  365SOL     OW 1993   5.098   0.343   3.692
  365SOL    HW1 1994   5.040   0.265   3.667
  365SOL    HW2 1995   5.117   0.340   3.791
  366SOL     OW 1996   5.127   1.681   0.472
  366SOL    HW1 1997   5.088   1.602   0.518
  366SOL    HW2 1998   5.173   1.740   0.539
  367SOL     OW 1999   5.279   0.984   7.023
  367SOL    HW1 2000   5.338   1.013   0.070
  367SOL    HW2 2001   5.183   0.997   0.021
  368SOL     OW 2002   3.097   1.565   5.598
  368SOL    HW1 2003   3.089   1.648   5.653
  368SOL    HW2 2004   3.023   1.502   5.621
  369SOL     OW 2005   4.768   4.288   6.955
  369SOL    HW1 2006   4.693   4.288   7.020
  369SOL    HW2 2007   4.853   4.313   7.001
  370SOL     OW 2008   1.631   2.409   3.422
  370SOL    HW1 2009   1.691   2.442   3.349
  370SOL    HW2 2010   1.603   2.487   3.479
  371SOL     OW 2011   2.720   5.550   0.182
  371SOL    HW1 2012   2.802   5.601   0.209
  371SOL    HW2 2013   2.659   5.611   0.131
  372SOL     OW 2014   2.565   5.864   6.521
  372SOL    HW1 2015   2.599   5.774   6.494
  372SOL    HW2 2016   2.477   5.881   6.479
  373SOL     OW 2017   5.967   4.860   2.554
  373SOL    HW1 2018   6.038   4.872   2.484
  373SOL    HW2 2019   5.883   4.827   2.511
  374SOL     OW 2020   2.727   2.234   2.121
  374SOL    HW1 2021   2.791   2.171   2.166
  374SOL    HW2 2022   2.774   2.284   2.048
  375SOL     OW 2023   0.079   5.959   4.083
  375SOL    HW1 2024   0.025   6.034   4.123
  375SOL    HW2 2025   0.148   5.997   4.022
  376SOL     OW 2026   4.306   0.376   3.611
  376SOL    HW1 2027   4.289   0.314   3.535
  376SOL    HW2 2028   4.233   0.444   3.617
  377SOL     OW 2029   2.930   2.959   6.320
  377SOL    HW1 2030   3.018   2.943   6.275
  377SOL    HW2 2031   2.908   2.882   6.380
  378SOL     OW 2032   4.235   1.320   2.012
  378SOL    HW1 2033   4.267   1.237   1.967
  378SOL    HW2 2034   4.246   1.310   2.111
  379SOL     OW 2035   4.021   2.896   6.580
  379SOL    HW1 2036   3.940   2.863   6.628
  379SOL    HW2 2037   4.023   2.996   6.583
  380SOL     OW 2038   4.560   2.110   0.556
  380SOL    HW1 2039   4.604   2.199   0.569
  380SOL    HW2 2040   4.609   2.041   0.610
  381SOL     OW 2041   1.800   3.693   2.630
  381SOL    HW1 2042   1.818   3.740   2.544
  381SOL    HW2 2043   1.747   3.610   2.612
  382SOL     OW 2044   5.924   6.898   0.466
  382SOL    HW1 2045   6.016   6.909   0.429
  382SOL    HW2 2046   5.909   6.802   0.490
  383SOL     OW 2047   5.012   3.126   0.698
  383SOL    HW1 2048   4.918   3.114   0.666
  383SOL    HW2 2049   5.012   3.175   0.785
  384SOL     OW 2050   0.794   3.286   5.222
  384SOL    HW1 2051   0.808   3.262   5.126
  384SOL    HW2 2052   0.698   3.271   5.246
  385SOL     OW 2053   4.630   2.260   6.633
  385SOL    HW1 2054   4.709   2.201   6.618
  385SOL    HW2 2055   4.635   2.301   6.724
  386SOL     OW 2056   3.882   6.182   5.178
  386SOL    HW1 2057   3.805   6.218   5.231
  386SOL    HW2 2058   3.852   6.099   5.129
  387SOL     OW 2059   2.625   6.564   3.849
  387SOL    HW1 2060   2.633   6.477   3.898
  387SOL    HW2 2061   2.589   6.634   3.911
  388SOL     OW 2062   1.564   4.904   5.960
  388SOL    HW1 2063   1.522   4.836   5.900
  388SOL    HW2 2064   1.498   4.977   5.980
  389SOL     OW 2065   2.896   2.952   0.419
  389SOL    HW1 2066   2.819   3.014   0.403
  389SOL    HW2 2067   2.954   2.989   0.492
  390SOL     OW 2068   2.578   1.594   4.230
  390SOL    HW1 2069   2.638   1.627   4.303
  390SOL    HW2 2070   2.485   1.626   4.247
  391SOL     OW 2071   0.475   2.195   0.351
  391SOL    HW1 2072   0.431   2.130   0.413
  391SOL    HW2 2073   0.574   2.180   0.352
  392SOL     OW 2074   3.478   5.300   4.789
  392SOL    HW1 2075   3.498   5.294   4.692
  392SOL    HW2 2076   3.463   5.208   4.826
  393SOL     OW 2077   6.098   3.775   5.317
  393SOL    HW1 2078   6.010   3.752   5.359
  393SOL    HW2 2079   6.146   3.841   5.374
  394SOL     OW 2080   2.088   1.476   6.454
  394SOL    HW1 2081   2.016   1.413   6.425
  394SOL    HW2 2082   2.084   1.558   6.398
  395SOL     OW 2083   0.047   3.040   1.221
  395SOL    HW1 2084   0.095   2.973   1.276
  395SOL    HW2 2085   0.020   2.999   1.134
  396SOL     OW 2086   3.388   2.630   5.900
  396SOL    HW1 2087   3.313   2.565   5.886
  396SOL    HW2 2088   3.474   2.588   5.871
  397SOL     OW 2089   4.357   0.764   6.447
  397SOL    HW1 2090   4.456   0.761   6.460
  397SOL    HW2 2091   4.326   0.858   6.437
  398SOL     OW 2092   0.289   4.566   2.730
  398SOL    HW1 2093   0.249   4.504   2.663
  398SOL    HW2 2094   0.280   4.660   2.699
  399SOL     OW 2095   4.756   5.407   1.774
  399SOL    HW1 2096   4.787   5.312   1.765
  399SOL    HW2 2097   4.834   5.468   1.763
  400SOL     OW 2098   2.103   4.827   4.970
  400SOL    HW1 2099   2.169   4.897   4.999
  400SOL    HW2 2100   2.035   4.813   5.042
  401SOL     OW 2101   6.137   1.557   1.383
  401SOL    HW1 2102   6.098   1.488   1.444
  401SOL    HW2 2103   6.093   1.645   1.400
  402SOL     OW 2104   0.119   4.754   0.996
  402SOL    HW1 2105   0.209   4.742   1.037
  402SOL    HW2 2106   0.130   4.773   0.898
  403SOL     OW 2107   4.882   4.896   0.969
  403SOL    HW1 2108   4.904   4.832   0.896
  403SOL    HW2 2109   4.784   4.897   0.985
  404SOL     OW 2110   0.079   5.597   4.804
  404SOL    HW1 2111   0.116   5.616   4.713
  404SOL    HW2 2112   0.009   5.526   4.797
  405SOL     OW 2113   1.689   2.276   1.561
  405SOL    HW1 2114   1.674   2.350   1.627
  405SOL    HW2 2115   1.669   2.188   1.603
  406SOL     OW 2116   0.684   2.452   3.635
  406SOL    HW1 2117   0.704   2.508   3.554
  406SOL    HW2 2118   0.760   2.458   3.699
  407SOL     OW 2119   3.898   2.153   3.927
  407SOL    HW1 2120   3.900   2.084   3.854
  407SOL    HW2 2121   3.861   2.112   4.011
  408SOL     OW 2122   2.695   0.282   3.554
  408SOL    HW1 2123   2.778   0.263   3.502
  408SOL    HW2 2124   2.717   0.338   3.634
  409SOL     OW 2125   6.901   3.926   4.149
  409SOL    HW1 2126   6.862   3.840   4.181
  409SOL    HW2 2127   6.829   3.995   4.143
  410SOL     OW 2128   3.032   6.644   6.248
  410SOL    HW1 2129   2.950   6.648   6.305
  410SOL    HW2 2130   3.088   6.726   6.264
  411SOL     OW 2131   0.273   4.261   5.294
  411SOL    HW1 2132   0.287   4.168   5.330
  411SOL    HW2 2133   0.340   4.279   5.222
  412SOL     OW 2134   3.819   6.767   2.432
  412SOL    HW1 2135   3.748   6.810   2.488
  412SOL    HW2 2136   3.776   6.718   2.356
  413SOL     OW 2137   2.463   0.997   2.666
  413SOL    HW1 2138   2.380   1.020   2.716
  413SOL    HW2 2139   2.536   1.061   2.692
  414SOL     OW 2140   4.804   5.015   0.467
  414SOL    HW1 2141   4.765   5.099   0.429
  414SOL    HW2 2142   4.826   5.028   0.563
  415SOL     OW 2143   3.987   0.238   2.189
  415SOL    HW1 2144   4.028   0.257   2.278
  415SOL    HW2 2145   4.058   0.208   2.125
  416SOL     OW 2146   4.294   5.737   7.025
  416SOL    HW1 2147   4.235   5.806   6.982
  416SOL    HW2 2148   4.337   5.776   0.078
  417SOL     OW 2149   5.307   5.048   0.931
  417SOL    HW1 2150   5.364   5.016   1.007
  417SOL    HW2 2151   5.359   5.113   0.875
  418SOL     OW 2152   6.702   4.963   6.413
  418SOL    HW1 2153   6.711   4.863   6.407
  418SOL    HW2 2154   6.647   4.996   6.337
  419SOL     OW 2155   5.195   5.350   0.061
  419SOL    HW1 2156   5.098   5.357   0.085
  419SOL    HW2 2157   5.213   5.403   7.006
  420SOL     OW 2158   4.845   4.135   6.384
  420SOL    HW1 2159   4.897   4.190   6.450
  420SOL    HW2 2160   4.776   4.081   6.432
  421SOL     OW 2161   1.629   6.512   6.387
  421SOL    HW1 2162   1.558   6.508   6.316
  421SOL    HW2 2163   1.585   6.514   6.477
  422SOL     OW 2164   6.450   3.870   6.948
  422SOL    HW1 2165   6.460   3.964   6.982
  422SOL    HW2 2166   6.373   3.826   6.993
  423SOL     OW 2167   0.997   3.604   6.496
  423SOL    HW1 2168   1.040   3.537   6.436
  423SOL    HW2 2169   0.897   3.594   6.492
  424SOL     OW 2170   1.385   4.323   6.606
  424SOL    HW1 2171   1.468   4.285   6.565
  424SOL    HW2 2172   1.387   4.308   6.705
  425SOL     OW 2173   3.673   0.298   0.117
  425SOL    HW1 2174   3.675   0.394   0.088
  425SOL    HW2 2175   3.755   0.252   0.085
  426SOL     OW 2176   6.995   3.718   6.376
  426SOL    HW1 2177   0.030   3.653   6.334
  426SOL    HW2 2178   0.005   3.749   6.464
  427SOL     OW 2179   3.885   3.574   0.096
  427SOL    HW1 2180   3.982   3.587   0.117
  427SOL    HW2 2181   3.876   3.507   0.022
  428SOL     OW 2182   4.021   1.320   5.425
  428SOL    HW1 2183   3.969   1.390   5.473
  428SOL    HW2 2184   4.089   1.364   5.365
  429SOL     OW 2185   2.910   6.727   0.188
  429SOL    HW1 2186   2.817   6.762   0.193
  429SOL    HW2 2187   2.950   6.724   0.280
  430SOL     OW 2188   2.922   0.206   4.126
  430SOL    HW1 2189   2.948   0.150   4.205
  430SOL    HW2 2190   2.993   0.275   4.109
  431SOL     OW 2191   3.563   0.986   6.996
  431SOL    HW1 2192   3.656   0.974   6.963
  431SOL    HW2 2193   3.532   1.080   6.979
  432SOL     OW 2194   7.005   0.952   1.050
  432SOL    HW1 2195   0.007   0.867   1.094
  432SOL    HW2 2196   6.956   0.930   0.966
  433SOL     OW 2197   3.321   5.837   5.093
  433SOL    HW1 2198   3.374   5.791   5.022
  433SOL    HW2 2199   3.316   5.778   5.174
  434SOL     OW 2200   6.068   3.804   1.152
  434SOL    HW1 2201   6.060   3.715   1.198
  434SOL    HW2 2202   6.126   3.794   1.071
  435SOL     OW 2203   3.850   3.506   0.826
  435SOL    HW1 2204   3.893   3.481   0.913
  435SOL    HW2 2205   3.920   3.515   0.756
  436SOL     OW 2206   3.393   0.913   0.772
  436SOL    HW1 2207   3.317   0.921   0.707
  436SOL    HW2 2208   3.461   0.849   0.737
  437SOL     OW 2209   6.582   6.817   6.278
  437SOL    HW1 2210   6.573   6.723   6.245
  437SOL    HW2 2211   6.659   6.822   6.342
  438SOL     OW 2212   1.208   3.132   1.035
  438SOL    HW1 2213   1.224   3.214   0.981
  438SOL    HW2 2214   1.286   3.115   1.094
  439SOL     OW 2215   6.339   5.359   1.735
  439SOL    HW1 2216   6.342   5.322   1.828
  439SOL    HW2 2217   6.379   5.293   1.671
  440SOL     OW 2218   1.779   2.899   2.901
  440SOL    HW1 2219   1.799   2.912   2.804
  440SOL    HW2 2220   1.803   2.982   2.951
  441SOL     OW 2221   0.675   0.966   2.884
  441SOL    HW1 2222   0.749   0.999   2.825
  441SOL    HW2 2223   0.628   1.044   2.925
  442SOL     OW 2224   0.402   4.911   6.134
  442SOL    HW1 2225   0.411   4.985   6.068
  442SOL    HW2 2226   0.319   4.858   6.113
  443SOL     OW 2227   0.553   4.480   5.700
  443SOL    HW1 2228   0.503   4.564   5.721
  443SOL    HW2 2229   0.606   4.493   5.616
  444SOL     OW 2230   4.948   2.810   6.561
  444SOL    HW1 2231   5.033   2.774   6.599
  444SOL    HW2 2232   4.968   2.866   6.481
  445SOL     OW 2233   1.204   4.013   3.757
  445SOL    HW1 2234   1.141   3.937   3.738
  445SOL    HW2 2235   1.289   3.976   3.797
  446SOL     OW 2236   2.625   5.234   4.218
  446SOL    HW1 2237   2.650   5.257   4.312
  446SOL    HW2 2238   2.707   5.207   4.168
  447SOL     OW 2239   6.753   6.093   0.899
  447SOL    HW1 2240   6.837   6.104   0.845
  447SOL    HW2 2241   6.772   6.114   0.995
  448SOL     OW 2242   4.371   0.247   5.842
  448SOL    HW1 2243   4.311   0.321   5.871
  448SOL    HW2 2244   4.407   0.199   5.922
  449SOL     OW 2245   4.995   0.261   4.341
  449SOL    HW1 2246   4.937   0.299   4.269
  449SOL    HW2 2247   4.995   0.161   4.334
  450SOL     OW 2248   6.775   6.712   3.031
  450SOL    HW1 2249   6.733   6.729   3.120
  450SOL    HW2 2250   6.710   6.666   2.971
  451SOL     OW 2251   6.585   3.337   4.015
  451SOL    HW1 2252   6.661   3.401   4.020
  451SOL    HW2 2253   6.546   3.324   4.106
  452SOL     OW 2254   6.875   5.445   5.810
  452SOL    HW1 2255   6.855   5.480   5.718
  452SOL    HW2 2256   6.962   5.483   5.841
  453SOL     OW 2257   3.417   1.984   6.240
  453SOL    HW1 2258   3.357   1.936   6.176
  453SOL    HW2 2259   3.367   2.006   6.324
  454SOL     OW 2260   0.863   6.427   0.211
  454SOL    HW1 2261   0.913   6.419   0.125
  454SOL    HW2 2262   0.834   6.522   0.223
  455SOL     OW 2263   5.459   1.354   5.038
  455SOL    HW1 2264   5.484   1.300   4.958
  455SOL    HW2 2265   5.360   1.352   5.051
  456SOL     OW 2266   3.951   4.929   6.958
  456SOL    HW1 2267   4.037   4.893   6.996
  456SOL    HW2 2268   3.901   4.855   6.913
  457SOL     OW 2269   1.008   4.618   1.406
  457SOL    HW1 2270   1.081   4.657   1.461
  457SOL    HW2 2271   1.015   4.519   1.406
  458SOL     OW 2272   0.554   5.777   5.481
  458SOL    HW1 2273   0.577   5.846   5.412
  458SOL    HW2 2274   0.598   5.800   5.568
  459SOL     OW 2275   1.608   0.569   3.354
  459SOL    HW1 2276   1.549   0.523   3.421
  459SOL    HW2 2277   1.698   0.586   3.395
  460SOL     OW 2278   6.561   2.037   3.830
  460SOL    HW1 2279   6.599   2.128   3.848
  460SOL    HW2 2280   6.533   1.994   3.916
  461SOL     OW 2281   5.724   5.279   5.307
  461SOL    HW1 2282   5.650   5.271   5.240
  461SOL    HW2 2283   5.805   5.232   5.272
  462SOL     OW 2284   2.272   2.010   0.308
  462SOL    HW1 2285   2.229   1.954   0.237
  462SOL    HW2 2286   2.361   2.041   0.276
  463SOL     OW 2287   6.587   5.666   2.258
  463SOL    HW1 2288   6.563   5.760   2.233
  463SOL    HW2 2289   6.686   5.656   2.261
  464SOL     OW 2290   1.924   1.385   5.583
  464SOL    HW1 2291   1.873   1.468   5.562
  464SOL    HW2 2292   1.861   1.308   5.592
  465SOL     OW 2293   0.405   3.368   5.897
  465SOL    HW1 2294   0.310   3.386   5.874
  465SOL    HW2 2295   0.418   3.380   5.996
  466SOL     OW 2296   2.533   0.937   3.319
  466SOL    HW1 2297   2.573   0.912   3.407
  466SOL    HW2 2298   2.576   0.883   3.246
  467SOL     OW 2299   2.144   1.915   5.168
  467SOL    HW1 2300   2.102   1.879   5.085
  467SOL    HW2 2301   2.173   1.838   5.226
  468SOL     OW 2302   3.420   3.386   2.520
  468SOL    HW1 2303   3.471   3.472   2.519
  468SOL    HW2 2304   3.325   3.403   2.491
  469SOL     OW 2305   3.194   6.262   0.242
  469SOL    HW1 2306   3.261   6.209   0.189
  469SOL    HW2 2307   3.103   6.248   0.205
  470SOL     OW 2308   4.554   0.069   3.234
  470SOL    HW1 2309   4.487   7.024   3.244
  470SOL    HW2 2310   4.583   0.075   3.138
  471SOL     OW 2311   2.885   2.091   4.399
  471SOL    HW1 2312   2.978   2.124   4.413
  471SOL    HW2 2313   2.885   2.020   4.328
  472SOL     OW 2314   3.994   4.422   5.271
  472SOL    HW1 2315   3.929   4.354   5.237
  472SOL    HW2 2316   4.079   4.417   5.217
  473SOL     OW 2317   0.742   4.449   4.052
  473SOL    HW1 2318   0.666   4.389   4.078
  473SOL    HW2 2319   0.820   4.431   4.112
  474SOL     OW 2320   5.186   4.448   5.268
  474SOL    HW1 2321   5.277   4.436   5.308
  474SOL    HW2 2322   5.161   4.366   5.216
  475SOL     OW 2323   1.922   6.502   6.258
  475SOL    HW1 2324   1.980   6.430   6.222
  475SOL    HW2 2325   1.833   6.465   6.282
  476SOL     OW 2326   0.461   5.637   2.504
  476SOL    HW1 2327   0.533   5.608   2.441
  476SOL    HW2 2328   0.501   5.660   2.592
  477SOL     OW 2329   2.108   5.215   3.742
  477SOL    HW1 2330   2.197   5.182   3.712
  477SOL    HW2 2331   2.060   5.258   3.665
  478SOL     OW 2332   1.543   5.480   3.312
  478SOL    HW1 2333   1.486   5.437   3.383
  478SOL    HW2 2334   1.639   5.454   3.325
  479SOL     OW 2335   3.351   1.490   1.197
  479SOL    HW1 2336   3.348   1.500   1.296
  479SOL    HW2 2337   3.426   1.430   1.172
  480SOL     OW 2338   1.522   6.630   3.435
  480SOL    HW1 2339   1.582   6.694   3.483
  480SOL    HW2 2340   1.554   6.620   3.340
  481SOL     OW 2341   2.439   6.910   1.227
  481SOL    HW1 2342   2.357   6.942   1.179
  481SOL    HW2 2343   2.411   6.853   1.305
  482SOL     OW 2344   5.670   5.220   0.892
  482SOL    HW1 2345   5.608   5.182   0.822
  482SOL    HW2 2346   5.673   5.159   0.971
  483SOL     OW 2347   6.184   1.758   2.198
  483SOL    HW1 2348   6.237   1.787   2.118
  483SOL    HW2 2349   6.207   1.816   2.276
  484SOL     OW 2350   6.881   2.318   4.721
  484SOL    HW1 2351   6.789   2.354   4.706
  484SOL    HW2 2352   6.923   2.297   4.633
  485SOL     OW 2353   3.648   5.986   1.684
  485SOL    HW1 2354   3.605   6.068   1.722
  485SOL    HW2 2355   3.641   5.988   1.584
  486SOL     OW 2356   0.309   0.913   5.787
  486SOL    HW1 2357   0.258   0.870   5.712
  486SOL    HW2 2358   0.320   0.847   5.861
  487SOL     OW 2359   6.354   2.658   6.523
  487SOL    HW1 2360   6.304   2.573   6.535
  487SOL    HW2 2361   6.429   2.662   6.589
  488SOL     OW 2362   0.981   4.527   2.290
  488SOL    HW1 2363   1.071   4.522   2.333
  488SOL    HW2 2364   0.991   4.534   2.191
  489SOL     OW 2365   3.303   5.964   6.643
  489SOL    HW1 2366   3.206   5.941   6.636
  489SOL    HW2 2367   3.358   5.886   6.613
  490SOL     OW 2368   5.319   6.867   3.994
  490SOL    HW1 2369   5.311   6.771   4.021
  490SOL    HW2 2370   5.414   6.897   4.006
  491SOL     OW 2371   0.024   2.418   3.463
  491SOL    HW1 2372   7.027   2.497   3.405
  491SOL    HW2 2373   0.079   2.354   3.410
  492SOL     OW 2374   1.631   1.173   4.718
  492SOL    HW1 2375   1.578   1.238   4.664
  492SOL    HW2 2376   1.700   1.130   4.660
  493SOL     OW 2377   6.185   4.019   4.645
  493SOL    HW1 2378   6.236   3.941   4.679
  493SOL    HW2 2379   6.092   4.017   4.682
  494SOL     OW 2380   6.253   1.455   6.583
  494SOL    HW1 2381   6.317   1.505   6.524
  494SOL    HW2 2382   6.271   1.357   6.576
  495SOL     OW 2383   4.663   4.253   0.649
  495SOL    HW1 2384   4.743   4.313   0.650
  495SOL    HW2 2385   4.635   4.236   0.555
  496SOL     OW 2386   5.658   3.005   2.858
  496SOL    HW1 2387   5.611   2.969   2.777
  496SOL    HW2 2388   5.739   3.056   2.829
  497SOL     OW 2389   4.001   6.705   4.117
  497SOL    HW1 2390   4.073   6.706   4.048
  497SOL    HW2 2391   3.978   6.798   4.144
  498SOL     OW 2392   1.499   2.862   2.061
  498SOL    HW1 2393   1.576   2.830   2.115
  498SOL    HW2 2394   1.447   2.929   2.113
  499SOL     OW 2395   2.969   1.034   5.011
  499SOL    HW1 2396   3.045   1.083   5.055
  499SOL    HW2 2397   2.892   1.028   5.075
  500SOL     OW 2398   1.696   4.618   1.941
  500SOL    HW1 2399   1.729   4.579   1.855
  500SOL    HW2 2400   1.675   4.544   2.005
  501SOL     OW 2401   1.204   4.858   0.181
  501SOL    HW1 2402   1.163   4.948   0.168
  501SOL    HW2 2403   1.205   4.836   0.279
  502SOL     OW 2404   3.272   4.929   6.304
  502SOL    HW1 2405   3.250   4.866   6.229
  502SOL    HW2 2406   3.200   4.997   6.313
  503SOL     OW 2407   6.122   5.540   4.896
  503SOL    HW1 2408   6.216   5.520   4.924
  503SOL    HW2 2409   6.123   5.605   4.820
  504SOL     OW 2410   1.806   5.984   4.899
  504SOL    HW1 2411   1.822   6.023   4.808
  504SOL    HW2 2412   1.868   5.907   4.914
  505SOL     OW 2413   3.475   6.615   5.155
  505SOL    HW1 2414   3.444   6.637   5.248
  505SOL    HW2 2415   3.558   6.666   5.135
  506SOL     OW 2416   1.964   3.498   0.346
  506SOL    HW1 2417   1.969   3.398   0.352
  506SOL    HW2 2418   1.897   3.532   0.412
  507SOL     OW 2419   3.821   2.026   4.156
  507SOL    HW1 2420   3.799   1.931   4.180
  507SOL    HW2 2421   3.864   2.070   4.235
  508SOL     OW 2422   6.022   4.743   4.034
  508SOL    HW1 2423   5.930   4.707   4.021
  508SOL    HW2 2424   6.047   4.802   3.956
  509SOL     OW 2425   4.407   2.938   0.962
  509SOL    HW1 2426   4.399   2.999   0.883
  509SOL    HW2 2427   4.499   2.946   1.001
  510SOL     OW 2428   0.920   4.123   4.909
  510SOL    HW1 2429   0.978   4.136   4.990
  510SOL    HW2 2430   0.951   4.184   4.836
  511SOL     OW 2431   0.364   6.460   1.142
  511SOL    HW1 2432   0.322   6.441   1.231
  511SOL    HW2 2433   0.295   6.497   1.080
  512SOL     OW 2434   1.494   3.832   6.107
  512SOL    HW1 2435   1.458   3.742   6.083
  512SOL    HW2 2436   1.457   3.861   6.195
  513SOL     OW 2437   1.327   5.262   4.527
  513SOL    HW1 2438   1.410   5.258   4.471
  513SOL    HW2 2439   1.351   5.251   4.623
  514SOL     OW 2440   6.186   1.747   3.205
  514SOL    HW1 2441   6.160   1.714   3.115
  514SOL    HW2 2442   6.143   1.691   3.276
  515SOL     OW 2443   2.371   5.462   0.253
  515SOL    HW1 2444   2.347   5.386   0.314
  515SOL    HW2 2445   2.291   5.489   0.200
  516SOL     OW 2446   1.441   4.932   3.325
  516SOL    HW1 2447   1.509   4.958   3.393
  516SOL    HW2 2448   1.423   5.010   3.264
  517SOL     OW 2449   4.623   0.746   6.527
  517SOL    HW1 2450   4.715   0.785   6.529
  517SOL    HW2 2451   4.627   0.648   6.548
  518SOL     OW 2452   2.306   2.000   0.840
  518SOL    HW1 2453   2.368   1.974   0.914
  518SOL    HW2 2454   2.337   1.959   0.754
  519SOL     OW 2455   1.168   7.022   6.978
  519SOL    HW1 2456   1.082   6.972   6.966
  519SOL    HW2 2457   1.245   6.958   6.968
  520SOL     OW 2458   5.875   4.042   4.300
  520SOL    HW1 2459   5.888   4.012   4.205
  520SOL    HW2 2460   5.950   4.104   4.325
  521SOL     OW 2461   6.319   0.660   0.705
  521SOL    HW1 2462   6.257   0.624   0.635
  521SOL    HW2 2463   6.270   0.727   0.761
  522SOL     OW 2464   3.419   4.012   5.872
  522SOL    HW1 2465   3.425   3.957   5.788
  522SOL    HW2 2466   3.329   4.001   5.912
  523SOL     OW 2467   6.570   6.798   4.074
  523SOL    HW1 2468   6.619   6.819   3.989
  523SOL    HW2 2469   6.596   6.863   4.145
  524SOL     OW 2470   4.265   0.755   5.578
  524SOL    HW1 2471   4.177   0.798   5.561
  524SOL    HW2 2472   4.253   0.657   5.588
  525SOL     OW 2473   2.217   2.225   6.878
  525SOL    HW1 2474   2.284   2.295   6.854
  525SOL    HW2 2475   2.256   2.135   6.864
  526SOL     OW 2476   4.766   5.329   4.357
  526SOL    HW1 2477   4.760   5.248   4.298
  526SOL    HW2 2478   4.783   5.410   4.300
  527SOL     OW 2479   0.400   2.141   0.099
  527SOL    HW1 2480   0.445   2.052   0.103
  527SOL    HW2 2481   0.421   2.193   0.182
  528SOL     OW 2482   2.186   1.482   5.535
  528SOL    HW1 2483   2.207   1.434   5.449
  528SOL    HW2 2484   2.098   1.448   5.570
  529SOL     OW 2485   6.552   4.910   4.200
  529SOL    HW1 2486   6.520   4.815   4.194
  529SOL    HW2 2487   6.484   4.970   4.156
  530SOL     OW 2488   0.245   2.849   5.361
  530SOL    HW1 2489   0.263   2.763   5.408
  530SOL    HW2 2490   0.210   2.916   5.426
  531SOL     OW 2491   6.903   0.982   0.229
  531SOL    HW1 2492   6.861   0.933   0.153
  531SOL    HW2 2493   6.970   1.047   0.194
  532SOL     OW 2494   2.125   0.862   5.733
  532SOL    HW1 2495   2.176   0.793   5.682
  532SOL    HW2 2496   2.156   0.953   5.706
  533SOL     OW 2497   4.865   0.301   4.585
  533SOL    HW1 2498   4.946   0.279   4.530
  533SOL    HW2 2499   4.849   0.399   4.585
  534SOL     OW 2500   3.048   5.152   3.031
  534SOL    HW1 2501   3.080   5.084   3.096
  534SOL    HW2 2502   2.973   5.115   2.977
  535SOL     OW 2503   6.324   4.251   2.525
  535SOL    HW1 2504   6.297   4.307   2.604
  535SOL    HW2 2505   6.242   4.211   2.483
  536SOL     OW 2506   0.902   6.609   0.763
  536SOL    HW1 2507   0.936   6.679   0.826
  536SOL    HW2 2508   0.823   6.644   0.713
  537SOL     OW 2509   2.302   0.009   3.492
  537SOL    HW1 2510   2.254   0.089   3.528
  537SOL    HW2 2511   2.308   6.967   3.563
  538SOL     OW 2512   1.772   4.591   3.935
  538SOL    HW1 2513   1.769   4.686   3.965
  538SOL    HW2 2514   1.689   4.544   3.965
  539SOL     OW 2515   1.057   6.111   0.756
  539SOL    HW1 2516   1.137   6.141   0.703
  539SOL    HW2 2517   0.980   6.098   0.694
  540SOL     OW 2518   1.620   2.789   0.782
  540SOL    HW1 2519   1.538   2.845   0.772
  540SOL    HW2 2520   1.702   2.847   0.781
  541SOL     OW 2521   3.950   5.144   5.187
  541SOL    HW1 2522   3.945   5.228   5.240
  541SOL    HW2 2523   4.039   5.101   5.200
  542SOL     OW 2524   5.758   6.343   6.498
  542SOL    HW1 2525   5.792   6.294   6.418
  542SOL    HW2 2526   5.787   6.439   6.493
  543SOL     OW 2527   6.160   6.626   1.165
  543SOL    HW1 2528   6.174   6.713   1.117
  543SOL    HW2 2529   6.076   6.583   1.131
  544SOL     OW 2530   0.605   5.653   0.124
  544SOL    HW1 2531   0.662   5.724   0.083
  544SOL    HW2 2532   0.627   5.644   0.221
  545SOL     OW 2533   3.927   1.518   4.091
  545SOL    HW1 2534   3.984   1.510   4.008
  545SOL    HW2 2535   3.952   1.602   4.140
  546SOL     OW 2536   1.560   2.370   0.307
  546SOL    HW1 2537   1.612   2.299   0.355
  546SOL    HW2 2538   1.464   2.344   0.305
  547SOL     OW 2539   2.917   1.605   0.289
  547SOL    HW1 2540   2.972   1.660   0.352
  547SOL    HW2 2541   2.821   1.610   0.315
  548SOL     OW 2542   3.045   3.181   5.188
  548SOL    HW1 2543   3.031   3.140   5.098
  548SOL    HW2 2544   2.957   3.189   5.236
  549SOL     OW 2545   0.211   3.907   1.215
  549SOL    HW1 2546   0.133   3.855   1.182
  549SOL    HW2 2547   0.189   4.005   1.214
  550SOL     OW 2548   6.649   3.817   0.498
  550SOL    HW1 2549   6.722   3.885   0.486
  550SOL    HW2 2550   6.650   3.784   0.592
  551SOL     OW 2551   0.416   1.390   0.389
  551SOL    HW1 2552   0.497   1.435   0.351
  551SOL    HW2 2553   0.390   1.313   0.332
  552SOL     OW 2554   4.598   4.638   0.687
  552SOL    HW1 2555   4.524   4.572   0.670
  552SOL    HW2 2556   4.606   4.655   0.785
  553SOL     OW 2557   1.182   2.375   1.502
  553SOL    HW1 2558   1.210   2.298   1.560
  553SOL    HW2 2559   1.264   2.423   1.469
  554SOL     OW 2560   4.495   4.995   4.947
  554SOL    HW1 2561   4.570   4.930   4.933
  554SOL    HW2 2562   4.407   4.948   4.935
  555SOL     OW 2563   1.571   4.563   5.146
  555SOL    HW1 2564   1.507   4.544   5.221
  555SOL    HW2 2565   1.547   4.507   5.067
  556SOL     OW 2566   6.143   3.671   2.693
  556SOL    HW1 2567   6.094   3.680   2.607
  556SOL    HW2 2568   6.181   3.579   2.702
  557SOL     OW 2569   6.792   5.577   6.075
  557SOL    HW1 2570   6.823   5.518   6.000
  557SOL    HW2 2571   6.760   5.521   6.151
  558SOL     OW 2572   4.441   3.351   5.651
  558SOL    HW1 2573   4.461   3.334   5.554
  558SOL    HW2 2574   4.507   3.301   5.707
  559SOL     OW 2575   5.972   5.297   5.962
  559SOL    HW1 2576   6.003   5.311   6.056
  559SOL    HW2 2577   6.003   5.207   5.930
  560SOL     OW 2578   4.147   6.710   0.013
  560SOL    HW1 2579   4.212   6.786   0.015
  560SOL    HW2 2580   4.103   6.702   0.102
  561SOL     OW 2581   5.578   6.716   2.190
  561SOL    HW1 2582   5.510   6.764   2.245
  561SOL    HW2 2583   5.632   6.656   2.250
  562SOL     OW 2584   6.466   0.979   0.376
  562SOL    HW1 2585   6.523   1.053   0.410
  562SOL    HW2 2586   6.384   0.972   0.433
  563SOL     OW 2587   2.926   0.620   4.982
  563SOL    HW1 2588   3.018   0.591   4.955
  563SOL    HW2 2589   2.868   0.627   4.900
  564SOL     OW 2590   0.667   1.558   5.730
  564SOL    HW1 2591   0.664   1.483   5.796
  564SOL    HW2 2592   0.665   1.520   5.637
  565SOL     OW 2593   4.180   3.856   6.107
  565SOL    HW1 2594   4.127   3.875   6.025
  565SOL    HW2 2595   4.127   3.797   6.169
  566SOL     OW 2596   6.696   4.992   2.167
  566SOL    HW1 2597   6.675   4.930   2.091
  566SOL    HW2 2598   6.794   4.988   2.187
  567SOL     OW 2599   3.543   4.005   5.331
  567SOL    HW1 2600   3.516   3.914   5.300
  567SOL    HW2 2601   3.479   4.036   5.402
  568SOL     OW 2602   1.727   1.079   6.373
  568SOL    HW1 2603   1.749   1.034   6.287
  568SOL    HW2 2604   1.628   1.081   6.385
  569SOL     OW 2605   2.057   4.088   6.920
  569SOL    HW1 2606   1.972   4.125   6.956
  569SOL    HW2 2607   2.073   3.997   6.958
  570SOL     OW 2608   0.212   6.597   0.484
  570SOL    HW1 2609   0.248   6.678   0.529
  570SOL    HW2 2610   0.123   6.618   0.444
  571SOL     OW 2611   3.814   6.245   2.153
  571SOL    HW1 2612   3.782   6.213   2.242
  571SOL    HW2 2613   3.762   6.200   2.081
  572SOL     OW 2614   1.713   4.408   4.335
  572SOL    HW1 2615   1.635   4.462   4.367
  572SOL    HW2 2616   1.798   4.456   4.357
  573SOL     OW 2617   2.884   2.341   0.122
  573SOL    HW1 2618   2.961   2.332   0.185
  573SOL    HW2 2619   2.855   2.437   0.119
  574SOL     OW 2620   2.793   1.934   3.918
  574SOL    HW1 2621   2.819   2.015   3.866
  574SOL    HW2 2622   2.876   1.887   3.950
  575SOL     OW 2623   5.455   2.465   6.353
  575SOL    HW1 2624   5.542   2.453   6.400
  575SOL    HW2 2625   5.390   2.512   6.414
  576SOL     OW 2626   1.257   2.834   2.603
  576SOL    HW1 2627   1.337   2.875   2.558
  576SOL    HW2 2628   1.234   2.886   2.685
  577SOL     OW 2629   3.894   1.864   4.467
  577SOL    HW1 2630   3.825   1.791   4.473
  577SOL    HW2 2631   3.897   1.913   4.554
  578SOL     OW 2632   0.207   3.774   4.135
  578SOL    HW1 2633   0.175   3.759   4.228
  578SOL    HW2 2634   0.275   3.848   4.134
  579SOL     OW 2635   3.668   3.726   0.193
  579SOL    HW1 2636   3.734   3.662   0.154
  579SOL    HW2 2637   3.656   3.706   0.290
  580SOL     OW 2638   0.401   6.983   0.247
  580SOL    HW1 2639   0.305   6.980   0.219
  580SOL    HW2 2640   0.431   6.891   0.273
  581SOL     OW 2641   4.114   3.517   2.494
  581SOL    HW1 2642   4.136   3.419   2.493
  581SOL    HW2 2643   4.015   3.528   2.486
  582SOL     OW 2644   6.451   4.382   0.620
  582SOL    HW1 2645   6.404   4.367   0.707
  582SOL    HW2 2646   6.429   4.308   0.557
  583SOL     OW 2647   2.311   6.667   6.567
  583SOL    HW1 2648   2.390   6.639   6.512
  583SOL    HW2 2649   2.338   6.672   6.663
  584SOL     OW 2650   1.175   4.873   5.058
  584SOL    HW1 2651   1.261   4.884   5.107
  584SOL    HW2 2652   1.099   4.901   5.117
  585SOL     OW 2653   5.637   0.671   5.637
  585SOL    HW1 2654   5.640   0.763   5.600
  585SOL    HW2 2655   5.542   0.638   5.637
  586SOL     OW 2656   2.906   6.267   1.425
  586SOL    HW1 2657   2.938   6.195   1.487
  586SOL    HW2 2658   2.938   6.247   1.332
  587SOL     OW 2659   1.722   3.167   6.313
  587SOL    HW1 2660   1.641   3.118   6.280
  587SOL    HW2 2661   1.712   3.264   6.293
  588SOL     OW 2662   2.024   6.972   1.637
  588SOL    HW1 2663   2.036   6.984   1.538
  588SOL    HW2 2664   2.099   6.917   1.673
  589SOL     OW 2665   4.508   5.029   1.816
  589SOL    HW1 2666   4.417   5.020   1.776
  589SOL    HW2 2667   4.518   4.965   1.892
  590SOL     OW 2668   6.513   3.655   1.693
  590SOL    HW1 2669   6.522   3.750   1.720
  590SOL    HW2 2670   6.416   3.632   1.683
  591SOL     OW 2671   2.826   0.183   2.838
  591SOL    HW1 2672   2.762   0.107   2.827
  591SOL    HW2 2673   2.879   0.196   2.754
  592SOL     OW 2674   5.221   0.253   5.642
  592SOL    HW1 2675   5.206   0.262   5.741
  592SOL    HW2 2676   5.157   0.312   5.593
  593SOL     OW 2677   0.079   1.082   4.779
  593SOL    HW1 2678   0.120   1.168   4.808
  593SOL    HW2 2679   0.034   1.094   4.690
  594SOL     OW 2680   5.686   1.994   1.319
  594SOL    HW1 2681   5.672   2.028   1.226
  594SOL    HW2 2682   5.598   1.980   1.363
  595SOL     OW 2683   3.993   6.818   3.339
  595SOL    HW1 2684   4.000   6.726   3.378
  595SOL    HW2 2685   4.047   6.882   3.394
  596SOL     OW 2686   0.773   4.378   1.150
  596SOL    HW1 2687   0.720   4.463   1.151
  596SOL    HW2 2688   0.852   4.388   1.090
  597SOL     OW 2689   4.251   2.230   5.991
  597SOL    HW1 2690   4.238   2.243   6.090
  597SOL    HW2 2691   4.181   2.168   5.957
  598SOL     OW 2692   3.072   3.923   1.321
  598SOL    HW1 2693   3.025   3.957   1.239
  598SOL    HW2 2694   3.150   3.867   1.294
  599SOL     OW 2695   6.291   5.772   3.766
  599SOL    HW1 2696   6.304   5.834   3.843
  599SOL    HW2 2697   6.245   5.688   3.799
  600SOL     OW 2698   2.701   1.116   1.447
  600SOL    HW1 2699   2.694   1.161   1.358
  600SOL    HW2 2700   2.657   1.173   1.517
  601SOL     OW 2701   1.873   4.900   3.226
  601SOL    HW1 2702   1.837   4.865   3.312
  601SOL    HW2 2703   1.844   4.842   3.151
  602SOL     OW 2704   0.042   0.074   2.282
  602SOL    HW1 2705   0.128   0.101   2.239
  602SOL    HW2 2706   7.019   0.014   2.220
  603SOL     OW 2707   4.360   1.647   3.168
  603SOL    HW1 2708   4.269   1.679   3.192
  603SOL    HW2 2709   4.356   1.594   3.083
  604SOL     OW 2710   1.283   3.659   5.587
  604SOL    HW1 2711   1.299   3.580   5.528
  604SOL    HW2 2712   1.267   3.740   5.530
  605SOL     OW 2713   5.466   0.218   4.126
  605SOL    HW1 2714   5.370   0.191   4.117
  605SOL    HW2 2715   5.494   0.213   4.222
  606SOL     OW 2716   3.006   6.479   1.997
  606SOL    HW1 2717   2.971   6.559   2.047
  606SOL    HW2 2718   3.089   6.446   2.042
  607SOL     OW 2719   3.638   0.624   4.322
  607SOL    HW1 2720   3.674   0.718   4.316
  607SOL    HW2 2721   3.706   0.565   4.366
  608SOL     OW 2722   5.333   3.377   1.556
  608SOL    HW1 2723   5.356   3.319   1.477
  608SOL    HW2 2724   5.321   3.472   1.526
  609SOL     OW 2725   3.374   3.971   4.765
  609SOL    HW1 2726   3.442   4.013   4.705
  609SOL    HW2 2727   3.403   3.983   4.860
  610SOL     OW 2728   6.158   1.928   4.547
  610SOL    HW1 2729   6.177   1.850   4.607
  610SOL    HW2 2730   6.116   1.895   4.462
  611SOL     OW 2731   5.475   6.989   0.306
  611SOL    HW1 2732   5.491   6.891   0.291
  611SOL    HW2 2733   5.484   0.009   0.219
  612SOL     OW 2734   1.895   4.874   6.576
  612SOL    HW1 2735   1.940   4.842   6.493
  612SOL    HW2 2736   1.847   4.798   6.620
  613SOL     OW 2737   3.950   1.195   6.600
  613SOL    HW1 2738   3.969   1.293   6.597
  613SOL    HW2 2739   3.855   1.180   6.627
  614SOL     OW 2740   4.860   3.241   0.893
  614SOL    HW1 2741   4.890   3.220   0.986
  614SOL    HW2 2742   4.806   3.325   0.894
  615SOL     OW 2743   5.680   6.282   0.420
  615SOL    HW1 2744   5.612   6.354   0.407
  615SOL    HW2 2745   5.702   6.242   0.331
  616SOL     OW 2746   4.671   1.214   4.272
  616SOL    HW1 2747   4.574   1.191   4.265
  616SOL    HW2 2748   4.715   1.154   4.338
  617SOL     OW 2749   6.662   6.407   4.776
  617SOL    HW1 2750   6.571   6.447   4.789
  617SOL    HW2 2751   6.724   6.476   4.740
  618SOL     OW 2752   5.745   5.398   0.411
  618SOL    HW1 2753   5.693   5.410   0.326
  618SOL    HW2 2754   5.697   5.444   0.486
  619SOL     OW 2755   2.092   6.869   6.701
  619SOL    HW1 2756   2.107   6.771   6.709
  619SOL    HW2 2757   2.034   6.900   6.776
  620SOL     OW 2758   4.816   2.377   2.043
  620SOL    HW1 2759   4.776   2.291   2.075
  620SOL    HW2 2760   4.745   2.447   2.039
  621SOL     OW 2761   2.999   0.534   6.251
  621SOL    HW1 2762   3.027   0.630   6.246
  621SOL    HW2 2763   2.913   0.526   6.301
  622SOL     OW 2764   0.550   3.620   5.949
  622SOL    HW1 2765   0.471   3.642   6.006
  622SOL    HW2 2766   0.525   3.548   5.884
  623SOL     OW 2767   6.604   1.226   2.795
  623SOL    HW1 2768   6.677   1.177   2.842
  623SOL    HW2 2769   6.606   1.322   2.820
  624SOL     OW 2770   6.614   1.195   6.453
  624SOL    HW1 2771   6.514   1.192   6.459
  624SOL    HW2 2772   6.650   1.250   6.529
  625SOL     OW 2773   3.199   1.263   1.365
  625SOL    HW1 2774   3.119   1.245   1.423
  625SOL    HW2 2775   3.264   1.320   1.415
  626SOL     OW 2776   0.609   6.126   3.584
  626SOL    HW1 2777   0.573   6.078   3.504
  626SOL    HW2 2778   0.702   6.096   3.603
  627SOL     OW 2779   6.598   5.341   6.527
  627SOL    HW1 2780   6.677   5.333   6.466
  627SOL    HW2 2781   6.625   5.385   6.612
  628SOL     OW 2782   3.916   4.460   6.367
  628SOL    HW1 2783   3.909   4.372   6.413
  628SOL    HW2 2784   3.840   4.519   6.395
  629SOL     OW 2785   1.538   0.009   6.991
  629SOL    HW1 2786   1.555   0.047   0.053
  629SOL    HW2 2787   1.463   6.970   6.996
  630SOL     OW 2788   6.468   2.071   1.031
  630SOL    HW1 2789   6.397   2.092   0.963
  630SOL    HW2 2790   6.558   2.085   0.989
  631SOL     OW 2791   1.775   3.687   3.096
  631SOL    HW1 2792   1.685   3.672   3.056
  631SOL    HW2 2793   1.769   3.681   3.196
  632SOL     OW 2794   3.250   4.341   1.345
  632SOL    HW1 2795   3.189   4.294   1.282
  632SOL    HW2 2796   3.246   4.440   1.327
  633SOL     OW 2797   0.652   5.835   0.484
  633SOL    HW1 2798   0.584   5.831   0.557
  633SOL    HW2 2799   0.719   5.761   0.496
  634SOL     OW 2800   3.449   3.302   5.762
  634SOL    HW1 2801   3.443   3.235   5.689
  634SOL    HW2 2802   3.543   3.304   5.797
  635SOL     OW 2803   6.127   6.559   6.444
  635SOL    HW1 2804   6.148   6.639   6.389
  635SOL    HW2 2805   6.159   6.477   6.396
  636SOL     OW 2806   2.082   1.362   4.327
  636SOL    HW1 2807   2.145   1.336   4.254
  636SOL    HW2 2808   2.127   1.350   4.415
  637SOL     OW 2809   6.891   1.823   2.299
  637SOL    HW1 2810   6.914   1.921   2.305
  637SOL    HW2 2811   6.814   1.804   2.360
  638SOL     OW 2812   6.916   3.251   5.083
  638SOL    HW1 2813   6.974   3.303   5.146
  638SOL    HW2 2814   6.971   3.181   5.037
  639SOL     OW 2815   6.078   3.198   2.201
  639SOL    HW1 2816   5.987   3.232   2.222
  639SOL    HW2 2817   6.096   3.115   2.253
  640SOL     OW 2818   6.652   3.534   2.914
  640SOL    HW1 2819   6.603   3.476   2.980
  640SOL    HW2 2820   6.660   3.487   2.827
  641SOL     OW 2821   2.191   5.818   4.362
  641SOL    HW1 2822   2.103   5.771   4.359
  641SOL    HW2 2823   2.245   5.794   4.282
  642SOL     OW 2824   0.665   5.439   5.005
  642SOL    HW1 2825   0.757   5.438   5.044
  642SOL    HW2 2826   0.671   5.434   4.905
  643SOL     OW 2827   4.269   5.158   0.435
  643SOL    HW1 2828   4.323   5.108   0.503
  643SOL    HW2 2829   4.287   5.121   0.344
  644SOL     OW 2830   5.891   0.520   4.593
  644SOL    HW1 2831   5.920   0.491   4.684
  644SOL    HW2 2832   5.969   0.560   4.545
  645SOL     OW 2833   4.254   6.501   1.787
  645SOL    HW1 2834   4.204   6.545   1.862
  645SOL    HW2 2835   4.241   6.402   1.791
  646SOL     OW 2836   3.522   1.745   5.218
  646SOL    HW1 2837   3.452   1.783   5.157
  646SOL    HW2 2838   3.521   1.645   5.212
  647SOL     OW 2839   2.676   1.530   0.541
  647SOL    HW1 2840   2.635   1.587   0.469
  647SOL    HW2 2841   2.677   1.580   0.627
  648SOL     OW 2842   5.627   1.536   4.109
  648SOL    HW1 2843   5.580   1.595   4.043
  648SOL    HW2 2844   5.567   1.460   4.134
  649SOL     OW 2845   3.236   5.662   0.614
  649SOL    HW1 2846   3.272   5.755   0.622
  649SOL    HW2 2847   3.278   5.618   0.534
  650SOL     OW 2848   2.332   3.136   1.303
  650SOL    HW1 2849   2.391   3.119   1.224
  650SOL    HW2 2850   2.371   3.211   1.357
  651SOL     OW 2851   0.355   1.669   3.286
  651SOL    HW1 2852   0.392   1.646   3.195
  651SOL    HW2 2853   0.274   1.613   3.304
  652SOL     OW 2854   3.873   5.844   0.827
  652SOL    HW1 2855   3.960   5.801   0.802
  652SOL    HW2 2856   3.890   5.920   0.890
  653SOL     OW 2857   1.561   0.065   2.724
  653SOL    HW1 2858   1.650   0.071   2.680
  653SOL    HW2 2859   1.505   0.143   2.697
  654SOL     OW 2860   1.176   6.819   6.053
  654SOL    HW1 2861   1.170   6.819   6.153
  654SOL    HW2 2862   1.113   6.888   6.016
  655SOL     OW 2863   1.219   3.936   0.813
  655SOL    HW1 2864   1.157   3.982   0.750
  655SOL    HW2 2865   1.176   3.853   0.848
  656SOL     OW 2866   2.149   0.389   6.941
  656SOL    HW1 2867   2.120   0.294   6.951
  656SOL    HW2 2868   2.226   0.395   6.878
  657SOL     OW 2869   3.802   3.613   4.041
  657SOL    HW1 2870   3.758   3.648   4.124
  657SOL    HW2 2871   3.785   3.515   4.033
  658SOL     OW 2872   2.097   0.694   4.057
  658SOL    HW1 2873   2.090   0.794   4.060
  658SOL    HW2 2874   2.008   0.654   4.036
  659SOL     OW 2875   1.887   5.983   6.784
  659SOL    HW1 2876   1.912   5.887   6.797
  659SOL    HW2 2877   1.958   6.030   6.733
  660SOL     OW 2878   5.455   3.834   2.443
  660SOL    HW1 2879   5.493   3.746   2.414
  660SOL    HW2 2880   5.420   3.826   2.536
  661SOL     OW 2881   4.807   5.391   3.912
  661SOL    HW1 2882   4.866   5.414   3.834
  661SOL    HW2 2883   4.790   5.292   3.912
  662SOL     OW 2884   6.246   3.708   0.039
  662SOL    HW1 2885   6.281   3.614   0.035
  662SOL    HW2 2886   6.210   3.727   0.131
  663SOL     OW 2887   0.892   4.529   6.238
  663SOL    HW1 2888   0.945   4.459   6.191
  663SOL    HW2 2889   0.797   4.500   6.245
  664SOL     OW 2890   1.935   0.360   5.909
  664SOL    HW1 2891   1.921   0.323   5.817
  664SOL    HW2 2892   1.855   0.414   5.935
  665SOL     OW 2893   2.542   4.543   3.316
  665SOL    HW1 2894   2.577   4.581   3.402
  665SOL    HW2 2895   2.581   4.593   3.239
  666SOL     OW 2896   3.191   0.530   6.907
  666SOL    HW1 2897   3.111   0.473   6.927
  666SOL    HW2 2898   3.243   0.488   6.832
  667SOL     OW 2899   1.386   3.032   2.251
  667SOL    HW1 2900   1.393   2.972   2.330
  667SOL    HW2 2901   1.313   3.099   2.265
  668SOL     OW 2902   5.220   0.117   0.329
  668SOL    HW1 2903   5.291   0.187   0.323
  668SOL    HW2 2904   5.231   0.064   0.413
  669SOL     OW 2905   0.324   5.543   2.804
  669SOL    HW1 2906   0.255   5.470   2.813
  669SOL    HW2 2907   0.293   5.624   2.854
  670SOL     OW 2908   3.854   4.040   2.627
  670SOL    HW1 2909   3.832   4.077   2.717
  670SOL    HW2 2910   3.923   3.968   2.637
  671SOL     OW 2911   1.873   0.157   6.472
  671SOL    HW1 2912   1.822   0.177   6.388
  671SOL    HW2 2913   1.940   0.085   6.454
  672SOL     OW 2914   1.078   2.680   3.218
  672SOL    HW1 2915   1.098   2.590   3.256
  672SOL    HW2 2916   1.057   2.744   3.293
  673SOL     OW 2917   5.232   0.233   6.611
  673SOL    HW1 2918   5.253   0.255   6.516
  673SOL    HW2 2919   5.274   0.301   6.671
  674SOL     OW 2920   0.167   2.430   4.443
  674SOL    HW1 2921   0.227   2.506   4.465
  674SOL    HW2 2922   0.179   2.357   4.511
  675SOL     OW 2923   5.542   6.306   3.620
  675SOL    HW1 2924   5.528   6.224   3.565
  675SOL    HW2 2925   5.594   6.282   3.702
  676SOL     OW 2926   2.774   5.044   4.419
  676SOL    HW1 2927   2.689   5.044   4.473
  676SOL    HW2 2928   2.852   5.058   4.480
  677SOL     OW 2929   4.403   6.475   0.326
  677SOL    HW1 2930   4.459   6.411   0.274
  677SOL    HW2 2931   4.328   6.425   0.371
  678SOL     OW 2932   2.104   1.244   6.097
  678SOL    HW1 2933   2.069   1.222   6.188
  678SOL    HW2 2934   2.157   1.166   6.063
  679SOL     OW 2935   6.374   0.453   2.255
  679SOL    HW1 2936   6.443   0.421   2.191
  679SOL    HW2 2937   6.291   0.480   2.206
  680SOL     OW 2938   5.948   3.990   4.771
  680SOL    HW1 2939   5.969   3.939   4.854
  680SOL    HW2 2940   5.850   4.002   4.762
  681SOL     OW 2941   1.244   6.175   2.384
  681SOL    HW1 2942   1.338   6.184   2.416
  681SOL    HW2 2943   1.187   6.246   2.426
  682SOL     OW 2944   0.344   0.626   5.956
  682SOL    HW1 2945   0.302   0.574   5.881
  682SOL    HW2 2946   0.278   0.637   6.030
  683SOL     OW 2947   5.265   1.580   1.606
  683SOL    HW1 2948   5.285   1.676   1.623
  683SOL    HW2 2949   5.337   1.523   1.646
  684SOL     OW 2950   0.111   5.713   6.648
  684SOL    HW1 2951   0.084   5.725   6.553
  684SOL    HW2 2952   0.052   5.769   6.707
  685SOL     OW 2953   6.382   0.670   6.073
  685SOL    HW1 2954   6.465   0.617   6.092
  685SOL    HW2 2955   6.361   0.665   5.976
  686SOL     OW 2956   5.731   5.105   1.934
  686SOL    HW1 2957   5.827   5.091   1.909
  686SOL    HW2 2958   5.689   5.168   1.868
  687SOL     OW 2959   5.882   2.127   6.356
  687SOL    HW1 2960   5.802   2.066   6.356
  687SOL    HW2 2961   5.940   2.105   6.278
  688SOL     OW 2962   6.244   3.277   5.308
  688SOL    HW1 2963   6.269   3.298   5.403
  688SOL    HW2 2964   6.146   3.293   5.295
  689SOL     OW 2965   5.081   4.436   4.366
  689SOL    HW1 2966   5.178   4.410   4.374
  689SOL    HW2 2967   5.061   4.510   4.429
  690SOL     OW 2968   0.158   3.136   4.712
  690SOL    HW1 2969   0.244   3.166   4.672
  690SOL    HW2 2970   0.167   3.043   4.746
  691SOL     OW 2971   0.236   2.933   6.860
  691SOL    HW1 2972   0.243   2.839   6.894
  691SOL    HW2 2973   0.277   2.939   6.769
  692SOL     OW 2974   2.903   0.223   3.394
  692SOL    HW1 2975   2.898   0.246   3.297
  692SOL    HW2 2976   2.997   0.205   3.420
  693SOL     OW 2977   6.511   1.539   3.551
  693SOL    HW1 2978   6.602   1.562   3.517
  693SOL    HW2 2979   6.442   1.585   3.496
  694SOL     OW 2980   1.495   0.357   2.434
  694SOL    HW1 2981   1.431   0.340   2.508
  694SOL    HW2 2982   1.501   0.275   2.376
  695SOL     OW 2983   4.466   5.317   6.669
  695SOL    HW1 2984   4.544   5.367   6.632
  695SOL    HW2 2985   4.396   5.381   6.700
  696SOL     OW 2986   5.618   5.956   2.504
  696SOL    HW1 2987   5.570   5.884   2.455
  696SOL    HW2 2988   5.552   6.018   2.546
  697SOL     OW 2989   1.108   3.774   3.688
  697SOL    HW1 2990   1.129   3.738   3.597
  697SOL    HW2 2991   1.009   3.771   3.703
  698SOL     OW 2992   4.800   5.866   3.736
  698SOL    HW1 2993   4.794   5.775   3.695
  698SOL    HW2 2994   4.831   5.859   3.830
  699SOL     OW 2995   0.922   4.682   6.470
  699SOL    HW1 2996   0.907   4.675   6.372
  699SOL    HW2 2997   0.983   4.759   6.488
  700SOL     OW 2998   1.783   1.708   5.001
  700SOL    HW1 2999   1.852   1.779   4.988
  700SOL    HW2 3000   1.820   1.638   5.064
  701SOL     OW 3001   1.162   4.648   4.892
  701SOL    HW1 3002   1.174   4.738   4.932
  701SOL    HW2 3003   1.091   4.651   4.821
  702SOL     OW 3004   5.959   6.217   5.145
  702SOL    HW1 3005   5.935   6.218   5.048
  702SOL    HW2 3006   5.956   6.123   5.179
  703SOL     OW 3007   5.396   4.277   6.153
  703SOL    HW1 3008   5.420   4.322   6.067
  703SOL    HW2 3009   5.451   4.194   6.163
  704SOL     OW 3010   2.260   6.834   1.735
  704SOL    HW1 3011   2.334   6.849   1.669
  704SOL    HW2 3012   2.245   6.736   1.746
  705SOL     OW 3013   0.942   1.955   3.858
  705SOL    HW1 3014   0.908   1.877   3.806
  705SOL    HW2 3015   1.036   1.976   3.829
  706SOL     OW 3016   5.286   3.730   4.134
  706SOL    HW1 3017   5.355   3.719   4.062
  706SOL    HW2 3018   5.319   3.687   4.218
  707SOL     OW 3019   4.961   2.533   2.910
  707SOL    HW1 3020   4.970   2.475   2.991
  707SOL    HW2 3021   4.888   2.497   2.852
  708SOL     OW 3022   4.665   1.456   2.286
  708SOL    HW1 3023   4.675   1.514   2.205
  708SOL    HW2 3024   4.591   1.391   2.272
  709SOL     OW 3025   1.206   5.127   6.907
  709SOL    HW1 3026   1.283   5.191   6.906
  709SOL    HW2 3027   1.147   5.148   6.985
  710SOL     OW 3028   3.182   3.942   3.090
  710SOL    HW1 3029   3.220   3.989   3.011
  710SOL    HW2 3030   3.256   3.907   3.148
  711SOL     OW 3031   0.246   0.865   4.812
  711SOL    HW1 3032   0.176   0.936   4.803
  711SOL    HW2 3033   0.210   0.789   4.867
  712SOL     OW 3034   0.313   4.125   3.341
  712SOL    HW1 3035   0.220   4.107   3.373
  712SOL    HW2 3036   0.335   4.064   3.264
  713SOL     OW 3037   3.149   3.543   4.954
  713SOL    HW1 3038   3.121   3.615   4.891
  713SOL    HW2 3039   3.180   3.584   5.040
  714SOL     OW 3040   4.538   4.843   5.224
  714SOL    HW1 3041   4.468   4.878   5.162
  714SOL    HW2 3042   4.506   4.852   5.319
  715SOL     OW 3043   6.172   0.037   6.475
  715SOL    HW1 3044   6.129   0.088   6.400
  715SOL    HW2 3045   6.189   6.971   6.445
  716SOL     OW 3046   6.043   5.555   0.514
  716SOL    HW1 3047   5.984   5.612   0.572
  716SOL    HW2 3048   5.999   5.542   0.425
  717SOL     OW 3049   6.226   3.170   6.097
  717SOL    HW1 3050   6.209   3.155   6.194
  717SOL    HW2 3051   6.281   3.252   6.085
  718SOL     OW 3052   3.241   2.700   0.157
  718SOL    HW1 3053   3.323   2.657   0.119
  718SOL    HW2 3054   3.162   2.675   0.101
  719SOL     OW 3055   5.623   4.762   7.011
  719SOL    HW1 3056   5.563   4.833   0.021
  719SOL    HW2 3057   5.695   4.805   6.958
  720SOL     OW 3058   4.042   1.105   5.738
  720SOL    HW1 3059   4.043   1.112   5.838
  720SOL    HW2 3060   4.039   1.009   5.711
  721SOL     OW 3061   1.233   6.813   5.558
  721SOL    HW1 3062   1.167   6.788   5.630
  721SOL    HW2 3063   1.277   6.900   5.583
  722SOL     OW 3064   4.934   0.069   4.992
  722SOL    HW1 3065   4.863   0.123   4.947
  722SOL    HW2 3066   4.962   7.022   4.932
  723SOL     OW 3067   1.267   3.250   1.905
  723SOL    HW1 3068   1.209   3.328   1.881
  723SOL    HW2 3069   1.294   3.258   2.001
  724SOL     OW 3070   0.176   1.601   4.939
  724SOL    HW1 3071   0.189   1.692   4.899
  724SOL    HW2 3072   0.105   1.605   5.009
  725SOL     OW 3073   2.508   5.254   2.516
  725SOL    HW1 3074   2.495   5.289   2.609
  725SOL    HW2 3075   2.524   5.156   2.519
  726SOL     OW 3076   5.257   5.930   5.446
  726SOL    HW1 3077   5.214   5.910   5.358
  726SOL    HW2 3078   5.245   5.852   5.507
  727SOL     OW 3079   2.209   4.792   4.457
  727SOL    HW1 3080   2.144   4.801   4.381
  727SOL    HW2 3081   2.173   4.839   4.538
  728SOL     OW 3082   6.570   2.881   5.667
  728SOL    HW1 3083   6.520   2.948   5.722
  728SOL    HW2 3084   6.566   2.907   5.571
  729SOL     OW 3085   4.596   1.504   0.805
  729SOL    HW1 3086   4.675   1.536   0.858
  729SOL    HW2 3087   4.596   1.550   0.715
  730SOL     OW 3088   5.916   1.302   4.714
  730SOL    HW1 3089   6.004   1.277   4.754
  730SOL    HW2 3090   5.931   1.367   4.639
  731SOL     OW 3091   6.964   2.235   4.135
  731SOL    HW1 3092   6.914   2.317   4.109
  731SOL    HW2 3093   0.027   2.261   4.170
  732SOL     OW 3094   0.642   3.350   3.380
  732SOL    HW1 3095   0.703   3.335   3.303
  732SOL    HW2 3096   0.693   3.390   3.457
  733SOL     OW 3097   4.515   4.971   4.131
  733SOL    HW1 3098   4.443   5.014   4.076
  733SOL    HW2 3099   4.595   5.030   4.134
  734SOL     OW 3100   1.042   5.833   6.981
  734SOL    HW1 3101   0.946   5.811   6.999
  734SOL    HW2 3102   1.085   5.865   0.038
  735SOL     OW 3103   2.865   4.815   6.791
  735SOL    HW1 3104   2.879   4.783   6.698
  735SOL    HW2 3105   2.878   4.915   6.794
  736SOL     OW 3106   5.579   0.993   2.629
  736SOL    HW1 3107   5.653   1.036   2.578
  736SOL    HW2 3108   5.597   1.003   2.727
  737SOL     OW 3109   5.307   4.085   0.027
  737SOL    HW1 3110   5.392   4.136   0.014
  737SOL    HW2 3111   5.247   4.099   6.976
  738SOL     OW 3112   0.900   4.032   3.428
  738SOL    HW1 3113   0.999   4.030   3.418
  738SOL    HW2 3114   0.860   4.081   3.351
  739SOL     OW 3115   4.565   6.485   6.104
  739SOL    HW1 3116   4.501   6.409   6.090
  739SOL    HW2 3117   4.645   6.471   6.046
  740SOL     OW 3118   5.249   0.005   0.088
  740SOL    HW1 3119   5.242   0.029   0.185
  740SOL    HW2 3120   5.329   6.975   0.073
  741SOL     OW 3121   2.508   0.267   3.793
  741SOL    HW1 3122   2.532   0.348   3.738
  741SOL    HW2 3123   2.545   0.278   3.885
  742SOL     OW 3124   1.644   6.420   2.704
  742SOL    HW1 3125   1.698   6.475   2.768
  742SOL    HW2 3126   1.586   6.481   2.649
  743SOL     OW 3127   1.458   3.477   3.703
  743SOL    HW1 3128   1.379   3.515   3.750
  743SOL    HW2 3129   1.432   3.450   3.610
  744SOL     OW 3130   6.369   5.063   0.735
  744SOL    HW1 3131   6.324   5.099   0.653
  744SOL    HW2 3132   6.449   5.008   0.708
  745SOL     OW 3133   2.091   5.604   2.471
  745SOL    HW1 3134   2.139   5.636   2.389
  745SOL    HW2 3135   2.005   5.654   2.480
  746SOL     OW 3136   3.364   0.137   3.128
  746SOL    HW1 3137   3.422   0.063   3.094
  746SOL    HW2 3138   3.269   0.106   3.129
  747SOL     OW 3139   6.497   3.619   0.993
  747SOL    HW1 3140   6.541   3.616   1.083
  747SOL    HW2 3141   6.475   3.714   0.970
  748SOL     OW 3142   3.497   2.876   2.732
  748SOL    HW1 3143   3.507   2.779   2.753
  748SOL    HW2 3144   3.485   2.888   2.633
  749SOL     OW 3145   5.659   2.410   5.189
  749SOL    HW1 3146   5.648   2.479   5.118
  749SOL    HW2 3147   5.579   2.351   5.190
  750SOL     OW 3148   3.051   3.560   1.783
  750SOL    HW1 3149   3.054   3.562   1.683
  750SOL    HW2 3150   2.958   3.581   1.814
  751SOL     OW 3151   5.528   1.700   0.443
  751SOL    HW1 3152   5.473   1.741   0.516
  751SOL    HW2 3153   5.468   1.645   0.384
  752SOL     OW 3154   4.624   0.685   2.043
  752SOL    HW1 3155   4.686   0.761   2.067
  752SOL    HW2 3156   4.623   0.674   1.944
  753SOL     OW 3157   4.069   1.881   2.631
  753SOL    HW1 3158   4.115   1.810   2.578
  753SOL    HW2 3159   4.032   1.950   2.570
  754SOL     OW 3160   5.389   5.688   0.172
  754SOL    HW1 3161   5.362   5.779   0.142
  754SOL    HW2 3162   5.335   5.619   0.123
  755SOL     OW 3163   6.352   6.095   2.386
  755SOL    HW1 3164   6.404   6.086   2.471
  755SOL    HW2 3165   6.356   6.008   2.336
  756SOL     OW 3166   2.775   6.778   3.740
  756SOL    HW1 3167   2.844   6.796   3.810
  756SOL    HW2 3168   2.717   6.701   3.769
  757SOL     OW 3169   6.785   0.805   3.863
  757SOL    HW1 3170   6.814   0.731   3.803
  757SOL    HW2 3171   6.863   0.836   3.919
  758SOL     OW 3172   4.617   1.880   0.964
  758SOL    HW1 3173   4.520   1.855   0.967
  758SOL    HW2 3174   4.651   1.870   0.870
  759SOL     OW 3175   2.187   0.801   1.511
  759SOL    HW1 3176   2.129   0.881   1.529
  759SOL    HW2 3177   2.270   0.829   1.463
  760SOL     OW 3178   4.775   1.908   5.879
  760SOL    HW1 3179   4.708   1.905   5.805
  760SOL    HW2 3180   4.867   1.915   5.839
  761SOL     OW 3181   5.328   1.032   6.747
  761SOL    HW1 3182   5.345   1.022   6.845
  761SOL    HW2 3183   5.263   0.961   6.717
  762SOL     OW 3184   2.453   4.896   4.516
  762SOL    HW1 3185   2.362   4.858   4.531
  762SOL    HW2 3186   2.520   4.847   4.572
  763SOL     OW 3187   6.248   4.941   6.907
  763SOL    HW1 3188   6.157   4.964   6.942
  763SOL    HW2 3189   6.246   4.937   6.807
  764SOL     OW 3190   5.917   1.449   2.915
  764SOL    HW1 3191   5.852   1.372   2.915
  764SOL    HW2 3192   5.880   1.523   2.972
  765SOL     OW 3193   0.691   6.663   3.490
  765SOL    HW1 3194   0.721   6.623   3.403
  765SOL    HW2 3195   0.766   6.715   3.531
  766SOL     OW 3196   6.380   6.226   0.401
  766SOL    HW1 3197   6.406   6.148   0.458
  766SOL    HW2 3198   6.444   6.301   0.415
  767SOL     OW 3199   5.853   6.452   1.747
  767SOL    HW1 3200   5.896   6.507   1.675
  767SOL    HW2 3201   5.923   6.413   1.806
  768SOL     OW 3202   2.952   6.443   4.012
  768SOL    HW1 3203   2.966   6.464   3.915
  768SOL    HW2 3204   2.909   6.522   4.056
  769SOL     OW 3205   4.053   0.967   0.247
  769SOL    HW1 3206   4.024   0.998   0.157
  769SOL    HW2 3207   4.117   0.890   0.238
  770SOL     OW 3208   3.141   4.904   4.554
  770SOL    HW1 3209   3.236   4.916   4.525
  770SOL    HW2 3210   3.090   4.859   4.481
  771SOL     OW 3211   0.796   6.203   4.649
  771SOL    HW1 3212   0.774   6.147   4.729
  771SOL    HW2 3213   0.882   6.252   4.665
  772SOL     OW 3214   0.235   4.383   5.921
  772SOL    HW1 3215   0.270   4.377   5.827
  772SOL    HW2 3216   0.168   4.457   5.927
  773SOL     OW 3217   0.067   3.348   2.343
  773SOL    HW1 3218   0.022   3.420   2.396
  773SOL    HW2 3219   0.003   3.312   2.275
  774SOL     OW 3220   1.428   0.786   1.735
  774SOL    HW1 3221   1.490   0.741   1.799
  774SOL    HW2 3222   1.405   0.724   1.660
  775SOL     OW 3223   1.519   2.678   4.209
  775SOL    HW1 3224   1.423   2.670   4.234
  775SOL    HW2 3225   1.570   2.600   4.246
  776SOL     OW 3226   1.819   0.602   5.021
  776SOL    HW1 3227   1.871   0.537   5.076
  776SOL    HW2 3228   1.879   0.643   4.953
  777SOL     OW 3229   4.320   6.896   6.617
  777SOL    HW1 3230   4.278   6.943   6.694
  777SOL    HW2 3231   4.356   6.808   6.647
  778SOL     OW 3232   4.483   5.420   4.713
  778SOL    HW1 3233   4.530   5.480   4.778
  778SOL    HW2 3234   4.404   5.379   4.757
  779SOL     OW 3235   0.695   0.182   2.353
  779SOL    HW1 3236   0.745   0.222   2.278
  779SOL    HW2 3237   0.635   0.109   2.319
  780SOL     OW 3238   5.656   2.537   4.929
  780SOL    HW1 3239   5.723   2.542   4.854
  780SOL    HW2 3240   5.597   2.618   4.926
  781SOL     OW 3241   0.210   2.709   6.438
  781SOL    HW1 3242   0.142   2.757   6.492
  781SOL    HW2 3243   0.184   2.613   6.429
  782SOL     OW 3244   6.802   5.049   0.658
  782SOL    HW1 3245   6.787   5.036   0.756
  782SOL    HW2 3246   6.897   5.078   0.643
  783SOL     OW 3247   1.623   5.102   0.345
  783SOL    HW1 3248   1.566   5.041   0.291
  783SOL    HW2 3249   1.713   5.110   0.303
  784SOL     OW 3250   5.267   5.034   3.261
  784SOL    HW1 3251   5.195   5.013   3.328
  784SOL    HW2 3252   5.340   5.085   3.306
  785SOL     OW 3253   6.214   2.352   3.910
  785SOL    HW1 3254   6.226   2.260   3.947
  785SOL    HW2 3255   6.282   2.368   3.838
  786SOL     OW 3256   5.948   6.601   0.511
  786SOL    HW1 3257   5.963   6.617   0.609
  786SOL    HW2 3258   6.028   6.553   0.473
  787SOL     OW 3259   4.748   1.323   6.862
  787SOL    HW1 3260   4.750   1.410   6.813
  787SOL    HW2 3261   4.731   1.340   6.959
  788SOL     OW 3262   0.750   4.426   3.423
  788SOL    HW1 3263   0.801   4.418   3.509
  788SOL    HW2 3264   0.659   4.386   3.434
  789SOL     OW 3265   5.425   3.034   0.918
  789SOL    HW1 3266   5.448   3.125   0.883
  789SOL    HW2 3267   5.492   3.008   0.988
  790SOL     OW 3268   3.419   0.377   3.948
  790SOL    HW1 3269   3.487   0.415   3.885
  790SOL    HW2 3270   3.379   0.295   3.907
  791SOL     OW 3271   4.207   1.415   5.249
  791SOL    HW1 3272   4.205   1.442   5.152
  791SOL    HW2 3273   4.297   1.435   5.287
  792SOL     OW 3274   5.479   0.618   3.430
  792SOL    HW1 3275   5.568   0.574   3.446
  792SOL    HW2 3276   5.407   0.563   3.472
  793SOL     OW 3277   6.857   0.323   6.675
  793SOL    HW1 3278   6.865   0.421   6.658
  793SOL    HW2 3279   6.786   0.284   6.615
  794SOL     OW 3280   3.550   4.739   5.364
  794SOL    HW1 3281   3.640   4.765   5.329
  794SOL    HW2 3282   3.540   4.640   5.362
  795SOL     OW 3283   4.927   5.399   0.103
  795SOL    HW1 3284   4.857   5.334   0.131
  795SOL    HW2 3285   4.885   5.474   0.052
  796SOL     OW 3286   0.226   1.269   5.480
  796SOL    HW1 3287   0.162   1.332   5.436
  796SOL    HW2 3288   0.320   1.292   5.452
  797SOL     OW 3289   5.877   3.112   5.269
  797SOL    HW1 3290   5.803   3.061   5.312
  797SOL    HW2 3291   5.929   3.051   5.210
  798SOL     OW 3292   6.966   0.592   5.333
  798SOL    HW1 3293   6.950   0.599   5.432
  798SOL    HW2 3294   7.001   0.678   5.299
  799SOL     OW 3295   6.872   3.948   3.200
  799SOL    HW1 3296   6.957   3.924   3.153
  799SOL    HW2 3297   6.804   3.876   3.185
  800SOL     OW 3298   0.296   1.432   2.219
  800SOL    HW1 3299   0.300   1.378   2.135
  800SOL    HW2 3300   0.262   1.374   2.293
  801SOL     OW 3301   0.311   2.504   4.036
  801SOL    HW1 3302   0.390   2.527   4.094
  801SOL    HW2 3303   0.338   2.507   3.940
  802SOL     OW 3304   6.550   1.424   1.774
  802SOL    HW1 3305   6.474   1.363   1.794
  802SOL    HW2 3306   6.567   1.483   1.853
  803SOL     OW 3307   1.549   0.185   4.711
  803SOL    HW1 3308   1.635   0.202   4.664
  803SOL    HW2 3309   1.563   0.195   4.810
  804SOL     OW 3310   6.172   6.853   0.973
  804SOL    HW1 3311   6.219   6.878   0.888
  804SOL    HW2 3312   6.167   6.933   1.033
  805SOL     OW 3313   1.655   3.130   5.888
  805SOL    HW1 3314   1.658   3.227   5.865
  805SOL    HW2 3315   1.719   3.111   5.963
  806SOL     OW 3316   4.257   6.886   0.432
  806SOL    HW1 3317   4.308   6.836   0.361
  806SOL    HW2 3318   4.312   6.890   0.516
  807SOL     OW 3319   0.962   6.868   3.094
  807SOL    HW1 3320   0.878   6.922   3.087
  807SOL    HW2 3321   0.968   6.826   3.185
  808SOL     OW 3322   6.036   3.888   5.019
  808SOL    HW1 3323   6.085   3.817   5.071
  808SOL    HW2 3324   6.088   3.974   5.023
  809SOL     OW 3325   0.944   5.892   6.175
  809SOL    HW1 3326   1.007   5.815   6.163
  809SOL    HW2 3327   0.994   5.978   6.167
  810SOL     OW 3328   6.480   5.766   6.301
  810SOL    HW1 3329   6.497   5.673   6.267
  810SOL    HW2 3330   6.557   5.825   6.278
  811SOL     OW 3331   3.519   5.023   3.450
  811SOL    HW1 3332   3.595   5.081   3.481
  811SOL    HW2 3333   3.521   5.016   3.351
  812SOL     OW 3334   6.968   0.423   2.785
  812SOL    HW1 3335   6.985   0.390   2.878
  812SOL    HW2 3336   6.870   0.438   2.772
  813SOL     OW 3337   5.861   5.661   1.848
  813SOL    HW1 3338   5.953   5.668   1.807
  813SOL    HW2 3339   5.822   5.752   1.858
  814SOL     OW 3340   4.773   5.683   1.227
  814SOL    HW1 3341   4.828   5.604   1.253
  814SOL    HW2 3342   4.690   5.685   1.283
  815SOL     OW 3343   1.219   1.416   0.397
  815SOL    HW1 3344   1.229   1.515   0.406
  815SOL    HW2 3345   1.184   1.378   0.483
  816SOL     OW 3346   5.714   0.838   1.765
  816SOL    HW1 3347   5.650   0.792   1.703
  816SOL    HW2 3348   5.807   0.827   1.730
  817SOL     OW 3349   0.943   2.145   2.070
  817SOL    HW1 3350   0.875   2.078   2.100
  817SOL    HW2 3351   0.958   2.212   2.142
  818SOL     OW 3352   5.438   1.349   2.740
  818SOL    HW1 3353   5.423   1.366   2.837
  818SOL    HW2 3354   5.358   1.379   2.688
  819SOL     OW 3355   0.116   5.512   2.193
  819SOL    HW1 3356   0.159   5.545   2.276
  819SOL    HW2 3357   0.076   5.422   2.209
  820SOL     OW 3358   1.758   2.914   5.169
  820SOL    HW1 3359   1.794   2.821   5.165
  820SOL    HW2 3360   1.779   2.961   5.084
  821SOL     OW 3361   1.080   4.327   0.700
  821SOL    HW1 3362   1.141   4.403   0.721
  821SOL    HW2 3363   1.037   4.295   0.784
  822SOL     OW 3364   1.095   3.111   4.789
  822SOL    HW1 3365   1.114   3.073   4.880
  822SOL    HW2 3366   1.002   3.089   4.762
  823SOL     OW 3367   3.744   3.816   1.728
  823SOL    HW1 3368   3.793   3.814   1.640
  823SOL    HW2 3369   3.756   3.907   1.769
  824SOL     OW 3370   6.334   2.661   6.249
  824SOL    HW1 3371   6.315   2.667   6.347
  824SOL    HW2 3372   6.415   2.603   6.235
  825SOL     OW 3373   1.201   3.600   1.646
  825SOL    HW1 3374   1.213   3.517   1.593
  825SOL    HW2 3375   1.143   3.580   1.725
  826SOL     OW 3376   1.393   3.566   6.057
  826SOL    HW1 3377   1.453   3.528   5.987
  826SOL    HW2 3378   1.440   3.567   6.145
  827SOL     OW 3379   3.436   4.730   1.009
  827SOL    HW1 3380   3.380   4.647   1.008
  827SOL    HW2 3381   3.381   4.808   0.981
  828SOL     OW 3382   6.160   0.572   5.834
  828SOL    HW1 3383   6.240   0.516   5.811
  828SOL    HW2 3384   6.189   0.665   5.857
  829SOL     OW 3385   3.481   3.811   5.664
  829SOL    HW1 3386   3.465   3.736   5.728
  829SOL    HW2 3387   3.509   3.773   5.575
  830SOL     OW 3388   4.240   3.569   6.064
  830SOL    HW1 3389   4.321   3.627   6.074
  830SOL    HW2 3390   4.227   3.545   5.968
  831SOL     OW 3391   5.527   0.375   4.790
  831SOL    HW1 3392   5.602   0.310   4.777
  831SOL    HW2 3393   5.448   0.327   4.829
  832SOL     OW 3394   2.639   1.680   5.582
  832SOL    HW1 3395   2.731   1.667   5.545
  832SOL    HW2 3396   2.629   1.626   5.666
  833SOL     OW 3397   1.283   0.588   5.541
  833SOL    HW1 3398   1.373   0.630   5.554
  833SOL    HW2 3399   1.261   0.588   5.444
  834SOL     OW 3400   3.415   4.771   5.799
  834SOL    HW1 3401   3.429   4.730   5.889
  834SOL    HW2 3402   3.331   4.736   5.759
  835SOL     OW 3403   4.064   1.360   2.676
  835SOL    HW1 3404   4.017   1.444   2.705
  835SOL    HW2 3405   4.159   1.363   2.707
  836SOL     OW 3406   2.562   1.123   6.396
  836SOL    HW1 3407   2.502   1.201   6.412
  836SOL    HW2 3408   2.638   1.124   6.461
  837SOL     OW 3409   3.964   1.342   4.922
  837SOL    HW1 3410   3.904   1.308   4.994
  837SOL    HW2 3411   4.031   1.271   4.898
  838SOL     OW 3412   1.455   6.209   2.513
  838SOL    HW1 3413   1.445   6.307   2.532
  838SOL    HW2 3414   1.535   6.174   2.562
  839SOL     OW 3415   2.788   1.395   1.795
  839SOL    HW1 3416   2.766   1.297   1.803
  839SOL    HW2 3417   2.859   1.418   1.862
  840SOL     OW 3418   0.977   1.116   5.678
  840SOL    HW1 3419   1.019   1.107   5.588
  840SOL    HW2 3420   1.049   1.132   5.747
  841SOL     OW 3421   0.196   3.422   1.242
  841SOL    HW1 3422   0.192   3.437   1.341
  841SOL    HW2 3423   0.265   3.352   1.222
  842SOL     OW 3424   3.424   4.941   4.066
  842SOL    HW1 3425   3.522   4.921   4.069
  842SOL    HW2 3426   3.410   5.040   4.063
  843SOL     OW 3427   0.298   3.774   1.791
  843SOL    HW1 3428   0.211   3.756   1.746
  843SOL    HW2 3429   0.370   3.784   1.722
  844SOL     OW 3430   5.871   4.981   6.604
  844SOL    HW1 3431   5.845   4.925   6.682
  844SOL    HW2 3432   5.906   5.069   6.636
  845SOL     OW 3433   2.258   4.909   5.784
  845SOL    HW1 3434   2.322   4.948   5.718
  845SOL    HW2 3435   2.195   4.847   5.738
  846SOL     OW 3436   4.226   2.206   6.990
  846SOL    HW1 3437   4.288   2.128   6.993
  846SOL    HW2 3438   4.274   2.289   7.019
  847SOL     OW 3439   5.173   4.078   2.254
  847SOL    HW1 3440   5.131   4.110   2.339
  847SOL    HW2 3441   5.174   4.153   2.188
  848SOL     OW 3442   5.764   6.882   5.323
  848SOL    HW1 3443   5.707   6.955   5.362
  848SOL    HW2 3444   5.707   6.821   5.267
  849SOL     OW 3445   0.913   5.474   4.351
  849SOL    HW1 3446   0.969   5.556   4.354
  849SOL    HW2 3447   0.971   5.394   4.367
  850SOL     OW 3448   3.489   0.668   3.087
  850SOL    HW1 3449   3.477   0.568   3.085
  850SOL    HW2 3450   3.579   0.690   3.124
  851SOL     OW 3451   6.980   0.987   5.542
  851SOL    HW1 3452   6.953   1.021   5.632
  851SOL    HW2 3453   0.051   0.975   5.539
  852SOL     OW 3454   3.103   4.866   5.736
  852SOL    HW1 3455   3.073   4.903   5.648
  852SOL    HW2 3456   3.131   4.941   5.796
  853SOL     OW 3457   0.952   4.602   0.600
  853SOL    HW1 3458   0.995   4.590   0.511
  853SOL    HW2 3459   0.899   4.520   0.622
  854SOL     OW 3460   5.816   5.209   1.462
  854SOL    HW1 3461   5.744   5.237   1.399
  854SOL    HW2 3462   5.855   5.289   1.507
  855SOL     OW 3463   5.186   0.471   0.636
  855SOL    HW1 3464   5.271   0.433   0.598
  855SOL    HW2 3465   5.111   0.457   0.572
  856SOL     OW 3466   1.659   0.575   5.353
  856SOL    HW1 3467   1.565   0.540   5.355
  856SOL    HW2 3468   1.721   0.500   5.330
  857SOL     OW 3469   5.228   3.620   1.468
  857SOL    HW1 3470   5.148   3.675   1.445
  857SOL    HW2 3471   5.268   3.583   1.384
  858SOL     OW 3472   3.727   3.745   2.173
  858SOL    HW1 3473   3.628   3.731   2.185
  858SOL    HW2 3474   3.760   3.812   2.239
  859SOL     OW 3475   0.338   4.346   0.617
  859SOL    HW1 3476   0.370   4.420   0.559
  859SOL    HW2 3477   0.296   4.383   0.699
  860SOL     OW 3478   1.885   3.505   6.455
  860SOL    HW1 3479   1.884   3.447   6.536
  860SOL    HW2 3480   1.949   3.466   6.388
  861SOL     OW 3481   3.687   4.080   6.103
  861SOL    HW1 3482   3.679   4.149   6.175
  861SOL    HW2 3483   3.600   4.034   6.090
  862SOL     OW 3484   4.460   4.508   3.131
  862SOL    HW1 3485   4.403   4.544   3.204
  862SOL    HW2 3486   4.554   4.499   3.164
  863SOL     OW 3487   5.751   2.439   1.463
  863SOL    HW1 3488   5.714   2.396   1.546
  863SOL    HW2 3489   5.704   2.403   1.383
  864SOL     OW 3490   0.531   5.180   2.907
  864SOL    HW1 3491   0.534   5.242   2.829
  864SOL    HW2 3492   0.563   5.229   2.989
  865SOL     OW 3493   1.881   1.053   3.696
  865SOL    HW1 3494   1.966   1.057   3.644
  865SOL    HW2 3495   1.803   1.048   3.633
  866SOL     OW 3496   4.595   0.887   1.217
  866SOL    HW1 3497   4.644   0.821   1.275
  866SOL    HW2 3498   4.657   0.961   1.191
  867SOL     OW 3499   2.418   1.682   6.613
  867SOL    HW1 3500   2.482   1.721   6.679
  867SOL    HW2 3501   2.407   1.744   6.535
  868SOL     OW 3502   5.306   2.218   3.306
  868SOL    HW1 3503   5.230   2.154   3.293
  868SOL    HW2 3504   5.390   2.167   3.322
  869SOL     OW 3505   6.433   3.889   0.953
  869SOL    HW1 3506   6.504   3.894   0.882
  869SOL    HW2 3507   6.432   3.974   1.006
  870SOL     OW 3508   6.204   1.762   0.612
  870SOL    HW1 3509   6.168   1.686   0.557
  870SOL    HW2 3510   6.278   1.807   0.563
  871SOL     OW 3511   6.602   4.613   0.613
  871SOL    HW1 3512   6.634   4.622   0.519
  871SOL    HW2 3513   6.547   4.530   0.621
  872SOL     OW 3514   6.991   2.029   1.716
  872SOL    HW1 3515   6.942   2.050   1.631
  872SOL    HW2 3516   6.961   2.091   1.788
  873SOL     OW 3517   3.890   6.979   4.518
  873SOL    HW1 3518   3.832   6.898   4.512
  873SOL    HW2 3519   3.971   6.959   4.573
  874SOL     OW 3520   0.642   4.230   6.609
  874SOL    HW1 3521   0.741   4.241   6.618
  874SOL    HW2 3522   0.599   4.320   6.597
  875SOL     OW 3523   6.236   5.876   6.303
  875SOL    HW1 3524   6.321   5.831   6.329
  875SOL    HW2 3525   6.183   5.816   6.242
  876SOL     OW 3526   2.043   2.151   1.437
  876SOL    HW1 3527   2.013   2.057   1.427
  876SOL    HW2 3528   2.141   2.153   1.460
  877SOL     OW 3529   5.450   5.719   6.544
  877SOL    HW1 3530   5.433   5.818   6.539
  877SOL    HW2 3531   5.433   5.687   6.637
  878SOL     OW 3532   3.586   2.970   0.766
  878SOL    HW1 3533   3.494   2.942   0.739
  878SOL    HW2 3534   3.623   2.904   0.831
  879SOL     OW 3535   4.821   3.114   3.862
  879SOL    HW1 3536   4.770   3.052   3.921
  879SOL    HW2 3537   4.802   3.093   3.766
  880SOL     OW 3538   4.209   5.762   1.294
  880SOL    HW1 3539   4.150   5.803   1.225
  880SOL    HW2 3540   4.282   5.710   1.250
  881SOL     OW 3541   5.127   4.672   3.176
  881SOL    HW1 3542   5.213   4.704   3.136
  881SOL    HW2 3543   5.058   4.744   3.170
  882SOL     OW 3544   0.980   2.432   4.692
  882SOL    HW1 3545   1.001   2.337   4.711
  882SOL    HW2 3546   0.881   2.447   4.698
  883SOL     OW 3547   3.108   4.754   7.022
  883SOL    HW1 3548   3.059   4.670   6.998
  883SOL    HW2 3549   3.204   4.733   0.010
  884SOL     OW 3550   4.241   3.841   1.647
  884SOL    HW1 3551   4.212   3.906   1.578
  884SOL    HW2 3552   4.201   3.866   1.735
  885SOL     OW 3553   4.684   6.219   5.520
  885SOL    HW1 3554   4.711   6.296   5.578
  885SOL    HW2 3555   4.761   6.155   5.512
  886SOL     OW 3556   3.633   2.489   6.289
  886SOL    HW1 3557   3.571   2.554   6.245
  886SOL    HW2 3558   3.727   2.515   6.270
  887SOL     OW 3559   6.146   5.932   4.937
  887SOL    HW1 3560   6.108   6.016   4.976
  887SOL    HW2 3561   6.082   5.893   4.872
  888SOL     OW 3562   6.334   0.396   3.245
  888SOL    HW1 3563   6.387   0.477   3.220
  888SOL    HW2 3564   6.250   0.424   3.290
  889SOL     OW 3565   0.740   0.227   4.519
  889SOL    HW1 3566   0.779   0.318   4.533
  889SOL    HW2 3567   0.787   0.162   4.580
  890SOL     OW 3568   1.259   3.749   1.411
  890SOL    HW1 3569   1.172   3.731   1.365
  890SOL    HW2 3570   1.268   3.689   1.489
  891SOL     OW 3571   5.873   3.782   6.577
  891SOL    HW1 3572   5.898   3.867   6.623
  891SOL    HW2 3573   5.833   3.803   6.488
  892SOL     OW 3574   2.085   5.371   1.893
  892SOL    HW1 3575   2.091   5.428   1.976
  892SOL    HW2 3576   1.994   5.331   1.887
  893SOL     OW 3577   1.977   0.150   2.234
  893SOL    HW1 3578   1.987   0.103   2.146
  893SOL    HW2 3579   1.907   0.103   2.288
  894SOL     OW 3580   1.497   5.571   4.761
  894SOL    HW1 3581   1.406   5.556   4.723
  894SOL    HW2 3582   1.539   5.484   4.784
  895SOL     OW 3583   2.462   0.717   4.553
  895SOL    HW1 3584   2.363   0.699   4.547
  895SOL    HW2 3585   2.477   0.796   4.612
  896SOL     OW 3586   5.046   6.495   3.206
  896SOL    HW1 3587   5.096   6.575   3.238
  896SOL    HW2 3588   4.955   6.522   3.176
  897SOL     OW 3589   5.698   1.137   6.149
  897SOL    HW1 3590   5.793   1.117   6.125
  897SOL    HW2 3591   5.674   1.228   6.115
  898SOL     OW 3592   5.412   6.625   3.837
  898SOL    HW1 3593   5.367   6.703   3.794
  898SOL    HW2 3594   5.375   6.612   3.929
  899SOL     OW 3595   1.277   4.787   0.432
  899SOL    HW1 3596   1.354   4.733   0.468
  899SOL    HW2 3597   1.233   4.836   0.507
  900SOL     OW 3598   0.631   5.057   3.514
  900SOL    HW1 3599   0.629   4.965   3.553
  900SOL    HW2 3600   0.561   5.113   3.557
  901SOL     OW 3601   6.236   1.725   3.593
  901SOL    HW1 3602   6.181   1.808   3.600
  901SOL    HW2 3603   6.205   1.672   3.514
  902SOL     OW 3604   1.577   6.261   6.935
  902SOL    HW1 3605   1.503   6.242   6.999
  902SOL    HW2 3606   1.548   6.329   6.868
  903SOL     OW 3607   0.367   4.903   6.409
  903SOL    HW1 3608   0.388   5.000   6.421
  903SOL    HW2 3609   0.372   4.881   6.311
  904SOL     OW 3610   2.329   1.259   4.200
  904SOL    HW1 3611   2.381   1.273   4.284
  904SOL    HW2 3612   2.391   1.240   4.124
  905SOL     OW 3613   5.874   3.348   3.664
  905SOL    HW1 3614   5.973   3.353   3.653
  905SOL    HW2 3615   5.829   3.388   3.584
  906SOL     OW 3616   6.490   3.330   5.158
  906SOL    HW1 3617   6.395   3.320   5.189
  906SOL    HW2 3618   6.492   3.376   5.070
  907SOL     OW 3619   0.161   3.796   2.647
  907SOL    HW1 3620   0.083   3.735   2.632
  907SOL    HW2 3621   0.246   3.747   2.629
  908SOL     OW 3622   2.403   1.196   3.638
  908SOL    HW1 3623   2.394   1.291   3.607
  908SOL    HW2 3624   2.481   1.153   3.592
  909SOL     OW 3625   4.027   6.890   1.655
  909SOL    HW1 3626   4.045   6.796   1.628
  909SOL    HW2 3627   3.975   6.936   1.583
  910SOL     OW 3628   1.574   1.023   2.155
  910SOL    HW1 3629   1.663   1.016   2.200
  910SOL    HW2 3630   1.580   1.089   2.080
  911SOL     OW 3631   1.220   3.366   0.872
  911SOL    HW1 3632   1.124   3.347   0.852
  911SOL    HW2 3633   1.242   3.460   0.847
  912SOL     OW 3634   1.855   1.336   6.905
  912SOL    HW1 3635   1.790   1.265   6.933
  912SOL    HW2 3636   1.806   1.417   6.876
  913SOL     OW 3637   2.192   1.471   2.492
  913SOL    HW1 3638   2.101   1.513   2.496
  913SOL    HW2 3639   2.233   1.492   2.403
  914SOL     OW 3640   2.286   5.010   2.040
  914SOL    HW1 3641   2.191   5.041   2.040
  914SOL    HW2 3642   2.340   5.070   1.981
  915SOL     OW 3643   2.335   2.272   0.844
  915SOL    HW1 3644   2.331   2.172   0.848
  915SOL    HW2 3645   2.382   2.306   0.925
  916SOL     OW 3646   1.265   3.206   2.472
  916SOL    HW1 3647   1.329   3.177   2.543
  916SOL    HW2 3648   1.172   3.181   2.498
  917SOL     OW 3649   3.482   0.724   6.011
  917SOL    HW1 3650   3.497   0.737   6.109
  917SOL    HW2 3651   3.385   0.728   5.991
  918SOL     OW 3652   0.519   2.141   4.792
  918SOL    HW1 3653   0.474   2.108   4.875
  918SOL    HW2 3654   0.616   2.158   4.811
  919SOL     OW 3655   1.205   0.871   1.101
  919SOL    HW1 3656   1.126   0.930   1.086
  919SOL    HW2 3657   1.285   0.927   1.121
  920SOL     OW 3658   1.656   1.600   3.114
  920SOL    HW1 3659   1.666   1.682   3.171
  920SOL    HW2 3660   1.672   1.624   3.019
  921SOL     OW 3661   3.927   4.626   0.174
  921SOL    HW1 3662   3.931   4.561   0.250
  921SOL    HW2 3663   4.004   4.611   0.112
  922SOL     OW 3664   2.262   5.869   0.035
  922SOL    HW1 3665   2.249   5.909   0.126
  922SOL    HW2 3666   2.174   5.839   7.026
  923SOL     OW 3667   4.358   1.248   0.195
  923SOL    HW1 3668   4.264   1.279   0.205
  923SOL    HW2 3669   4.359   1.158   0.151
  924SOL     OW 3670   6.096   4.520   1.900
  924SOL    HW1 3671   6.045   4.583   1.842
  924SOL    HW2 3672   6.065   4.426   1.882
  925SOL     OW 3673   6.621   2.238   2.115
  925SOL    HW1 3674   6.579   2.205   2.031
  925SOL    HW2 3675   6.659   2.330   2.100
  926SOL     OW 3676   3.859   5.844   1.230
  926SOL    HW1 3677   3.930   5.859   1.161
  926SOL    HW2 3678   3.902   5.841   1.321
  927SOL     OW 3679   4.797   5.229   4.910
  927SOL    HW1 3680   4.720   5.166   4.919
  927SOL    HW2 3681   4.790   5.278   4.824
  928SOL     OW 3682   0.501   1.973   1.705
  928SOL    HW1 3683   0.541   1.931   1.624
  928SOL    HW2 3684   0.455   1.903   1.760
  929SOL     OW 3685   0.294   2.236   2.281
  929SOL    HW1 3686   0.255   2.270   2.196
  929SOL    HW2 3687   0.223   2.227   2.350
  930SOL     OW 3688   6.305   5.286   1.982
  930SOL    HW1 3689   6.336   5.355   2.048
  930SOL    HW2 3690   6.286   5.200   2.030
  931SOL     OW 3691   1.248   2.710   1.829
  931SOL    HW1 3692   1.196   2.648   1.770
  931SOL    HW2 3693   1.188   2.780   1.866
  932SOL     OW 3694   4.590   6.114   1.180
  932SOL    HW1 3695   4.610   6.199   1.229
  932SOL    HW2 3696   4.511   6.069   1.223
  933SOL     OW 3697   1.161   6.519   3.578
  933SOL    HW1 3698   1.240   6.459   3.565
  933SOL    HW2 3699   1.154   6.544   3.674
  934SOL     OW 3700   3.199   1.259   5.435
  934SOL    HW1 3701   3.142   1.245   5.516
  934SOL    HW2 3702   3.291   1.283   5.463
  935SOL     OW 3703   1.446   3.744   4.643
  935SOL    HW1 3704   1.498   3.803   4.705
  935SOL    HW2 3705   1.482   3.753   4.550
  936SOL     OW 3706   1.255   1.384   2.309
  936SOL    HW1 3707   1.197   1.355   2.385
  936SOL    HW2 3708   1.298   1.305   2.267
  937SOL     OW 3709   5.066   2.091   3.309
  937SOL    HW1 3710   5.031   2.065   3.399
  937SOL    HW2 3711   4.991   2.090   3.243
  938SOL     OW 3712   0.552   0.849   6.489
  938SOL    HW1 3713   0.558   0.754   6.458
  938SOL    HW2 3714   0.530   0.851   6.587
  939SOL     OW 3715   6.058   0.929   4.568
  939SOL    HW1 3716   5.980   0.883   4.612
  939SOL    HW2 3717   6.133   0.935   4.633
  940SOL     OW 3718   6.486   0.300   3.503
  940SOL    HW1 3719   6.486   0.206   3.470
  940SOL    HW2 3720   6.418   0.353   3.452
  941SOL     OW 3721   6.001   2.567   5.554
  941SOL    HW1 3722   5.951   2.483   5.530
  941SOL    HW2 3723   5.967   2.603   5.641
  942SOL     OW 3724   4.396   6.962   5.068
  942SOL    HW1 3725   4.343   6.929   5.146
  942SOL    HW2 3726   4.489   6.983   5.097
  943SOL     OW 3727   5.303   2.840   7.012
  943SOL    HW1 3728   5.245   2.774   0.032
  943SOL    HW2 3729   5.304   2.927   0.034
  944SOL     OW 3730   5.022   4.431   3.755
  944SOL    HW1 3731   4.961   4.478   3.692
  944SOL    HW2 3732   4.999   4.334   3.757
  945SOL     OW 3733   5.722   3.364   6.757
  945SOL    HW1 3734   5.756   3.458   6.747
  945SOL    HW2 3735   5.787   3.301   6.715
  946SOL     OW 3736   6.127   3.745   6.541
  946SOL    HW1 3737   6.177   3.692   6.609
  946SOL    HW2 3738   6.030   3.749   6.566
  947SOL     OW 3739   0.968   2.882   5.588
  947SOL    HW1 3740   1.061   2.884   5.625
  947SOL    HW2 3741   0.905   2.849   5.659
  948SOL     OW 3742   3.459   2.082   0.538
  948SOL    HW1 3743   3.382   2.127   0.494
  948SOL    HW2 3744   3.450   1.983   0.529
  949SOL     OW 3745   5.098   6.134   6.216
  949SOL    HW1 3746   4.999   6.148   6.215
  949SOL    HW2 3747   5.130   6.129   6.311
  950SOL     OW 3748   3.317   5.285   0.964
  950SOL    HW1 3749   3.355   5.268   0.873
  950SOL    HW2 3750   3.258   5.208   0.991
  951SOL     OW 3751   1.429   2.968   4.013
  951SOL    HW1 3752   1.493   2.987   4.087
  951SOL    HW2 3753   1.470   2.993   3.925
  952SOL     OW 3754   5.071   1.086   1.063
  952SOL    HW1 3755   5.083   1.096   0.964
  952SOL    HW2 3756   5.039   0.993   1.084
  953SOL     OW 3757   4.408   6.631   5.875
  953SOL    HW1 3758   4.327   6.687   5.895
  953SOL    HW2 3759   4.442   6.590   5.960
  954SOL     OW 3760   6.144   6.914   1.653
  954SOL    HW1 3761   6.211   6.840   1.654
  954SOL    HW2 3762   6.143   6.957   1.562
  955SOL     OW 3763   1.100   5.858   2.878
  955SOL    HW1 3764   1.004   5.883   2.892
  955SOL    HW2 3765   1.159   5.933   2.911
  956SOL     OW 3766   1.925   2.715   0.576
  956SOL    HW1 3767   1.890   2.649   0.510
  956SOL    HW2 3768   1.922   2.675   0.668
  957SOL     OW 3769   2.077   6.277   4.874
  957SOL    HW1 3770   2.128   6.228   4.803
  957SOL    HW2 3771   2.121   6.365   4.893
  958SOL     OW 3772   4.530   2.575   6.859
  958SOL    HW1 3773   4.587   2.651   6.827
  958SOL    HW2 3774   4.560   2.490   6.816
  959SOL     OW 3775   1.485   3.982   0.688
  959SOL    HW1 3776   1.446   4.044   0.620
  959SOL    HW2 3777   1.413   3.923   0.724
  960SOL     OW 3778   1.611   4.398   5.846
  960SOL    HW1 3779   1.703   4.360   5.835
  960SOL    HW2 3780   1.579   4.434   5.758
  961SOL     OW 3781   3.504   6.641   6.741
  961SOL    HW1 3782   3.418   6.636   6.792
  961SOL    HW2 3783   3.528   6.550   6.707
  962SOL     OW 3784   0.996   0.137   3.506
  962SOL    HW1 3785   0.916   0.194   3.526
  962SOL    HW2 3786   1.053   0.182   3.438
  963SOL     OW 3787   5.867   6.967   2.356
  963SOL    HW1 3788   5.807   6.999   2.284
  963SOL    HW2 3789   5.830   6.882   2.395
  964SOL     OW 3790   5.655   4.140   1.191
  964SOL    HW1 3791   5.580   4.102   1.246
  964SOL    HW2 3792   5.682   4.073   1.121
  965SOL     OW 3793   2.088   1.641   0.300
  965SOL    HW1 3794   2.016   1.710   0.303
  965SOL    HW2 3795   2.054   1.560   0.252
  966SOL     OW 3796   5.824   2.339   1.936
  966SOL    HW1 3797   5.786   2.431   1.923
  966SOL    HW2 3798   5.754   2.280   1.976
  967SOL     OW 3799   1.237   5.400   2.893
  967SOL    HW1 3800   1.161   5.457   2.925
  967SOL    HW2 3801   1.314   5.409   2.955
  968SOL     OW 3802   0.073   4.343   0.261
  968SOL    HW1 3803   0.131   4.350   0.342
  968SOL    HW2 3804   0.109   4.273   0.199
  969SOL     OW 3805   3.997   6.494   6.344
  969SOL    HW1 3806   4.091   6.479   6.311
  969SOL    HW2 3807   3.993   6.477   6.442
  970SOL     OW 3808   5.323   3.343   6.429
  970SOL    HW1 3809   5.307   3.257   6.381
  970SOL    HW2 3810   5.341   3.415   6.363
  971SOL     OW 3811   0.267   2.661   6.930
  971SOL    HW1 3812   0.351   2.658   6.874
  971SOL    HW2 3813   0.280   2.604   7.011
  972SOL     OW 3814   5.087   6.588   0.475
  972SOL    HW1 3815   5.011   6.526   0.455
  972SOL    HW2 3816   5.120   6.571   0.568
  973SOL     OW 3817   6.550   3.445   5.621
  973SOL    HW1 3818   6.512   3.504   5.693
  973SOL    HW2 3819   6.636   3.405   5.652
  974SOL     OW 3820   1.794   0.439   4.621
  974SOL    HW1 3821   1.826   0.533   4.632
  974SOL    HW2 3822   1.839   0.380   4.688
  975SOL     OW 3823   2.779   7.006   5.430
  975SOL    HW1 3824   2.849   6.935   5.423
  975SOL    HW2 3825   2.745   7.010   5.524
  976SOL     OW 3826   0.279   4.815   4.110
  976SOL    HW1 3827   0.376   4.836   4.102
  976SOL    HW2 3828   0.230   4.896   4.144
  977SOL     OW 3829   0.989   2.360   2.276
  977SOL    HW1 3830   0.984   2.459   2.290
  977SOL    HW2 3831   0.928   2.314   2.342
  978SOL     OW 3832   5.601   2.874   4.345
  978SOL    HW1 3833   5.646   2.838   4.264
  978SOL    HW2 3834   5.507   2.900   4.323
  979SOL     OW 3835   6.320   1.980   2.832
  979SOL    HW1 3836   6.346   1.909   2.898
  979SOL    HW2 3837   6.394   2.047   2.824
  980SOL     OW 3838   6.511   6.977   5.980
  980SOL    HW1 3839   6.604   6.981   5.943
  980SOL    HW2 3840   6.502   0.017   6.053
  981SOL     OW 3841   6.288   2.901   6.050
  981SOL    HW1 3842   6.282   2.842   6.131
  981SOL    HW2 3843   6.268   2.995   6.076
  982SOL     OW 3844   1.449   4.400   0.962
  982SOL    HW1 3845   1.535   4.451   0.965
  982SOL    HW2 3846   1.468   4.303   0.952
  983SOL     OW 3847   5.396   1.519   3.626
  983SOL    HW1 3848   5.336   1.495   3.702
  983SOL    HW2 3849   5.491   1.502   3.652
  984SOL     OW 3850   4.956   3.166   5.420
  984SOL    HW1 3851   4.927   3.255   5.383
  984SOL    HW2 3852   5.021   3.123   5.357
  985SOL     OW 3853   1.655   4.569   0.370
  985SOL    HW1 3854   1.673   4.473   0.348
  985SOL    HW2 3855   1.615   4.615   0.291
  986SOL     OW 3856   5.170   4.430   6.025
  986SOL    HW1 3857   5.078   4.464   6.006
  986SOL    HW2 3858   5.164   4.354   6.090
  987SOL     OW 3859   3.672   0.364   2.529
  987SOL    HW1 3860   3.727   0.420   2.466
  987SOL    HW2 3861   3.646   0.279   2.483
  988SOL     OW 3862   3.367   2.784   1.585
  988SOL    HW1 3863   3.324   2.777   1.495
  988SOL    HW2 3864   3.326   2.716   1.646
  989SOL     OW 3865   0.735   1.112   4.340
  989SOL    HW1 3866   0.682   1.028   4.349
  989SOL    HW2 3867   0.741   1.139   4.243
  990SOL     OW 3868   5.384   6.518   2.186
  990SOL    HW1 3869   5.464   6.578   2.185
  990SOL    HW2 3870   5.332   6.530   2.101
  991SOL     OW 3871   5.833   1.719   5.654
  991SOL    HW1 3872   5.829   1.668   5.740
  991SOL    HW2 3873   5.775   1.801   5.661
  992SOL     OW 3874   0.240   2.756   1.145
  992SOL    HW1 3875   0.214   2.678   1.088
  992SOL    HW2 3876   0.309   2.811   1.097
  993SOL     OW 3877   4.191   6.736   4.591
  993SOL    HW1 3878   4.226   6.810   4.535
  993SOL    HW2 3879   4.209   6.648   4.545
  994SOL     OW 3880   2.916   3.521   3.309
  994SOL    HW1 3881   2.968   3.606   3.313
  994SOL    HW2 3882   2.830   3.533   3.359
  995SOL     OW 3883   0.557   1.799   4.734
  995SOL    HW1 3884   0.515   1.886   4.760
  995SOL    HW2 3885   0.529   1.728   4.798
  996SOL     OW 3886   1.055   3.509   7.018
  996SOL    HW1 3887   1.067   3.424   6.966
  996SOL    HW2 3888   1.125   3.514   0.061
  997SOL     OW 3889   7.020   1.835   0.497
  997SOL    HW1 3890   0.077   1.850   0.447
  997SOL    HW2 3891   0.005   1.763   0.565
  998SOL     OW 3892   5.120   6.835   3.040
  998SOL    HW1 3893   5.169   6.792   3.116
  998SOL    HW2 3894   5.184   6.884   2.982
  999SOL     OW 3895   6.552   5.725   0.880
  999SOL    HW1 3896   6.503   5.767   0.956
  999SOL    HW2 3897   6.646   5.756   0.879
 1000SOL     OW 3898   4.270   1.875   4.614
 1000SOL    HW1 3899   4.287   1.931   4.695
 1000SOL    HW2 3900   4.174   1.848   4.612
 1001SOL     OW 3901   4.594   1.198   5.148
 1001SOL    HW1 3902   4.531   1.132   5.187
 1001SOL    HW2 3903   4.683   1.154   5.131
 1002SOL     OW 3904   0.797   1.344   0.550
 1002SOL    HW1 3905   0.717   1.287   0.568
 1002SOL    HW2 3906   0.839   1.315   0.464
 1003SOL     OW 3907   3.959   5.196   2.734
 1003SOL    HW1 3908   3.881   5.188   2.672
 1003SOL    HW2 3909   4.044   5.178   2.684
 1004SOL     OW 3910   5.816   6.110   0.213
 1004SOL    HW1 3911   5.872   6.172   0.268
 1004SOL    HW2 3912   5.837   6.015   0.236
 1005SOL     OW 3913   6.504   6.035   3.627
 1005SOL    HW1 3914   6.524   6.133   3.621
 1005SOL    HW2 3915   6.411   6.022   3.662
 1006SOL     OW 3916   1.480   4.953   0.172
 1006SOL    HW1 3917   1.386   4.925   0.192
 1006SOL    HW2 3918   1.525   4.882   0.117
 1007SOL     OW 3919   6.752   1.462   2.982
 1007SOL    HW1 3920   6.734   1.532   3.051
 1007SOL    HW2 3921   6.758   1.373   3.027
 1008SOL     OW 3922   2.940   2.029   4.978
 1008SOL    HW1 3923   2.947   1.940   4.932
 1008SOL    HW2 3924   2.999   2.029   5.059
 1009SOL     OW 3925   3.070   6.231   6.213
 1009SOL    HW1 3926   2.998   6.274   6.159
 1009SOL    HW2 3927   3.041   6.139   6.240
 1010SOL     OW 3928   5.416   6.953   5.332
 1010SOL    HW1 3929   5.357   6.992   5.403
 1010SOL    HW2 3930   5.383   6.980   5.242
 1011SOL     OW 3931   2.629   5.641   3.902
 1011SOL    HW1 3932   2.595   5.734   3.909
 1011SOL    HW2 3933   2.719   5.641   3.858
 1012SOL     OW 3934   3.737   6.104   0.844
 1012SOL    HW1 3935   3.826   6.082   0.802
 1012SOL    HW2 3936   3.694   6.179   0.794
 1013SOL     OW 3937   0.877   0.485   0.114
 1013SOL    HW1 3938   0.925   0.421   0.174
 1013SOL    HW2 3939   0.940   0.520   0.045
 1014SOL     OW 3940   6.027   6.622   5.956
 1014SOL    HW1 3941   6.084   6.702   5.975
 1014SOL    HW2 3942   5.975   6.598   6.037
 1015SOL     OW 3943   2.724   0.494   4.855
 1015SOL    HW1 3944   2.776   0.471   4.773
 1015SOL    HW2 3945   2.626   0.484   4.837
 1016SOL     OW 3946   4.211   2.792   1.673
 1016SOL    HW1 3947   4.274   2.855   1.719
 1016SOL    HW2 3948   4.211   2.811   1.575
 1017SOL     OW 3949   5.186   0.586   6.152
 1017SOL    HW1 3950   5.089   0.601   6.174
 1017SOL    HW2 3951   5.241   0.653   6.200
 1018SOL     OW 3952   1.563   2.666   1.502
 1018SOL    HW1 3953   1.631   2.594   1.514
 1018SOL    HW2 3954   1.607   2.755   1.513
 1019SOL     OW 3955   6.188   1.807   0.905
 1019SOL    HW1 3956   6.209   1.733   0.969
 1019SOL    HW2 3957   6.206   1.777   0.812
 1020SOL     OW 3958   3.753   2.179   1.676
 1020SOL    HW1 3959   3.728   2.265   1.722
 1020SOL    HW2 3960   3.826   2.197   1.610
 1021SOL     OW 3961   7.000   1.227   0.992
 1021SOL    HW1 3962   7.008   1.129   1.007
 1021SOL    HW2 3963   0.035   1.276   1.052
 1022SOL     OW 3964   3.513   2.741   0.065
 1022SOL    HW1 3965   3.539   2.710   0.156
 1022SOL    HW2 3966   3.549   2.678   7.024
 1023SOL     OW 3967   7.021   0.481   4.832
 1023SOL    HW1 3968   0.090   0.506   4.836
 1023SOL    HW2 3969   6.981   0.491   4.923
 1024SOL     OW 3970   6.072   2.553   4.004
 1024SOL    HW1 3971   6.113   2.473   3.961
 1024SOL    HW2 3972   6.140   2.626   4.013
 1025SOL     OW 3973   2.934   4.716   1.295
 1025SOL    HW1 3974   2.956   4.809   1.325
 1025SOL    HW2 3975   2.841   4.714   1.259
 1026SOL     OW 3976   0.476   2.010   6.126
 1026SOL    HW1 3977   0.475   2.103   6.091
 1026SOL    HW2 3978   0.460   1.946   6.051
 1027SOL     OW 3979   2.181   4.722   1.138
 1027SOL    HW1 3980   2.206   4.642   1.083
 1027SOL    HW2 3981   2.254   4.743   1.203
 1028SOL     OW 3982   0.165   5.547   0.199
 1028SOL    HW1 3983   0.239   5.554   0.132
 1028SOL    HW2 3984   0.122   5.457   0.190
 1029SOL     OW 3985   3.751   0.188   4.892
 1029SOL    HW1 3986   3.703   0.227   4.814
 1029SOL    HW2 3987   3.845   0.164   4.865
 1030SOL     OW 3988   3.975   4.852   4.995
 1030SOL    HW1 3989   4.010   4.805   4.914
 1030SOL    HW2 3990   3.914   4.925   4.966
 1031SOL     OW 3991   2.421   6.011   0.959
 1031SOL    HW1 3992   2.373   5.923   0.956
 1031SOL    HW2 3993   2.468   6.020   1.046
 1032SOL     OW 3994   1.179   1.492   5.109
 1032SOL    HW1 3995   1.274   1.499   5.078
 1032SOL    HW2 3996   1.140   1.583   5.119
 1033SOL     OW 3997   2.669   6.793   1.863
 1033SOL    HW1 3998   2.753   6.841   1.887
 1033SOL    HW2 3999   2.590   6.847   1.893
 1034SOL     OW 4000   1.017   6.411   1.988
 1034SOL    HW1 4001   1.056   6.322   2.014
 1034SOL    HW2 4002   1.061   6.483   2.042
 1035SOL     OW 4003   3.425   1.860   2.893
 1035SOL    HW1 4004   3.362   1.812   2.833
 1035SOL    HW2 4005   3.394   1.954   2.906
 1036SOL     OW 4006   4.830   6.746   6.760
 1036SOL    HW1 4007   4.925   6.754   6.728
 1036SOL    HW2 4008   4.815   6.812   6.833
 1037SOL     OW 4009   3.559   1.425   6.038
 1037SOL    HW1 4010   3.633   1.366   6.005
 1037SOL    HW2 4011   3.597   1.508   6.079
 1038SOL     OW 4012   2.677   2.042   5.298
 1038SOL    HW1 4013   2.612   2.093   5.241
 1038SOL    HW2 4014   2.641   1.950   5.315
 1039SOL     OW 4015   5.164   1.667   3.433
 1039SOL    HW1 4016   5.084   1.726   3.427
 1039SOL    HW2 4017   5.245   1.718   3.403
 1040SOL     OW 4018   6.260   4.062   4.167
 1040SOL    HW1 4019   6.201   4.095   4.241
 1040SOL    HW2 4020   6.217   4.082   4.079
 1041SOL     OW 4021   1.693   6.739   4.636
 1041SOL    HW1 4022   1.657   6.789   4.558
 1041SOL    HW2 4023   1.695   6.799   4.716
 1042SOL     OW 4024   4.468   3.933   0.458
 1042SOL    HW1 4025   4.500   3.865   0.524
 1042SOL    HW2 4026   4.410   3.889   0.389
 1043SOL     OW 4027   4.221   0.410   6.663
 1043SOL    HW1 4028   4.250   0.368   6.577
 1043SOL    HW2 4029   4.134   0.370   6.691
 1044SOL     OW 4030   4.009   3.619   2.990
 1044SOL    HW1 4031   4.090   3.624   2.931
 1044SOL    HW2 4032   3.929   3.597   2.934
 1045SOL     OW 4033   3.817   0.667   3.105
 1045SOL    HW1 4034   3.849   0.583   3.150
 1045SOL    HW2 4035   3.882   0.694   3.034
 1046SOL     OW 4036   3.085   0.772   2.280
 1046SOL    HW1 4037   2.996   0.785   2.237
 1046SOL    HW2 4038   3.139   0.708   2.225
 1047SOL     OW 4039   0.669   6.147   1.966
 1047SOL    HW1 4040   0.706   6.186   2.050
 1047SOL    HW2 4041   0.661   6.218   1.897
 1048SOL     OW 4042   6.281   4.030   5.019
 1048SOL    HW1 4043   6.346   4.105   5.011
 1048SOL    HW2 4044   6.330   3.942   5.011
 1049SOL     OW 4045   0.628   3.661   5.389
 1049SOL    HW1 4046   0.633   3.746   5.441
 1049SOL    HW2 4047   0.642   3.584   5.451
 1050SOL     OW 4048   2.728   0.430   1.239
 1050SOL    HW1 4049   2.751   0.342   1.198
 1050SOL    HW2 4050   2.638   0.424   1.282
 1051SOL     OW 4051   4.796   4.751   2.031
 1051SOL    HW1 4052   4.698   4.769   2.023
 1051SOL    HW2 4053   4.848   4.824   1.987
 1052SOL     OW 4054   3.679   0.227   3.796
 1052SOL    HW1 4055   3.710   0.321   3.812
 1052SOL    HW2 4056   3.739   0.164   3.845
 1053SOL     OW 4057   3.678   4.971   3.810
 1053SOL    HW1 4058   3.764   5.019   3.825
 1053SOL    HW2 4059   3.649   4.928   3.896
 1054SOL     OW 4060   4.098   5.732   4.831
 1054SOL    HW1 4061   4.057   5.672   4.900
 1054SOL    HW2 4062   4.185   5.693   4.800
 1055SOL     OW 4063   4.073   4.797   4.321
 1055SOL    HW1 4064   4.097   4.724   4.258
 1055SOL    HW2 4065   4.111   4.778   4.411
 1056SOL     OW 4066   2.736   6.094   6.980
 1056SOL    HW1 4067   2.697   6.085   0.044
 1056SOL    HW2 4068   2.832   6.069   6.981
 1057SOL     OW 4069   3.876   4.071   1.442
 1057SOL    HW1 4070   3.836   3.989   1.401
 1057SOL    HW2 4071   3.818   4.103   1.517
 1058SOL     OW 4072   3.167   6.319   2.139
 1058SOL    HW1 4073   3.220   6.275   2.067
 1058SOL    HW2 4074   3.229   6.359   2.207
 1059SOL     OW 4075   4.324   0.755   0.743
 1059SOL    HW1 4076   4.341   0.813   0.663
 1059SOL    HW2 4077   4.377   0.789   0.821
 1060SOL     OW 4078   3.542   1.322   4.158
 1060SOL    HW1 4079   3.597   1.319   4.241
 1060SOL    HW2 4080   3.456   1.369   4.177
 1061SOL     OW 4081   2.321   5.679   1.211
 1061SOL    HW1 4082   2.230   5.693   1.173
 1061SOL    HW2 4083   2.314   5.654   1.307
 1062SOL     OW 4084   4.831   4.637   4.528
 1062SOL    HW1 4085   4.920   4.676   4.505
 1062SOL    HW2 4086   4.837   4.588   4.615
 1063SOL     OW 4087   3.363   2.541   6.509
 1063SOL    HW1 4088   3.434   2.612   6.507
 1063SOL    HW2 4089   3.306   2.549   6.428
 1064SOL     OW 4090   0.420   2.957   2.191
 1064SOL    HW1 4091   0.383   2.970   2.283
 1064SOL    HW2 4092   0.344   2.954   2.125
 1065SOL     OW 4093   4.580   4.996   5.812
 1065SOL    HW1 4094   4.665   4.948   5.791
 1065SOL    HW2 4095   4.550   4.972   5.905
 1066SOL     OW 4096   4.567   0.324   3.716
 1066SOL    HW1 4097   4.523   0.411   3.695
 1066SOL    HW2 4098   4.584   0.274   3.631
 1067SOL     OW 4099   2.988   3.755   0.055
 1067SOL    HW1 4100   3.078   3.760   0.096
 1067SOL    HW2 4101   2.993   3.785   6.988
 1068SOL     OW 4102   0.657   4.941   1.709
 1068SOL    HW1 4103   0.690   4.993   1.630
 1068SOL    HW2 4104   0.584   4.879   1.680
 1069SOL     OW 4105   3.150   2.985   2.473
 1069SOL    HW1 4106   3.119   2.911   2.414
 1069SOL    HW2 4107   3.113   2.972   2.565
 1070SOL     OW 4108   2.229   6.440   0.485
 1070SOL    HW1 4109   2.263   6.377   0.414
 1070SOL    HW2 4110   2.298   6.510   0.502
 1071SOL     OW 4111   4.926   5.570   2.973
 1071SOL    HW1 4112   4.895   5.475   2.978
 1071SOL    HW2 4113   4.971   5.586   2.885
 1072SOL     OW 4114   3.928   5.776   3.163
 1072SOL    HW1 4115   3.890   5.791   3.254
 1072SOL    HW2 4116   3.924   5.861   3.110
 1073SOL     OW 4117   2.784   5.501   3.350
 1073SOL    HW1 4118   2.844   5.436   3.304
 1073SOL    HW2 4119   2.753   5.461   3.437
 1074SOL     OW 4120   2.012   5.001   3.583
 1074SOL    HW1 4121   2.029   5.042   3.494
 1074SOL    HW2 4122   1.948   4.924   3.573
 1075SOL     OW 4123   0.599   3.958   2.647
 1075SOL    HW1 4124   0.553   3.995   2.566
 1075SOL    HW2 4125   0.565   4.005   2.729
 1076SOL     OW 4126   6.235   3.804   3.233
 1076SOL    HW1 4127   6.317   3.748   3.241
 1076SOL    HW2 4128   6.250   3.876   3.166
 1077SOL     OW 4129   4.851   0.167   2.034
 1077SOL    HW1 4130   4.790   0.143   1.958
 1077SOL    HW2 4131   4.945   0.143   2.011
 1078SOL     OW 4132   0.074   3.070   2.394
 1078SOL    HW1 4133   0.167   3.034   2.394
 1078SOL    HW2 4134   0.076   3.169   2.386
 1079SOL     OW 4135   1.611   4.504   3.432
 1079SOL    HW1 4136   1.548   4.579   3.409
 1079SOL    HW2 4137   1.669   4.484   3.353
 1080SOL     OW 4138   1.785   5.469   3.908
 1080SOL    HW1 4139   1.848   5.457   3.831
 1080SOL    HW2 4140   1.694   5.437   3.881
 1081SOL     OW 4141   1.518   0.546   0.024
 1081SOL    HW1 4142   1.420   0.528   0.027
 1081SOL    HW2 4143   1.545   0.601   0.103
 1082SOL     OW 4144   1.963   0.353   1.124
 1082SOL    HW1 4145   1.877   0.321   1.084
 1082SOL    HW2 4146   1.991   0.290   1.197
 1083SOL     OW 4147   3.754   2.875   1.696
 1083SOL    HW1 4148   3.731   2.972   1.709
 1083SOL    HW2 4149   3.692   2.819   1.751
 1084SOL     OW 4150   6.700   4.115   1.301
 1084SOL    HW1 4151   6.706   4.027   1.348
 1084SOL    HW2 4152   6.624   4.113   1.236
 1085SOL     OW 4153   1.564   5.549   4.247
 1085SOL    HW1 4154   1.507   5.624   4.213
 1085SOL    HW2 4155   1.506   5.481   4.291
 1086SOL     OW 4156   3.036   5.889   2.564
 1086SOL    HW1 4157   2.988   5.889   2.652
 1086SOL    HW2 4158   2.994   5.955   2.502
 1087SOL     OW 4159   3.956   3.065   5.172
 1087SOL    HW1 4160   4.037   3.116   5.143
 1087SOL    HW2 4161   3.983   2.996   5.239
 1088SOL     OW 4162   0.251   4.343   2.953
 1088SOL    HW1 4163   0.164   4.322   2.999
 1088SOL    HW2 4164   0.233   4.378   2.862
 1089SOL     OW 4165   6.801   0.294   3.204
 1089SOL    HW1 4166   6.842   0.377   3.242
 1089SOL    HW2 4167   6.846   0.271   3.117
 1090SOL     OW 4168   2.055   2.327   6.476
 1090SOL    HW1 4169   1.980   2.390   6.455
 1090SOL    HW2 4170   2.132   2.345   6.414
 1091SOL     OW 4171   0.689   2.281   5.620
 1091SOL    HW1 4172   0.720   2.202   5.673
 1091SOL    HW2 4173   0.720   2.272   5.525
 1092SOL     OW 4174   2.906   4.941   1.468
 1092SOL    HW1 4175   2.883   5.015   1.532
 1092SOL    HW2 4176   2.852   4.860   1.491
 1093SOL     OW 4177   0.019   2.559   1.640
 1093SOL    HW1 4178   7.026   2.639   1.584
 1093SOL    HW2 4179   0.109   2.523   1.614
 1094SOL     OW 4180   1.018   5.943   2.560
 1094SOL    HW1 4181   1.116   5.926   2.546
 1094SOL    HW2 4182   1.006   6.028   2.611
 1095SOL     OW 4183   0.742   3.629   6.459
 1095SOL    HW1 4184   0.655   3.624   6.509
 1095SOL    HW2 4185   0.723   3.625   6.361
 1096SOL     OW 4186   3.437   2.900   2.158
 1096SOL    HW1 4187   3.535   2.883   2.146
 1096SOL    HW2 4188   3.415   2.993   2.128
 1097SOL     OW 4189   2.943   4.674   5.858
 1097SOL    HW1 4190   2.996   4.751   5.822
 1097SOL    HW2 4191   2.947   4.674   5.958
 1098SOL     OW 4192   3.247   0.381   2.394
 1098SOL    HW1 4193   3.317   0.427   2.339
 1098SOL    HW2 4194   3.282   0.292   2.425
 1099SOL     OW 4195   3.333   0.089   2.161
 1099SOL    HW1 4196   3.295   0.172   2.121
 1099SOL    HW2 4197   3.331   0.096   2.261
 1100SOL     OW 4198   6.653   1.183   0.447
 1100SOL    HW1 4199   6.638   1.274   0.408
 1100SOL    HW2 4200   6.751   1.167   0.460
 1101SOL     OW 4201   5.154   2.924   0.864
 1101SOL    HW1 4202   5.247   2.960   0.863
 1101SOL    HW2 4203   5.095   2.983   0.807
 1102SOL     OW 4204   0.017   3.515   3.968
 1102SOL    HW1 4205   7.011   3.518   3.874
 1102SOL    HW2 4206   0.104   3.565   3.974
 1103SOL     OW 4207   0.533   3.245   6.908
 1103SOL    HW1 4208   0.577   3.175   6.964
 1103SOL    HW2 4209   0.436   3.250   6.931
 1104SOL     OW 4210   2.497   5.570   5.788
 1104SOL    HW1 4211   2.405   5.533   5.804
 1104SOL    HW2 4212   2.565   5.501   5.814
 1105SOL     OW 4213   4.068   5.463   1.124
 1105SOL    HW1 4214   4.121   5.388   1.165
 1105SOL    HW2 4215   3.985   5.478   1.178
 1106SOL     OW 4216   0.832   1.508   6.972
 1106SOL    HW1 4217   0.849   1.528   0.040
 1106SOL    HW2 4218   0.881   1.574   6.915
 1107SOL     OW 4219   6.954   0.141   1.876
 1107SOL    HW1 4220   6.881   0.148   1.808
 1107SOL    HW2 4221   6.932   0.068   1.941
 1108SOL     OW 4222   1.285   1.386   0.113
 1108SOL    HW1 4223   1.246   1.431   0.193
 1108SOL    HW2 4224   1.342   1.309   0.142
 1109SOL     OW 4225   4.220   0.945   3.402
 1109SOL    HW1 4226   4.208   0.979   3.495
 1109SOL    HW2 4227   4.221   0.845   3.403
 1110SOL     OW 4228   3.233   2.949   2.948
 1110SOL    HW1 4229   3.171   2.885   2.903
 1110SOL    HW2 4230   3.187   2.993   3.025
 1111SOL     OW 4231   4.409   6.619   6.856
 1111SOL    HW1 4232   4.410   6.703   6.911
 1111SOL    HW2 4233   4.448   6.544   6.909
 1112SOL     OW 4234   1.470   1.262   2.593
 1112SOL    HW1 4235   1.543   1.278   2.527
 1112SOL    HW2 4236   1.396   1.211   2.550
 1113SOL     OW 4237   6.438   3.856   1.330
 1113SOL    HW1 4238   6.390   3.939   1.305
 1113SOL    HW2 4239   6.376   3.777   1.320
 1114SOL     OW 4240   5.814   1.184   5.802
 1114SOL    HW1 4241   5.810   1.129   5.885
 1114SOL    HW2 4242   5.770   1.273   5.818
 1115SOL     OW 4243   2.337   4.882   0.655
 1115SOL    HW1 4244   2.287   4.798   0.674
 1115SOL    HW2 4245   2.290   4.933   0.583
 1116SOL     OW 4246   3.799   6.293   6.320
 1116SOL    HW1 4247   3.713   6.332   6.352
 1116SOL    HW2 4248   3.864   6.366   6.302
 1117SOL     OW 4249   2.833   3.223   0.987
 1117SOL    HW1 4250   2.891   3.265   0.918
 1117SOL    HW2 4251   2.741   3.262   0.981
 1118SOL     OW 4252   1.365   2.885   1.549
 1118SOL    HW1 4253   1.388   2.788   1.538
 1118SOL    HW2 4254   1.443   2.933   1.590
 1119SOL     OW 4255   3.185   3.977   3.378
 1119SOL    HW1 4256   3.241   4.031   3.440
 1119SOL    HW2 4257   3.093   4.016   3.375
 1120SOL     OW 4258   3.629   0.898   3.977
 1120SOL    HW1 4259   3.678   0.975   3.937
 1120SOL    HW2 4260   3.694   0.825   4.000
 1121SOL     OW 4261   5.014   3.700   3.373
 1121SOL    HW1 4262   5.097   3.680   3.321
 1121SOL    HW2 4263   4.934   3.673   3.319
 1122SOL     OW 4264   4.448   5.289   6.261
 1122SOL    HW1 4265   4.511   5.254   6.331
 1122SOL    HW2 4266   4.364   5.234   6.261
 1123SOL     OW 4267   3.820   1.033   2.128
 1123SOL    HW1 4268   3.724   1.039   2.155
 1123SOL    HW2 4269   3.864   1.122   2.140
 1124SOL     OW 4270   2.027   5.346   4.295
 1124SOL    HW1 4271   2.086   5.365   4.217
 1124SOL    HW2 4272   1.934   5.379   4.276
 1125SOL     OW 4273   3.213   3.649   5.211
 1125SOL    HW1 4274   3.163   3.735   5.201
 1125SOL    HW2 4275   3.159   3.586   5.267
 1126SOL     OW 4276   6.358   0.694   2.366
 1126SOL    HW1 4277   6.286   0.678   2.433
 1126SOL    HW2 4278   6.392   0.606   2.332
 1127SOL     OW 4279   2.137   5.624   6.212
 1127SOL    HW1 4280   2.170   5.681   6.136
 1127SOL    HW2 4281   2.181   5.535   6.208
 1128SOL     OW 4282   2.641   2.308   4.502
 1128SOL    HW1 4283   2.710   2.317   4.431
 1128SOL    HW2 4284   2.664   2.369   4.578
 1129SOL     OW 4285   4.148   6.148   6.153
 1129SOL    HW1 4286   4.122   6.083   6.082
 1129SOL    HW2 4287   4.152   6.240   6.115
 1130SOL     OW 4288   0.443   5.100   5.677
 1130SOL    HW1 4289   0.380   5.101   5.599
 1130SOL    HW2 4290   0.482   5.009   5.687
 1131SOL     OW 4291   6.863   4.815   5.890
 1131SOL    HW1 4292   6.866   4.829   5.791
 1131SOL    HW2 4293   6.858   4.904   5.936
 1132SOL     OW 4294   5.662   6.245   4.794
 1132SOL    HW1 4295   5.643   6.294   4.880
 1132SOL    HW2 4296   5.703   6.308   4.728
 1133SOL     OW 4297   6.417   2.183   6.993
 1133SOL    HW1 4298   6.438   2.159   6.898
 1133SOL    HW2 4299   6.339   2.246   6.994
 1134SOL     OW 4300   0.239   3.013   5.989
 1134SOL    HW1 4301   0.272   2.959   6.067
 1134SOL    HW2 4302   0.314   3.029   5.925
 1135SOL     OW 4303   6.672   1.347   4.439
 1135SOL    HW1 4304   6.614   1.378   4.514
 1135SOL    HW2 4305   6.768   1.368   4.460
 1136SOL     OW 4306   3.498   5.572   4.340
 1136SOL    HW1 4307   3.591   5.588   4.375
 1136SOL    HW2 4308   3.494   5.480   4.301
 1137SOL     OW 4309   1.230   1.043   0.200
 1137SOL    HW1 4310   1.303   0.989   0.160
 1137SOL    HW2 4311   1.155   1.051   0.134
 1138SOL     OW 4312   1.079   3.687   6.081
 1138SOL    HW1 4313   1.156   3.694   6.017
 1138SOL    HW2 4314   1.079   3.596   6.123
 1139SOL     OW 4315   0.736   0.335   2.570
 1139SOL    HW1 4316   0.753   0.281   2.653
 1139SOL    HW2 4317   0.742   0.275   2.490
 1140SOL     OW 4318   3.870   2.142   3.095
 1140SOL    HW1 4319   3.917   2.058   3.122
 1140SOL    HW2 4320   3.836   2.188   3.177
 1141SOL     OW 4321   0.021   6.309   6.277
 1141SOL    HW1 4322   7.005   6.278   6.361
 1141SOL    HW2 4323   0.088   6.240   6.248
 1142SOL     OW 4324   6.684   0.111   4.929
 1142SOL    HW1 4325   6.691   0.206   4.959
 1142SOL    HW2 4326   6.672   0.051   5.009
 1143SOL     OW 4327   4.998   2.441   1.070
 1143SOL    HW1 4328   4.923   2.375   1.080
 1143SOL    HW2 4329   5.047   2.448   1.156
 1144SOL     OW 4330   1.039   6.056   5.314
 1144SOL    HW1 4331   1.139   6.058   5.320
 1144SOL    HW2 4332   1.002   6.138   5.358
 1145SOL     OW 4333   1.871   5.013   4.773
 1145SOL    HW1 4334   1.915   5.030   4.685
 1145SOL    HW2 4335   1.907   4.929   4.813
 1146SOL     OW 4336   5.824   1.589   1.747
 1146SOL    HW1 4337   5.758   1.580   1.822
 1146SOL    HW2 4338   5.810   1.516   1.681
 1147SOL     OW 4339   6.540   3.908   1.774
 1147SOL    HW1 4340   6.474   3.936   1.844
 1147SOL    HW2 4341   6.509   3.938   1.684
 1148SOL     OW 4342   5.630   0.592   6.157
 1148SOL    HW1 4343   5.638   0.689   6.180
 1148SOL    HW2 4344   5.702   0.567   6.093
 1149SOL     OW 4345   5.302   2.882   3.069
 1149SOL    HW1 4346   5.249   2.967   3.060
 1149SOL    HW2 4347   5.254   2.809   3.021
 1150SOL     OW 4348   1.721   5.732   5.332
 1150SOL    HW1 4349   1.788   5.697   5.266
 1150SOL    HW2 4350   1.769   5.761   5.415
 1151SOL     OW 4351   2.456   5.248   6.981
 1151SOL    HW1 4352   2.501   5.322   6.930
 1151SOL    HW2 4353   2.519   5.171   6.990
 1152SOL     OW 4354   0.324   0.897   3.289
 1152SOL    HW1 4355   0.276   0.982   3.309
 1152SOL    HW2 4356   0.397   0.882   3.357
 1153SOL     OW 4357   2.358   4.962   2.738
 1153SOL    HW1 4358   2.284   4.906   2.699
 1153SOL    HW2 4359   2.427   4.902   2.778
 1154SOL     OW 4360   1.444   4.537   2.145
 1154SOL    HW1 4361   1.476   4.596   2.071
 1154SOL    HW2 4362   1.507   4.460   2.156
 1155SOL     OW 4363   4.808   0.531   2.185
 1155SOL    HW1 4364   4.863   0.468   2.131
 1155SOL    HW2 4365   4.752   0.587   2.124
 1156SOL     OW 4366   1.969   0.826   4.304
 1156SOL    HW1 4367   1.905   0.876   4.362
 1156SOL    HW2 4368   2.010   0.888   4.238
 1157SOL     OW 4369   1.606   3.388   3.943
 1157SOL    HW1 4370   1.550   3.446   3.883
 1157SOL    HW2 4371   1.570   3.391   4.036
 1158SOL     OW 4372   4.411   6.101   6.164
 1158SOL    HW1 4373   4.444   6.090   6.258
 1158SOL    HW2 4374   4.331   6.044   6.150
 1159SOL     OW 4375   6.005   4.195   2.463
 1159SOL    HW1 4376   5.929   4.138   2.492
 1159SOL    HW2 4377   5.993   4.288   2.499
 1160SOL     OW 4378   2.719   2.467   0.892
 1160SOL    HW1 4379   2.790   2.466   0.962
 1160SOL    HW2 4380   2.758   2.500   0.806
 1161SOL     OW 4381   4.101   0.605   3.649
 1161SOL    HW1 4382   4.020   0.559   3.612
 1161SOL    HW2 4383   4.075   0.693   3.688
 1162SOL     OW 4384   3.281   4.971   1.652
 1162SOL    HW1 4385   3.350   4.954   1.723
 1162SOL    HW2 4386   3.309   5.050   1.597
 1163SOL     OW 4387   5.037   6.902   2.432
 1163SOL    HW1 4388   4.995   6.972   2.490
 1163SOL    HW2 4389   4.967   6.861   2.373
 1164SOL     OW 4390   6.540   4.069   4.533
 1164SOL    HW1 4391   6.480   3.997   4.565
 1164SOL    HW2 4392   6.567   4.127   4.610
 1165SOL     OW 4393   0.682   4.551   2.175
 1165SOL    HW1 4394   0.745   4.565   2.252
 1165SOL    HW2 4395   0.726   4.581   2.090
 1166SOL     OW 4396   3.352   1.068   6.787
 1166SOL    HW1 4397   3.361   1.058   6.688
 1166SOL    HW2 4398   3.414   1.138   6.820
 1167SOL     OW 4399   4.503   1.623   5.653
 1167SOL    HW1 4400   4.599   1.602   5.631
 1167SOL    HW2 4401   4.458   1.662   5.573
 1168SOL     OW 4402   5.791   0.649   3.393
 1168SOL    HW1 4403   5.850   0.569   3.400
 1168SOL    HW2 4404   5.842   0.730   3.423
 1169SOL     OW 4405   1.438   2.868   1.182
 1169SOL    HW1 4406   1.369   2.828   1.243
 1169SOL    HW2 4407   1.466   2.800   1.114
 1170SOL     OW 4408   2.510   0.743   1.374
 1170SOL    HW1 4409   2.474   0.652   1.396
 1170SOL    HW2 4410   2.569   0.775   1.448
 1171SOL     OW 4411   4.166   0.724   0.438
 1171SOL    HW1 4412   4.120   0.689   0.520
 1171SOL    HW2 4413   4.255   0.762   0.464
 1172SOL     OW 4414   3.277   3.244   6.017
 1172SOL    HW1 4415   3.293   3.342   6.024
 1172SOL    HW2 4416   3.320   3.209   5.934
 1173SOL     OW 4417   5.331   6.538   5.518
 1173SOL    HW1 4418   5.376   6.590   5.446
 1173SOL    HW2 4419   5.300   6.599   5.590
 1174SOL     OW 4420   3.689   5.943   6.739
 1174SOL    HW1 4421   3.722   5.989   6.822
 1174SOL    HW2 4422   3.764   5.891   6.698
 1175SOL     OW 4423   0.088   5.033   4.550
 1175SOL    HW1 4424   0.153   5.081   4.491
 1175SOL    HW2 4425   0.133   5.008   4.636
 1176SOL     OW 4426   5.902   2.702   1.362
 1176SOL    HW1 4427   5.914   2.759   1.443
 1176SOL    HW2 4428   5.861   2.615   1.388
 1177SOL     OW 4429   6.544   3.131   6.392
 1177SOL    HW1 4430   6.642   3.136   6.375
 1177SOL    HW2 4431   6.499   3.211   6.352
 1178SOL     OW 4432   5.191   4.753   2.525
 1178SOL    HW1 4433   5.142   4.792   2.447
 1178SOL    HW2 4434   5.289   4.753   2.506
 1179SOL     OW 4435   1.302   5.289   6.172
 1179SOL    HW1 4436   1.357   5.213   6.207
 1179SOL    HW2 4437   1.263   5.341   6.249
 1180SOL     OW 4438   2.225   0.561   4.301
 1180SOL    HW1 4439   2.181   0.584   4.214
 1180SOL    HW2 4440   2.207   0.633   4.368
 1181SOL     OW 4441   1.516   4.844   2.488
 1181SOL    HW1 4442   1.503   4.883   2.397
 1181SOL    HW2 4443   1.568   4.907   2.545
 1182SOL     OW 4444   1.431   3.761   4.010
 1182SOL    HW1 4445   1.436   3.851   3.967
 1182SOL    HW2 4446   1.515   3.743   4.061
 1183SOL     OW 4447   4.224   5.251   1.181
 1183SOL    HW1 4448   4.192   5.229   1.273
 1183SOL    HW2 4449   4.257   5.167   1.137
 1184SOL     OW 4450   3.101   2.761   6.498
 1184SOL    HW1 4451   3.103   2.685   6.433
 1184SOL    HW2 4452   3.188   2.810   6.493
 1185SOL     OW 4453   3.099   1.223   6.271
 1185SOL    HW1 4454   3.071   1.290   6.339
 1185SOL    HW2 4455   3.036   1.145   6.272
 1186SOL     OW 4456   4.063   0.493   4.945
 1186SOL    HW1 4457   4.067   0.394   4.959
 1186SOL    HW2 4458   3.975   0.518   4.906
 1187SOL     OW 4459   1.407   1.912   4.689
 1187SOL    HW1 4460   1.359   1.850   4.627
 1187SOL    HW2 4461   1.506   1.896   4.682
 1188SOL     OW 4462   1.668   0.795   5.190
 1188SOL    HW1 4463   1.645   0.711   5.239
 1188SOL    HW2 4464   1.737   0.775   5.121
 1189SOL     OW 4465   0.776   1.164   1.362
 1189SOL    HW1 4466   0.837   1.085   1.367
 1189SOL    HW2 4467   0.778   1.202   1.269
 1190SOL     OW 4468   3.990   5.599   1.873
 1190SOL    HW1 4469   3.939   5.671   1.921
 1190SOL    HW2 4470   4.088   5.612   1.889
 1191SOL     OW 4471   2.096   4.516   1.682
 1191SOL    HW1 4472   2.063   4.599   1.637
 1191SOL    HW2 4473   2.196   4.518   1.687
 1192SOL     OW 4474   3.746   5.427   2.701
 1192SOL    HW1 4475   3.718   5.336   2.670
 1192SOL    HW2 4476   3.823   5.459   2.646
 1193SOL     OW 4477   3.123   0.363   3.965
 1193SOL    HW1 4478   3.101   0.305   3.886
 1193SOL    HW2 4479   3.220   0.387   3.963
 1194SOL     OW 4480   6.648   1.754   2.403
 1194SOL    HW1 4481   6.619   1.782   2.311
 1194SOL    HW2 4482   6.583   1.688   2.440
 1195SOL     OW 4483   3.485   0.149   7.017
 1195SOL    HW1 4484   3.464   0.059   0.029
 1195SOL    HW2 4485   3.555   0.194   0.044
 1196SOL     OW 4486   1.690   5.678   3.586
 1196SOL    HW1 4487   1.751   5.661   3.509
 1196SOL    HW2 4488   1.663   5.591   3.627
 1197SOL     OW 4489   3.445   4.976   6.944
 1197SOL    HW1 4490   3.536   4.961   6.984
 1197SOL    HW2 4491   3.455   4.990   6.845
 1198SOL     OW 4492   3.903   0.406   2.794
 1198SOL    HW1 4493   3.827   0.426   2.856
 1198SOL    HW2 4494   3.910   0.478   2.725
 1199SOL     OW 4495   3.607   3.727   3.833
 1199SOL    HW1 4496   3.635   3.706   3.739
 1199SOL    HW2 4497   3.688   3.729   3.892
 1200SOL     OW 4498   4.735   3.454   1.153
 1200SOL    HW1 4499   4.755   3.534   1.097
 1200SOL    HW2 4500   4.806   3.443   1.222
 1201SOL     OW 4501   1.706   2.077   4.942
 1201SOL    HW1 4502   1.697   1.984   4.906
 1201SOL    HW2 4503   1.639   2.137   4.898
 1202SOL     OW 4504   6.593   6.736   4.378
 1202SOL    HW1 4505   6.567   6.741   4.282
 1202SOL    HW2 4506   6.615   6.642   4.403
 1203SOL     OW 4507   6.251   0.012   2.766
 1203SOL    HW1 4508   6.229   0.058   2.680
 1203SOL    HW2 4509   6.210   0.061   2.842
 1204SOL     OW 4510   2.079   0.271   0.315
 1204SOL    HW1 4511   2.141   0.269   0.393
 1204SOL    HW2 4512   2.038   0.362   0.307
 1205SOL     OW 4513   0.707   3.137   6.032
 1205SOL    HW1 4514   0.758   3.224   6.034
 1205SOL    HW2 4515   0.634   3.143   5.964
 1206SOL     OW 4516   6.788   0.908   4.913
 1206SOL    HW1 4517   6.854   0.976   4.945
 1206SOL    HW2 4518   6.800   0.893   4.815
 1207SOL     OW 4519   6.422   6.089   6.343
 1207SOL    HW1 4520   6.408   6.153   6.267
 1207SOL    HW2 4521   6.352   6.017   6.339
 1208SOL     OW 4522   3.795   3.449   2.716
 1208SOL    HW1 4523   3.774   3.541   2.684
 1208SOL    HW2 4524   3.796   3.386   2.638
 1209SOL     OW 4525   6.982   4.096   4.784
 1209SOL    HW1 4526   6.987   4.005   4.827
 1209SOL    HW2 4527   6.934   4.088   4.696
 1210SOL     OW 4528   2.183   0.270   2.721
 1210SOL    HW1 4529   2.175   0.320   2.634
 1210SOL    HW2 4530   2.098   0.280   2.773
 1211SOL     OW 4531   0.388   3.363   3.296
 1211SOL    HW1 4532   0.361   3.281   3.347
 1211SOL    HW2 4533   0.487   3.376   3.303
 1212SOL     OW 4534   1.241   4.495   3.949
 1212SOL    HW1 4535   1.328   4.454   3.977
 1212SOL    HW2 4536   1.166   4.452   3.999
 1213SOL     OW 4537   5.853   3.740   5.453
 1213SOL    HW1 4538   5.770   3.794   5.440
 1213SOL    HW2 4539   5.863   3.717   5.549
 1214SOL     OW 4540   1.221   1.909   1.533
 1214SOL    HW1 4541   1.123   1.892   1.537
 1214SOL    HW2 4542   1.262   1.895   1.623
 1215SOL     OW 4543   0.799   5.559   2.423
 1215SOL    HW1 4544   0.839   5.554   2.332
 1215SOL    HW2 4545   0.864   5.601   2.486
 1216SOL     OW 4546   2.121   0.231   1.361
 1216SOL    HW1 4547   2.061   0.158   1.329
 1216SOL    HW2 4548   2.193   0.191   1.419
 1217SOL     OW 4549   1.984   2.665   3.202
 1217SOL    HW1 4550   1.944   2.610   3.129
 1217SOL    HW2 4551   2.076   2.633   3.221
 1218SOL     OW 4552   0.882   3.762   3.300
 1218SOL    HW1 4553   0.883   3.846   3.355
 1218SOL    HW2 4554   0.796   3.757   3.249
 1219SOL     OW 4555   2.584   5.908   2.812
 1219SOL    HW1 4556   2.553   5.826   2.860
 1219SOL    HW2 4557   2.608   5.979   2.879
 1220SOL     OW 4558   6.337   5.141   2.733
 1220SOL    HW1 4559   6.372   5.107   2.646
 1220SOL    HW2 4560   6.241   5.114   2.742
 1221SOL     OW 4561   4.612   4.640   5.608
 1221SOL    HW1 4562   4.531   4.677   5.653
 1221SOL    HW2 4563   4.649   4.565   5.663
 1222SOL     OW 4564   6.913   4.373   1.758
 1222SOL    HW1 4565   6.880   4.324   1.677
 1222SOL    HW2 4566   6.894   4.319   1.840
 1223SOL     OW 4567   0.015   4.618   4.818
 1223SOL    HW1 4568   6.974   4.624   4.746
 1223SOL    HW2 4569   0.068   4.534   4.805
 1224SOL     OW 4570   4.639   4.125   1.391
 1224SOL    HW1 4571   4.546   4.162   1.392
 1224SOL    HW2 4572   4.688   4.155   1.473
 1225SOL     OW 4573   4.826   2.077   6.566
 1225SOL    HW1 4574   4.768   2.005   6.529
 1225SOL    HW2 4575   4.921   2.063   6.536
 1226SOL     OW 4576   6.105   5.713   0.937
 1226SOL    HW1 4577   6.105   5.728   1.035
 1226SOL    HW2 4578   6.155   5.788   0.892
 1227SOL     OW 4579   4.829   4.066   6.779
 1227SOL    HW1 4580   4.818   4.126   6.859
 1227SOL    HW2 4581   4.870   4.118   6.704
 1228SOL     OW 4582   4.148   3.714   4.338
 1228SOL    HW1 4583   4.132   3.628   4.290
 1228SOL    HW2 4584   4.150   3.698   4.436
 1229SOL     OW 4585   2.259   5.279   2.418
 1229SOL    HW1 4586   2.356   5.289   2.437
 1229SOL    HW2 4587   2.206   5.322   2.492
 1230SOL     OW 4588   4.611   4.157   0.382
 1230SOL    HW1 4589   4.561   4.185   0.301
 1230SOL    HW2 4590   4.598   4.059   0.397
 1231SOL     OW 4591   2.159   1.134   0.506
 1231SOL    HW1 4592   2.184   1.221   0.463
 1231SOL    HW2 4593   2.199   1.131   0.598
 1232SOL     OW 4594   2.679   2.230   6.175
 1232SOL    HW1 4595   2.706   2.249   6.081
 1232SOL    HW2 4596   2.657   2.133   6.185
 1233SOL     OW 4597   0.447   5.321   4.584
 1233SOL    HW1 4598   0.491   5.406   4.555
 1233SOL    HW2 4599   0.495   5.243   4.544
 1234SOL     OW 4600   6.480   4.386   6.164
 1234SOL    HW1 4601   6.502   4.329   6.085
 1234SOL    HW2 4602   6.426   4.333   6.229
 1235SOL     OW 4603   6.123   5.075   0.891
 1235SOL    HW1 4604   6.206   5.081   0.835
 1235SOL    HW2 4605   6.048   5.120   0.843
 1236SOL     OW 4606   0.523   1.427   2.998
 1236SOL    HW1 4607   0.614   1.425   2.958
 1236SOL    HW2 4608   0.500   1.520   3.026
 1237SOL     OW 4609   0.810   0.519   4.246
 1237SOL    HW1 4610   0.723   0.525   4.295
 1237SOL    HW2 4611   0.792   0.515   4.148
 1238SOL     OW 4612   0.266   0.940   4.072
 1238SOL    HW1 4613   0.349   0.996   4.064
 1238SOL    HW2 4614   0.276   0.878   4.150
 1239SOL     OW 4615   5.032   4.407   3.364
 1239SOL    HW1 4616   5.119   4.451   3.340
 1239SOL    HW2 4617   4.986   4.461   3.433
 1240SOL     OW 4618   0.546   4.215   0.976
 1240SOL    HW1 4619   0.569   4.212   1.074
 1240SOL    HW2 4620   0.447   4.206   0.965
 1241SOL     OW 4621   3.180   5.373   5.630
 1241SOL    HW1 4622   3.183   5.459   5.680
 1241SOL    HW2 4623   3.271   5.349   5.597
 1242SOL     OW 4624   2.131   5.590   0.756
 1242SOL    HW1 4625   2.181   5.676   0.768
 1242SOL    HW2 4626   2.083   5.591   0.668
 1243SOL     OW 4627   0.020   3.752   3.532
 1243SOL    HW1 4628   0.059   3.840   3.504
 1243SOL    HW2 4629   0.080   3.709   3.599
 1244SOL     OW 4630   0.033   6.957   4.843
 1244SOL    HW1 4631   6.984   7.008   4.805
 1244SOL    HW2 4632   0.032   6.864   4.808
 1245SOL     OW 4633   4.830   6.959   1.108
 1245SOL    HW1 4634   4.772   6.888   1.148
 1245SOL    HW2 4635   4.773   7.025   1.059
 1246SOL     OW 4636   5.395   2.643   1.968
 1246SOL    HW1 4637   5.360   2.736   1.971
 1246SOL    HW2 4638   5.383   2.606   1.875
 1247SOL     OW 4639   4.962   6.489   2.043
 1247SOL    HW1 4640   5.029   6.490   1.968
 1247SOL    HW2 4641   4.942   6.582   2.071
 1248SOL     OW 4642   0.770   6.872   4.916
 1248SOL    HW1 4643   0.780   6.773   4.932
 1248SOL    HW2 4644   0.747   6.916   5.003
 1249SOL     OW 4645   6.238   6.351   6.610
 1249SOL    HW1 4646   6.183   6.405   6.673
 1249SOL    HW2 4647   6.234   6.255   6.635
 1250SOL     OW 4648   0.288   4.489   5.069
 1250SOL    HW1 4649   0.217   4.426   5.039
 1250SOL    HW2 4650   0.247   4.565   5.119
 1251SOL     OW 4651   2.618   0.395   2.907
 1251SOL    HW1 4652   2.664   0.308   2.886
 1251SOL    HW2 4653   2.521   0.378   2.923
 1252SOL     OW 4654   2.236   5.113   6.384
 1252SOL    HW1 4655   2.159   5.116   6.321
 1252SOL    HW2 4656   2.203   5.092   6.476
 1253SOL     OW 4657   2.957   5.747   0.299
 1253SOL    HW1 4658   2.896   5.822   0.275
 1253SOL    HW2 4659   2.928   5.706   0.386
 1254SOL     OW 4660   6.350   1.151   3.828
 1254SOL    HW1 4661   6.437   1.182   3.868
 1254SOL    HW2 4662   6.339   1.053   3.845
 1255SOL     OW 4663   6.277   2.254   6.114
 1255SOL    HW1 4664   6.373   2.234   6.092
 1255SOL    HW2 4665   6.230   2.286   6.032
 1256SOL     OW 4666   6.849   5.474   5.551
 1256SOL    HW1 4667   6.928   5.423   5.518
 1256SOL    HW2 4668   6.842   5.560   5.501
 1257SOL     OW 4669   0.157   6.293   3.540
 1257SOL    HW1 4670   0.225   6.249   3.481
 1257SOL    HW2 4671   0.125   6.378   3.497
 1258SOL     OW 4672   4.554   5.178   6.943
 1258SOL    HW1 4673   4.568   5.086   6.905
 1258SOL    HW2 4674   4.563   5.246   6.870
 1259SOL     OW 4675   5.650   6.760   4.938
 1259SOL    HW1 4676   5.658   6.733   4.842
 1259SOL    HW2 4677   5.655   6.860   4.945
 1260SOL     OW 4678   3.344   0.982   0.314
 1260SOL    HW1 4679   3.318   0.929   0.394
 1260SOL    HW2 4680   3.309   1.075   0.322
 1261SOL     OW 4681   0.082   4.374   4.683
 1261SOL    HW1 4682   0.054   4.281   4.660
 1261SOL    HW2 4683   0.138   4.411   4.609
 1262SOL     OW 4684   4.020   5.828   1.476
 1262SOL    HW1 4685   3.989   5.745   1.523
 1262SOL    HW2 4686   4.089   5.804   1.408
 1263SOL     OW 4687   0.085   1.437   1.431
 1263SOL    HW1 4688   7.021   1.431   1.390
 1263SOL    HW2 4689   0.090   1.375   1.509
 1264SOL     OW 4690   6.260   2.314   4.792
 1264SOL    HW1 4691   6.212   2.324   4.879
 1264SOL    HW2 4692   6.292   2.403   4.761
 1265SOL     OW 4693   5.963   5.541   5.095
 1265SOL    HW1 4694   5.871   5.506   5.076
 1265SOL    HW2 4695   6.014   5.549   5.010
 1266SOL     OW 4696   2.896   0.860   3.637
 1266SOL    HW1 4697   2.969   0.915   3.598
 1266SOL    HW2 4698   2.929   0.767   3.653
 1267SOL     OW 4699   0.528   4.348   2.168
 1267SOL    HW1 4700   0.495   4.319   2.078
 1267SOL    HW2 4701   0.603   4.413   2.156
 1268SOL     OW 4702   6.020   4.682   6.767
 1268SOL    HW1 4703   6.073   4.643   6.692
 1268SOL    HW2 4704   6.082   4.709   6.841
 1269SOL     OW 4705   6.780   4.695   6.401
 1269SOL    HW1 4706   6.757   4.599   6.388
 1269SOL    HW2 4707   6.853   4.720   6.337
 1270SOL     OW 4708   1.499   1.820   4.037
 1270SOL    HW1 4709   1.513   1.831   4.135
 1270SOL    HW2 4710   1.546   1.894   3.988
 1271SOL     OW 4711   5.543   3.006   3.100
 1271SOL    HW1 4712   5.444   2.989   3.104
 1271SOL    HW2 4713   5.574   2.996   3.006
 1272SOL     OW 4714   6.192   6.497   6.978
 1272SOL    HW1 4715   6.163   6.531   6.888
 1272SOL    HW2 4716   6.208   6.574   0.012
 1273SOL     OW 4717   2.648   7.025   4.888
 1273SOL    HW1 4718   2.702   6.947   4.921
 1273SOL    HW2 4719   2.709   0.065   4.848
 1274SOL     OW 4720   5.465   2.486   2.188
 1274SOL    HW1 4721   5.430   2.532   2.106
 1274SOL    HW2 4722   5.419   2.399   2.201
 1275SOL     OW 4723   3.999   1.326   3.789
 1275SOL    HW1 4724   4.064   1.399   3.767
 1275SOL    HW2 4725   3.939   1.310   3.710
 1276SOL     OW 4726   5.631   6.800   2.737
 1276SOL    HW1 4727   5.716   6.838   2.774
 1276SOL    HW2 4728   5.553   6.847   2.778
 1277SOL     OW 4729   1.269   1.722   4.542
 1277SOL    HW1 4730   1.199   1.756   4.478
 1277SOL    HW2 4731   1.231   1.648   4.597
 1278SOL     OW 4732   3.326   1.808   5.040
 1278SOL    HW1 4733   3.354   1.775   4.951
 1278SOL    HW2 4734   3.240   1.763   5.067
 1279SOL     OW 4735   2.235   4.980   0.428
 1279SOL    HW1 4736   2.217   4.895   0.377
 1279SOL    HW2 4737   2.230   5.058   0.365
 1280SOL     OW 4738   1.453   5.942   2.750
 1280SOL    HW1 4739   1.473   5.951   2.848
 1280SOL    HW2 4740   1.502   5.864   2.713
 1281SOL     OW 4741   0.698   6.606   3.940
 1281SOL    HW1 4742   0.676   6.566   3.852
 1281SOL    HW2 4743   0.737   6.536   4.000
 1282SOL     OW 4744   1.683   6.157   2.626
 1282SOL    HW1 4745   1.704   6.245   2.668
 1282SOL    HW2 4746   1.715   6.083   2.686
 1283SOL     OW 4747   5.047   4.091   5.370
 1283SOL    HW1 4748   4.963   4.128   5.410
 1283SOL    HW2 4749   5.118   4.088   5.440
 1284SOL     OW 4750   3.054   1.629   2.995
 1284SOL    HW1 4751   3.074   1.687   2.916
 1284SOL    HW2 4752   2.966   1.583   2.980
 1285SOL     OW 4753   5.720   2.701   6.076
 1285SOL    HW1 4754   5.801   2.753   6.048
 1285SOL    HW2 4755   5.746   2.634   6.146
 1286SOL     OW 4756   5.722   5.729   0.895
 1286SOL    HW1 4757   5.723   5.637   0.933
 1286SOL    HW2 4758   5.758   5.794   0.962
 1287SOL     OW 4759   6.496   3.702   5.794
 1287SOL    HW1 4760   6.458   3.781   5.745
 1287SOL    HW2 4761   6.576   3.731   5.847
 1288SOL     OW 4762   6.787   3.763   3.616
 1288SOL    HW1 4763   6.883   3.781   3.592
 1288SOL    HW2 4764   6.761   3.672   3.586
 1289SOL     OW 4765   0.062   5.081   2.854
 1289SOL    HW1 4766   0.158   5.056   2.856
 1289SOL    HW2 4767   0.052   5.177   2.880
 1290SOL     OW 4768   0.259   0.085   1.903
 1290SOL    HW1 4769   0.200   0.073   1.823
 1290SOL    HW2 4770   0.348   0.121   1.874
 1291SOL     OW 4771   1.678   6.486   1.146
 1291SOL    HW1 4772   1.601   6.549   1.143
 1291SOL    HW2 4773   1.653   6.406   1.200
 1292SOL     OW 4774   1.536   5.776   6.758
 1292SOL    HW1 4775   1.457   5.757   6.816
 1292SOL    HW2 4776   1.569   5.869   6.777
 1293SOL     OW 4777   6.160   1.985   6.505
 1293SOL    HW1 4778   6.254   1.988   6.471
 1293SOL    HW2 4779   6.122   2.078   6.509
 1294SOL     OW 4780   0.283   1.743   3.889
 1294SOL    HW1 4781   0.205   1.707   3.838
 1294SOL    HW2 4782   0.352   1.777   3.825
 1295SOL     OW 4783   5.002   3.793   1.392
 1295SOL    HW1 4784   4.907   3.769   1.415
 1295SOL    HW2 4785   5.006   3.824   1.297
 1296SOL     OW 4786   3.563   1.579   0.065
 1296SOL    HW1 4787   3.647   1.557   0.114
 1296SOL    HW2 4788   3.484   1.542   0.115
 1297SOL     OW 4789   6.908   0.631   5.815
 1297SOL    HW1 4790   6.947   0.539   5.810
 1297SOL    HW2 4791   6.900   0.670   5.724
 1298SOL     OW 4792   6.561   3.135   3.352
 1298SOL    HW1 4793   6.577   3.036   3.347
 1298SOL    HW2 4794   6.478   3.158   3.301
 1299SOL     OW 4795   1.819   3.107   4.658
 1299SOL    HW1 4796   1.907   3.150   4.639
 1299SOL    HW2 4797   1.803   3.107   4.757
 1300SOL     OW 4798   3.925   3.021   2.864
 1300SOL    HW1 4799   3.897   2.944   2.807
 1300SOL    HW2 4800   3.996   3.073   2.817
 1301SOL     OW 4801   1.364   1.668   2.368
 1301SOL    HW1 4802   1.329   1.623   2.450
 1301SOL    HW2 4803   1.391   1.598   2.300
 1302SOL     OW 4804   2.542   6.113   5.786
 1302SOL    HW1 4805   2.503   6.144   5.699
 1302SOL    HW2 4806   2.486   6.148   5.862
 1303SOL     OW 4807   3.355   0.429   1.231
 1303SOL    HW1 4808   3.325   0.525   1.231
 1303SOL    HW2 4809   3.277   0.370   1.250
 1304SOL     OW 4810   3.668   0.977   5.938
 1304SOL    HW1 4811   3.752   0.938   5.900
 1304SOL    HW2 4812   3.630   0.914   6.005
 1305SOL     OW 4813   6.095   6.671   3.876
 1305SOL    HW1 4814   6.157   6.676   3.955
 1305SOL    HW2 4815   6.025   6.602   3.894
 1306SOL     OW 4816   1.750   5.377   4.477
 1306SOL    HW1 4817   1.746   5.455   4.415
 1306SOL    HW2 4818   1.835   5.380   4.529
 1307SOL     OW 4819   1.002   0.882   4.257
 1307SOL    HW1 4820   1.099   0.864   4.277
 1307SOL    HW2 4821   0.950   0.883   4.342
 1308SOL     OW 4822   4.561   5.968   3.183
 1308SOL    HW1 4823   4.595   5.989   3.274
 1308SOL    HW2 4824   4.544   6.054   3.133
 1309SOL     OW 4825   5.086   3.084   4.351
 1309SOL    HW1 4826   5.154   3.149   4.318
 1309SOL    HW2 4827   5.086   3.084   4.451
 1310SOL     OW 4828   5.211   3.452   5.926
 1310SOL    HW1 4829   5.176   3.534   5.971
 1310SOL    HW2 4830   5.222   3.378   5.993
 1311SOL     OW 4831   4.867   4.986   5.923
 1311SOL    HW1 4832   4.860   5.022   5.831
 1311SOL    HW2 4833   4.951   5.019   5.966
 1312SOL     OW 4834   6.779   0.709   1.662
 1312SOL    HW1 4835   6.687   0.688   1.628
 1312SOL    HW2 4836   6.781   0.803   1.697
 1313SOL     OW 4837   3.256   4.880   4.942
 1313SOL    HW1 4838   3.280   4.784   4.951
 1313SOL    HW2 4839   3.160   4.893   4.968
 1314SOL     OW 4840   6.666   1.240   5.819
 1314SOL    HW1 4841   6.708   1.320   5.863
 1314SOL    HW2 4842   6.620   1.185   5.888
 1315SOL     OW 4843   2.007   6.989   3.593
 1315SOL    HW1 4844   1.981   7.027   3.504
 1315SOL    HW2 4845   2.077   6.918   3.580
 1316SOL     OW 4846   3.016   6.344   3.380
 1316SOL    HW1 4847   2.940   6.408   3.377
 1316SOL    HW2 4848   3.022   6.295   3.292
 1317SOL     OW 4849   0.550   3.356   4.274
 1317SOL    HW1 4850   0.641   3.373   4.313
 1317SOL    HW2 4851   0.488   3.430   4.298
 1318SOL     OW 4852   1.035   6.443   1.577
 1318SOL    HW1 4853   1.086   6.363   1.546
 1318SOL    HW2 4854   0.966   6.415   1.644
 1319SOL     OW 4855   6.497   0.137   0.786
 1319SOL    HW1 4856   6.534   0.145   0.693
 1319SOL    HW2 4857   6.420   0.200   0.797
 1320SOL     OW 4858   5.257   5.536   4.710
 1320SOL    HW1 4859   5.257   5.633   4.688
 1320SOL    HW2 4860   5.162   5.504   4.721
 1321SOL     OW 4861   3.918   0.875   0.491
 1321SOL    HW1 4862   3.993   0.838   0.437
 1321SOL    HW2 4863   3.917   0.975   0.484
 1322SOL     OW 4864   5.220   1.279   6.223
 1322SOL    HW1 4865   5.133   1.305   6.264
 1322SOL    HW2 4866   5.279   1.240   6.293
 1323SOL     OW 4867   6.572   0.382   3.777
 1323SOL    HW1 4868   6.597   0.478   3.763
 1323SOL    HW2 4869   6.510   0.353   3.705
 1324SOL     OW 4870   0.956   2.377   0.640
 1324SOL    HW1 4871   0.926   2.445   0.573
 1324SOL    HW2 4872   1.030   2.322   0.600
 1325SOL     OW 4873   4.308   5.847   4.119
 1325SOL    HW1 4874   4.235   5.914   4.109
 1325SOL    HW2 4875   4.312   5.789   4.037
 1326SOL     OW 4876   5.682   4.047   4.808
 1326SOL    HW1 4877   5.652   4.001   4.724
 1326SOL    HW2 4878   5.623   4.125   4.826
 1327SOL     OW 4879   2.774   6.154   4.201
 1327SOL    HW1 4880   2.742   6.159   4.295
 1327SOL    HW2 4881   2.750   6.065   4.162
 1328SOL     OW 4882   2.252   1.102   1.310
 1328SOL    HW1 4883   2.288   1.096   1.403
 1328SOL    HW2 4884   2.286   1.025   1.256
 1329SOL     OW 4885   1.382   6.523   1.786
 1329SOL    HW1 4886   1.343   6.474   1.865
 1329SOL    HW2 4887   1.312   6.583   1.747
 1330SOL     OW 4888   4.928   6.744   0.917
 1330SOL    HW1 4889   4.889   6.679   0.852
 1330SOL    HW2 4890   4.869   6.751   0.997
 1331SOL     OW 4891   1.098   2.118   1.796
 1331SOL    HW1 4892   1.064   2.073   1.879
 1331SOL    HW2 4893   1.021   2.160   1.747
 1332SOL     OW 4894   4.463   2.118   1.123
 1332SOL    HW1 4895   4.467   2.024   1.089
 1332SOL    HW2 4896   4.433   2.179   1.050
 1333SOL     OW 4897   4.159   3.467   4.957
 1333SOL    HW1 4898   4.126   3.387   4.908
 1333SOL    HW2 4899   4.213   3.525   4.895
 1334SOL     OW 4900   0.936   3.206   4.119
 1334SOL    HW1 4901   0.973   3.294   4.089
 1334SOL    HW2 4902   1.008   3.137   4.116
 1335SOL     OW 4903   1.845   5.624   3.358
 1335SOL    HW1 4904   1.845   5.707   3.302
 1335SOL    HW2 4905   1.846   5.544   3.298
 1336SOL     OW 4906   0.307   6.564   5.456
 1336SOL    HW1 4907   0.214   6.528   5.448
 1336SOL    HW2 4908   0.317   6.612   5.543
 1337SOL     OW 4909   3.802   6.924   0.077
 1337SOL    HW1 4910   3.850   6.935   7.018
 1337SOL    HW2 4911   3.709   6.890   0.059
 1338SOL     OW 4912   3.242   5.141   1.246
 1338SOL    HW1 4913   3.169   5.130   1.177
 1338SOL    HW2 4914   3.202   5.134   1.337
 1339SOL     OW 4915   0.221   4.095   0.016
 1339SOL    HW1 4916   0.293   4.164   0.006
 1339SOL    HW2 4917   0.257   4.005   7.019
 1340SOL     OW 4918   2.928   1.472   6.188
 1340SOL    HW1 4919   3.017   1.517   6.202
 1340SOL    HW2 4920   2.859   1.516   6.246
 1341SOL     OW 4921   5.424   2.435   4.268
 1341SOL    HW1 4922   5.342   2.380   4.252
 1341SOL    HW2 4923   5.450   2.430   4.364
 1342SOL     OW 4924   0.505   0.075   1.565
 1342SOL    HW1 4925   0.496   0.141   1.640
 1342SOL    HW2 4926   0.433   0.006   1.572
 1343SOL     OW 4927   2.462   6.152   4.000
 1343SOL    HW1 4928   2.517   6.209   4.061
 1343SOL    HW2 4929   2.370   6.141   4.039
 1344SOL     OW 4930   5.661   1.802   2.731
 1344SOL    HW1 4931   5.614   1.866   2.671
 1344SOL    HW2 4932   5.688   1.849   2.816
 1345SOL     OW 4933   0.085   5.793   2.622
 1345SOL    HW1 4934   0.102   5.858   2.696
 1345SOL    HW2 4935   7.016   5.794   2.598
 1346SOL     OW 4936   0.175   1.502   3.090
 1346SOL    HW1 4937   0.194   1.595   3.058
 1346SOL    HW2 4938   0.182   1.439   3.012
 1347SOL     OW 4939   4.599   0.843   3.438
 1347SOL    HW1 4940   4.507   0.836   3.398
 1347SOL    HW2 4941   4.662   0.786   3.386
 1348SOL     OW 4942   4.881   5.608   4.415
 1348SOL    HW1 4943   4.848   5.697   4.444
 1348SOL    HW2 4944   4.809   5.540   4.427
 1349SOL     OW 4945   4.897   2.071   0.343
 1349SOL    HW1 4946   4.825   2.106   0.283
 1349SOL    HW2 4947   4.918   2.138   0.414
 1350SOL     OW 4948   2.679   0.861   4.854
 1350SOL    HW1 4949   2.592   0.895   4.820
 1350SOL    HW2 4950   2.752   0.889   4.792
 1351SOL     OW 4951   2.072   1.580   3.220
 1351SOL    HW1 4952   2.155   1.536   3.254
 1351SOL    HW2 4953   2.027   1.629   3.295
 1352SOL     OW 4954   1.154   6.425   4.493
 1352SOL    HW1 4955   1.096   6.482   4.434
 1352SOL    HW2 4956   1.249   6.456   4.485
 1353SOL     OW 4957   2.257   3.137   5.539
 1353SOL    HW1 4958   2.334   3.170   5.485
 1353SOL    HW2 4959   2.209   3.215   5.580
 1354SOL     OW 4960   0.729   7.024   0.057
 1354SOL    HW1 4961   0.791   0.047   0.116
 1354SOL    HW2 4962   0.666   6.970   0.113
 1355SOL     OW 4963   4.156   3.422   6.884
 1355SOL    HW1 4964   4.195   3.333   6.858
 1355SOL    HW2 4965   4.060   3.426   6.855
 1356SOL     OW 4966   3.209   2.560   1.712
 1356SOL    HW1 4967   3.134   2.524   1.768
 1356SOL    HW2 4968   3.184   2.550   1.615
 1357SOL     OW 4969   3.608   2.535   5.746
 1357SOL    HW1 4970   3.614   2.545   5.647
 1357SOL    HW2 4971   3.669   2.601   5.790
 1358SOL     OW 4972   1.918   3.537   5.773
 1358SOL    HW1 4973   1.944   3.622   5.727
 1358SOL    HW2 4974   1.865   3.480   5.710
 1359SOL     OW 4975   0.007   1.703   6.366
 1359SOL    HW1 4976   0.092   1.651   6.376
 1359SOL    HW2 4977   0.023   1.799   6.391
 1360SOL     OW 4978   3.438   3.572   4.268
 1360SOL    HW1 4979   3.531   3.596   4.296
 1360SOL    HW2 4980   3.439   3.537   4.174
 1361SOL     OW 4981   1.039   6.568   1.154
 1361SOL    HW1 4982   0.980   6.492   1.129
 1361SOL    HW2 4983   1.115   6.575   1.089
 1362SOL     OW 4984   3.141   1.710   0.135
 1362SOL    HW1 4985   3.209   1.769   0.179
 1362SOL    HW2 4986   3.067   1.692   0.200
 1363SOL     OW 4987   0.008   6.475   0.751
 1363SOL    HW1 4988   6.955   6.445   0.699
 1363SOL    HW2 4989   0.006   6.574   0.760
 1364SOL     OW 4990   1.160   3.655   0.851
 1364SOL    HW1 4991   1.254   3.621   0.853
 1364SOL    HW2 4992   1.123   3.656   0.943
 1365SOL     OW 4993   0.871   3.364   6.072
 1365SOL    HW1 4994   0.962   3.384   6.107
 1365SOL    HW2 4995   0.806   3.430   6.109
 1366SOL     OW 4996   3.714   0.211   1.177
 1366SOL    HW1 4997   3.646   0.274   1.216
 1366SOL    HW2 4998   3.689   0.117   1.200
 1367SOL     OW 4999   1.269   6.876   4.773
 1367SOL    HW1 5000   1.207   6.904   4.700
 1367SOL    HW2 5001   1.236   6.791   4.814
 1368SOL     OW 5002   1.661   6.446   4.422
 1368SOL    HW1 5003   1.689   6.357   4.458
 1368SOL    HW2 5004   1.741   6.506   4.413
 1369SOL     OW 5005   1.974   5.680   3.981
 1369SOL    HW1 5006   1.912   5.738   4.034
 1369SOL    HW2 5007   1.922   5.628   3.913
 1370SOL     OW 5008   6.904   2.569   2.984
 1370SOL    HW1 5009   6.840   2.560   2.907
 1370SOL    HW2 5010   6.963   2.488   2.988
 1371SOL     OW 5011   6.112   2.040   5.839
 1371SOL    HW1 5012   6.088   1.965   5.901
 1371SOL    HW2 5013   6.028   2.079   5.801
 1372SOL     OW 5014   5.668   2.673   1.587
 1372SOL    HW1 5015   5.580   2.665   1.633
 1372SOL    HW2 5016   5.695   2.584   1.550
 1373SOL     OW 5017   5.657   2.681   1.969
 1373SOL    HW1 5018   5.685   2.748   1.900
 1373SOL    HW2 5019   5.558   2.669   1.966
 1374SOL     OW 5020   4.072   3.181   2.450
 1374SOL    HW1 5021   4.013   3.108   2.484
 1374SOL    HW2 5022   4.083   3.172   2.351
 1375SOL     OW 5023   5.198   4.858   4.668
 1375SOL    HW1 5024   5.179   4.875   4.765
 1375SOL    HW2 5025   5.187   4.943   4.617
 1376SOL     OW 5026   2.923   4.208   5.602
 1376SOL    HW1 5027   2.978   4.241   5.525
 1376SOL    HW2 5028   2.919   4.279   5.672
 1377SOL     OW 5029   0.972   1.741   3.282
 1377SOL    HW1 5030   1.040   1.680   3.324
 1377SOL    HW2 5031   0.969   1.826   3.334
 1378SOL     OW 5032   4.661   2.160   4.251
 1378SOL    HW1 5033   4.714   2.206   4.179
 1378SOL    HW2 5034   4.619   2.077   4.214
 1379SOL     OW 5035   4.343   5.519   0.152
 1379SOL    HW1 5036   4.312   5.437   0.105
 1379SOL    HW2 5037   4.329   5.599   0.092
 1380SOL     OW 5038   0.376   5.928   4.142
 1380SOL    HW1 5039   0.362   6.019   4.182
 1380SOL    HW2 5040   0.421   5.938   4.053
 1381SOL     OW 5041   6.360   3.038   5.819
 1381SOL    HW1 5042   6.296   3.000   5.886
 1381SOL    HW2 5043   6.316   3.045   5.730
 1382SOL     OW 5044   4.041   2.140   6.391
 1382SOL    HW1 5045   4.053   2.041   6.381
 1382SOL    HW2 5046   4.114   2.188   6.342
 1383SOL     OW 5047   6.284   0.799   1.139
 1383SOL    HW1 5048   6.341   0.721   1.114
 1383SOL    HW2 5049   6.291   0.869   1.068
 1384SOL     OW 5050   6.136   2.315   2.112
 1384SOL    HW1 5051   6.104   2.287   2.203
 1384SOL    HW2 5052   6.059   2.354   2.060
 1385SOL     OW 5053   6.983   6.013   1.855
 1385SOL    HW1 5054   0.030   5.976   1.910
 1385SOL    HW2 5055   6.988   5.975   1.763
 1386SOL     OW 5056   1.910   6.649   3.832
 1386SOL    HW1 5057   1.946   6.562   3.865
 1386SOL    HW2 5058   1.852   6.633   3.752
 1387SOL     OW 5059   1.574   6.055   1.605
 1387SOL    HW1 5060   1.566   6.032   1.508
 1387SOL    HW2 5061   1.661   6.021   1.640
 1388SOL     OW 5062   6.695   0.253   1.748
 1388SOL    HW1 5063   6.665   0.254   1.844
 1388SOL    HW2 5064   6.620   0.286   1.690
 1389SOL     OW 5065   6.188   1.192   2.153
 1389SOL    HW1 5066   6.278   1.235   2.145
 1389SOL    HW2 5067   6.188   1.128   2.229
 1390SOL     OW 5068   1.615   1.703   4.406
 1390SOL    HW1 5069   1.690   1.762   4.436
 1390SOL    HW2 5070   1.536   1.759   4.381
 1391SOL     OW 5071   0.676   2.769   3.752
 1391SOL    HW1 5072   0.665   2.729   3.843
 1391SOL    HW2 5073   0.626   2.714   3.685
 1392SOL     OW 5074   5.352   4.469   4.114
 1392SOL    HW1 5075   5.386   4.378   4.138
 1392SOL    HW2 5076   5.349   4.527   4.195
 1393SOL     OW 5077   3.641   4.820   6.637
 1393SOL    HW1 5078   3.547   4.842   6.612
 1393SOL    HW2 5079   3.695   4.905   6.640
 1394SOL     OW 5080   1.245   6.313   6.936
 1394SOL    HW1 5081   1.163   6.315   6.994
 1394SOL    HW2 5082   1.259   6.220   6.902
 1395SOL     OW 5083   3.809   4.441   5.922
 1395SOL    HW1 5084   3.715   4.420   5.949
 1395SOL    HW2 5085   3.808   4.489   5.834
 1396SOL     OW 5086   5.519   6.079   3.485
 1396SOL    HW1 5087   5.515   6.093   3.387
 1396SOL    HW2 5088   5.551   5.986   3.504
 1397SOL     OW 5089   4.962   6.268   5.151
 1397SOL    HW1 5090   4.869   6.282   5.186
 1397SOL    HW2 5091   5.021   6.237   5.225
 1398SOL     OW 5092   1.902   0.692   4.658
 1398SOL    HW1 5093   1.986   0.655   4.696
 1398SOL    HW2 5094   1.891   0.787   4.687
 1399SOL     OW 5095   3.156   5.723   2.192
 1399SOL    HW1 5096   3.117   5.693   2.104
 1399SOL    HW2 5097   3.083   5.762   2.248
 1400SOL     OW 5098   1.286   0.337   3.071
 1400SOL    HW1 5099   1.372   0.360   3.118
 1400SOL    HW2 5100   1.277   0.393   2.989
 1401SOL     OW 5101   6.604   1.643   4.334
 1401SOL    HW1 5102   6.648   1.566   4.381
 1401SOL    HW2 5103   6.535   1.608   4.271
 1402SOL     OW 5104   6.289   3.033   6.941
 1402SOL    HW1 5105   6.204   3.059   6.986
 1402SOL    HW2 5106   6.271   3.014   6.844
 1403SOL     OW 5107   3.835   0.581   2.002
 1403SOL    HW1 5108   3.908   0.580   1.935
 1403SOL    HW2 5109   3.763   0.645   1.972
 1404SOL     OW 5110   5.361   2.087   0.745
 1404SOL    HW1 5111   5.338   2.184   0.733
 1404SOL    HW2 5112   5.285   2.040   0.790
 1405SOL     OW 5113   3.204   2.788   1.365
 1405SOL    HW1 5114   3.192   2.691   1.387
 1405SOL    HW2 5115   3.152   2.843   1.431
 1406SOL     OW 5116   1.427   3.883   1.938
 1406SOL    HW1 5117   1.434   3.982   1.952
 1406SOL    HW2 5118   1.425   3.837   2.026
 1407SOL     OW 5119   6.788   2.354   2.459
 1407SOL    HW1 5120   6.763   2.261   2.433
 1407SOL    HW2 5121   6.791   2.361   2.559
 1408SOL     OW 5122   5.983   6.005   6.189
 1408SOL    HW1 5123   5.989   5.977   6.093
 1408SOL    HW2 5124   6.067   5.981   6.236
 1409SOL     OW 5125   0.320   1.619   4.119
 1409SOL    HW1 5126   0.323   1.655   4.026
 1409SOL    HW2 5127   0.257   1.541   4.123
 1410SOL     OW 5128   6.099   2.102   7.026
 1410SOL    HW1 5129   6.138   2.078   6.938
 1410SOL    HW2 5130   6.008   2.062   0.007
 1411SOL     OW 5131   2.022   0.802   2.169
 1411SOL    HW1 5132   2.016   0.704   2.150
 1411SOL    HW2 5133   2.086   0.817   2.244
 1412SOL     OW 5134   0.829   2.588   6.922
 1412SOL    HW1 5135   0.816   2.641   7.006
 1412SOL    HW2 5136   0.926   2.562   6.914
 1413SOL     OW 5137   2.299   6.739   2.944
 1413SOL    HW1 5138   2.390   6.780   2.933
 1413SOL    HW2 5139   2.281   6.723   3.041
 1414SOL     OW 5140   2.768   0.841   1.860
 1414SOL    HW1 5141   2.855   0.871   1.901
 1414SOL    HW2 5142   2.772   0.743   1.841
 1415SOL     OW 5143   5.009   5.998   4.813
 1415SOL    HW1 5144   5.107   5.995   4.830
 1415SOL    HW2 5145   4.988   5.952   4.726
 1416SOL     OW 5146   4.399   5.423   3.655
 1416SOL    HW1 5147   4.366   5.501   3.602
 1416SOL    HW2 5148   4.452   5.363   3.596
 1417SOL     OW 5149   3.210   2.995   6.164
 1417SOL    HW1 5150   3.253   2.967   6.077
 1417SOL    HW2 5151   3.209   3.095   6.169
 1418SOL     OW 5152   3.521   4.016   3.200
 1418SOL    HW1 5153   3.542   4.054   3.290
 1418SOL    HW2 5154   3.456   3.940   3.210
 1419SOL     OW 5155   3.939   6.247   3.862
 1419SOL    HW1 5156   3.990   6.186   3.801
 1419SOL    HW2 5157   3.882   6.309   3.807
 1420SOL     OW 5158   0.448   6.033   2.045
 1420SOL    HW1 5159   0.468   6.024   2.142
 1420SOL    HW2 5160   0.521   6.085   2.000
 1421SOL     OW 5161   4.033   0.870   2.114
 1421SOL    HW1 5162   3.967   0.942   2.137
 1421SOL    HW2 5163   3.991   0.805   2.052
 1422SOL     OW 5164   2.559   7.000   0.424
 1422SOL    HW1 5165   2.533   6.951   0.507
 1422SOL    HW2 5166   2.595   0.062   0.449
 1423SOL     OW 5167   5.181   0.758   1.744
 1423SOL    HW1 5168   5.243   0.832   1.769
 1423SOL    HW2 5169   5.229   0.670   1.753
 1424SOL     OW 5170   0.012   5.247   2.545
 1424SOL    HW1 5171   6.982   5.179   2.590
 1424SOL    HW2 5172   0.108   5.228   2.566
 1425SOL     OW 5173   1.735   0.252   4.442
 1425SOL    HW1 5174   1.660   0.286   4.386
 1425SOL    HW2 5175   1.776   0.327   4.494
 1426SOL     OW 5176   1.840   1.254   5.224
 1426SOL    HW1 5177   1.759   1.314   5.224
 1426SOL    HW2 5178   1.919   1.306   5.256
 1427SOL     OW 5179   5.678   0.907   5.499
 1427SOL    HW1 5180   5.611   0.890   5.427
 1427SOL    HW2 5181   5.759   0.951   5.460
 1428SOL     OW 5182   5.404   1.124   0.195
 1428SOL    HW1 5183   5.340   1.198   0.217
 1428SOL    HW2 5184   5.459   1.103   0.276
 1429SOL     OW 5185   5.687   6.609   7.018
 1429SOL    HW1 5186   5.698   6.583   0.086
 1429SOL    HW2 5187   5.774   6.646   6.984
 1430SOL     OW 5188   2.182   4.419   3.188
 1430SOL    HW1 5189   2.259   4.400   3.248
 1430SOL    HW2 5190   2.208   4.399   3.093
 1431SOL     OW 5191   1.331   0.126   0.773
 1431SOL    HW1 5192   1.420   0.132   0.728
 1431SOL    HW2 5193   1.325   0.041   0.825
 1432SOL     OW 5194   2.937   0.191   0.888
 1432SOL    HW1 5195   2.981   0.176   0.799
 1432SOL    HW2 5196   2.979   0.269   0.933
 1433SOL     OW 5197   4.265   0.254   3.831
 1433SOL    HW1 5198   4.305   0.289   3.746
 1433SOL    HW2 5199   4.333   0.199   3.879
 1434SOL     OW 5200   1.212   0.965   5.165
 1434SOL    HW1 5201   1.169   0.995   5.080
 1434SOL    HW2 5202   1.177   1.020   5.241
 1435SOL     OW 5203   6.959   2.117   3.333
 1435SOL    HW1 5204   6.859   2.116   3.336
 1435SOL    HW2 5205   6.995   2.141   3.422
 1436SOL     OW 5206   4.536   3.895   0.746
 1436SOL    HW1 5207   4.480   3.827   0.794
 1436SOL    HW2 5208   4.629   3.861   0.736
 1437SOL     OW 5209   4.675   1.518   2.008
 1437SOL    HW1 5210   4.714   1.426   2.003
 1437SOL    HW2 5211   4.576   1.511   2.021
 1438SOL     OW 5212   2.493   0.637   1.644
 1438SOL    HW1 5213   2.434   0.589   1.709
 1438SOL    HW2 5214   2.587   0.607   1.655
 1439SOL     OW 5215   0.621   5.820   2.279
 1439SOL    HW1 5216   0.666   5.774   2.202
 1439SOL    HW2 5217   0.684   5.822   2.357
 1440SOL     OW 5218   1.865   3.165   2.027
 1440SOL    HW1 5219   1.925   3.138   2.103
 1440SOL    HW2 5220   1.878   3.262   2.007
 1441SOL     OW 5221   5.274   5.963   0.090
 1441SOL    HW1 5222   5.183   5.983   0.127
 1441SOL    HW2 5223   5.330   6.045   0.092
 1442SOL     OW 5224   5.480   5.372   0.572
 1442SOL    HW1 5225   5.528   5.449   0.614
 1442SOL    HW2 5226   5.398   5.405   0.525
 1443SOL     OW 5227   0.313   2.465   2.039
 1443SOL    HW1 5228   0.356   2.553   2.061
 1443SOL    HW2 5229   0.371   2.415   1.975
 1444SOL     OW 5230   0.622   5.579   6.349
 1444SOL    HW1 5231   0.642   5.676   6.363
 1444SOL    HW2 5232   0.540   5.554   6.401
 1445SOL     OW 5233   0.540   2.678   1.217
 1445SOL    HW1 5234   0.607   2.721   1.157
 1445SOL    HW2 5235   0.448   2.707   1.191
 1446SOL     OW 5236   6.857   5.747   0.662
 1446SOL    HW1 5237   6.861   5.761   0.761
 1446SOL    HW2 5238   6.894   5.826   0.615
 1447SOL     OW 5239   6.541   5.540   4.029
 1447SOL    HW1 5240   6.481   5.470   3.990
 1447SOL    HW2 5241   6.622   5.496   4.068
 1448SOL     OW 5242   0.925   1.559   6.262
 1448SOL    HW1 5243   0.939   1.602   6.173
 1448SOL    HW2 5244   0.828   1.537   6.273
 1449SOL     OW 5245   2.081   3.390   3.129
 1449SOL    HW1 5246   2.053   3.484   3.108
 1449SOL    HW2 5247   2.096   3.340   3.043
 1450SOL     OW 5248   3.252   2.156   3.901
 1450SOL    HW1 5249   3.318   2.083   3.921
 1450SOL    HW2 5250   3.189   2.165   3.978
 1451SOL     OW 5251   3.279   1.433   2.514
 1451SOL    HW1 5252   3.331   1.518   2.505
 1451SOL    HW2 5253   3.197   1.438   2.457
 1452SOL     OW 5254   4.234   2.768   6.520
 1452SOL    HW1 5255   4.259   2.714   6.600
 1452SOL    HW2 5256   4.152   2.822   6.540
 1453SOL     OW 5257   0.866   3.912   5.332
 1453SOL    HW1 5258   0.807   3.900   5.412
 1453SOL    HW2 5259   0.853   3.836   5.269
 1454SOL     OW 5260   3.343   2.104   3.002
 1454SOL    HW1 5261   3.442   2.115   3.009
 1454SOL    HW2 5262   3.300   2.141   3.085
 1455SOL     OW 5263   0.272   5.208   2.605
 1455SOL    HW1 5264   0.271   5.113   2.636
 1455SOL    HW2 5265   0.357   5.252   2.633
 1456SOL     OW 5266   6.452   5.775   4.103
 1456SOL    HW1 5267   6.431   5.751   4.198
 1456SOL    HW2 5268   6.493   5.697   4.058
 1457SOL     OW 5269   0.932   5.131   6.516
 1457SOL    HW1 5270   0.967   5.038   6.520
 1457SOL    HW2 5271   0.889   5.147   6.427
 1458SOL     OW 5272   6.047   5.254   4.862
 1458SOL    HW1 5273   6.061   5.353   4.868
 1458SOL    HW2 5274   6.020   5.218   4.951
 1459SOL     OW 5275   6.515   6.630   4.833
 1459SOL    HW1 5276   6.468   6.717   4.822
 1459SOL    HW2 5277   6.484   6.585   4.916
 1460SOL     OW 5278   1.861   6.018   5.278
 1460SOL    HW1 5279   1.836   5.949   5.210
 1460SOL    HW2 5280   1.918   5.975   5.349
 1461SOL     OW 5281   6.050   3.132   4.087
 1461SOL    HW1 5282   5.964   3.150   4.039
 1461SOL    HW2 5283   6.031   3.090   4.175
 1462SOL     OW 5284   0.552   1.626   1.813
 1462SOL    HW1 5285   0.483   1.694   1.838
 1462SOL    HW2 5286   0.634   1.641   1.868
 1463SOL     OW 5287   1.488   5.270   6.972
 1463SOL    HW1 5288   1.440   5.249   0.029
 1463SOL    HW2 5289   1.536   5.188   6.940
 1464SOL     OW 5290   1.055   4.377   4.758
 1464SOL    HW1 5291   1.039   4.475   4.744
 1464SOL    HW2 5292   1.153   4.360   4.768
 1465SOL     OW 5293   1.336   2.655   5.435
 1465SOL    HW1 5294   1.281   2.614   5.507
 1465SOL    HW2 5295   1.349   2.588   5.362
 1466SOL     OW 5296   5.275   0.975   2.679
 1466SOL    HW1 5297   5.374   0.978   2.664
 1466SOL    HW2 5298   5.255   1.010   2.771
 1467SOL     OW 5299   0.624   6.975   3.456
 1467SOL    HW1 5300   0.712   6.968   3.503
 1467SOL    HW2 5301   0.582   6.885   3.452
 1468SOL     OW 5302   3.885   6.045   2.985
 1468SOL    HW1 5303   3.929   6.069   3.071
 1468SOL    HW2 5304   3.787   6.066   2.990
 1469SOL     OW 5305   5.758   4.200   2.723
 1469SOL    HW1 5306   5.821   4.197   2.801
 1469SOL    HW2 5307   5.779   4.126   2.660
 1470SOL     OW 5308   6.224   2.140   2.502
 1470SOL    HW1 5309   6.166   2.170   2.426
 1470SOL    HW2 5310   6.189   2.055   2.539
 1471SOL     OW 5311   4.925   0.141   0.316
 1471SOL    HW1 5312   5.022   0.122   0.301
 1471SOL    HW2 5313   4.871   0.098   0.244
 1472SOL     OW 5314   1.841   1.040   6.614
 1472SOL    HW1 5315   1.872   0.945   6.624
 1472SOL    HW2 5316   1.816   1.057   6.519
 1473SOL     OW 5317   1.268   5.991   3.581
 1473SOL    HW1 5318   1.191   5.957   3.636
 1473SOL    HW2 5319   1.306   6.073   3.624
 1474SOL     OW 5320   1.993   5.005   1.933
 1474SOL    HW1 5321   1.950   4.917   1.952
 1474SOL    HW2 5322   2.038   5.001   1.843
 1475SOL     OW 5323   5.977   0.313   6.644
 1475SOL    HW1 5324   5.919   0.388   6.676
 1475SOL    HW2 5325   6.072   0.346   6.638
 1476SOL     OW 5326   5.513   7.017   6.414
 1476SOL    HW1 5327   5.450   7.010   6.337
 1476SOL    HW2 5328   5.534   6.925   6.449
 1477SOL     OW 5329   3.400   4.286   1.604
 1477SOL    HW1 5330   3.318   4.323   1.560
 1477SOL    HW2 5331   3.378   4.198   1.647
 1478SOL     OW 5332   4.917   4.653   6.304
 1478SOL    HW1 5333   4.950   4.661   6.397
 1478SOL    HW2 5334   4.863   4.734   6.281
 1479SOL     OW 5335   4.930   4.186   0.973
 1479SOL    HW1 5336   4.954   4.259   0.909
 1479SOL    HW2 5337   4.919   4.100   0.922
 1480SOL     OW 5338   2.679   1.101   4.452
 1480SOL    HW1 5339   2.732   1.022   4.483
 1480SOL    HW2 5340   2.648   1.086   4.358
 1481SOL     OW 5341   4.468   2.192   5.831
 1481SOL    HW1 5342   4.393   2.234   5.882
 1481SOL    HW2 5343   4.459   2.092   5.834
 1482SOL     OW 5344   6.284   1.345   1.863
 1482SOL    HW1 5345   6.203   1.403   1.857
 1482SOL    HW2 5346   6.328   1.360   1.951
 1483SOL     OW 5347   6.289   0.311   6.930
 1483SOL    HW1 5348   6.344   0.230   6.950
 1483SOL    HW2 5349   6.192   0.289   6.940
 1484SOL     OW 5350   3.627   5.648   5.262
 1484SOL    HW1 5351   3.608   5.740   5.296
 1484SOL    HW2 5352   3.646   5.651   5.164
 1485SOL     OW 5353   4.895   3.581   3.820
 1485SOL    HW1 5354   4.899   3.628   3.908
 1485SOL    HW2 5355   4.931   3.641   3.748
 1486SOL     OW 5356   4.918   6.071   3.919
 1486SOL    HW1 5357   4.835   6.119   3.888
 1486SOL    HW2 5358   4.894   5.978   3.945
 1487SOL     OW 5359   6.060   1.293   0.483
 1487SOL    HW1 5360   6.059   1.224   0.556
 1487SOL    HW2 5361   6.082   1.382   0.522
 1488SOL     OW 5362   6.362   2.328   2.680
 1488SOL    HW1 5363   6.370   2.387   2.600
 1488SOL    HW2 5364   6.303   2.250   2.658
 1489SOL     OW 5365   3.066   5.253   0.246
 1489SOL    HW1 5366   3.089   5.209   0.160
 1489SOL    HW2 5367   2.967   5.271   0.249
 1490SOL     OW 5368   6.711   3.222   2.379
 1490SOL    HW1 5369   6.753   3.196   2.465
 1490SOL    HW2 5370   6.782   3.252   2.315
 1491SOL     OW 5371   5.249   3.021   3.683
 1491SOL    HW1 5372   5.224   3.113   3.654
 1491SOL    HW2 5373   5.237   2.957   3.607
 1492SOL     OW 5374   0.589   2.457   2.506
 1492SOL    HW1 5375   0.668   2.397   2.501
 1492SOL    HW2 5376   0.527   2.438   2.430
 1493SOL     OW 5377   6.054   2.243   6.507
 1493SOL    HW1 5378   5.997   2.211   6.432
 1493SOL    HW2 5379   6.137   2.286   6.470
 1494SOL     OW 5380   0.388   4.272   6.365
 1494SOL    HW1 5381   0.400   4.295   6.462
 1494SOL    HW2 5382   0.414   4.176   6.350
 1495SOL     OW 5383   6.689   4.085   4.124
 1495SOL    HW1 5384   6.694   4.182   4.149
 1495SOL    HW2 5385   6.631   4.075   4.043
 1496SOL     OW 5386   6.879   6.347   6.014
 1496SOL    HW1 5387   6.861   6.445   6.012
 1496SOL    HW2 5388   6.915   6.321   6.103
 1497SOL     OW 5389   5.777   2.409   2.211
 1497SOL    HW1 5390   5.680   2.422   2.190
 1497SOL    HW2 5391   5.824   2.497   2.205
 1498SOL     OW 5392   3.963   4.510   0.558
 1498SOL    HW1 5393   3.996   4.496   0.651
 1498SOL    HW2 5394   3.894   4.583   0.558
 1499SOL     OW 5395   0.298   4.426   4.014
 1499SOL    HW1 5396   0.256   4.496   4.071
 1499SOL    HW2 5397   0.228   4.362   3.983
 1500SOL     OW 5398   1.680   5.610   1.984
 1500SOL    HW1 5399   1.750   5.604   2.055
 1500SOL    HW2 5400   1.621   5.689   2.001
 1501SOL     OW 5401   6.633   1.755   0.538
 1501SOL    HW1 5402   6.706   1.709   0.588
 1501SOL    HW2 5403   6.587   1.690   0.478
 1502SOL     OW 5404   0.176   6.490   6.582
 1502SOL    HW1 5405   0.141   6.542   6.660
 1502SOL    HW2 5406   0.110   6.495   6.507
 1503SOL     OW 5407   0.149   5.008   1.511
 1503SOL    HW1 5408   0.127   5.096   1.553
 1503SOL    HW2 5409   0.067   4.952   1.504
 1504SOL     OW 5410   1.828   0.020   3.352
 1504SOL    HW1 5411   1.826   0.025   3.252
 1504SOL    HW2 5412   1.739   0.050   3.388
 1505SOL     OW 5413   6.350   5.209   4.986
 1505SOL    HW1 5414   6.302   5.239   5.069
 1505SOL    HW2 5415   6.361   5.286   4.924
 1506SOL     OW 5416   1.259   1.194   0.860
 1506SOL    HW1 5417   1.318   1.187   0.940
 1506SOL    HW2 5418   1.298   1.141   0.785
 1507SOL     OW 5419   2.783   2.094   3.294
 1507SOL    HW1 5420   2.820   2.147   3.218
 1507SOL    HW2 5421   2.786   2.150   3.378
 1508SOL     OW 5422   1.862   0.294   1.910
 1508SOL    HW1 5423   1.938   0.358   1.895
 1508SOL    HW2 5424   1.833   0.299   2.005
 1509SOL     OW 5425   4.884   1.148   3.938
 1509SOL    HW1 5426   4.928   1.228   3.979
 1509SOL    HW2 5427   4.912   1.139   3.843
 1510SOL     OW 5428   3.609   6.355   4.987
 1510SOL    HW1 5429   3.598   6.446   5.027
 1510SOL    HW2 5430   3.576   6.356   4.893
 1511SOL     OW 5431   3.266   3.916   5.200
 1511SOL    HW1 5432   3.226   3.992   5.149
 1511SOL    HW2 5433   3.233   3.918   5.295
 1512SOL     OW 5434   5.336   6.346   0.609
 1512SOL    HW1 5435   5.348   6.297   0.695
 1512SOL    HW2 5436   5.319   6.280   0.536
 1513SOL     OW 5437   2.949   0.873   6.027
 1513SOL    HW1 5438   2.990   0.960   5.999
 1513SOL    HW2 5439   2.856   0.867   5.989
 1514SOL     OW 5440   2.825   2.228   6.899
 1514SOL    HW1 5441   2.859   2.252   6.990
 1514SOL    HW2 5442   2.835   2.306   6.837
 1515SOL     OW 5443   3.453   0.644   2.473
 1515SOL    HW1 5444   3.384   0.716   2.482
 1515SOL    HW2 5445   3.434   0.571   2.539
 1516SOL     OW 5446   6.326   6.781   6.064
 1516SOL    HW1 5447   6.370   6.859   6.021
 1516SOL    HW2 5448   6.396   6.717   6.096
 1517SOL     OW 5449   2.672   6.095   2.997
 1517SOL    HW1 5450   2.642   6.171   3.055
 1517SOL    HW2 5451   2.714   6.024   3.053
 1518SOL     OW 5452   0.886   3.089   6.932
 1518SOL    HW1 5453   0.855   3.016   6.871
 1518SOL    HW2 5454   0.810   3.121   6.988
 1519SOL     OW 5455   0.163   4.251   6.743
 1519SOL    HW1 5456   0.093   4.212   6.683
 1519SOL    HW2 5457   0.234   4.183   6.760
 1520SOL     OW 5458   0.078   6.685   3.578
 1520SOL    HW1 5459   0.149   6.696   3.648
 1520SOL    HW2 5460   0.116   6.704   3.488
 1521SOL     OW 5461   1.622   4.969   6.510
 1521SOL    HW1 5462   1.705   4.953   6.564
 1521SOL    HW2 5463   1.601   5.067   6.510
 1522SOL     OW 5464   5.318   6.380   4.242
 1522SOL    HW1 5465   5.400   6.376   4.300
 1522SOL    HW2 5466   5.310   6.295   4.191
 1523SOL     OW 5467   2.668   6.605   0.655
 1523SOL    HW1 5468   2.629   6.540   0.720
 1523SOL    HW2 5469   2.659   6.697   0.691
 1524SOL     OW 5470   1.958   2.473   3.790
 1524SOL    HW1 5471   1.942   2.511   3.881
 1524SOL    HW2 5472   1.888   2.506   3.727
 1525SOL     OW 5473   5.066   4.345   6.356
 1525SOL    HW1 5474   4.993   4.385   6.301
 1525SOL    HW2 5475   5.078   4.249   6.329
 1526SOL     OW 5476   0.932   1.703   1.189
 1526SOL    HW1 5477   0.938   1.608   1.158
 1526SOL    HW2 5478   0.962   1.709   1.284
 1527SOL     OW 5479   4.945   1.546   4.618
 1527SOL    HW1 5480   4.922   1.450   4.602
 1527SOL    HW2 5481   5.014   1.575   4.552
 1528SOL     OW 5482   3.784   3.267   2.521
 1528SOL    HW1 5483   3.694   3.224   2.533
 1528SOL    HW2 5484   3.811   3.260   2.425
 1529SOL     OW 5485   4.240   1.240   5.567
 1529SOL    HW1 5486   4.167   1.188   5.612
 1529SOL    HW2 5487   4.238   1.334   5.600
 1530SOL     OW 5488   2.082   0.137   0.982
 1530SOL    HW1 5489   2.144   0.176   0.914
 1530SOL    HW2 5490   2.037   0.210   1.033
 1531SOL     OW 5491   5.032   6.006   4.351
 1531SOL    HW1 5492   5.057   5.916   4.313
 1531SOL    HW2 5493   5.006   6.067   4.276
 1532SOL     OW 5494   2.481   5.956   1.497
 1532SOL    HW1 5495   2.392   5.989   1.528
 1532SOL    HW2 5496   2.552   6.021   1.524
 1533SOL     OW 5497   5.984   6.432   1.058
 1533SOL    HW1 5498   5.912   6.484   1.014
 1533SOL    HW2 5499   5.999   6.346   1.009
 1534SOL     OW 5500   2.251   4.802   6.458
 1534SOL    HW1 5501   2.312   4.882   6.456
 1534SOL    HW2 5502   2.161   4.828   6.425
 1535SOL     OW 5503   5.306   4.360   3.754
 1535SOL    HW1 5504   5.221   4.409   3.737
 1535SOL    HW2 5505   5.293   4.294   3.828
 1536SOL     OW 5506   4.282   4.052   6.469
 1536SOL    HW1 5507   4.257   4.023   6.562
 1536SOL    HW2 5508   4.350   4.125   6.474
 1537SOL     OW 5509   2.776   5.061   2.700
 1537SOL    HW1 5510   2.701   5.015   2.652
 1537SOL    HW2 5511   2.848   5.083   2.634
 1538SOL     OW 5512   2.957   1.163   0.376
 1538SOL    HW1 5513   2.887   1.228   0.407
 1538SOL    HW2 5514   2.919   1.071   0.376
 1539SOL     OW 5515   6.970   3.420   0.860
 1539SOL    HW1 5516   6.890   3.361   0.847
 1539SOL    HW2 5517   6.999   3.416   0.955
 1540SOL     OW 5518   3.540   6.570   3.299
 1540SOL    HW1 5519   3.503   6.574   3.391
 1540SOL    HW2 5520   3.478   6.518   3.240
 1541SOL     OW 5521   4.580   2.600   5.540
 1541SOL    HW1 5522   4.601   2.523   5.481
 1541SOL    HW2 5523   4.496   2.581   5.591
 1542SOL     OW 5524   6.708   5.380   2.707
 1542SOL    HW1 5525   6.799   5.420   2.714
 1542SOL    HW2 5526   6.651   5.437   2.648
 1543SOL     OW 5527   2.891   5.387   0.526
 1543SOL    HW1 5528   2.910   5.338   0.612
 1543SOL    HW2 5529   2.977   5.400   0.477
 1544SOL     OW 5530   4.011   3.222   4.161
 1544SOL    HW1 5531   3.964   3.220   4.073
 1544SOL    HW2 5532   3.997   3.135   4.209
 1545SOL     OW 5533   5.898   5.476   1.546
 1545SOL    HW1 5534   5.823   5.496   1.608
 1545SOL    HW2 5535   5.981   5.457   1.599
 1546SOL     OW 5536   6.207   6.254   5.292
 1546SOL    HW1 5537   6.135   6.270   5.225
 1546SOL    HW2 5538   6.184   6.173   5.347
 1547SOL     OW 5539   1.876   3.590   6.045
 1547SOL    HW1 5540   1.949   3.629   6.101
 1547SOL    HW2 5541   1.912   3.569   5.954
 1548SOL     OW 5542   6.527   2.269   0.684
 1548SOL    HW1 5543   6.448   2.322   0.715
 1548SOL    HW2 5544   6.502   2.172   0.680
 1549SOL     OW 5545   4.806   1.059   4.665
 1549SOL    HW1 5546   4.710   1.050   4.639
 1549SOL    HW2 5547   4.835   0.975   4.712
 1550SOL     OW 5548   2.981   3.298   4.019
 1550SOL    HW1 5549   3.013   3.241   4.094
 1550SOL    HW2 5550   2.886   3.274   3.997
 1551SOL     OW 5551   6.817   5.146   5.796
 1551SOL    HW1 5552   6.811   5.114   5.891
 1551SOL    HW2 5553   6.837   5.244   5.795
 1552SOL     OW 5554   1.851   4.502   1.451
 1552SOL    HW1 5555   1.766   4.499   1.399
 1552SOL    HW2 5556   1.881   4.597   1.462
 1553SOL     OW 5557   1.860   2.378   5.527
 1553SOL    HW1 5558   1.959   2.389   5.518
 1553SOL    HW2 5559   1.818   2.467   5.545
 1554SOL     OW 5560   4.555   1.626   3.366
 1554SOL    HW1 5561   4.492   1.648   3.292
 1554SOL    HW2 5562   4.517   1.658   3.453
 1555SOL     OW 5563   5.896   5.294   5.543
 1555SOL    HW1 5564   5.813   5.292   5.488
 1555SOL    HW2 5565   5.906   5.207   5.592
 1556SOL     OW 5566   1.820   1.205   5.948
 1556SOL    HW1 5567   1.740   1.239   5.899
 1556SOL    HW2 5568   1.900   1.204   5.887
 1557SOL     OW 5569   0.806   1.991   5.169
 1557SOL    HW1 5570   0.825   1.898   5.139
 1557SOL    HW2 5571   0.891   2.044   5.170
 1558SOL     OW 5572   0.142   6.474   4.575
 1558SOL    HW1 5573   0.221   6.430   4.617
 1558SOL    HW2 5574   0.141   6.455   4.476
 1559SOL     OW 5575   1.495   1.426   5.440
 1559SOL    HW1 5576   1.396   1.437   5.441
 1559SOL    HW2 5577   1.532   1.463   5.355
 1560SOL     OW 5578   0.023   0.330   0.133
 1560SOL    HW1 5579   0.048   0.316   0.229
 1560SOL    HW2 5580   0.099   0.304   0.074
 1561SOL     OW 5581   6.465   6.648   1.914
 1561SOL    HW1 5582   6.460   6.631   2.012
 1561SOL    HW2 5583   6.447   6.745   1.896
 1562SOL     OW 5584   5.433   0.707   4.049
 1562SOL    HW1 5585   5.365   0.635   4.062
 1562SOL    HW2 5586   5.514   0.669   4.005
 1563SOL     OW 5587   3.172   6.924   5.994
 1563SOL    HW1 5588   3.075   6.911   6.014
 1563SOL    HW2 5589   3.216   6.835   5.982
 1564SOL     OW 5590   1.286   2.044   3.318
 1564SOL    HW1 5591   1.352   2.087   3.380
 1564SOL    HW2 5592   1.295   2.084   3.227
 1565SOL     OW 5593   6.339   4.564   1.036
 1565SOL    HW1 5594   6.269   4.541   1.104
 1565SOL    HW2 5595   6.317   4.652   0.994
 1566SOL     OW 5596   6.330   4.540   2.046
 1566SOL    HW1 5597   6.245   4.528   1.993
 1566SOL    HW2 5598   6.338   4.466   2.113
 1567SOL     OW 5599   6.767   5.715   5.479
 1567SOL    HW1 5600   6.722   5.752   5.560
 1567SOL    HW2 5601   6.842   5.775   5.452
 1568SOL     OW 5602   6.923   6.898   0.332
 1568SOL    HW1 5603   6.884   6.929   0.246
 1568SOL    HW2 5604   6.958   6.805   0.321
 1569SOL     OW 5605   3.307   6.565   5.683
 1569SOL    HW1 5606   3.284   6.508   5.604
 1569SOL    HW2 5607   3.227   6.618   5.710
 1570SOL     OW 5608   3.047   2.327   1.687
 1570SOL    HW1 5609   2.992   2.386   1.747
 1570SOL    HW2 5610   3.139   2.318   1.726
 1571SOL     OW 5611   0.446   3.431   0.778
 1571SOL    HW1 5612   0.391   3.455   0.697
 1571SOL    HW2 5613   0.474   3.335   0.772
 1572SOL     OW 5614   0.891   5.518   2.814
 1572SOL    HW1 5615   0.894   5.439   2.876
 1572SOL    HW2 5616   0.870   5.600   2.866
 1573SOL     OW 5617   4.458   6.743   0.278
 1573SOL    HW1 5618   4.538   6.772   0.331
 1573SOL    HW2 5619   4.431   6.651   0.307
 1574SOL     OW 5620   5.216   3.052   2.457
 1574SOL    HW1 5621   5.157   3.030   2.380
 1574SOL    HW2 5622   5.309   3.067   2.424
 1575SOL     OW 5623   3.251   1.740   0.667
 1575SOL    HW1 5624   3.186   1.791   0.725
 1575SOL    HW2 5625   3.292   1.667   0.721
 1576SOL     OW 5626   6.146   5.209   3.016
 1576SOL    HW1 5627   6.129   5.233   3.111
 1576SOL    HW2 5628   6.227   5.150   3.011
 1577SOL     OW 5629   1.691   0.433   0.455
 1577SOL    HW1 5630   1.691   0.498   0.530
 1577SOL    HW2 5631   1.603   0.437   0.407
 1578SOL     OW 5632   5.895   5.632   4.454
 1578SOL    HW1 5633   5.952   5.692   4.398
 1578SOL    HW2 5634   5.925   5.537   4.443
 1579SOL     OW 5635   0.296   0.334   3.051
 1579SOL    HW1 5636   0.314   0.246   3.096
 1579SOL    HW2 5637   0.324   0.329   2.955
 1580SOL     OW 5638   2.994   3.963   5.980
 1580SOL    HW1 5639   2.999   3.908   5.896
 1580SOL    HW2 5640   3.069   4.029   5.981
 1581SOL     OW 5641   6.164   3.016   4.571
 1581SOL    HW1 5642   6.157   3.091   4.636
 1581SOL    HW2 5643   6.117   2.935   4.608
 1582SOL     OW 5644   6.084   6.213   4.498
 1582SOL    HW1 5645   6.075   6.218   4.398
 1582SOL    HW2 5646   6.181   6.217   4.523
 1583SOL     OW 5647   2.161   2.460   2.231
 1583SOL    HW1 5648   2.095   2.531   2.209
 1583SOL    HW2 5649   2.196   2.419   2.146
 1584SOL     OW 5650   2.515   0.327   6.478
 1584SOL    HW1 5651   2.594   0.286   6.523
 1584SOL    HW2 5652   2.443   0.345   6.545
 1585SOL     OW 5653   6.351   1.132   5.956
 1585SOL    HW1 5654   6.289   1.068   6.000
 1585SOL    HW2 5655   6.443   1.119   5.993
 1586SOL     OW 5656   4.036   3.332   3.054
 1586SOL    HW1 5657   4.029   3.430   3.034
 1586SOL    HW2 5658   4.067   3.284   2.972
 1587SOL     OW 5659   2.549   6.584   6.135
 1587SOL    HW1 5660   2.612   6.574   6.211
 1587SOL    HW2 5661   2.455   6.567   6.166
 1588SOL     OW 5662   5.944   3.461   1.019
 1588SOL    HW1 5663   5.926   3.383   0.959
 1588SOL    HW2 5664   5.878   3.534   1.001
 1589SOL     OW 5665   4.973   4.990   2.886
 1589SOL    HW1 5666   4.967   4.966   2.983
 1589SOL    HW2 5667   4.892   4.955   2.839
 1590SOL     OW 5668   2.283   6.728   4.960
 1590SOL    HW1 5669   2.267   6.630   4.977
 1590SOL    HW2 5670   2.351   6.762   5.025
 1591SOL     OW 5671   1.631   3.750   0.372
 1591SOL    HW1 5672   1.582   3.726   0.288
 1591SOL    HW2 5673   1.565   3.782   0.441
 1592SOL     OW 5674   3.866   4.008   3.865
 1592SOL    HW1 5675   3.955   4.053   3.869
 1592SOL    HW2 5676   3.876   3.918   3.824
 1593SOL     OW 5677   1.516   4.597   4.314
 1593SOL    HW1 5678   1.554   4.689   4.327
 1593SOL    HW2 5679   1.421   4.597   4.343
 1594SOL     OW 5680   0.938   5.091   3.214
 1594SOL    HW1 5681   0.902   5.148   3.287
 1594SOL    HW2 5682   0.921   4.994   3.235
 1595SOL     OW 5683   0.017   3.843   4.942
 1595SOL    HW1 5684   0.056   3.790   4.867
 1595SOL    HW2 5685   6.960   3.801   4.973
 1596SOL     OW 5686   2.767   5.268   0.147
 1596SOL    HW1 5687   2.827   5.299   0.074
 1596SOL    HW2 5688   2.745   5.345   0.207
 1597SOL     OW 5689   2.377   0.366   0.516
 1597SOL    HW1 5690   2.312   0.414   0.575
 1597SOL    HW2 5691   2.373   0.405   0.423
 1598SOL     OW 5692   7.025   5.567   1.383
 1598SOL    HW1 5693   6.951   5.607   1.329
 1598SOL    HW2 5694   7.013   5.468   1.389
 1599SOL     OW 5695   3.167   5.234   0.545
 1599SOL    HW1 5696   3.119   5.186   0.471
 1599SOL    HW2 5697   3.102   5.258   0.617
 1600SOL     OW 5698   3.168   1.157   5.167
 1600SOL    HW1 5699   3.177   1.181   5.264
 1600SOL    HW2 5700   3.206   1.066   5.152
 1601SOL     OW 5701   1.607   5.374   4.917
 1601SOL    HW1 5702   1.537   5.315   4.878
 1601SOL    HW2 5703   1.576   5.409   5.005
 1602SOL     OW 5704   0.566   3.609   2.337
 1602SOL    HW1 5705   0.578   3.644   2.430
 1602SOL    HW2 5706   0.473   3.625   2.307
 1603SOL     OW 5707   5.651   6.741   0.556
 1603SOL    HW1 5708   5.674   6.647   0.580
 1603SOL    HW2 5709   5.635   6.748   0.458
 1604SOL     OW 5710   0.788   5.750   5.082
 1604SOL    HW1 5711   0.835   5.664   5.099
 1604SOL    HW2 5712   0.689   5.736   5.086
 1605SOL     OW 5713   5.653   5.581   2.295
 1605SOL    HW1 5714   5.694   5.591   2.204
 1605SOL    HW2 5715   5.629   5.485   2.310
 1606SOL     OW 5716   5.982   5.900   4.628
 1606SOL    HW1 5717   5.930   5.911   4.543
 1606SOL    HW2 5718   5.925   5.928   4.705
 1607SOL     OW 5719   4.426   3.060   1.419
 1607SOL    HW1 5720   4.403   2.963   1.423
 1607SOL    HW2 5721   4.477   3.079   1.335
 1608SOL     OW 5722   2.818   0.659   0.616
 1608SOL    HW1 5723   2.744   0.709   0.571
 1608SOL    HW2 5724   2.779   0.589   0.675
 1609SOL     OW 5725   5.294   1.042   5.661
 1609SOL    HW1 5726   5.277   1.129   5.613
 1609SOL    HW2 5727   5.243   0.969   5.616
 1610SOL     OW 5728   4.725   6.549   2.649
 1610SOL    HW1 5729   4.653   6.530   2.716
 1610SOL    HW2 5730   4.743   6.647   2.645
 1611SOL     OW 5731   4.366   3.498   1.311
 1611SOL    HW1 5732   4.407   3.581   1.350
 1611SOL    HW2 5733   4.412   3.475   1.226
 1612SOL     OW 5734   3.250   0.393   4.704
 1612SOL    HW1 5735   3.252   0.467   4.636
 1612SOL    HW2 5736   3.330   0.400   4.764
 1613SOL     OW 5737   1.585   0.940   1.086
 1613SOL    HW1 5738   1.637   0.913   1.006
 1613SOL    HW2 5739   1.598   0.873   1.159
 1614SOL     OW 5740   0.074   2.515   5.349
 1614SOL    HW1 5741   0.164   2.546   5.379
 1614SOL    HW2 5742   0.033   2.584   5.288
 1615SOL     OW 5743   6.507   4.804   5.607
 1615SOL    HW1 5744   6.556   4.724   5.639
 1615SOL    HW2 5745   6.561   4.852   5.538
 1616SOL     OW 5746   2.731   2.210   6.467
 1616SOL    HW1 5747   2.726   2.206   6.367
 1616SOL    HW2 5748   2.639   2.224   6.505
 1617SOL     OW 5749   3.867   0.764   4.046
 1617SOL    HW1 5750   3.844   0.667   4.055
 1617SOL    HW2 5751   3.893   0.800   4.135
 1618SOL     OW 5752   5.462   2.802   2.274
 1618SOL    HW1 5753   5.469   2.702   2.273
 1618SOL    HW2 5754   5.496   2.838   2.187
 1619SOL     OW 5755   1.682   2.887   4.536
 1619SOL    HW1 5756   1.741   2.961   4.567
 1619SOL    HW2 5757   1.719   2.849   4.451
 1620SOL     OW 5758   3.671   6.083   2.005
 1620SOL    HW1 5759   3.581   6.042   1.990
 1620SOL    HW2 5760   3.708   6.113   1.917
 1621SOL     OW 5761   1.926   1.598   2.076
 1621SOL    HW1 5762   1.829   1.623   2.077
 1621SOL    HW2 5763   1.971   1.640   1.998
 1622SOL     OW 5764   2.443   2.446   4.861
 1622SOL    HW1 5765   2.425   2.539   4.892
 1622SOL    HW2 5766   2.380   2.422   4.787
 1623SOL     OW 5767   2.185   2.103   4.595
 1623SOL    HW1 5768   2.134   2.106   4.680
 1623SOL    HW2 5769   2.282   2.088   4.615
 1624SOL     OW 5770   2.347   0.738   0.561
 1624SOL    HW1 5771   2.380   0.807   0.496
 1624SOL    HW2 5772   2.292   0.670   0.513
 1625SOL     OW 5773   0.880   6.362   1.014
 1625SOL    HW1 5774   0.847   6.444   0.966
 1625SOL    HW2 5775   0.825   6.348   1.097
 1626SOL     OW 5776   2.113   3.248   6.047
 1626SOL    HW1 5777   2.086   3.275   6.139
 1626SOL    HW2 5778   2.212   3.232   6.046
 1627SOL     OW 5779   4.990   3.779   3.669
 1627SOL    HW1 5780   4.961   3.793   3.575
 1627SOL    HW2 5781   5.017   3.867   3.709
 1628SOL     OW 5782   2.870   3.176   6.885
 1628SOL    HW1 5783   2.930   3.231   6.943
 1628SOL    HW2 5784   2.858   3.086   6.927
 1629SOL     OW 5785   3.234   2.137   2.713
 1629SOL    HW1 5786   3.286   2.093   2.639
 1629SOL    HW2 5787   3.290   2.139   2.796
 1630SOL     OW 5788   5.941   4.903   4.309
 1630SOL    HW1 5789   6.026   4.874   4.264
 1630SOL    HW2 5790   5.960   4.974   4.376
 1631SOL     OW 5791   0.897   0.073   6.352
 1631SOL    HW1 5792   0.841   0.127   6.289
 1631SOL    HW2 5793   0.911   7.009   6.314
 1632SOL     OW 5794   4.796   6.787   0.140
 1632SOL    HW1 5795   4.790   6.705   0.085
 1632SOL    HW2 5796   4.732   6.782   0.216
 1633SOL     OW 5797   6.137   3.612   3.446
 1633SOL    HW1 5798   6.172   3.659   3.365
 1633SOL    HW2 5799   6.184   3.524   3.455
 1634SOL     OW 5800   4.024   1.013   1.008
 1634SOL    HW1 5801   3.932   1.051   1.017
 1634SOL    HW2 5802   4.037   0.981   0.914
 1635SOL     OW 5803   1.367   4.891   3.940
 1635SOL    HW1 5804   1.465   4.889   3.920
 1635SOL    HW2 5805   1.352   4.871   4.037
 1636SOL     OW 5806   2.629   6.342   0.184
 1636SOL    HW1 5807   2.602   6.375   0.274
 1636SOL    HW2 5808   2.676   6.415   0.134
 1637SOL     OW 5809   0.985   2.753   2.555
 1637SOL    HW1 5810   1.076   2.779   2.588
 1637SOL    HW2 5811   0.931   2.719   2.631
 1638SOL     OW 5812   1.454   2.392   5.643
 1638SOL    HW1 5813   1.363   2.425   5.666
 1638SOL    HW2 5814   1.508   2.382   5.727
 1639SOL     OW 5815   4.054   4.943   2.464
 1639SOL    HW1 5816   3.958   4.914   2.467
 1639SOL    HW2 5817   4.092   4.921   2.374
 1640SOL     OW 5818   5.336   0.152   1.069
 1640SOL    HW1 5819   5.253   0.207   1.079
 1640SOL    HW2 5820   5.311   0.060   1.039
 1641SOL     OW 5821   6.807   2.472   4.973
 1641SOL    HW1 5822   6.742   2.396   4.975
 1641SOL    HW2 5823   6.900   2.437   4.983
 1642SOL     OW 5824   0.806   2.337   1.809
 1642SOL    HW1 5825   0.881   2.390   1.848
 1642SOL    HW2 5826   0.719   2.379   1.833
 1643SOL     OW 5827   3.573   0.554   5.577
 1643SOL    HW1 5828   3.606   0.537   5.669
 1643SOL    HW2 5829   3.541   0.649   5.570
 1644SOL     OW 5830   3.995   1.146   0.459
 1644SOL    HW1 5831   4.018   1.243   0.457
 1644SOL    HW2 5832   4.015   1.105   0.369
 1645SOL     OW 5833   2.008   6.147   6.528
 1645SOL    HW1 5834   1.971   6.228   6.574
 1645SOL    HW2 5835   2.026   6.169   6.432
 1646SOL     OW 5836   2.118   3.904   0.340
 1646SOL    HW1 5837   2.022   3.894   0.364
 1646SOL    HW2 5838   2.148   3.825   0.287
 1647SOL     OW 5839   5.585   3.100   2.583
 1647SOL    HW1 5840   5.496   3.063   2.610
 1647SOL    HW2 5841   5.592   3.195   2.613
 1648SOL     OW 5842   3.436   6.994   2.723
 1648SOL    HW1 5843   3.385   0.051   2.741
 1648SOL    HW2 5844   3.406   6.923   2.787
 1649SOL     OW 5845   2.574   0.289   3.300
 1649SOL    HW1 5846   2.594   0.297   3.397
 1649SOL    HW2 5847   2.629   0.354   3.248
 1650SOL     OW 5848   3.174   6.876   4.181
 1650SOL    HW1 5849   3.164   6.828   4.093
 1650SOL    HW2 5850   3.234   6.954   4.170
 1651SOL     OW 5851   1.103   0.019   1.982
 1651SOL    HW1 5852   1.143   0.086   2.044
 1651SOL    HW2 5853   1.011   7.023   2.014
 1652SOL     OW 5854   3.214   3.360   1.893
 1652SOL    HW1 5855   3.289   3.408   1.940
 1652SOL    HW2 5856   3.142   3.425   1.870
 1653SOL     OW 5857   1.200   5.076   1.474
 1653SOL    HW1 5858   1.205   5.174   1.495
 1653SOL    HW2 5859   1.178   5.063   1.377
 1654SOL     OW 5860   0.534   2.076   3.969
 1654SOL    HW1 5861   0.443   2.115   3.951
 1654SOL    HW2 5862   0.538   2.041   4.062
 1655SOL     OW 5863   4.486   4.132   5.581
 1655SOL    HW1 5864   4.413   4.107   5.645
 1655SOL    HW2 5865   4.527   4.219   5.609
 1656SOL     OW 5866   0.220   3.955   2.158
 1656SOL    HW1 5867   0.197   3.861   2.133
 1656SOL    HW2 5868   0.203   3.969   2.256
 1657SOL     OW 5869   1.103   0.583   5.339
 1657SOL    HW1 5870   1.075   0.679   5.345
 1657SOL    HW2 5871   1.022   0.526   5.325
 1658SOL     OW 5872   5.965   6.522   2.813
 1658SOL    HW1 5873   5.946   6.541   2.909
 1658SOL    HW2 5874   6.037   6.584   2.781
 1659SOL     OW 5875   5.358   2.267   6.205
 1659SOL    HW1 5876   5.270   2.263   6.252
 1659SOL    HW2 5877   5.418   2.333   6.250
 1660SOL     OW 5878   2.257   6.426   3.271
 1660SOL    HW1 5879   2.299   6.377   3.348
 1660SOL    HW2 5880   2.272   6.374   3.187
 1661SOL     OW 5881   2.968   0.365   2.959
 1661SOL    HW1 5882   2.909   0.289   2.931
 1661SOL    HW2 5883   3.024   0.394   2.882
 1662SOL     OW 5884   6.310   0.799   2.859
 1662SOL    HW1 5885   6.358   0.793   2.771
 1662SOL    HW2 5886   6.355   0.738   2.925
 1663SOL     OW 5887   1.847   0.545   3.720
 1663SOL    HW1 5888   1.835   0.634   3.765
 1663SOL    HW2 5889   1.943   0.532   3.697
 1664SOL     OW 5890   2.275   5.498   4.557
 1664SOL    HW1 5891   2.224   5.560   4.498
 1664SOL    HW2 5892   2.281   5.408   4.513
 1665SOL     OW 5893   0.353   1.148   3.649
 1665SOL    HW1 5894   0.407   1.080   3.698
 1665SOL    HW2 5895   0.412   1.202   3.589
 1666SOL     OW 5896   5.446   2.874   6.161
 1666SOL    HW1 5897   5.523   2.811   6.150
 1666SOL    HW2 5898   5.363   2.821   6.182
 1667SOL     OW 5899   6.756   0.580   0.714
 1667SOL    HW1 5900   6.774   0.497   0.661
 1667SOL    HW2 5901   6.811   0.655   0.679
 1668SOL     OW 5902   1.567   0.523   4.900
 1668SOL    HW1 5903   1.514   0.517   4.984
 1668SOL    HW2 5904   1.663   0.542   4.923
 1669SOL     OW 5905   5.770   5.749   6.046
 1669SOL    HW1 5906   5.705   5.822   6.070
 1669SOL    HW2 5907   5.863   5.785   6.047
 1670SOL     OW 5908   6.642   3.066   6.656
 1670SOL    HW1 5909   6.598   3.090   6.569
 1670SOL    HW2 5910   6.696   3.144   6.689
 1671SOL     OW 5911   5.391   5.191   0.249
 1671SOL    HW1 5912   5.371   5.239   0.335
 1671SOL    HW2 5913   5.330   5.224   0.177
 1672SOL     OW 5914   1.866   5.445   2.660
 1672SOL    HW1 5915   1.955   5.476   2.694
 1672SOL    HW2 5916   1.861   5.345   2.667
 1673SOL     OW 5917   6.122   2.932   3.431
 1673SOL    HW1 5918   6.023   2.938   3.437
 1673SOL    HW2 5919   6.147   2.876   3.351
 1674SOL     OW 5920   2.475   5.628   0.038
 1674SOL    HW1 5921   2.439   5.556   0.097
 1674SOL    HW2 5922   2.414   5.708   0.041
 1675SOL     OW 5923   4.470   2.104   0.283
 1675SOL    HW1 5924   4.491   2.111   0.381
 1675SOL    HW2 5925   4.375   2.130   0.267
 1676SOL     OW 5926   2.841   1.210   4.180
 1676SOL    HW1 5927   2.911   1.145   4.150
 1676SOL    HW2 5928   2.754   1.162   4.193
 1677SOL     OW 5929   6.032   0.287   5.836
 1677SOL    HW1 5930   5.943   0.242   5.832
 1677SOL    HW2 5931   6.019   0.386   5.833
 1678SOL     OW 5932   5.352   6.764   1.402
 1678SOL    HW1 5933   5.436   6.814   1.424
 1678SOL    HW2 5934   5.368   6.666   1.417
 1679SOL     OW 5935   5.440   4.348   0.349
 1679SOL    HW1 5936   5.505   4.415   0.385
 1679SOL    HW2 5937   5.385   4.390   0.277
 1680SOL     OW 5938   0.784   2.285   5.352
 1680SOL    HW1 5939   0.808   2.381   5.339
 1680SOL    HW2 5940   0.780   2.239   5.263
 1681SOL     OW 5941   4.327   5.076   0.188
 1681SOL    HW1 5942   4.335   5.166   0.144
 1681SOL    HW2 5943   4.418   5.036   0.197
 1682SOL     OW 5944   6.944   2.656   5.596
 1682SOL    HW1 5945   6.921   2.752   5.576
 1682SOL    HW2 5946   6.893   2.596   5.534
 1683SOL     OW 5947   5.219   5.410   5.902
 1683SOL    HW1 5948   5.293   5.477   5.894
 1683SOL    HW2 5949   5.224   5.365   5.991
 1684SOL     OW 5950   0.397   6.672   4.399
 1684SOL    HW1 5951   0.320   6.735   4.392
 1684SOL    HW2 5952   0.455   6.682   4.318
 1685SOL     OW 5953   0.891   1.803   0.433
 1685SOL    HW1 5954   0.833   1.862   0.489
 1685SOL    HW2 5955   0.981   1.794   0.476
 1686SOL     OW 5956   2.180   6.408   6.592
 1686SOL    HW1 5957   2.220   6.319   6.565
 1686SOL    HW2 5958   2.250   6.479   6.583
 1687SOL     OW 5959   3.306   6.182   1.962
 1687SOL    HW1 5960   3.386   6.174   2.021
 1687SOL    HW2 5961   3.261   6.093   1.955
 1688SOL     OW 5962   0.410   1.473   3.739
 1688SOL    HW1 5963   0.324   1.444   3.783
 1688SOL    HW2 5964   0.389   1.527   3.658
 1689SOL     OW 5965   3.371   1.891   1.538
 1689SOL    HW1 5966   3.420   1.973   1.567
 1689SOL    HW2 5967   3.345   1.900   1.442
 1690SOL     OW 5968   0.843   2.515   0.399
 1690SOL    HW1 5969   0.763   2.462   0.429
 1690SOL    HW2 5970   0.813   2.607   0.371
 1691SOL     OW 5971   4.274   4.643   2.572
 1691SOL    HW1 5972   4.320   4.672   2.489
 1691SOL    HW2 5973   4.328   4.572   2.617
 1692SOL     OW 5974   1.124   0.458   3.463
 1692SOL    HW1 5975   1.079   0.412   3.387
 1692SOL    HW2 5976   1.057   0.474   3.536
 1693SOL     OW 5977   3.697   1.810   3.594
 1693SOL    HW1 5978   3.652   1.866   3.524
 1693SOL    HW2 5979   3.647   1.725   3.605
 1694SOL     OW 5980   6.109   5.735   5.235
 1694SOL    HW1 5981   6.195   5.729   5.183
 1694SOL    HW2 5982   6.042   5.673   5.195
 1695SOL     OW 5983   3.736   1.241   5.980
 1695SOL    HW1 5984   3.781   1.214   6.065
 1695SOL    HW2 5985   3.699   1.160   5.935
 1696SOL     OW 5986   3.210   5.924   1.972
 1696SOL    HW1 5987   3.222   5.871   1.888
 1696SOL    HW2 5988   3.120   5.906   2.011
 1697SOL     OW 5989   1.137   1.816   2.049
 1697SOL    HW1 5990   1.071   1.850   1.982
 1697SOL    HW2 5991   1.164   1.891   2.111
 1698SOL     OW 5992   4.620   2.172   0.864
 1698SOL    HW1 5993   4.654   2.085   0.829
 1698SOL    HW2 5994   4.524   2.163   0.887
 1699SOL     OW 5995   2.632   4.809   0.521
 1699SOL    HW1 5996   2.538   4.819   0.554
 1699SOL    HW2 5997   2.692   4.870   0.573
 1700SOL     OW 5998   5.822   2.380   4.440
 1700SOL    HW1 5999   5.791   2.370   4.346
 1700SOL    HW2 6000   5.801   2.472   4.472
 1701SOL     OW 6001   6.136   3.074   5.101
 1701SOL    HW1 6002   6.147   3.017   5.020
 1701SOL    HW2 6003   6.171   3.166   5.082
 1702SOL     OW 6004   4.558   2.768   1.769
 1702SOL    HW1 6005   4.588   2.757   1.674
 1702SOL    HW2 6006   4.565   2.864   1.795
 1703SOL     OW 6007   1.796   3.494   0.549
 1703SOL    HW1 6008   1.706   3.536   0.537
 1703SOL    HW2 6009   1.788   3.412   0.605
 1704SOL     OW 6010   0.256   1.314   2.455
 1704SOL    HW1 6011   0.303   1.229   2.479
 1704SOL    HW2 6012   0.190   1.338   2.527
 1705SOL     OW 6013   3.882   2.988   2.554
 1705SOL    HW1 6014   3.802   3.007   2.611
 1705SOL    HW2 6015   3.853   2.942   2.470
 1706SOL     OW 6016   2.142   0.596   6.485
 1706SOL    HW1 6017   2.155   0.615   6.388
 1706SOL    HW2 6018   2.072   0.525   6.496
 1707SOL     OW 6019   5.218   1.510   2.588
 1707SOL    HW1 6020   5.136   1.456   2.568
 1707SOL    HW2 6021   5.199   1.574   2.662
 1708SOL     OW 6022   0.315   4.770   1.723
 1708SOL    HW1 6023   0.265   4.685   1.741
 1708SOL    HW2 6024   0.329   4.780   1.625
 1709SOL     OW 6025   2.881   5.375   4.552
 1709SOL    HW1 6026   2.900   5.463   4.595
 1709SOL    HW2 6027   2.944   5.306   4.587
 1710SOL     OW 6028   6.745   5.068   4.502
 1710SOL    HW1 6029   6.668   5.014   4.536
 1710SOL    HW2 6030   6.825   5.051   4.560
 1711SOL     OW 6031   1.409   4.457   5.343
 1711SOL    HW1 6032   1.320   4.473   5.386
 1711SOL    HW2 6033   1.401   4.381   5.278
 1712SOL     OW 6034   2.217   5.044   1.368
 1712SOL    HW1 6035   2.294   5.079   1.315
 1712SOL    HW2 6036   2.236   5.056   1.465
 1713SOL     OW 6037   2.076   3.190   0.771
 1713SOL    HW1 6038   2.096   3.108   0.718
 1713SOL    HW2 6039   2.134   3.266   0.739
 1714SOL     OW 6040   4.279   1.272   1.476
 1714SOL    HW1 6041   4.252   1.199   1.539
 1714SOL    HW2 6042   4.324   1.233   1.396
 1715SOL     OW 6043   0.393   2.937   3.903
 1715SOL    HW1 6044   0.344   2.902   3.823
 1715SOL    HW2 6045   0.466   2.998   3.873
 1716SOL     OW 6046   0.289   0.404   6.737
 1716SOL    HW1 6047   0.369   0.354   6.772
 1716SOL    HW2 6048   0.310   0.502   6.734
 1717SOL     OW 6049   3.074   0.299   6.616
 1717SOL    HW1 6050   3.148   0.293   6.682
 1717SOL    HW2 6051   3.008   0.368   6.647
 1718SOL     OW 6052   1.788   4.366   5.300
 1718SOL    HW1 6053   1.785   4.296   5.372
 1718SOL    HW2 6054   1.781   4.321   5.210
 1719SOL     OW 6055   1.678   3.394   0.959
 1719SOL    HW1 6056   1.644   3.429   1.047
 1719SOL    HW2 6057   1.772   3.361   0.970
 1720SOL     OW 6058   6.917   2.089   2.191
 1720SOL    HW1 6059   6.964   2.031   2.125
 1720SOL    HW2 6060   6.851   2.147   2.143
 1721SOL     OW 6061   1.199   6.426   4.220
 1721SOL    HW1 6062   1.165   6.385   4.304
 1721SOL    HW2 6063   1.299   6.437   4.226
 1722SOL     OW 6064   5.877   0.260   2.055
 1722SOL    HW1 6065   5.841   0.166   2.051
 1722SOL    HW2 6066   5.876   0.300   1.963
 1723SOL     OW 6067   5.622   1.005   2.924
 1723SOL    HW1 6068   5.710   0.957   2.921
 1723SOL    HW2 6069   5.577   0.989   3.011
 1724SOL     OW 6070   4.989   0.382   0.434
 1724SOL    HW1 6071   4.987   0.297   0.382
 1724SOL    HW2 6072   4.933   0.451   0.388
 1725SOL     OW 6073   3.455   5.576   1.798
 1725SOL    HW1 6074   3.524   5.639   1.764
 1725SOL    HW2 6075   3.498   5.511   1.862
 1726SOL     OW 6076   6.824   3.780   4.648
 1726SOL    HW1 6077   6.799   3.703   4.589
 1726SOL    HW2 6078   6.804   3.756   4.743
 1727SOL     OW 6079   2.625   3.438   5.280
 1727SOL    HW1 6080   2.586   3.523   5.315
 1727SOL    HW2 6081   2.721   3.453   5.255
 1728SOL     OW 6082   4.167   5.200   3.334
 1728SOL    HW1 6083   4.190   5.200   3.237
 1728SOL    HW2 6084   4.145   5.107   3.363
 1729SOL     OW 6085   1.017   3.515   2.191
 1729SOL    HW1 6086   0.943   3.579   2.210
 1729SOL    HW2 6087   1.060   3.487   2.277
 1730SOL     OW 6088   5.382   1.950   4.810
 1730SOL    HW1 6089   5.377   1.857   4.773
 1730SOL    HW2 6090   5.444   2.005   4.754
 1731SOL     OW 6091   0.285   6.834   0.558
 1731SOL    HW1 6092   0.373   6.830   0.606
 1731SOL    HW2 6093   0.263   6.929   0.537
 1732SOL     OW 6094   0.854   4.568   6.982
 1732SOL    HW1 6095   0.909   4.586   6.900
 1732SOL    HW2 6096   0.913   4.530   0.025
 1733SOL     OW 6097   0.901   4.218   6.939
 1733SOL    HW1 6098   0.855   4.257   6.859
 1733SOL    HW2 6099   0.979   4.163   6.909
 1734SOL     OW 6100   5.222   4.030   1.201
 1734SOL    HW1 6101   5.254   4.107   1.146
 1734SOL    HW2 6102   5.135   3.997   1.164
 1735SOL     OW 6103   5.005   5.737   0.124
 1735SOL    HW1 6104   4.992   5.805   0.196
 1735SOL    HW2 6105   4.992   5.645   0.163
 1736SOL     OW 6106   3.077   3.339   0.381
 1736SOL    HW1 6107   3.144   3.274   0.417
 1736SOL    HW2 6108   3.097   3.359   0.285
 1737SOL     OW 6109   0.687   5.711   3.531
 1737SOL    HW1 6110   0.771   5.658   3.515
 1737SOL    HW2 6111   0.698   5.767   3.613
 1738SOL     OW 6112   1.004   1.426   2.011
 1738SOL    HW1 6113   0.952   1.348   2.042
 1738SOL    HW2 6114   1.027   1.485   2.089
 1739SOL     OW 6115   4.240   2.306   6.301
 1739SOL    HW1 6116   4.246   2.406   6.302
 1739SOL    HW2 6117   4.298   2.268   6.372
 1740SOL     OW 6118   0.445   1.883   5.884
 1740SOL    HW1 6119   0.370   1.881   5.818
 1740SOL    HW2 6120   0.530   1.854   5.840
 1741SOL     OW 6121   1.920   1.105   2.499
 1741SOL    HW1 6122   2.016   1.128   2.482
 1741SOL    HW2 6123   1.889   1.040   2.430
 1742SOL     OW 6124   5.824   6.153   4.262
 1742SOL    HW1 6125   5.911   6.200   4.247
 1742SOL    HW2 6126   5.799   6.102   4.179
 1743SOL     OW 6127   4.893   1.421   0.220
 1743SOL    HW1 6128   4.828   1.358   0.263
 1743SOL    HW2 6129   4.919   1.491   0.287
 1744SOL     OW 6130   3.441   6.172   1.620
 1744SOL    HW1 6131   3.475   6.133   1.534
 1744SOL    HW2 6132   3.342   6.185   1.615
 1745SOL     OW 6133   7.000   2.980   4.937
 1745SOL    HW1 6134   0.070   2.990   4.950
 1745SOL    HW2 6135   6.980   2.959   4.842
 1746SOL     OW 6136   2.278   1.076   5.961
 1746SOL    HW1 6137   2.278   1.064   5.862
 1746SOL    HW2 6138   2.367   1.114   5.990
 1747SOL     OW 6139   4.990   6.793   5.486
 1747SOL    HW1 6140   4.998   6.716   5.424
 1747SOL    HW2 6141   5.074   6.848   5.483
 1748SOL     OW 6142   5.715   1.212   1.428
 1748SOL    HW1 6143   5.747   1.305   1.446
 1748SOL    HW2 6144   5.791   1.148   1.435
 1749SOL     OW 6145   5.369   0.158   6.015
 1749SOL    HW1 6146   5.291   0.216   5.993
 1749SOL    HW2 6147   5.434   0.209   6.072
 1750SOL     OW 6148   4.156   0.460   4.032
 1750SOL    HW1 6149   4.203   0.405   3.964
 1750SOL    HW2 6150   4.058   0.438   4.031
 1751SOL     OW 6151   1.789   5.799   4.576
 1751SOL    HW1 6152   1.811   5.895   4.592
 1751SOL    HW2 6153   1.698   5.778   4.612
 1752SOL     OW 6154   6.784   1.955   6.330
 1752SOL    HW1 6155   6.770   1.991   6.237
 1752SOL    HW2 6156   6.882   1.950   6.350
 1753SOL     OW 6157   2.538   6.440   2.260
 1753SOL    HW1 6158   2.526   6.478   2.352
 1753SOL    HW2 6159   2.452   6.444   2.211
 1754SOL     OW 6160   2.863   3.317   1.945
 1754SOL    HW1 6161   2.897   3.327   2.038
 1754SOL    HW2 6162   2.881   3.400   1.893
 1755SOL     OW 6163   6.468   4.449   0.192
 1755SOL    HW1 6164   6.443   4.398   0.110
 1755SOL    HW2 6165   6.557   4.418   0.225
 1756SOL     OW 6166   5.801   5.198   4.483
 1756SOL    HW1 6167   5.732   5.209   4.411
 1756SOL    HW2 6168   5.788   5.269   4.552
 1757SOL     OW 6169   3.587   0.428   5.332
 1757SOL    HW1 6170   3.500   0.465   5.297
 1757SOL    HW2 6171   3.600   0.458   5.426
 1758SOL     OW 6172   3.412   1.511   3.148
 1758SOL    HW1 6173   3.396   1.609   3.161
 1758SOL    HW2 6174   3.324   1.465   3.135
 1759SOL     OW 6175   0.214   5.657   6.150
 1759SOL    HW1 6176   0.309   5.675   6.174
 1759SOL    HW2 6177   0.173   5.595   6.217
 1760SOL     OW 6178   4.861   6.743   2.021
 1760SOL    HW1 6179   4.896   6.795   1.943
 1760SOL    HW2 6180   4.772   6.704   1.998
 1761SOL     OW 6181   5.421   3.040   1.442
 1761SOL    HW1 6182   5.464   2.961   1.399
 1761SOL    HW2 6183   5.364   3.088   1.375
 1762SOL     OW 6184   5.686   3.088   0.465
 1762SOL    HW1 6185   5.603   3.046   0.502
 1762SOL    HW2 6186   5.706   3.171   0.517
 1763SOL     OW 6187   2.344   2.880   4.010
 1763SOL    HW1 6188   2.297   2.967   3.996
 1763SOL    HW2 6189   2.402   2.886   4.092
 1764SOL     OW 6190   6.747   3.502   3.483
 1764SOL    HW1 6191   6.678   3.436   3.512
 1764SOL    HW2 6192   6.763   3.493   3.385
 1765SOL     OW 6193   2.127   3.536   6.183
 1765SOL    HW1 6194   2.138   3.499   6.091
 1765SOL    HW2 6195   2.177   3.478   6.248
 1766SOL     OW 6196   6.217   3.658   5.836
 1766SOL    HW1 6197   6.316   3.642   5.838
 1766SOL    HW2 6198   6.170   3.573   5.813
 1767SOL     OW 6199   6.532   4.720   1.198
 1767SOL    HW1 6200   6.481   4.713   1.112
 1767SOL    HW2 6201   6.547   4.816   1.221
 1768SOL     OW 6202   6.244   6.573   3.287
 1768SOL    HW1 6203   6.274   6.661   3.251
 1768SOL    HW2 6204   6.179   6.588   3.363
 1769SOL     OW 6205   4.983   0.804   3.131
 1769SOL    HW1 6206   4.903   0.847   3.088
 1769SOL    HW2 6207   4.953   0.738   3.199
 1770SOL     OW 6208   3.527   5.821   5.497
 1770SOL    HW1 6209   3.550   5.736   5.544
 1770SOL    HW2 6210   3.553   5.899   5.553
 1771SOL     OW 6211   4.624   6.654   6.549
 1771SOL    HW1 6212   4.670   6.704   6.622
 1771SOL    HW2 6213   4.527   6.681   6.546
 1772SOL     OW 6214   2.615   6.281   2.747
 1772SOL    HW1 6215   2.517   6.276   2.725
 1772SOL    HW2 6216   2.645   6.193   2.783
 1773SOL     OW 6217   1.114   0.504   0.690
 1773SOL    HW1 6218   1.143   0.598   0.706
 1773SOL    HW2 6219   1.024   0.504   0.647
 1774SOL     OW 6220   2.914   4.741   2.808
 1774SOL    HW1 6221   2.972   4.725   2.888
 1774SOL    HW2 6222   2.967   4.789   2.738
 1775SOL     OW 6223   1.115   5.000   1.207
 1775SOL    HW1 6224   1.169   4.920   1.181
 1775SOL    HW2 6225   1.067   5.036   1.127
 1776SOL     OW 6226   3.036   6.226   5.449
 1776SOL    HW1 6227   3.084   6.145   5.415
 1776SOL    HW2 6228   2.943   6.200   5.477
 1777SOL     OW 6229   3.195   6.526   0.305
 1777SOL    HW1 6230   3.168   6.533   0.401
 1777SOL    HW2 6231   3.190   6.430   0.277
 1778SOL     OW 6232   6.856   3.044   5.849
 1778SOL    HW1 6233   6.864   3.119   5.783
 1778SOL    HW2 6234   6.766   3.046   5.891
 1779SOL     OW 6235   3.755   0.229   5.535
 1779SOL    HW1 6236   3.684   0.190   5.476
 1779SOL    HW2 6237   3.713   0.263   5.619
 1780SOL     OW 6238   3.129   3.340   6.894
 1780SOL    HW1 6239   3.198   3.347   6.822
 1780SOL    HW2 6240   3.143   3.256   6.946
 1781SOL     OW 6241   2.878   5.699   3.785
 1781SOL    HW1 6242   2.879   5.791   3.824
 1781SOL    HW2 6243   2.863   5.706   3.686
 1782SOL     OW 6244   3.134   1.475   4.454
 1782SOL    HW1 6245   3.120   1.565   4.496
 1782SOL    HW2 6246   3.045   1.437   4.427
 1783SOL     OW 6247   2.220   6.176   6.960
 1783SOL    HW1 6248   2.192   6.132   0.017
 1783SOL    HW2 6249   2.187   6.123   6.882
 1784SOL     OW 6250   2.622   0.070   6.101
 1784SOL    HW1 6251   2.541   0.124   6.121
 1784SOL    HW2 6252   2.656   0.092   6.010
 1785SOL     OW 6253   6.887   5.405   1.765
 1785SOL    HW1 6254   6.820   5.331   1.750
 1785SOL    HW2 6255   6.856   5.462   1.841
 1786SOL     OW 6256   3.972   2.694   1.677
 1786SOL    HW1 6257   3.890   2.752   1.676
 1786SOL    HW2 6258   4.053   2.752   1.694
 1787SOL     OW 6259   3.641   0.804   5.260
 1787SOL    HW1 6260   3.622   0.774   5.353
 1787SOL    HW2 6261   3.567   0.862   5.227
 1788SOL     OW 6262   1.368   4.938   5.539
 1788SOL    HW1 6263   1.388   5.035   5.550
 1788SOL    HW2 6264   1.451   4.888   5.516
 1789SOL     OW 6265   5.920   6.875   6.760
 1789SOL    HW1 6266   5.932   6.828   6.848
 1789SOL    HW2 6267   6.001   6.929   6.739
 1790SOL     OW 6268   2.565   6.817   2.592
 1790SOL    HW1 6269   2.609   6.890   2.643
 1790SOL    HW2 6270   2.465   6.827   2.599
 1791SOL     OW 6271   0.571   6.408   2.871
 1791SOL    HW1 6272   0.574   6.317   2.912
 1791SOL    HW2 6273   0.664   6.441   2.856
 1792SOL     OW 6274   1.100   3.581   4.145
 1792SOL    HW1 6275   1.112   3.525   4.062
 1792SOL    HW2 6276   1.167   3.552   4.214
 1793SOL     OW 6277   0.248   0.546   3.617
 1793SOL    HW1 6278   0.316   0.493   3.566
 1793SOL    HW2 6279   0.204   0.611   3.555
 1794SOL     OW 6280   4.443   5.966   6.412
 1794SOL    HW1 6281   4.351   5.986   6.447
 1794SOL    HW2 6282   4.437   5.896   6.341
 1795SOL     OW 6283   0.479   3.220   6.644
 1795SOL    HW1 6284   0.478   3.310   6.600
 1795SOL    HW2 6285   0.490   3.232   6.742
 1796SOL     OW 6286   3.636   0.549   5.834
 1796SOL    HW1 6287   3.568   0.576   5.902
 1796SOL    HW2 6288   3.727   0.578   5.865
 1797SOL     OW 6289   0.341   1.321   1.956
 1797SOL    HW1 6290   0.427   1.304   1.909
 1797SOL    HW2 6291   0.298   1.403   1.920
 1798SOL     OW 6292   5.749   1.630   3.053
 1798SOL    HW1 6293   5.672   1.595   3.000
 1798SOL    HW2 6294   5.764   1.726   3.028
 1799SOL     OW 6295   2.402   1.733   0.137
 1799SOL    HW1 6296   2.451   1.666   0.080
 1799SOL    HW2 6297   2.313   1.753   0.096
 1800SOL     OW 6298   3.129   4.909   2.677
 1800SOL    HW1 6299   3.213   4.881   2.630
 1800SOL    HW2 6300   3.112   5.006   2.658
 1801SOL     OW 6301   5.705   6.946   0.756
 1801SOL    HW1 6302   5.775   6.930   0.826
 1801SOL    HW2 6303   5.726   6.891   0.675
 1802SOL     OW 6304   6.006   4.897   3.779
 1802SOL    HW1 6305   6.061   4.963   3.726
 1802SOL    HW2 6306   5.916   4.887   3.736
 1803SOL     OW 6307   5.719   5.034   1.106
 1803SOL    HW1 6308   5.800   5.050   1.163
 1803SOL    HW2 6309   5.701   4.936   1.100
 1804SOL     OW 6310   3.090   3.581   6.076
 1804SOL    HW1 6311   3.058   3.626   6.160
 1804SOL    HW2 6312   3.052   3.489   6.071
 1805SOL     OW 6313   5.995   3.216   6.729
 1805SOL    HW1 6314   6.086   3.176   6.720
 1805SOL    HW2 6315   6.002   3.308   6.767
 1806SOL     OW 6316   6.889   0.352   0.533
 1806SOL    HW1 6317   6.804   0.345   0.482
 1806SOL    HW2 6318   6.886   0.288   0.610
 1807SOL     OW 6319   6.495   2.156   5.966
 1807SOL    HW1 6320   6.493   2.244   5.918
 1807SOL    HW2 6321   6.466   2.084   5.904
 1808SOL     OW 6322   2.408   5.068   4.275
 1808SOL    HW1 6323   2.495   5.107   4.245
 1808SOL    HW2 6324   2.424   4.988   4.332
 1809SOL     OW 6325   3.678   0.478   6.376
 1809SOL    HW1 6326   3.775   0.454   6.389
 1809SOL    HW2 6327   3.669   0.577   6.374
 1810SOL     OW 6328   3.150   6.597   2.680
 1810SOL    HW1 6329   3.145   6.525   2.750
 1810SOL    HW2 6330   3.073   6.660   2.691
 1811SOL     OW 6331   5.796   5.647   2.835
 1811SOL    HW1 6332   5.724   5.618   2.898
 1811SOL    HW2 6333   5.766   5.729   2.787
 1812SOL     OW 6334   4.518   4.809   6.057
 1812SOL    HW1 6335   4.556   4.848   6.141
 1812SOL    HW2 6336   4.435   4.757   6.078
 1813SOL     OW 6337   6.632   5.525   5.274
 1813SOL    HW1 6338   6.543   5.500   5.311
 1813SOL    HW2 6339   6.665   5.608   5.318
 1814SOL     OW 6340   4.617   6.247   2.326
 1814SOL    HW1 6341   4.706   6.291   2.328
 1814SOL    HW2 6342   4.561   6.281   2.402
 1815SOL     OW 6343   0.323   1.286   2.904
 1815SOL    HW1 6344   0.325   1.195   2.944
 1815SOL    HW2 6345   0.394   1.342   2.946
 1816SOL     OW 6346   1.206   5.114   0.874
 1816SOL    HW1 6347   1.116   5.071   0.865
 1816SOL    HW2 6348   1.275   5.057   0.828
 1817SOL     OW 6349   1.452   5.450   1.922
 1817SOL    HW1 6350   1.446   5.477   1.826
 1817SOL    HW2 6351   1.539   5.482   1.960
 1818SOL     OW 6352   1.133   1.576   3.410
 1818SOL    HW1 6353   1.229   1.551   3.421
 1818SOL    HW2 6354   1.082   1.547   3.492
 1819SOL     OW 6355   0.661   4.175   2.360
 1819SOL    HW1 6356   0.625   4.226   2.282
 1819SOL    HW2 6357   0.759   4.191   2.369
 1820SOL     OW 6358   5.805   0.158   2.781
 1820SOL    HW1 6359   5.884   0.206   2.820
 1820SOL    HW2 6360   5.814   0.155   2.681
 1821SOL     OW 6361   1.779   1.946   3.709
 1821SOL    HW1 6362   1.711   1.950   3.783
 1821SOL    HW2 6363   1.787   1.852   3.676
 1822SOL     OW 6364   3.256   3.807   2.133
 1822SOL    HW1 6365   3.221   3.847   2.048
 1822SOL    HW2 6366   3.201   3.728   2.158
 1823SOL     OW 6367   4.645   0.093   2.514
 1823SOL    HW1 6368   4.695   0.173   2.547
 1823SOL    HW2 6369   4.666   0.077   2.418
 1824SOL     OW 6370   5.424   2.330   1.613
 1824SOL    HW1 6371   5.362   2.252   1.616
 1824SOL    HW2 6372   5.518   2.297   1.625
 1825SOL     OW 6373   0.518   0.326   2.045
 1825SOL    HW1 6374   0.429   0.370   2.045
 1825SOL    HW2 6375   0.583   0.382   1.993
 1826SOL     OW 6376   2.719   6.006   6.312
 1826SOL    HW1 6377   2.683   5.950   6.386
 1826SOL    HW2 6378   2.806   5.968   6.280
 1827SOL     OW 6379   6.003   0.041   1.818
 1827SOL    HW1 6380   6.059   0.115   1.857
 1827SOL    HW2 6381   6.062   7.001   1.775
 1828SOL     OW 6382   1.499   2.943   6.904
 1828SOL    HW1 6383   1.479   3.007   6.978
 1828SOL    HW2 6384   1.414   2.901   6.872
 1829SOL     OW 6385   5.989   5.294   2.141
 1829SOL    HW1 6386   5.995   5.251   2.052
 1829SOL    HW2 6387   5.977   5.224   2.212
 1830SOL     OW 6388   5.282   6.604   4.083
 1830SOL    HW1 6389   5.305   6.522   4.136
 1830SOL    HW2 6390   5.183   6.611   4.073
 1831SOL     OW 6391   5.332   0.684   3.117
 1831SOL    HW1 6392   5.306   0.781   3.121
 1831SOL    HW2 6393   5.401   0.665   3.187
 1832SOL     OW 6394   4.717   2.028   0.111
 1832SOL    HW1 6395   4.785   2.100   0.107
 1832SOL    HW2 6396   4.641   2.057   0.169
 1833SOL     OW 6397   5.351   1.958   5.704
 1833SOL    HW1 6398   5.282   1.887   5.690
 1833SOL    HW2 6399   5.388   1.952   5.797
 1834SOL     OW 6400   2.862   3.849   0.347
 1834SOL    HW1 6401   2.949   3.850   0.297
 1834SOL    HW2 6402   2.844   3.940   0.384
 1835SOL     OW 6403   1.688   4.506   6.955
 1835SOL    HW1 6404   1.766   4.537   6.901
 1835SOL    HW2 6405   1.605   4.548   6.919
 1836SOL     OW 6406   0.964   6.926   0.479
 1836SOL    HW1 6407   1.055   6.884   0.487
 1836SOL    HW2 6408   0.949   6.987   0.556
 1837SOL     OW 6409   0.690   2.467   4.705
 1837SOL    HW1 6410   0.620   2.467   4.777
 1837SOL    HW2 6411   0.725   2.560   4.692
 1838SOL     OW 6412   0.847   2.592   5.312
 1838SOL    HW1 6413   0.782   2.651   5.360
 1838SOL    HW2 6414   0.936   2.596   5.357
 1839SOL     OW 6415   1.032   1.989   6.565
 1839SOL    HW1 6416   1.067   1.941   6.485
 1839SOL    HW2 6417   0.973   1.928   6.618
 1840SOL     OW 6418   0.760   5.062   1.501
 1840SOL    HW1 6419   0.839   5.053   1.561
 1840SOL    HW2 6420   0.785   5.036   1.408
 1841SOL     OW 6421   1.070   2.684   3.830
 1841SOL    HW1 6422   1.039   2.779   3.824
 1841SOL    HW2 6423   1.156   2.679   3.880
 1842SOL     OW 6424   0.964   5.476   6.420
 1842SOL    HW1 6425   0.878   5.508   6.379
 1842SOL    HW2 6426   0.953   5.471   6.519
 1843SOL     OW 6427   4.577   2.141   5.120
 1843SOL    HW1 6428   4.665   2.150   5.073
 1843SOL    HW2 6429   4.518   2.218   5.096
 1844SOL     OW 6430   5.729   4.243   3.373
 1844SOL    HW1 6431   5.635   4.243   3.340
 1844SOL    HW2 6432   5.742   4.167   3.436
 1845SOL     OW 6433   4.153   6.341   0.950
 1845SOL    HW1 6434   4.137   6.363   0.854
 1845SOL    HW2 6435   4.082   6.384   1.006
 1846SOL     OW 6436   3.705   1.722   5.470
 1846SOL    HW1 6437   3.662   1.739   5.558
 1846SOL    HW2 6438   3.775   1.651   5.480
 1847SOL     OW 6439   1.457   6.533   6.586
 1847SOL    HW1 6440   1.421   6.627   6.580
 1847SOL    HW2 6441   1.380   6.469   6.584
 1848SOL     OW 6442   1.978   0.281   2.888
 1848SOL    HW1 6443   2.036   0.225   2.948
 1848SOL    HW2 6444   1.882   0.261   2.908
 1849SOL     OW 6445   2.916   0.506   6.689
 1849SOL    HW1 6446   2.940   0.548   6.777
 1849SOL    HW2 6447   2.850   0.564   6.642
 1850SOL     OW 6448   5.106   1.724   2.257
 1850SOL    HW1 6449   5.053   1.742   2.174
 1850SOL    HW2 6450   5.045   1.692   2.329
 1851SOL     OW 6451   6.216   3.987   2.844
 1851SOL    HW1 6452   6.278   3.929   2.897
 1851SOL    HW2 6453   6.151   3.930   2.794
 1852SOL     OW 6454   5.196   1.724   5.653
 1852SOL    HW1 6455   5.142   1.658   5.706
 1852SOL    HW2 6456   5.276   1.679   5.615
 1853SOL     OW 6457   1.234   4.516   0.830
 1853SOL    HW1 6458   1.312   4.462   0.863
 1853SOL    HW2 6459   1.163   4.517   0.900
 1854SOL     OW 6460   2.921   5.037   3.854
 1854SOL    HW1 6461   2.999   5.002   3.803
 1854SOL    HW2 6462   2.861   4.961   3.879
 1855SOL     OW 6463   6.281   4.380   2.271
 1855SOL    HW1 6464   6.357   4.365   2.335
 1855SOL    HW2 6465   6.218   4.304   2.276
 1856SOL     OW 6466   5.356   3.003   6.616
 1856SOL    HW1 6467   5.343   2.962   6.526
 1856SOL    HW2 6468   5.300   3.085   6.624
 1857SOL     OW 6469   5.158   1.419   3.309
 1857SOL    HW1 6470   5.171   1.514   3.338
 1857SOL    HW2 6471   5.135   1.417   3.212
 1858SOL     OW 6472   5.687   3.802   2.744
 1858SOL    HW1 6473   5.610   3.745   2.770
 1858SOL    HW2 6474   5.711   3.863   2.820
 1859SOL     OW 6475   6.188   1.599   2.955
 1859SOL    HW1 6476   6.141   1.545   2.885
 1859SOL    HW2 6477   6.286   1.601   2.937
 1860SOL     OW 6478   4.161   2.203   4.654
 1860SOL    HW1 6479   4.192   2.232   4.745
 1860SOL    HW2 6480   4.225   2.235   4.585
 1861SOL     OW 6481   5.450   5.770   2.407
 1861SOL    HW1 6482   5.356   5.765   2.442
 1861SOL    HW2 6483   5.480   5.679   2.380
 1862SOL     OW 6484   2.296   1.097   0.726
 1862SOL    HW1 6485   2.228   1.033   0.764
 1862SOL    HW2 6486   2.308   1.173   0.789
 1863SOL     OW 6487   1.906   2.314   1.856
 1863SOL    HW1 6488   1.936   2.220   1.843
 1863SOL    HW2 6489   1.876   2.327   1.951
 1864SOL     OW 6490   1.110   6.343   3.019
 1864SOL    HW1 6491   1.027   6.292   2.996
 1864SOL    HW2 6492   1.109   6.431   2.971
 1865SOL     OW 6493   4.936   2.513   6.596
 1865SOL    HW1 6494   5.020   2.508   6.650
 1865SOL    HW2 6495   4.870   2.572   6.642
 1866SOL     OW 6496   5.332   5.167   1.822
 1866SOL    HW1 6497   5.277   5.156   1.739
 1866SOL    HW2 6498   5.428   5.184   1.797
 1867SOL     OW 6499   0.405   4.670   6.570
 1867SOL    HW1 6500   0.505   4.670   6.573
 1867SOL    HW2 6501   0.373   4.750   6.520
 1868SOL     OW 6502   6.861   4.036   5.773
 1868SOL    HW1 6503   6.943   4.049   5.827
 1868SOL    HW2 6504   6.882   3.980   5.693
 1869SOL     OW 6505   6.390   1.881   4.297
 1869SOL    HW1 6506   6.391   1.793   4.346
 1869SOL    HW2 6507   6.422   1.953   4.359
 1870SOL     OW 6508   2.130   4.372   4.652
 1870SOL    HW1 6509   2.178   4.319   4.721
 1870SOL    HW2 6510   2.123   4.467   4.682
 1871SOL     OW 6511   1.556   0.665   0.753
 1871SOL    HW1 6512   1.494   0.589   0.736
 1871SOL    HW2 6513   1.554   0.688   0.850
 1872SOL     OW 6514   1.736   4.671   6.691
 1872SOL    HW1 6515   1.760   4.575   6.675
 1872SOL    HW2 6516   1.655   4.676   6.750
 1873SOL     OW 6517   5.008   7.009   6.964
 1873SOL    HW1 6518   4.926   7.026   7.018
 1873SOL    HW2 6519   5.089   7.022   7.022
 1874SOL     OW 6520   0.550   4.134   2.848
 1874SOL    HW1 6521   0.634   4.181   2.873
 1874SOL    HW2 6522   0.473   4.198   2.856
 1875SOL     OW 6523   0.858   6.392   1.771
 1875SOL    HW1 6524   0.759   6.388   1.782
 1875SOL    HW2 6525   0.902   6.376   1.859
 1876SOL     OW 6526   2.168   6.736   3.514
 1876SOL    HW1 6527   2.238   6.755   3.583
 1876SOL    HW2 6528   2.100   6.673   3.553
 1877SOL     OW 6529   0.342   6.927   3.842
 1877SOL    HW1 6530   0.430   6.968   3.867
 1877SOL    HW2 6531   0.286   6.994   3.794
 1878SOL     OW 6532   6.448   2.732   5.914
 1878SOL    HW1 6533   6.380   2.789   5.959
 1878SOL    HW2 6534   6.511   2.790   5.863
 1879SOL     OW 6535   1.460   4.729   5.779
 1879SOL    HW1 6536   1.424   4.638   5.800
 1879SOL    HW2 6537   1.390   4.782   5.730
 1880SOL     OW 6538   6.139   0.406   4.732
 1880SOL    HW1 6539   6.075   0.329   4.732
 1880SOL    HW2 6540   6.233   0.372   4.740
 1881SOL     OW 6541   6.642   2.085   0.077
 1881SOL    HW1 6542   6.558   2.113   0.031
 1881SOL    HW2 6543   6.704   2.163   0.083
 1882SOL     OW 6544   1.738   6.463   0.041
 1882SOL    HW1 6545   1.837   6.459   0.033
 1882SOL    HW2 6546   1.699   6.373   0.021
 1883SOL     OW 6547   0.504   1.717   4.265
 1883SOL    HW1 6548   0.438   1.678   4.201
 1883SOL    HW2 6549   0.514   1.815   4.249
 1884SOL     OW 6550   6.734   2.043   1.240
 1884SOL    HW1 6551   6.740   2.085   1.150
 1884SOL    HW2 6552   6.639   2.024   1.263
 1885SOL     OW 6553   2.675   1.382   4.051
 1885SOL    HW1 6554   2.752   1.345   4.104
 1885SOL    HW2 6555   2.645   1.468   4.092
 1886SOL     OW 6556   0.884   6.218   2.921
 1886SOL    HW1 6557   0.916   6.238   2.828
 1886SOL    HW2 6558   0.789   6.186   2.917
 1887SOL     OW 6559   2.572   6.000   6.079
 1887SOL    HW1 6560   2.614   6.011   6.169
 1887SOL    HW2 6561   2.643   5.978   6.012
 1888SOL     OW 6562   2.480   0.635   3.116
 1888SOL    HW1 6563   2.424   0.556   3.141
 1888SOL    HW2 6564   2.573   0.623   3.151
 1889SOL     OW 6565   0.420   3.270   2.969
 1889SOL    HW1 6566   0.363   3.351   2.959
 1889SOL    HW2 6567   0.377   3.193   2.924
 1890SOL     OW 6568   1.393   6.041   4.779
 1890SOL    HW1 6569   1.294   6.027   4.780
 1890SOL    HW2 6570   1.428   6.037   4.872
 1891SOL     OW 6571   3.712   3.353   3.724
 1891SOL    HW1 6572   3.637   3.291   3.745
 1891SOL    HW2 6573   3.780   3.306   3.668
 1892SOL     OW 6574   0.617   0.220   2.800
 1892SOL    HW1 6575   0.542   0.154   2.807
 1892SOL    HW2 6576   0.703   0.175   2.824
 1893SOL     OW 6577   3.427   3.236   4.461
 1893SOL    HW1 6578   3.403   3.330   4.436
 1893SOL    HW2 6579   3.449   3.231   4.558
 1894SOL     OW 6580   3.173   3.470   4.165
 1894SOL    HW1 6581   3.197   3.536   4.095
 1894SOL    HW2 6582   3.215   3.496   4.252
 1895SOL     OW 6583   1.525   5.981   0.464
 1895SOL    HW1 6584   1.426   5.968   0.477
 1895SOL    HW2 6585   1.553   6.068   0.504
 1896SOL     OW 6586   6.569   2.338   1.195
 1896SOL    HW1 6587   6.500   2.326   1.266
 1896SOL    HW2 6588   6.625   2.256   1.188
 1897SOL     OW 6589   1.118   4.420   4.209
 1897SOL    HW1 6590   1.206   4.381   4.235
 1897SOL    HW2 6591   1.052   4.346   4.194
 1898SOL     OW 6592   1.818   5.963   2.814
 1898SOL    HW1 6593   1.873   5.916   2.883
 1898SOL    HW2 6594   1.721   5.959   2.840
 1899SOL     OW 6595   0.327   0.967   2.245
 1899SOL    HW1 6596   0.388   1.029   2.294
 1899SOL    HW2 6597   0.376   0.882   2.223
 1900SOL     OW 6598   2.890   6.705   6.840
 1900SOL    HW1 6599   2.927   6.727   6.750
 1900SOL    HW2 6600   2.961   6.718   6.909
 1901SOL     OW 6601   2.878   3.567   2.145
 1901SOL    HW1 6602   2.791   3.524   2.169
 1901SOL    HW2 6603   2.882   3.579   2.045
 1902SOL     OW 6604   1.413   6.644   5.187
 1902SOL    HW1 6605   1.474   6.625   5.264
 1902SOL    HW2 6606   1.467   6.669   5.106
 1903SOL     OW 6607   1.113   1.897   4.345
 1903SOL    HW1 6608   1.157   1.987   4.342
 1903SOL    HW2 6609   1.145   1.841   4.268
 1904SOL     OW 6610   5.969   5.942   1.677
 1904SOL    HW1 6611   5.990   6.037   1.699
 1904SOL    HW2 6612   5.875   5.921   1.706
 1905SOL     OW 6613   0.816   1.855   4.138
 1905SOL    HW1 6614   0.822   1.762   4.175
 1905SOL    HW2 6615   0.882   1.864   4.063
 1906SOL     OW 6616   0.725   6.440   4.533
 1906SOL    HW1 6617   0.692   6.516   4.589
 1906SOL    HW2 6618   0.744   6.361   4.591
 1907SOL     OW 6619   6.058   3.102   0.805
 1907SOL    HW1 6620   6.067   3.035   0.879
 1907SOL    HW2 6621   6.132   3.089   0.739
 1908SOL     OW 6622   3.758   0.973   1.582
 1908SOL    HW1 6623   3.786   1.047   1.521
 1908SOL    HW2 6624   3.788   0.993   1.675
 1909SOL     OW 6625   6.447   5.449   4.833
 1909SOL    HW1 6626   6.490   5.533   4.798
 1909SOL    HW2 6627   6.473   5.372   4.775
 1910SOL     OW 6628   0.506   6.064   5.791
 1910SOL    HW1 6629   0.532   6.097   5.700
 1910SOL    HW2 6630   0.433   6.122   5.828
 1911SOL     OW 6631   5.769   6.072   4.519
 1911SOL    HW1 6632   5.781   6.151   4.580
 1911SOL    HW2 6633   5.792   6.099   4.426
 1912SOL     OW 6634   3.473   5.257   2.321
 1912SOL    HW1 6635   3.477   5.191   2.397
 1912SOL    HW2 6636   3.380   5.291   2.311
 1913SOL     OW 6637   2.868   4.314   6.908
 1913SOL    HW1 6638   2.874   4.217   6.885
 1913SOL    HW2 6639   2.773   4.344   6.896
 1914SOL     OW 6640   3.652   4.298   0.168
 1914SOL    HW1 6641   3.736   4.323   0.216
 1914SOL    HW2 6642   3.657   4.202   0.140
 1915SOL     OW 6643   3.709   3.013   6.964
 1915SOL    HW1 6644   3.750   3.041   0.022
 1915SOL    HW2 6645   3.744   2.923   6.938
 1916SOL     OW 6646   4.252   0.925   2.258
 1916SOL    HW1 6647   4.248   0.853   2.327
 1916SOL    HW2 6648   4.185   0.907   2.186
 1917SOL     OW 6649   1.971   4.008   1.573
 1917SOL    HW1 6650   1.980   4.108   1.567
 1917SOL    HW2 6651   1.943   3.972   1.484
 1918SOL     OW 6652   5.113   2.248   3.679
 1918SOL    HW1 6653   5.075   2.224   3.589
 1918SOL    HW2 6654   5.109   2.347   3.691
 1919SOL     OW 6655   6.247   2.387   6.358
 1919SOL    HW1 6656   6.285   2.332   6.283
 1919SOL    HW2 6657   6.222   2.477   6.324
 1920SOL     OW 6658   4.572   3.574   0.454
 1920SOL    HW1 6659   4.598   3.572   0.358
 1920SOL    HW2 6660   4.637   3.631   0.505
 1921SOL     OW 6661   2.356   2.340   0.467
 1921SOL    HW1 6662   2.348   2.402   0.545
 1921SOL    HW2 6663   2.308   2.255   0.487
 1922SOL     OW 6664   3.069   3.318   4.465
 1922SOL    HW1 6665   3.148   3.376   4.481
 1922SOL    HW2 6666   2.986   3.368   4.490
 1923SOL     OW 6667   3.010   0.656   4.031
 1923SOL    HW1 6668   3.021   0.557   4.032
 1923SOL    HW2 6669   2.912   0.678   4.034
 1924SOL     OW 6670   5.470   0.849   0.574
 1924SOL    HW1 6671   5.516   0.888   0.494
 1924SOL    HW2 6672   5.384   0.807   0.545
 1925SOL     OW 6673   0.895   4.280   0.905
 1925SOL    HW1 6674   0.812   4.291   0.851
 1925SOL    HW2 6675   0.892   4.193   0.955
 1926SOL     OW 6676   3.483   0.198   1.575
 1926SOL    HW1 6677   3.549   0.128   1.601
 1926SOL    HW2 6678   3.521   0.256   1.504
 1927SOL     OW 6679   2.056   5.755   1.078
 1927SOL    HW1 6680   1.987   5.701   1.030
 1927SOL    HW2 6681   2.100   5.817   1.013
 1928SOL     OW 6682   7.019   4.417   3.058
 1928SOL    HW1 6683   7.021   4.506   3.012
 1928SOL    HW2 6684   6.941   4.364   3.026
 1929SOL     OW 6685   3.410   6.789   3.599
 1929SOL    HW1 6686   3.446   6.701   3.627
 1929SOL    HW2 6687   3.470   6.830   3.530
 1930SOL     OW 6688   3.710   2.951   0.228
 1930SOL    HW1 6689   3.660   2.890   0.167
 1930SOL    HW2 6690   3.743   2.900   0.307
 1931SOL     OW 6691   6.549   3.319   3.574
 1931SOL    HW1 6692   6.548   3.263   3.491
 1931SOL    HW2 6693   6.562   3.260   3.654
 1932SOL     OW 6694   5.229   0.360   2.204
 1932SOL    HW1 6695   5.260   0.324   2.292
 1932SOL    HW2 6696   5.200   0.455   2.215
 1933SOL     OW 6697   1.342   1.751   1.345
 1933SOL    HW1 6698   1.434   1.751   1.384
 1933SOL    HW2 6699   1.277   1.786   1.413
 1934SOL     OW 6700   0.081   1.133   0.133
 1934SOL    HW1 6701   0.140   1.114   0.055
 1934SOL    HW2 6702   0.046   1.227   0.126
 1935SOL     OW 6703   5.748   5.256   3.627
 1935SOL    HW1 6704   5.691   5.203   3.690
 1935SOL    HW2 6705   5.719   5.352   3.628
 1936SOL     OW 6706   5.179   3.199   6.636
 1936SOL    HW1 6707   5.081   3.182   6.624
 1936SOL    HW2 6708   5.208   3.273   6.576
 1937SOL     OW 6709   6.940   4.610   6.979
 1937SOL    HW1 6710   6.892   4.696   7.001
 1937SOL    HW2 6711   6.875   4.545   6.940
 1938SOL     OW 6712   6.540   1.869   0.207
 1938SOL    HW1 6713   6.584   1.938   0.150
 1938SOL    HW2 6714   6.462   1.830   0.158
 1939SOL     OW 6715   0.244   0.289   4.194
 1939SOL    HW1 6716   0.330   0.264   4.149
 1939SOL    HW2 6717   0.193   0.351   4.135
 1940SOL     OW 6718   0.689   5.342   1.422
 1940SOL    HW1 6719   0.736   5.414   1.472
 1940SOL    HW2 6720   0.735   5.254   1.439
 1941SOL     OW 6721   5.954   1.117   4.384
 1941SOL    HW1 6722   5.992   1.046   4.442
 1941SOL    HW2 6723   6.016   1.133   4.307
 1942SOL     OW 6724   0.345   5.541   2.056
 1942SOL    HW1 6725   0.259   5.534   2.107
 1942SOL    HW2 6726   0.331   5.509   1.963
 1943SOL     OW 6727   0.712   3.087   4.055
 1943SOL    HW1 6728   0.639   3.152   4.034
 1943SOL    HW2 6729   0.792   3.136   4.088
 1944SOL     OW 6730   0.743   3.028   3.767
 1944SOL    HW1 6731   0.724   2.930   3.759
 1944SOL    HW2 6732   0.682   3.070   3.834
 1945SOL     OW 6733   5.345   1.712   2.435
 1945SOL    HW1 6734   5.267   1.735   2.376
 1945SOL    HW2 6735   5.321   1.635   2.494
 1946SOL     OW 6736   5.934   5.744   0.682
 1946SOL    HW1 6737   5.858   5.721   0.742
 1946SOL    HW2 6738   6.021   5.726   0.729
 1947SOL     OW 6739   6.044   5.605   2.725
 1947SOL    HW1 6740   6.066   5.510   2.744
 1947SOL    HW2 6741   5.957   5.629   2.768
 1948SOL     OW 6742   5.498   3.592   3.490
 1948SOL    HW1 6743   5.411   3.640   3.499
 1948SOL    HW2 6744   5.572   3.659   3.478
 1949SOL     OW 6745   3.291   4.350   6.381
 1949SOL    HW1 6746   3.196   4.337   6.353
 1949SOL    HW2 6747   3.352   4.311   6.311
 1950SOL     OW 6748   4.053   3.546   3.464
 1950SOL    HW1 6749   4.083   3.550   3.559
 1950SOL    HW2 6750   4.065   3.453   3.429
 1951SOL     OW 6751   6.569   5.783   5.905
 1951SOL    HW1 6752   6.646   5.746   5.957
 1951SOL    HW2 6753   6.592   5.784   5.807
 1952SOL     OW 6754   5.614   4.208   6.531
 1952SOL    HW1 6755   5.576   4.202   6.623
 1952SOL    HW2 6756   5.614   4.304   6.501
 1953SOL     OW 6757   0.990   0.839   0.138
 1953SOL    HW1 6758   0.988   0.776   0.060
 1953SOL    HW2 6759   0.994   0.786   0.223
 1954SOL     OW 6760   3.870   0.056   2.464
 1954SOL    HW1 6761   3.963   0.072   2.433
 1954SOL    HW2 6762   3.841   6.992   2.437
 1955SOL     OW 6763   6.443   2.453   4.129
 1955SOL    HW1 6764   6.455   2.428   4.033
 1955SOL    HW2 6765   6.472   2.376   4.187
 1956SOL     OW 6766   4.859   1.117   1.339
 1956SOL    HW1 6767   4.831   1.212   1.356
 1956SOL    HW2 6768   4.935   1.094   1.399
 1957SOL     OW 6769   6.528   2.615   4.336
 1957SOL    HW1 6770   6.493   2.547   4.272
 1957SOL    HW2 6771   6.535   2.703   4.290
 1958SOL     OW 6772   3.988   1.704   0.434
 1958SOL    HW1 6773   3.999   1.712   0.533
 1958SOL    HW2 6774   3.896   1.735   0.408
 1959SOL     OW 6775   1.556   1.542   5.710
 1959SOL    HW1 6776   1.471   1.587   5.736
 1959SOL    HW2 6777   1.542   1.490   5.626
 1960SOL     OW 6778   5.276   4.286   2.666
 1960SOL    HW1 6779   5.229   4.205   2.703
 1960SOL    HW2 6780   5.253   4.366   2.722
 1961SOL     OW 6781   0.280   4.079   4.548
 1961SOL    HW1 6782   0.185   4.081   4.517
 1961SOL    HW2 6783   0.316   4.172   4.551
 1962SOL     OW 6784   0.622   6.842   2.245
 1962SOL    HW1 6785   0.674   6.786   2.310
 1962SOL    HW2 6786   0.563   6.905   2.296
 1963SOL     OW 6787   0.740   2.320   0.018
 1963SOL    HW1 6788   0.706   2.377   0.092
 1963SOL    HW2 6789   0.743   2.373   6.961
 1964SOL     OW 6790   5.843   3.265   0.874
 1964SOL    HW1 6791   5.921   3.211   0.844
 1964SOL    HW2 6792   5.768   3.254   0.809
 1965SOL     OW 6793   5.859   4.662   4.415
 1965SOL    HW1 6794   5.882   4.677   4.511
 1965SOL    HW2 6795   5.876   4.745   4.363
 1966SOL     OW 6796   0.993   5.224   6.771
 1966SOL    HW1 6797   1.081   5.215   6.817
 1966SOL    HW2 6798   0.998   5.185   6.680
 1967SOL     OW 6799   6.778   2.711   4.830
 1967SOL    HW1 6800   6.786   2.621   4.873
 1967SOL    HW2 6801   6.789   2.783   4.899
 1968SOL     OW 6802   2.299   1.409   5.990
 1968SOL    HW1 6803   2.259   1.476   6.052
 1968SOL    HW2 6804   2.235   1.334   5.976
 1969SOL     OW 6805   0.937   5.972   1.274
 1969SOL    HW1 6806   0.972   5.880   1.257
 1969SOL    HW2 6807   0.900   6.010   1.188
 1970SOL     OW 6808   5.501   4.522   3.603
 1970SOL    HW1 6809   5.436   4.468   3.657
 1970SOL    HW2 6810   5.465   4.614   3.589
 1971SOL     OW 6811   1.978   5.087   4.388
 1971SOL    HW1 6812   2.028   5.044   4.313
 1971SOL    HW2 6813   1.974   5.186   4.374
 1972SOL     OW 6814   5.844   2.371   2.593
 1972SOL    HW1 6815   5.779   2.448   2.589
 1972SOL    HW2 6816   5.851   2.338   2.687
 1973SOL     OW 6817   3.642   2.237   0.403
 1973SOL    HW1 6818   3.692   2.294   0.469
 1973SOL    HW2 6819   3.558   2.203   0.445
 1974SOL     OW 6820   2.412   6.541   4.700
 1974SOL    HW1 6821   2.350   6.475   4.743
 1974SOL    HW2 6822   2.490   6.558   4.760
 1975SOL     OW 6823   2.053   3.088   2.218
 1975SOL    HW1 6824   2.071   3.185   2.237
 1975SOL    HW2 6825   1.979   3.056   2.277
 1976SOL     OW 6826   1.569   1.275   5.124
 1976SOL    HW1 6827   1.535   1.263   5.031
 1976SOL    HW2 6828   1.558   1.189   5.175
 1977SOL     OW 6829   1.315   3.778   6.597
 1977SOL    HW1 6830   1.232   3.769   6.542
 1977SOL    HW2 6831   1.292   3.818   6.686
 1978SOL     OW 6832   3.010   0.079   2.052
 1978SOL    HW1 6833   2.986   0.098   2.147
 1978SOL    HW2 6834   3.065   0.154   2.016
 1979SOL     OW 6835   5.328   3.828   6.324
 1979SOL    HW1 6836   5.315   3.762   6.250
 1979SOL    HW2 6837   5.407   3.802   6.379
 1980SOL     OW 6838   4.314   0.423   1.399
 1980SOL    HW1 6839   4.336   0.496   1.334
 1980SOL    HW2 6840   4.222   0.437   1.435
 1981SOL     OW 6841   4.479   2.232   1.733
 1981SOL    HW1 6842   4.496   2.297   1.807
 1981SOL    HW2 6843   4.380   2.218   1.723
 1982SOL     OW 6844   1.601   2.588   6.483
 1982SOL    HW1 6845   1.630   2.526   6.556
 1982SOL    HW2 6846   1.562   2.671   6.523
 1983SOL     OW 6847   0.323   1.793   1.876
 1983SOL    HW1 6848   0.246   1.810   1.814
 1983SOL    HW2 6849   0.289   1.772   1.967
 1984SOL     OW 6850   4.745   3.551   5.892
 1984SOL    HW1 6851   4.657   3.545   5.845
 1984SOL    HW2 6852   4.808   3.605   5.836
 1985SOL     OW 6853   6.108   4.492   4.409
 1985SOL    HW1 6854   6.026   4.538   4.441
 1985SOL    HW2 6855   6.119   4.506   4.311
 1986SOL     OW 6856   2.861   3.513   3.052
 1986SOL    HW1 6857   2.925   3.444   3.019
 1986SOL    HW2 6858   2.864   3.517   3.152
 1987SOL     OW 6859   2.098   1.407   2.180
 1987SOL    HW1 6860   2.186   1.451   2.193
 1987SOL    HW2 6861   2.032   1.474   2.144
 1988SOL     OW 6862   0.817   2.113   2.874
 1988SOL    HW1 6863   0.909   2.074   2.869
 1988SOL    HW2 6864   0.789   2.117   2.970
 1989SOL     OW 6865   3.235   5.321   4.646
 1989SOL    HW1 6866   3.312   5.320   4.710
 1989SOL    HW2 6867   3.236   5.408   4.595
 1990SOL     OW 6868   4.384   6.342   0.592
 1990SOL    HW1 6869   4.480   6.331   0.566
 1990SOL    HW2 6870   4.340   6.253   0.597
 1991SOL     OW 6871   2.840   5.829   1.847
 1991SOL    HW1 6872   2.877   5.844   1.755
 1991SOL    HW2 6873   2.753   5.780   1.841
 1992SOL     OW 6874   1.318   6.756   3.262
 1992SOL    HW1 6875   1.350   6.703   3.341
 1992SOL    HW2 6876   1.394   6.768   3.197
 1993SOL     OW 6877   1.942   1.599   2.396
 1993SOL    HW1 6878   1.925   1.527   2.329
 1993SOL    HW2 6879   1.932   1.688   2.353
 1994SOL     OW 6880   3.053   3.623   1.504
 1994SOL    HW1 6881   2.983   3.672   1.452
 1994SOL    HW2 6882   3.045   3.525   1.489
 1995SOL     OW 6883   5.903   1.189   3.987
 1995SOL    HW1 6884   5.900   1.229   4.078
 1995SOL    HW2 6885   5.850   1.247   3.924
 1996SOL     OW 6886   4.548   0.337   0.799
 1996SOL    HW1 6887   4.503   0.407   0.744
 1996SOL    HW2 6888   4.581   0.377   0.884
 1997SOL     OW 6889   3.813   1.200   3.589
 1997SOL    HW1 6890   3.766   1.256   3.521
 1997SOL    HW2 6891   3.879   1.141   3.542
 1998SOL     OW 6892   2.561   3.937   1.047
 1998SOL    HW1 6893   2.516   4.000   0.984
 1998SOL    HW2 6894   2.510   3.851   1.052
 1999SOL     OW 6895   0.661   0.036   6.508
 1999SOL    HW1 6896   0.756   0.049   6.537
 1999SOL    HW2 6897   0.645   0.088   6.425
 2000SOL     OW 6898   4.203   4.427   6.552
 2000SOL    HW1 6899   4.142   4.360   6.510
 2000SOL    HW2 6900   4.151   4.484   6.616
 2001SOL     OW 6901   1.419   2.127   0.791
 2001SOL    HW1 6902   1.438   2.035   0.826
 2001SOL    HW2 6903   1.351   2.171   0.849
 2002SOL     OW 6904   5.913   5.416   0.740
 2002SOL    HW1 6905   5.904   5.317   0.740
 2002SOL    HW2 6906   5.972   5.444   0.663
 2003SOL     OW 6907   5.990   5.823   1.229
 2003SOL    HW1 6908   5.967   5.860   1.319
 2003SOL    HW2 6909   6.066   5.876   1.191
 2004SOL     OW 6910   4.127   0.159   3.154
 2004SOL    HW1 6911   4.199   0.183   3.089
 2004SOL    HW2 6912   4.037   0.178   3.114
 2005SOL     OW 6913   1.622   6.699   7.013
 2005SOL    HW1 6914   1.682   6.774   0.014
 2005SOL    HW2 6915   1.662   6.611   0.011
 2006SOL     OW 6916   6.435   6.960   2.243
 2006SOL    HW1 6917   6.506   7.026   2.268
 2006SOL    HW2 6918   6.345   7.003   2.248
 2007SOL     OW 6919   5.570   5.331   5.903
 2007SOL    HW1 6920   5.656   5.373   5.874
 2007SOL    HW2 6921   5.563   5.332   6.003
 2008SOL     OW 6922   1.840   3.432   2.908
 2008SOL    HW1 6923   1.807   3.465   2.996
 2008SOL    HW2 6924   1.932   3.468   2.891
 2009SOL     OW 6925   6.031   6.942   3.195
 2009SOL    HW1 6926   5.948   6.948   3.251
 2009SOL    HW2 6927   6.010   6.896   3.109
 2010SOL     OW 6928   0.402   1.462   1.634
 2010SOL    HW1 6929   0.432   1.538   1.692
 2010SOL    HW2 6930   0.481   1.410   1.604
 2011SOL     OW 6931   1.208   0.049   5.103
 2011SOL    HW1 6932   1.202   6.978   5.118
 2011SOL    HW2 6933   1.305   0.076   5.099
 2012SOL     OW 6934   0.197   2.587   0.605
 2012SOL    HW1 6935   0.297   2.591   0.609
 2012SOL    HW2 6936   0.167   2.493   0.621
 2013SOL     OW 6937   0.903   2.948   2.375
 2013SOL    HW1 6938   0.950   2.897   2.448
 2013SOL    HW2 6939   0.899   3.045   2.399
 2014SOL     OW 6940   3.669   1.578   3.960
 2014SOL    HW1 6941   3.622   1.498   3.924
 2014SOL    HW2 6942   3.744   1.549   4.019
 2015SOL     OW 6943   3.899   6.042   1.634
 2015SOL    HW1 6944   3.815   5.995   1.663
 2015SOL    HW2 6945   3.954   5.980   1.579
 2016SOL     OW 6946   1.610   1.058   5.282
 2016SOL    HW1 6947   1.615   0.960   5.263
 2016SOL    HW2 6948   1.703   1.094   5.294
 2017SOL     OW 6949   2.708   6.577   4.597
 2017SOL    HW1 6950   2.701   6.553   4.694
 2017SOL    HW2 6951   2.634   6.641   4.574
 2018SOL     OW 6952   0.503   0.375   4.633
 2018SOL    HW1 6953   0.591   0.335   4.607
 2018SOL    HW2 6954   0.517   0.470   4.662
 2019SOL     OW 6955   6.717   4.460   6.893
 2019SOL    HW1 6956   6.756   4.374   6.861
 2019SOL    HW2 6957   6.736   4.532   6.827
 2020SOL     OW 6958   1.728   0.142   1.303
 2020SOL    HW1 6959   1.633   0.128   1.331
 2020SOL    HW2 6960   1.732   0.166   1.206
 2021SOL     OW 6961   0.069   5.686   4.169
 2021SOL    HW1 6962   0.113   5.610   4.122
 2021SOL    HW2 6963   0.087   5.771   4.120
 2022SOL     OW 6964   1.651   3.264   4.480
 2022SOL    HW1 6965   1.718   3.192   4.497
 2022SOL    HW2 6966   1.589   3.272   4.558
 2023SOL     OW 6967   0.537   5.385   0.133
 2023SOL    HW1 6968   0.470   5.352   0.200
 2023SOL    HW2 6969   0.538   5.485   0.133
 2024SOL     OW 6970   6.838   5.738   3.659
 2024SOL    HW1 6971   6.795   5.755   3.748
 2024SOL    HW2 6972   6.822   5.817   3.599
 2025SOL     OW 6973   2.285   0.089   4.211
 2025SOL    HW1 6974   2.346   0.046   4.278
 2025SOL    HW2 6975   2.229   0.158   4.257
 2026SOL     OW 6976   1.625   0.050   5.543
 2026SOL    HW1 6977   1.633   7.010   5.470
 2026SOL    HW2 6978   1.682   0.022   5.621
 2027SOL     OW 6979   6.481   6.102   2.899
 2027SOL    HW1 6980   6.502   6.192   2.937
 2027SOL    HW2 6981   6.386   6.079   2.921
 2028SOL     OW 6982   2.518   5.982   5.178
 2028SOL    HW1 6983   2.527   6.045   5.101
 2028SOL    HW2 6984   2.604   5.977   5.228
 2029SOL     OW 6985   6.147   1.703   6.867
 2029SOL    HW1 6986   6.213   1.694   6.942
 2029SOL    HW2 6987   6.138   1.615   6.821
 2030SOL     OW 6988   1.842   6.591   2.828
 2030SOL    HW1 6989   1.888   6.561   2.912
 2030SOL    HW2 6990   1.901   6.570   2.749
 2031SOL     OW 6991   0.310   6.730   5.677
 2031SOL    HW1 6992   0.265   6.688   5.757
 2031SOL    HW2 6993   0.399   6.766   5.704
 2032SOL     OW 6994   2.466   2.892   6.432
 2032SOL    HW1 6995   2.429   2.863   6.520
 2032SOL    HW2 6996   2.565   2.880   6.431
 2033SOL     OW 6997   2.367   0.892   1.177
 2033SOL    HW1 6998   2.311   0.836   1.116
 2033SOL    HW2 6999   2.427   0.834   1.232
 2034SOL     OW 7000   0.497   4.442   5.247
 2034SOL    HW1 7001   0.548   4.521   5.280
 2034SOL    HW2 7002   0.430   4.471   5.179
 2035SOL     OW 7003   5.944   5.354   2.578
 2035SOL    HW1 7004   6.000   5.342   2.659
 2035SOL    HW2 7005   5.853   5.388   2.604
 2036SOL     OW 7006   0.695   3.950   6.233
 2036SOL    HW1 7007   0.746   3.924   6.315
 2036SOL    HW2 7008   0.734   3.904   6.153
 2037SOL     OW 7009   0.634   2.467   6.494
 2037SOL    HW1 7010   0.587   2.479   6.581
 2037SOL    HW2 7011   0.700   2.541   6.481
 2038SOL     OW 7012   1.276   0.921   5.920
 2038SOL    HW1 7013   1.223   0.867   5.855
 2038SOL    HW2 7014   1.224   0.932   6.005
 2039SOL     OW 7015   5.385   5.839   4.287
 2039SOL    HW1 7016   5.483   5.853   4.270
 2039SOL    HW2 7017   5.360   5.746   4.260
 2040SOL     OW 7018   2.634   1.694   0.770
 2040SOL    HW1 7019   2.534   1.688   0.763
 2040SOL    HW2 7020   2.662   1.790   0.772
 2041SOL     OW 7021   3.085   6.769   7.023
 2041SOL    HW1 7022   3.021   6.749   0.069
 2041SOL    HW2 7023   3.110   6.865   7.025
 2042SOL     OW 7024   0.221   7.011   5.654
 2042SOL    HW1 7025   0.237   6.914   5.674
 2042SOL    HW2 7026   0.172   7.019   5.567
 2043SOL     OW 7027   0.570   3.763   0.159
 2043SOL    HW1 7028   0.530   3.724   0.242
 2043SOL    HW2 7029   0.646   3.706   0.129
 2044SOL     OW 7030   3.865   0.677   1.658
 2044SOL    HW1 7031   3.823   0.735   1.727
 2044SOL    HW2 7032   3.920   0.606   1.702
 2045SOL     OW 7033   1.848   5.899   3.247
 2045SOL    HW1 7034   1.763   5.934   3.285
 2045SOL    HW2 7035   1.910   5.976   3.228
 2046SOL     OW 7036   0.787   2.880   6.004
 2046SOL    HW1 7037   0.869   2.868   6.060
 2046SOL    HW2 7038   0.770   2.977   5.991
 2047SOL     OW 7039   6.935   7.022   1.425
 2047SOL    HW1 7040   6.909   0.050   1.504
 2047SOL    HW2 7041   6.922   6.925   1.447
 2048SOL     OW 7042   1.805   0.757   3.427
 2048SOL    HW1 7043   1.898   0.724   3.413
 2048SOL    HW2 7044   1.805   0.857   3.426
 2049SOL     OW 7045   4.561   2.004   5.406
 2049SOL    HW1 7046   4.654   1.966   5.400
 2049SOL    HW2 7047   4.534   2.040   5.317
 2050SOL     OW 7048   0.456   0.826   2.746
 2050SOL    HW1 7049   0.524   0.840   2.818
 2050SOL    HW2 7050   0.399   0.907   2.737
 2051SOL     OW 7051   3.015   6.797   6.613
 2051SOL    HW1 7052   2.961   6.785   6.530
 2051SOL    HW2 7053   3.044   6.892   6.621
 2052SOL     OW 7054   6.970   4.125   1.289
 2052SOL    HW1 7055   6.995   4.217   1.257
 2052SOL    HW2 7056   6.871   4.118   1.296
 2053SOL     OW 7057   5.213   4.662   2.033
 2053SOL    HW1 7058   5.222   4.754   1.994
 2053SOL    HW2 7059   5.291   4.607   2.006
 2054SOL     OW 7060   3.422   4.157   2.979
 2054SOL    HW1 7061   3.448   4.250   3.005
 2054SOL    HW2 7062   3.459   4.092   3.045
 2055SOL     OW 7063   4.040   2.706   6.077
 2055SOL    HW1 7064   4.049   2.684   6.174
 2055SOL    HW2 7065   4.032   2.805   6.065
 2056SOL     OW 7066   2.721   4.864   1.867
 2056SOL    HW1 7067   2.738   4.795   1.938
 2056SOL    HW2 7068   2.757   4.832   1.780
 2057SOL     OW 7069   5.834   3.204   3.940
 2057SOL    HW1 7070   5.847   3.257   3.857
 2057SOL    HW2 7071   5.737   3.205   3.966
 2058SOL     OW 7072   5.500   6.901   3.529
 2058SOL    HW1 7073   5.415   6.880   3.577
 2058SOL    HW2 7074   5.502   6.852   3.441
 2059SOL     OW 7075   2.179   1.628   5.799
 2059SOL    HW1 7076   2.110   1.587   5.859
 2059SOL    HW2 7077   2.196   1.567   5.721
 2060SOL     OW 7078   1.026   2.549   6.483
 2060SOL    HW1 7079   1.015   2.560   6.384
 2060SOL    HW2 7080   1.115   2.508   6.503
 2061SOL     OW 7081   1.776   2.025   4.177
 2061SOL    HW1 7082   1.850   2.079   4.139
 2061SOL    HW2 7083   1.798   1.928   4.170
 2062SOL     OW 7084   5.731   5.606   4.225
 2062SOL    HW1 7085   5.801   5.617   4.296
 2062SOL    HW2 7086   5.692   5.695   4.203
 2063SOL     OW 7087   1.452   1.361   4.044
 2063SOL    HW1 7088   1.502   1.362   4.130
 2063SOL    HW2 7089   1.468   1.446   3.994
 2064SOL     OW 7090   0.649   4.166   4.834
 2064SOL    HW1 7091   0.649   4.264   4.816
 2064SOL    HW2 7092   0.738   4.138   4.870
 2065SOL     OW 7093   3.794   3.527   5.929
 2065SOL    HW1 7094   3.879   3.488   5.963
 2065SOL    HW2 7095   3.767   3.605   5.986
 2066SOL     OW 7096   1.968   2.663   4.521
 2066SOL    HW1 7097   2.067   2.649   4.509
 2066SOL    HW2 7098   1.933   2.719   4.445
 2067SOL     OW 7099   6.577   4.895   2.376
 2067SOL    HW1 7100   6.523   4.962   2.426
 2067SOL    HW2 7101   6.618   4.939   2.295
 2068SOL     OW 7102   3.565   6.444   4.131
 2068SOL    HW1 7103   3.590   6.368   4.071
 2068SOL    HW2 7104   3.647   6.494   4.158
 2069SOL     OW 7105   6.390   1.555   3.239
 2069SOL    HW1 7106   6.323   1.623   3.209
 2069SOL    HW2 7107   6.356   1.507   3.319
 2070SOL     OW 7108   0.302   5.087   1.803
 2070SOL    HW1 7109   0.375   5.089   1.871
 2070SOL    HW2 7110   0.318   5.012   1.739
 2071SOL     OW 7111   6.842   2.485   4.108
 2071SOL    HW1 7112   6.835   2.530   4.197
 2071SOL    HW2 7113   6.910   2.531   4.052
 2072SOL     OW 7114   5.646   3.371   5.702
 2072SOL    HW1 7115   5.638   3.470   5.707
 2072SOL    HW2 7116   5.578   3.334   5.639
 2073SOL     OW 7117   3.716   5.228   0.033
 2073SOL    HW1 7118   3.723   5.131   0.056
 2073SOL    HW2 7119   3.643   5.270   0.087
 2074SOL     OW 7120   3.800   4.822   5.303
 2074SOL    HW1 7121   3.776   4.887   5.232
 2074SOL    HW2 7122   3.892   4.786   5.287
 2075SOL     OW 7123   5.438   1.888   1.157
 2075SOL    HW1 7124   5.363   1.863   1.218
 2075SOL    HW2 7125   5.425   1.981   1.124
 2076SOL     OW 7126   6.682   6.917   3.858
 2076SOL    HW1 7127   6.761   6.931   3.799
 2076SOL    HW2 7128   6.655   7.004   3.899
 2077SOL     OW 7129   0.285   4.200   0.945
 2077SOL    HW1 7130   0.274   4.286   0.894
 2077SOL    HW2 7131   0.260   4.215   1.041
 2078SOL     OW 7132   0.771   2.897   6.733
 2078SOL    HW1 7133   0.757   2.958   6.655
 2078SOL    HW2 7134   0.796   2.806   6.701
 2079SOL     OW 7135   6.118   2.013   3.239
 2079SOL    HW1 7136   6.044   2.012   3.306
 2079SOL    HW2 7137   6.143   1.919   3.216
 2080SOL     OW 7138   2.228   3.618   5.902
 2080SOL    HW1 7139   2.235   3.715   5.927
 2080SOL    HW2 7140   2.268   3.604   5.811
 2081SOL     OW 7141   0.620   6.130   2.580
 2081SOL    HW1 7142   0.655   6.221   2.602
 2081SOL    HW2 7143   0.543   6.109   2.639
 2082SOL     OW 7144   6.771   5.981   3.556
 2082SOL    HW1 7145   6.679   5.989   3.595
 2082SOL    HW2 7146   6.797   6.068   3.515
 2083SOL     OW 7147   0.715   5.491   3.769
 2083SOL    HW1 7148   0.620   5.519   3.752
 2083SOL    HW2 7149   0.770   5.509   3.687
 2084SOL     OW 7150   6.323   2.347   1.332
 2084SOL    HW1 7151   6.305   2.291   1.412
 2084SOL    HW2 7152   6.363   2.434   1.360
 2085SOL     OW 7153   5.979   5.448   6.952
 2085SOL    HW1 7154   6.066   5.407   6.979
 2085SOL    HW2 7155   5.933   5.486   0.004
 2086SOL     OW 7156   6.188   0.059   5.915
 2086SOL    HW1 7157   6.144   0.148   5.904
 2086SOL    HW2 7158   6.270   0.069   5.972
 2087SOL     OW 7159   4.804   1.746   6.880
 2087SOL    HW1 7160   4.742   1.824   6.872
 2087SOL    HW2 7161   4.781   1.677   6.811
 2088SOL     OW 7162   0.535   3.863   5.806
 2088SOL    HW1 7163   0.531   3.935   5.875
 2088SOL    HW2 7164   0.571   3.779   5.846
 2089SOL     OW 7165   3.024   5.126   5.520
 2089SOL    HW1 7166   3.124   5.129   5.524
 2089SOL    HW2 7167   2.994   5.039   5.481
 2090SOL     OW 7168   5.166   2.335   6.517
 2090SOL    HW1 7169   5.110   2.403   6.469
 2090SOL    HW2 7170   5.246   2.381   6.556
 2091SOL     OW 7171   5.515   6.734   0.950
 2091SOL    HW1 7172   5.552   6.812   0.898
 2091SOL    HW2 7173   5.418   6.751   0.969
 2092SOL     OW 7174   3.428   2.901   2.472
 2092SOL    HW1 7175   3.332   2.927   2.477
 2092SOL    HW2 7176   3.448   2.862   2.382
 2093SOL     OW 7177   4.890   6.769   0.482
 2093SOL    HW1 7178   4.954   6.692   0.477
 2093SOL    HW2 7179   4.903   6.817   0.569
 2094SOL     OW 7180   4.943   2.861   0.629
 2094SOL    HW1 7181   4.868   2.858   0.562
 2094SOL    HW2 7182   5.026   2.894   0.584
 2095SOL     OW 7183   4.849   5.293   2.992
 2095SOL    HW1 7184   4.865   5.273   3.088
 2095SOL    HW2 7185   4.834   5.207   2.942
 2096SOL     OW 7186   4.177   6.451   2.955
 2096SOL    HW1 7187   4.147   6.508   2.878
 2096SOL    HW2 7188   4.207   6.362   2.922
 2097SOL     OW 7189   1.584   5.638   5.611
 2097SOL    HW1 7190   1.490   5.624   5.580
 2097SOL    HW2 7191   1.644   5.646   5.532
 2098SOL     OW 7192   1.822   7.011   3.830
 2098SOL    HW1 7193   1.855   6.980   3.741
 2098SOL    HW2 7194   1.797   0.079   3.825
 2099SOL     OW 7195   4.382   1.992   6.939
 2099SOL    HW1 7196   4.328   1.909   6.933
 2099SOL    HW2 7197   4.480   1.969   6.932
 2100SOL     OW 7198   4.550   0.415   0.307
 2100SOL    HW1 7199   4.554   0.448   0.212
 2100SOL    HW2 7200   4.521   0.319   0.308
 2101SOL     OW 7201   1.900   0.798   2.735
 2101SOL    HW1 7202   1.811   0.794   2.689
 2101SOL    HW2 7203   1.913   0.715   2.789
 2102SOL     OW 7204   3.337   2.763   1.925
 2102SOL    HW1 7205   3.338   2.790   2.021
 2102SOL    HW2 7206   3.253   2.712   1.906
 2103SOL     OW 7207   1.743   0.181   1.032
 2103SOL    HW1 7208   1.748   0.108   0.964
 2103SOL    HW2 7209   1.669   0.244   1.008
 2104SOL     OW 7210   1.233   4.306   2.490
 2104SOL    HW1 7211   1.279   4.330   2.575
 2104SOL    HW2 7212   1.188   4.217   2.500
 2105SOL     OW 7213   5.313   6.634   5.135
 2105SOL    HW1 7214   5.362   6.622   5.221
 2105SOL    HW2 7215   5.279   6.545   5.103
 2106SOL     OW 7216   3.403   2.311   1.362
 2106SOL    HW1 7217   3.480   2.366   1.333
 2106SOL    HW2 7218   3.368   2.258   1.285
 2107SOL     OW 7219   5.500   4.218   4.925
 2107SOL    HW1 7220   5.522   4.274   5.005
 2107SOL    HW2 7221   5.421   4.256   4.878
 2108SOL     OW 7222   4.762   6.913   5.373
 2108SOL    HW1 7223   4.726   6.962   5.453
 2108SOL    HW2 7224   4.853   6.877   5.395
 2109SOL     OW 7225   2.649   5.641   1.786
 2109SOL    HW1 7226   2.629   5.665   1.691
 2109SOL    HW2 7227   2.614   5.549   1.806
 2110SOL     OW 7228   3.986   5.932   6.898
 2110SOL    HW1 7229   4.004   5.835   6.882
 2110SOL    HW2 7230   3.968   5.948   6.995
 2111SOL     OW 7231   0.321   2.718   0.288
 2111SOL    HW1 7232   0.397   2.746   0.346
 2111SOL    HW2 7233   0.304   2.621   0.299
 2112SOL     OW 7234   0.676   0.617   6.900
 2112SOL    HW1 7235   0.676   0.526   6.940
 2112SOL    HW2 7236   0.748   0.622   6.830
 2113SOL     OW 7237   6.914   1.442   4.551
 2113SOL    HW1 7238   6.988   1.502   4.521
 2113SOL    HW2 7239   6.873   1.477   4.635
 2114SOL     OW 7240   2.798   1.116   5.235
 2114SOL    HW1 7241   2.706   1.101   5.199
 2114SOL    HW2 7242   2.830   1.207   5.211
 2115SOL     OW 7243   6.685   6.637   3.752
 2115SOL    HW1 7244   6.691   6.736   3.770
 2115SOL    HW2 7245   6.593   6.605   3.774
 2116SOL     OW 7246   2.220   1.082   6.512
 2116SOL    HW1 7247   2.256   0.991   6.494
 2116SOL    HW2 7248   2.173   1.082   6.601
 2117SOL     OW 7249   5.485   3.104   2.333
 2117SOL    HW1 7250   5.554   3.090   2.405
 2117SOL    HW2 7251   5.468   3.017   2.287
 2118SOL     OW 7252   0.235   3.020   2.887
 2118SOL    HW1 7253   0.171   3.004   2.812
 2118SOL    HW2 7254   0.304   2.947   2.888
 2119SOL     OW 7255   1.586   2.726   0.441
 2119SOL    HW1 7256   1.629   2.816   0.438
 2119SOL    HW2 7257   1.596   2.687   0.533
 2120SOL     OW 7258   5.660   2.174   0.966
 2120SOL    HW1 7259   5.726   2.179   0.891
 2120SOL    HW2 7260   5.652   2.079   0.998
 2121SOL     OW 7261   3.138   6.327   1.653
 2121SOL    HW1 7262   3.092   6.238   1.652
 2121SOL    HW2 7263   3.070   6.398   1.671
 2122SOL     OW 7264   0.555   0.449   5.075
 2122SOL    HW1 7265   0.602   0.362   5.055
 2122SOL    HW2 7266   0.620   0.524   5.070
 2123SOL     OW 7267   1.041   4.691   3.149
 2123SOL    HW1 7268   1.016   4.599   3.180
 2123SOL    HW2 7269   1.015   4.758   3.218
 2124SOL     OW 7270   4.662   3.094   5.868
 2124SOL    HW1 7271   4.750   3.112   5.826
 2124SOL    HW2 7272   4.664   3.124   5.963
 2125SOL     OW 7273   1.689   5.469   5.855
 2125SOL    HW1 7274   1.756   5.402   5.887
 2125SOL    HW2 7275   1.607   5.465   5.913
 2126SOL     OW 7276   2.877   5.002   2.051
 2126SOL    HW1 7277   2.803   4.958   2.001
 2126SOL    HW2 7278   2.851   5.013   2.147
 2127SOL     OW 7279   1.316   3.501   4.269
 2127SOL    HW1 7280   1.293   3.405   4.254
 2127SOL    HW2 7281   1.411   3.508   4.300
 2128SOL     OW 7282   5.292   3.211   1.257
 2128SOL    HW1 7283   5.342   3.258   1.184
 2128SOL    HW2 7284   5.250   3.128   1.220
 2129SOL     OW 7285   6.101   4.132   3.901
 2129SOL    HW1 7286   6.022   4.180   3.864
 2129SOL    HW2 7287   6.173   4.127   3.832
 2130SOL     OW 7288   2.015   0.479   2.637
 2130SOL    HW1 7289   2.016   0.525   2.726
 2130SOL    HW2 7290   1.921   0.453   2.615
 2131SOL     OW 7291   5.628   0.838   6.810
 2131SOL    HW1 7292   5.546   0.890   6.788
 2131SOL    HW2 7293   5.651   0.777   6.734
 2132SOL     OW 7294   2.461   2.058   0.068
 2132SOL    HW1 7295   2.461   2.099   7.005
 2132SOL    HW2 7296   2.487   1.962   0.060
 2133SOL     OW 7297   4.326   2.567   1.769
 2133SOL    HW1 7298   4.420   2.590   1.793
 2133SOL    HW2 7299   4.280   2.649   1.735
 2134SOL     OW 7300   2.574   0.331   5.143
 2134SOL    HW1 7301   2.554   0.329   5.241
 2134SOL    HW2 7302   2.498   0.288   5.093
 2135SOL     OW 7303   1.003   5.886   4.551
 2135SOL    HW1 7304   1.086   5.897   4.496
 2135SOL    HW2 7305   0.925   5.924   4.501
 2136SOL     OW 7306   0.999   4.823   3.627
 2136SOL    HW1 7307   0.962   4.760   3.695
 2136SOL    HW2 7308   1.092   4.850   3.655
 2137SOL     OW 7309   0.316   0.196   4.578
 2137SOL    HW1 7310   0.388   0.265   4.588
 2137SOL    HW2 7311   0.356   0.111   4.543
 2138SOL     OW 7312   1.240   2.367   6.453
 2138SOL    HW1 7313   1.318   2.325   6.407
 2138SOL    HW2 7314   1.216   2.313   6.534
 2139SOL     OW 7315   2.902   6.044   4.617
 2139SOL    HW1 7316   2.971   6.042   4.690
 2139SOL    HW2 7317   2.920   6.122   4.557
 2140SOL     OW 7318   1.730   5.856   4.074
 2140SOL    HW1 7319   1.669   5.820   4.144
 2140SOL    HW2 7320   1.805   5.906   4.117
 2141SOL     OW 7321   6.773   1.095   6.813
 2141SOL    HW1 7322   6.685   1.133   6.785
 2141SOL    HW2 7323   6.847   1.148   6.773
 2142SOL     OW 7324   4.135   0.994   2.843
 2142SOL    HW1 7325   4.098   0.902   2.856
 2142SOL    HW2 7326   4.233   0.994   2.866
 2143SOL     OW 7327   3.508   5.856   0.661
 2143SOL    HW1 7328   3.577   5.786   0.644
 2143SOL    HW2 7329   3.495   5.866   0.760
 2144SOL     OW 7330   1.203   1.110   1.940
 2144SOL    HW1 7331   1.251   1.191   1.971
 2144SOL    HW2 7332   1.236   1.030   1.990
 2145SOL     OW 7333   2.414   6.185   3.729
 2145SOL    HW1 7334   2.332   6.239   3.746
 2145SOL    HW2 7335   2.463   6.170   3.816
 2146SOL     OW 7336   2.997   2.447   1.114
 2146SOL    HW1 7337   2.960   2.356   1.131
 2146SOL    HW2 7338   3.061   2.443   1.037
 2147SOL     OW 7339   6.924   0.211   4.801
 2147SOL    HW1 7340   6.842   0.157   4.820
 2147SOL    HW2 7341   6.899   0.308   4.795
 2148SOL     OW 7342   6.456   3.886   4.253
 2148SOL    HW1 7343   6.385   3.932   4.199
 2148SOL    HW2 7344   6.542   3.890   4.203
 2149SOL     OW 7345   2.752   0.982   2.789
 2149SOL    HW1 7346   2.670   0.964   2.842
 2149SOL    HW2 7347   2.797   1.065   2.822
 2150SOL     OW 7348   4.985   0.091   2.563
 2150SOL    HW1 7349   4.982   0.145   2.647
 2150SOL    HW2 7350   4.975   0.152   2.484
 2151SOL     OW 7351   4.404   4.738   5.789
 2151SOL    HW1 7352   4.334   4.717   5.857
 2151SOL    HW2 7353   4.482   4.781   5.834
 2152SOL     OW 7354   0.368   6.523   2.717
 2152SOL    HW1 7355   0.434   6.477   2.776
 2152SOL    HW2 7356   0.301   6.572   2.773
 2153SOL     OW 7357   4.199   1.412   3.582
 2153SOL    HW1 7358   4.230   1.434   3.674
 2153SOL    HW2 7359   4.269   1.359   3.534
 2154SOL     OW 7360   3.738   6.761   4.442
 2154SOL    HW1 7361   3.756   6.693   4.371
 2154SOL    HW2 7362   3.698   6.717   4.522
 2155SOL     OW 7363   6.173   3.463   0.550
 2155SOL    HW1 7364   6.128   3.547   0.519
 2155SOL    HW2 7365   6.111   3.386   0.539
 2156SOL     OW 7366   6.211   6.298   2.560
 2156SOL    HW1 7367   6.226   6.279   2.657
 2156SOL    HW2 7368   6.224   6.214   2.507
 2157SOL     OW 7369   5.673   1.457   3.591
 2157SOL    HW1 7370   5.766   1.460   3.554
 2157SOL    HW2 7371   5.619   1.390   3.539
 2158SOL     OW 7372   4.333   0.264   3.338
 2158SOL    HW1 7373   4.410   0.202   3.320
 2158SOL    HW2 7374   4.257   0.239   3.278
 2159SOL     OW 7375   2.159   1.031   5.381
 2159SOL    HW1 7376   2.233   1.001   5.322
 2159SOL    HW2 7377   2.076   0.979   5.359
 2160SOL     OW 7378   2.371   4.219   0.621
 2160SOL    HW1 7379   2.283   4.240   0.665
 2160SOL    HW2 7380   2.392   4.289   0.553
 2161SOL     OW 7381   4.417   2.459   3.371
 2161SOL    HW1 7382   4.347   2.424   3.433
 2161SOL    HW2 7383   4.476   2.524   3.420
 2162SOL     OW 7384   2.912   1.737   2.486
 2162SOL    HW1 7385   2.818   1.708   2.502
 2162SOL    HW2 7386   2.917   1.837   2.490
 2163SOL     OW 7387   3.406   1.979   1.011
 2163SOL    HW1 7388   3.458   2.004   0.930
 2163SOL    HW2 7389   3.403   1.880   1.019
 2164SOL     OW 7390   6.575   0.990   1.564
 2164SOL    HW1 7391   6.602   0.981   1.660
 2164SOL    HW2 7392   6.502   0.925   1.544
 2165SOL     OW 7393   2.501   0.761   2.217
 2165SOL    HW1 7394   2.427   0.783   2.281
 2165SOL    HW2 7395   2.536   0.845   2.176
 2166SOL     OW 7396   5.576   2.828   5.015
 2166SOL    HW1 7397   5.557   2.925   4.999
 2166SOL    HW2 7398   5.504   2.789   5.072
 2167SOL     OW 7399   3.391   1.699   1.021
 2167SOL    HW1 7400   3.376   1.627   1.089
 2167SOL    HW2 7401   3.374   1.662   0.929
 2168SOL     OW 7402   5.337   6.108   4.184
 2168SOL    HW1 7403   5.293   6.087   4.097
 2168SOL    HW2 7404   5.344   6.024   4.238
 2169SOL     OW 7405   5.470   1.551   5.791
 2169SOL    HW1 7406   5.454   1.610   5.712
 2169SOL    HW2 7407   5.454   1.456   5.765
 2170SOL     OW 7408   5.180   5.236   3.978
 2170SOL    HW1 7409   5.245   5.309   3.998
 2170SOL    HW2 7410   5.112   5.231   4.052
 2171SOL     OW 7411   0.250   3.919   0.255
 2171SOL    HW1 7412   0.296   3.897   0.169
 2171SOL    HW2 7413   0.276   4.011   0.284
 2172SOL     OW 7414   2.648   0.179   2.536
 2172SOL    HW1 7415   2.586   0.246   2.577
 2172SOL    HW2 7416   2.595   0.112   2.484
 2173SOL     OW 7417   4.649   2.123   4.519
 2173SOL    HW1 7418   4.633   2.215   4.555
 2173SOL    HW2 7419   4.664   2.128   4.420
 2174SOL     OW 7420   1.234   5.892   5.032
 2174SOL    HW1 7421   1.327   5.926   5.020
 2174SOL    HW2 7422   1.192   5.939   5.110
 2175SOL     OW 7423   1.833   6.779   6.196
 2175SOL    HW1 7424   1.870   6.690   6.225
 2175SOL    HW2 7425   1.892   6.817   6.125
 2176SOL     OW 7426   1.967   2.756   2.525
 2176SOL    HW1 7427   2.062   2.746   2.555
 2176SOL    HW2 7428   1.932   2.667   2.496
 2177SOL     OW 7429   1.144   1.649   1.716
 2177SOL    HW1 7430   1.128   1.721   1.784
 2177SOL    HW2 7431   1.222   1.594   1.743
 2178SOL     OW 7432   6.334   5.955   0.227
 2178SOL    HW1 7433   6.277   5.913   0.298
 2178SOL    HW2 7434   6.424   5.977   0.264
 2179SOL     OW 7435   2.169   3.886   3.951
 2179SOL    HW1 7436   2.114   3.963   3.984
 2179SOL    HW2 7437   2.210   3.838   4.030
 2180SOL     OW 7438   2.821   3.105   1.799
 2180SOL    HW1 7439   2.903   3.049   1.784
 2180SOL    HW2 7440   2.840   3.173   1.870
 2181SOL     OW 7441   3.311   6.598   1.225
 2181SOL    HW1 7442   3.324   6.524   1.292
 2181SOL    HW2 7443   3.228   6.580   1.172
 2182SOL     OW 7444   4.153   3.427   0.719
 2182SOL    HW1 7445   4.217   3.501   0.697
 2182SOL    HW2 7446   4.190   3.370   0.791
 2183SOL     OW 7447   4.133   2.896   1.013
 2183SOL    HW1 7448   4.233   2.905   1.008
 2183SOL    HW2 7449   4.096   2.967   1.073
 2184SOL     OW 7450   5.069   2.553   5.714
 2184SOL    HW1 7451   5.002   2.623   5.738
 2184SOL    HW2 7452   5.109   2.515   5.797
 2185SOL     OW 7453   6.765   6.610   2.620
 2185SOL    HW1 7454   6.715   6.523   2.613
 2185SOL    HW2 7455   6.732   6.673   2.550
 2186SOL     OW 7456   0.075   4.342   3.620
 2186SOL    HW1 7457   0.019   4.332   3.538
 2186SOL    HW2 7458   0.075   4.255   3.670
 2187SOL     OW 7459   6.382   1.232   0.232
 2187SOL    HW1 7460   6.448   1.255   0.161
 2187SOL    HW2 7461   6.426   1.174   0.301
 2188SOL     OW 7462   4.317   1.391   3.860
 2188SOL    HW1 7463   4.307   1.342   3.946
 2188SOL    HW2 7464   4.395   1.354   3.809
 2189SOL     OW 7465   3.776   6.596   0.077
 2189SOL    HW1 7466   3.775   6.527   0.004
 2189SOL    HW2 7467   3.838   6.670   0.052
 2190SOL     OW 7468   5.464   3.312   0.305
 2190SOL    HW1 7469   5.509   3.401   0.311
 2190SOL    HW2 7470   5.406   3.299   0.385
 2191SOL     OW 7471   3.723   0.874   6.593
 2191SOL    HW1 7472   3.668   0.856   6.675
 2191SOL    HW2 7473   3.666   0.918   6.524
 2192SOL     OW 7474   3.848   5.884   2.261
 2192SOL    HW1 7475   3.751   5.900   2.281
 2192SOL    HW2 7476   3.881   5.956   2.200
 2193SOL     OW 7477   6.902   6.032   4.679
 2193SOL    HW1 7478   6.926   6.116   4.630
 2193SOL    HW2 7479   6.982   5.998   4.729
 2194SOL     OW 7480   2.458   0.154   1.810
 2194SOL    HW1 7481   2.549   0.153   1.851
 2194SOL    HW2 7482   2.460   0.210   1.727
 2195SOL     OW 7483   0.344   4.928   2.039
 2195SOL    HW1 7484   0.332   4.848   2.098
 2195SOL    HW2 7485   0.314   4.905   1.946
 2196SOL     OW 7486   4.255   3.899   6.991
 2196SOL    HW1 7487   4.158   3.898   6.968
 2196SOL    HW2 7488   4.306   3.947   6.920
 2197SOL     OW 7489   4.914   3.552   6.776
 2197SOL    HW1 7490   4.890   3.649   6.772
 2197SOL    HW2 7491   4.912   3.513   6.684
 2198SOL     OW 7492   0.038   3.942   0.397
 2198SOL    HW1 7493   0.119   3.943   0.338
 2198SOL    HW2 7494   6.985   3.929   0.341
 2199SOL     OW 7495   4.364   1.143   3.295
 2199SOL    HW1 7496   4.296   1.091   3.347
 2199SOL    HW2 7497   4.399   1.217   3.351
 2200SOL     OW 7498   3.788   6.905   4.011
 2200SOL    HW1 7499   3.823   6.939   4.098
 2200SOL    HW2 7500   3.690   6.887   4.020
 2201SOL     OW 7501   4.676   4.493   4.064
 2201SOL    HW1 7502   4.749   4.449   4.117
 2201SOL    HW2 7503   4.707   4.583   4.034
 2202SOL     OW 7504   4.314   5.622   3.486
 2202SOL    HW1 7505   4.318   5.715   3.450
 2202SOL    HW2 7506   4.231   5.577   3.453
 2203SOL     OW 7507   2.466   1.706   2.839
 2203SOL    HW1 7508   2.507   1.781   2.786
 2203SOL    HW2 7509   2.463   1.624   2.782
 2204SOL     OW 7510   3.386   2.391   0.911
 2204SOL    HW1 7511   3.344   2.348   0.991
 2204SOL    HW2 7512   3.379   2.330   0.833
 2205SOL     OW 7513   3.331   1.394   2.110
 2205SOL    HW1 7514   3.317   1.316   2.049
 2205SOL    HW2 7515   3.406   1.450   2.076
 2206SOL     OW 7516   1.198   4.185   0.245
 2206SOL    HW1 7517   1.261   4.233   0.184
 2206SOL    HW2 7518   1.186   4.091   0.213
 2207SOL     OW 7519   6.873   4.567   5.016
 2207SOL    HW1 7520   6.919   4.608   4.937
 2207SOL    HW2 7521   6.931   4.497   5.056
 2208SOL     OW 7522   6.678   5.426   1.544
 2208SOL    HW1 7523   6.637   5.361   1.608
 2208SOL    HW2 7524   6.653   5.401   1.451
 2209SOL     OW 7525   6.981   6.638   1.916
 2209SOL    HW1 7526   0.048   6.625   1.945
 2209SOL    HW2 7527   6.976   6.713   1.850
 2210SOL     OW 7528   2.564   4.961   3.818
 2210SOL    HW1 7529   2.535   5.049   3.855
 2210SOL    HW2 7530   2.568   4.966   3.719
 2211SOL     OW 7531   6.570   1.237   5.573
 2211SOL    HW1 7532   6.644   1.274   5.518
 2211SOL    HW2 7533   6.601   1.228   5.668
 2212SOL     OW 7534   3.312   0.096   6.159
 2212SOL    HW1 7535   3.253   0.077   6.080
 2212SOL    HW2 7536   3.315   0.195   6.175
 2213SOL     OW 7537   4.809   0.697   3.340
 2213SOL    HW1 7538   4.791   0.598   3.336
 2213SOL    HW2 7539   4.865   0.717   3.419
 2214SOL     OW 7540   3.731   6.918   4.831
 2214SOL    HW1 7541   3.658   6.920   4.899
 2214SOL    HW2 7542   3.742   7.009   4.790
 2215SOL     OW 7543   5.732   1.979   5.298
 2215SOL    HW1 7544   5.762   2.071   5.272
 2215SOL    HW2 7545   5.665   1.947   5.231
 2216SOL     OW 7546   3.240   1.755   2.724
 2216SOL    HW1 7547   3.152   1.707   2.722
 2216SOL    HW2 7548   3.302   1.714   2.656
 2217SOL     OW 7549   3.026   6.704   1.519
 2217SOL    HW1 7550   3.110   6.748   1.486
 2217SOL    HW2 7551   3.040   6.669   1.611
 2218SOL     OW 7552   0.121   0.624   2.182
 2218SOL    HW1 7553   0.148   0.720   2.174
 2218SOL    HW2 7554   0.061   0.614   2.262
 2219SOL     OW 7555   2.886   2.251   3.084
 2219SOL    HW1 7556   2.891   2.348   3.058
 2219SOL    HW2 7557   2.833   2.201   3.014
 2220SOL     OW 7558   1.812   6.972   2.380
 2220SOL    HW1 7559   1.795   0.003   2.459
 2220SOL    HW2 7560   1.771   7.013   2.298
 2221SOL     OW 7561   0.739   6.889   5.543
 2221SOL    HW1 7562   0.672   6.819   5.518
 2221SOL    HW2 7563   0.807   6.899   5.471
 2222SOL     OW 7564   5.939   5.216   3.812
 2222SOL    HW1 7565   5.928   5.134   3.756
 2222SOL    HW2 7566   5.854   5.268   3.811
 2223SOL     OW 7567   0.156   6.785   2.270
 2223SOL    HW1 7568   0.179   6.808   2.365
 2223SOL    HW2 7569   0.196   6.853   2.209
 2224SOL     OW 7570   0.948   6.072   0.265
 2224SOL    HW1 7571   0.865   6.017   0.271
 2224SOL    HW2 7572   0.944   6.146   0.333
 2225SOL     OW 7573   0.746   4.343   0.578
 2225SOL    HW1 7574   0.714   4.293   0.659
 2225SOL    HW2 7575   0.790   4.279   0.515
 2226SOL     OW 7576   3.829   3.552   2.358
 2226SOL    HW1 7577   3.748   3.504   2.324
 2226SOL    HW2 7578   3.836   3.641   2.313
 2227SOL     OW 7579   0.810   1.917   4.683
 2227SOL    HW1 7580   0.817   1.995   4.745
 2227SOL    HW2 7581   0.717   1.881   4.685
 2228SOL     OW 7582   2.380   4.610   4.559
 2228SOL    HW1 7583   2.318   4.665   4.502
 2228SOL    HW2 7584   2.331   4.530   4.594
 2229SOL     OW 7585   6.385   6.186   3.294
 2229SOL    HW1 7586   6.306   6.198   3.355
 2229SOL    HW2 7587   6.412   6.274   3.256
 2230SOL     OW 7588   2.110   5.265   2.999
 2230SOL    HW1 7589   2.146   5.174   2.985
 2230SOL    HW2 7590   2.047   5.288   2.925
 2231SOL     OW 7591   1.822   5.984   1.209
 2231SOL    HW1 7592   1.906   5.930   1.217
 2231SOL    HW2 7593   1.839   6.077   1.242
 2232SOL     OW 7594   5.800   1.950   4.143
 2232SOL    HW1 7595   5.734   2.012   4.099
 2232SOL    HW2 7596   5.779   1.943   4.241
 2233SOL     OW 7597   3.776   1.241   0.072
 2233SOL    HW1 7598   3.782   1.147   0.105
 2233SOL    HW2 7599   3.867   1.275   0.051
 2234SOL     OW 7600   4.347   2.562   1.315
 2234SOL    HW1 7601   4.305   2.477   1.345
 2234SOL    HW2 7602   4.345   2.567   1.215
 2235SOL     OW 7603   2.175   2.283   2.495
 2235SOL    HW1 7604   2.170   2.353   2.424
 2235SOL    HW2 7605   2.212   2.324   2.579
 2236SOL     OW 7606   0.887   4.451   5.734
 2236SOL    HW1 7607   0.872   4.356   5.710
 2236SOL    HW2 7608   0.815   4.508   5.693
 2237SOL     OW 7609   6.590   2.655   3.968
 2237SOL    HW1 7610   6.687   2.682   3.973
 2237SOL    HW2 7611   6.566   2.604   4.051
 2238SOL     OW 7612   5.388   5.924   6.860
 2238SOL    HW1 7613   5.344   5.931   6.949
 2238SOL    HW2 7614   5.388   6.013   6.816
 2239SOL     OW 7615   0.286   5.644   0.933
 2239SOL    HW1 7616   0.329   5.716   0.988
 2239SOL    HW2 7617   0.337   5.632   0.848
 2240SOL     OW 7618   5.900   4.209   1.302
 2240SOL    HW1 7619   5.897   4.273   1.379
 2240SOL    HW2 7620   5.808   4.175   1.283
 2241SOL     OW 7621   1.059   0.320   4.200
 2241SOL    HW1 7622   1.104   0.364   4.122
 2241SOL    HW2 7623   0.999   0.386   4.245
 2242SOL     OW 7624   2.779   1.518   2.956
 2242SOL    HW1 7625   2.741   1.427   2.976
 2242SOL    HW2 7626   2.725   1.587   3.004
 2243SOL     OW 7627   1.977   0.366   4.838
 2243SOL    HW1 7628   1.989   0.410   4.927
 2243SOL    HW2 7629   2.028   0.280   4.836
 2244SOL     OW 7630   3.688   0.565   5.083
 2244SOL    HW1 7631   3.742   0.482   5.094
 2244SOL    HW2 7632   3.629   0.578   5.162
 2245SOL     OW 7633   0.564   2.683   2.194
 2245SOL    HW1 7634   0.512   2.767   2.177
 2245SOL    HW2 7635   0.620   2.694   2.276
 2246SOL     OW 7636   0.897   4.363   5.382
 2246SOL    HW1 7637   0.896   4.457   5.348
 2246SOL    HW2 7638   0.824   4.311   5.338
 2247SOL     OW 7639   1.812   1.345   4.385
 2247SOL    HW1 7640   1.911   1.335   4.386
 2247SOL    HW2 7641   1.783   1.403   4.461
 2248SOL     OW 7642   5.639   3.883   5.988
 2248SOL    HW1 7643   5.737   3.876   6.004
 2248SOL    HW2 7644   5.622   3.896   5.891
 2249SOL     OW 7645   5.067   5.538   5.386
 2249SOL    HW1 7646   5.063   5.518   5.484
 2249SOL    HW2 7647   5.147   5.594   5.367
 2250SOL     OW 7648   4.784   4.887   1.727
 2250SOL    HW1 7649   4.874   4.882   1.770
 2250SOL    HW2 7650   4.749   4.980   1.733
 2251SOL     OW 7651   0.318   0.838   5.261
 2251SOL    HW1 7652   0.305   0.746   5.224
 2251SOL    HW2 7653   0.400   0.879   5.222
 2252SOL     OW 7654   3.449   1.177   6.553
 2252SOL    HW1 7655   3.418   1.181   6.458
 2252SOL    HW2 7656   3.404   1.249   6.606
 2253SOL     OW 7657   0.877   3.959   0.467
 2253SOL    HW1 7658   0.779   3.940   0.462
 2253SOL    HW2 7659   0.900   4.033   0.404
 2254SOL     OW 7660   1.430   4.596   6.542
 2254SOL    HW1 7661   1.415   4.626   6.447
 2254SOL    HW2 7662   1.384   4.509   6.558
 2255SOL     OW 7663   6.477   3.549   6.290
 2255SOL    HW1 7664   6.570   3.528   6.318
 2255SOL    HW2 7665   6.412   3.505   6.351
 2256SOL     OW 7666   2.437   4.895   2.266
 2256SOL    HW1 7667   2.524   4.852   2.243
 2256SOL    HW2 7668   2.376   4.891   2.188
 2257SOL     OW 7669   1.370   4.263   5.133
 2257SOL    HW1 7670   1.279   4.223   5.129
 2257SOL    HW2 7671   1.437   4.192   5.153
 2258SOL     OW 7672   2.016   5.513   5.520
 2258SOL    HW1 7673   1.921   5.490   5.542
 2258SOL    HW2 7674   2.073   5.495   5.600
 2259SOL     OW 7675   6.072   1.877   6.043
 2259SOL    HW1 7676   6.010   1.802   6.020
 2259SOL    HW2 7677   6.166   1.843   6.047
 2260SOL     OW 7678   3.913   3.014   0.418
 2260SOL    HW1 7679   3.851   3.055   0.485
 2260SOL    HW2 7680   3.921   3.074   0.338
 2261SOL     OW 7681   2.335   6.310   5.146
 2261SOL    HW1 7682   2.284   6.231   5.180
 2261SOL    HW2 7683   2.371   6.290   5.054
 2262SOL     OW 7684   3.387   1.788   3.155
 2262SOL    HW1 7685   3.287   1.795   3.148
 2262SOL    HW2 7686   3.429   1.822   3.071
 2263SOL     OW 7687   1.052   4.657   5.726
 2263SOL    HW1 7688   1.045   4.695   5.818
 2263SOL    HW2 7689   1.024   4.560   5.728
 2264SOL     OW 7690   3.687   3.602   3.586
 2264SOL    HW1 7691   3.672   3.520   3.640
 2264SOL    HW2 7692   3.708   3.576   3.492
 2265SOL     OW 7693   1.280   6.548   4.811
 2265SOL    HW1 7694   1.264   6.537   4.712
 2265SOL    HW2 7695   1.366   6.596   4.826
 2266SOL     OW 7696   6.944   0.454   5.626
 2266SOL    HW1 7697   6.956   0.361   5.591
 2266SOL    HW2 7698   0.006   0.495   5.643
 2267SOL     OW 7699   5.688   1.773   5.117
 2267SOL    HW1 7700   5.730   1.753   5.205
 2267SOL    HW2 7701   5.758   1.803   5.052
 2268SOL     OW 7702   0.220   6.247   0.244
 2268SOL    HW1 7703   0.246   6.235   0.340
 2268SOL    HW2 7704   0.210   6.158   0.201
 2269SOL     OW 7705   0.504   6.560   3.100
 2269SOL    HW1 7706   0.587   6.591   3.147
 2269SOL    HW2 7707   0.529   6.518   3.013
 2270SOL     OW 7708   3.632   3.212   3.302
 2270SOL    HW1 7709   3.554   3.152   3.320
 2270SOL    HW2 7710   3.698   3.166   3.242
 2271SOL     OW 7711   1.658   4.319   2.689
 2271SOL    HW1 7712   1.558   4.325   2.699
 2271SOL    HW2 7713   1.699   4.405   2.720
 2272SOL     OW 7714   5.011   0.505   5.596
 2272SOL    HW1 7715   4.926   0.458   5.572
 2272SOL    HW2 7716   5.009   0.531   5.692
 2273SOL     OW 7717   0.747   1.912   2.119
 2273SOL    HW1 7718   0.651   1.888   2.131
 2273SOL    HW2 7719   0.805   1.841   2.160
 2274SOL     OW 7720   0.858   4.434   3.675
 2274SOL    HW1 7721   0.908   4.503   3.727
 2274SOL    HW2 7722   0.760   4.443   3.692
 2275SOL     OW 7723   4.635   6.679   3.040
 2275SOL    HW1 7724   4.726   6.703   3.005
 2275SOL    HW2 7725   4.596   6.605   2.985
 2276SOL     OW 7726   3.526   5.504   2.533
 2276SOL    HW1 7727   3.504   5.420   2.483
 2276SOL    HW2 7728   3.602   5.487   2.595
 2277SOL     OW 7729   3.084   3.329   2.135
 2277SOL    HW1 7730   3.138   3.296   2.058
 2277SOL    HW2 7731   3.127   3.411   2.174
 2278SOL     OW 7732   3.756   5.338   1.090
 2278SOL    HW1 7733   3.743   5.270   1.163
 2278SOL    HW2 7734   3.767   5.428   1.131
 2279SOL     OW 7735   5.970   3.715   5.706
 2279SOL    HW1 7736   5.938   3.675   5.792
 2279SOL    HW2 7737   6.066   3.742   5.716
 2280SOL     OW 7738   5.860   0.504   5.975
 2280SOL    HW1 7739   5.793   0.490   5.902
 2280SOL    HW2 7740   5.851   0.431   6.042
 2281SOL     OW 7741   2.475   0.535   0.983
 2281SOL    HW1 7742   2.535   0.611   0.959
 2281SOL    HW2 7743   2.520   0.448   0.960
 2282SOL     OW 7744   3.964   6.203   2.457
 2282SOL    HW1 7745   3.991   6.299   2.456
 2282SOL    HW2 7746   4.046   6.146   2.458
 2283SOL     OW 7747   0.830   3.211   1.477
 2283SOL    HW1 7748   0.798   3.117   1.463
 2283SOL    HW2 7749   0.832   3.232   1.574
 2284SOL     OW 7750   2.053   3.193   1.242
 2284SOL    HW1 7751   2.151   3.211   1.252
 2284SOL    HW2 7752   2.039   3.097   1.216
 2285SOL     OW 7753   1.896   2.556   6.408
 2285SOL    HW1 7754   1.912   2.631   6.343
 2285SOL    HW2 7755   1.805   2.567   6.449
 2286SOL     OW 7756   6.290   6.708   4.044
 2286SOL    HW1 7757   6.387   6.712   4.018
 2286SOL    HW2 7758   6.282   6.710   4.144
 2287SOL     OW 7759   2.326   1.361   0.846
 2287SOL    HW1 7760   2.340   1.459   0.860
 2287SOL    HW2 7761   2.397   1.311   0.896
 2288SOL     OW 7762   2.598   6.137   4.951
 2288SOL    HW1 7763   2.652   6.212   4.989
 2288SOL    HW2 7764   2.658   6.076   4.899
 2289SOL     OW 7765   3.854   0.299   6.731
 2289SOL    HW1 7766   3.881   0.310   6.635
 2289SOL    HW2 7767   3.792   0.221   6.740
 2290SOL     OW 7768   2.875   3.432   4.924
 2290SOL    HW1 7769   2.819   3.410   5.004
 2290SOL    HW2 7770   2.963   3.469   4.953
 2291SOL     OW 7771   2.753   1.929   0.421
 2291SOL    HW1 7772   2.808   1.876   0.485
 2291SOL    HW2 7773   2.811   1.958   0.345
 2292SOL     OW 7774   5.470   2.390   3.152
 2292SOL    HW1 7775   5.552   2.436   3.188
 2292SOL    HW2 7776   5.428   2.336   3.225
 2293SOL     OW 7777   0.771   0.663   0.302
 2293SOL    HW1 7778   0.686   0.708   0.277
 2293SOL    HW2 7779   0.792   0.591   0.236
 2294SOL     OW 7780   6.339   2.202   5.252
 2294SOL    HW1 7781   6.254   2.157   5.224
 2294SOL    HW2 7782   6.352   2.285   5.197
 2295SOL     OW 7783   5.832   6.032   0.787
 2295SOL    HW1 7784   5.905   6.099   0.792
 2295SOL    HW2 7785   5.837   5.971   0.866
 2296SOL     OW 7786   3.734   5.685   4.418
 2296SOL    HW1 7787   3.807   5.668   4.351
 2296SOL    HW2 7788   3.726   5.783   4.434
 2297SOL     OW 7789   6.123   2.772   6.695
 2297SOL    HW1 7790   6.161   2.720   6.772
 2297SOL    HW2 7791   6.173   2.750   6.611
 2298SOL     OW 7792   2.853   3.999   5.269
 2298SOL    HW1 7793   2.805   4.087   5.276
 2298SOL    HW2 7794   2.866   3.961   5.360
 2299SOL     OW 7795   5.972   3.506   4.678
 2299SOL    HW1 7796   5.885   3.541   4.713
 2299SOL    HW2 7797   5.975   3.521   4.579
 2300SOL     OW 7798   4.880   0.036   2.962
 2300SOL    HW1 7799   4.787   0.001   2.975
 2300SOL    HW2 7800   4.946   6.993   2.987
 2301SOL     OW 7801   3.896   3.244   5.380
 2301SOL    HW1 7802   3.929   3.153   5.355
 2301SOL    HW2 7803   3.922   3.311   5.311
 2302SOL     OW 7804   6.992   3.459   5.605
 2302SOL    HW1 7805   6.958   3.545   5.643
 2302SOL    HW2 7806   0.058   3.473   5.572
 2303SOL     OW 7807   2.805   1.964   6.260
 2303SOL    HW1 7808   2.836   2.057   6.238
 2303SOL    HW2 7809   2.884   1.908   6.286
 2304SOL     OW 7810   4.852   6.786   2.276
 2304SOL    HW1 7811   4.798   6.709   2.310
 2304SOL    HW2 7812   4.876   6.769   2.180
 2305SOL     OW 7813   2.956   6.304   5.177
 2305SOL    HW1 7814   2.939   6.236   5.106
 2305SOL    HW2 7815   2.999   6.261   5.256
 2306SOL     OW 7816   0.727   4.776   4.885
 2306SOL    HW1 7817   0.740   4.686   4.926
 2306SOL    HW2 7818   0.695   4.766   4.791
 2307SOL     OW 7819   6.126   3.717   4.726
 2307SOL    HW1 7820   6.122   3.769   4.811
 2307SOL    HW2 7821   6.097   3.623   4.743
 2308SOL     OW 7822   1.157   5.948   2.218
 2308SOL    HW1 7823   1.233   5.926   2.280
 2308SOL    HW2 7824   1.158   5.884   2.141
 2309SOL     OW 7825   1.653   0.804   4.455
 2309SOL    HW1 7826   1.654   0.744   4.535
 2309SOL    HW2 7827   1.710   0.884   4.473
 2310SOL     OW 7828   4.897   6.196   0.308
 2310SOL    HW1 7829   4.955   6.254   0.251
 2310SOL    HW2 7830   4.941   6.108   0.323
 2311SOL     OW 7831   2.612   5.898   0.778
 2311SOL    HW1 7832   2.699   5.946   0.781
 2311SOL    HW2 7833   2.550   5.937   0.845
 2312SOL     OW 7834   2.626   4.748   2.796
 2312SOL    HW1 7835   2.583   4.717   2.712
 2312SOL    HW2 7836   2.722   4.769   2.779
 2313SOL     OW 7837   4.556   5.294   1.315
 2313SOL    HW1 7838   4.579   5.204   1.350
 2313SOL    HW2 7839   4.558   5.360   1.390
 2314SOL     OW 7840   2.365   4.438   2.964
 2314SOL    HW1 7841   2.460   4.430   2.995
 2314SOL    HW2 7842   2.363   4.450   2.865
 2315SOL     OW 7843   4.004   1.839   6.397
 2315SOL    HW1 7844   4.077   1.780   6.432
 2315SOL    HW2 7845   3.948   1.788   6.332
 2316SOL     OW 7846   4.930   3.475   1.534
 2316SOL    HW1 7847   4.943   3.479   1.633
 2316SOL    HW2 7848   4.841   3.515   1.511
 2317SOL     OW 7849   1.035   5.891   4.190
 2317SOL    HW1 7850   0.969   5.817   4.177
 2317SOL    HW2 7851   1.127   5.858   4.167
 2318SOL     OW 7852   6.774   1.881   3.821
 2318SOL    HW1 7853   6.800   1.904   3.727
 2318SOL    HW2 7854   6.682   1.917   3.840
 2319SOL     OW 7855   1.042   4.895   2.220
 2319SOL    HW1 7856   1.129   4.845   2.216
 2319SOL    HW2 7857   1.050   4.970   2.284
 2320SOL     OW 7858   6.444   4.662   4.218
 2320SOL    HW1 7859   6.462   4.575   4.173
 2320SOL    HW2 7860   6.359   4.656   4.270
 2321SOL     OW 7861   3.687   4.948   4.120
 2321SOL    HW1 7862   3.707   5.045   4.107
 2321SOL    HW2 7863   3.697   4.925   4.216
 2322SOL     OW 7864   2.369   1.014   4.543
 2322SOL    HW1 7865   2.436   1.084   4.518
 2322SOL    HW2 7866   2.334   0.970   4.460
 2323SOL     OW 7867   5.290   3.321   1.802
 2323SOL    HW1 7868   5.330   3.345   1.714
 2323SOL    HW2 7869   5.205   3.373   1.815
 2324SOL     OW 7870   7.026   5.025   3.971
 2324SOL    HW1 7871   6.947   4.990   4.021
 2324SOL    HW2 7872   7.005   5.115   3.934
 2325SOL     OW 7873   6.328   1.921   0.387
 2325SOL    HW1 7874   6.280   1.989   0.331
 2325SOL    HW2 7875   6.409   1.889   0.338
 2326SOL     OW 7876   0.750   5.182   0.640
 2326SOL    HW1 7877   0.767   5.140   0.550
 2326SOL    HW2 7878   0.705   5.270   0.627
 2327SOL     OW 7879   4.719   1.293   3.073
 2327SOL    HW1 7880   4.787   1.228   3.039
 2327SOL    HW2 7881   4.740   1.317   3.168
 2328SOL     OW 7882   6.168   5.058   3.631
 2328SOL    HW1 7883   6.260   5.068   3.667
 2328SOL    HW2 7884   6.139   5.144   3.589
 2329SOL     OW 7885   1.295   6.297   3.219
 2329SOL    HW1 7886   1.224   6.332   3.158
 2329SOL    HW2 7887   1.355   6.235   3.169
 2330SOL     OW 7888   1.334   4.488   0.448
 2330SOL    HW1 7889   1.393   4.543   0.507
 2330SOL    HW2 7890   1.304   4.407   0.499
 2331SOL     OW 7891   1.429   4.912   4.746
 2331SOL    HW1 7892   1.497   4.957   4.689
 2331SOL    HW2 7893   1.474   4.846   4.806
 2332SOL     OW 7894   6.100   3.430   5.745
 2332SOL    HW1 7895   6.095   3.363   5.819
 2332SOL    HW2 7896   6.014   3.431   5.695
 2333SOL     OW 7897   2.625   4.875   4.180
 2333SOL    HW1 7898   2.607   4.913   4.089
 2333SOL    HW2 7899   2.714   4.907   4.212
 2334SOL     OW 7900   2.692   7.023   5.693
 2334SOL    HW1 7901   2.720   6.933   5.726
 2334SOL    HW2 7902   2.720   0.065   5.759
 2335SOL     OW 7903   4.733   4.760   4.134
 2335SOL    HW1 7904   4.735   4.817   4.216
 2335SOL    HW2 7905   4.645   4.769   4.089
 2336SOL     OW 7906   4.259   1.493   5.726
 2336SOL    HW1 7907   4.235   1.551   5.804
 2336SOL    HW2 7908   4.345   1.524   5.687
 2337SOL     OW 7909   5.618   0.477   4.508
 2337SOL    HW1 7910   5.544   0.451   4.569
 2337SOL    HW2 7911   5.704   0.482   4.559
 2338SOL     OW 7912   1.110   0.211   6.788
 2338SOL    HW1 7913   1.039   0.266   6.833
 2338SOL    HW2 7914   1.142   0.141   6.852
 2339SOL     OW 7915   3.797   4.719   6.848
 2339SOL    HW1 7916   3.753   4.641   6.894
 2339SOL    HW2 7917   3.751   4.735   6.760
 2340SOL     OW 7918   3.815   5.203   4.219
 2340SOL    HW1 7919   3.904   5.168   4.250
 2340SOL    HW2 7920   3.830   5.275   4.151
 2341SOL     OW 7921   0.091   4.272   6.407
 2341SOL    HW1 7922   0.074   4.203   6.477
 2341SOL    HW2 7923   0.190   4.282   6.393
 2342SOL     OW 7924   6.463   0.984   5.515
 2342SOL    HW1 7925   6.367   1.012   5.505
 2342SOL    HW2 7926   6.517   1.063   5.544
 2343SOL     OW 7927   1.446   5.907   0.214
 2343SOL    HW1 7928   1.507   5.939   0.287
 2343SOL    HW2 7929   1.443   5.807   0.216
 2344SOL     OW 7930   2.527   0.926   2.965
 2344SOL    HW1 7931   2.517   1.022   2.989
 2344SOL    HW2 7932   2.440   0.878   2.982
 2345SOL     OW 7933   1.504   2.250   2.495
 2345SOL    HW1 7934   1.505   2.275   2.398
 2345SOL    HW2 7935   1.455   2.319   2.547
 2346SOL     OW 7936   4.869   3.288   5.129
 2346SOL    HW1 7937   4.788   3.340   5.155
 2346SOL    HW2 7938   4.894   3.310   5.035
 2347SOL     OW 7939   1.315   4.184   0.528
 2347SOL    HW1 7940   1.312   4.174   0.429
 2347SOL    HW2 7941   1.223   4.177   0.565
 2348SOL     OW 7942   2.370   0.265   0.900
 2348SOL    HW1 7943   2.360   0.300   0.993
 2348SOL    HW2 7944   2.359   0.340   0.834
 2349SOL     OW 7945   5.605   3.284   6.457
 2349SOL    HW1 7946   5.671   3.222   6.498
 2349SOL    HW2 7947   5.519   3.281   6.507
 2350SOL     OW 7948   1.875   6.491   5.055
 2350SOL    HW1 7949   1.856   6.394   5.041
 2350SOL    HW2 7950   1.823   6.525   5.133
 2351SOL     OW 7951   1.578   4.869   2.975
 2351SOL    HW1 7952   1.491   4.895   2.934
 2351SOL    HW2 7953   1.564   4.798   3.043
 2352SOL     OW 7954   5.450   5.627   6.804
 2352SOL    HW1 7955   5.535   5.599   6.848
 2352SOL    HW2 7956   5.428   5.721   6.829
 2353SOL     OW 7957   2.844   2.806   5.994
 2353SOL    HW1 7958   2.780   2.883   5.991
 2353SOL    HW2 7959   2.838   2.755   5.908
 2354SOL     OW 7960   4.347   1.516   2.308
 2354SOL    HW1 7961   4.384   1.446   2.247
 2354SOL    HW2 7962   4.346   1.482   2.402
 2355SOL     OW 7963   0.574   1.202   1.818
 2355SOL    HW1 7964   0.648   1.267   1.802
 2355SOL    HW2 7965   0.553   1.154   1.732
 2356SOL     OW 7966   3.483   5.281   4.250
 2356SOL    HW1 7967   3.463   5.252   4.157
 2356SOL    HW2 7968   3.404   5.265   4.309
 2357SOL     OW 7969   0.955   5.349   1.067
 2357SOL    HW1 7970   1.014   5.328   1.144
 2357SOL    HW2 7971   1.003   5.409   1.003
 2358SOL     OW 7972   2.659   0.682   5.524
 2358SOL    HW1 7973   2.606   0.746   5.469
 2358SOL    HW2 7974   2.628   0.685   5.619
 2359SOL     OW 7975   2.967   2.144   6.075
 2359SOL    HW1 7976   3.004   2.236   6.082
 2359SOL    HW2 7977   3.004   2.099   5.994
 2360SOL     OW 7978   2.958   5.215   0.745
 2360SOL    HW1 7979   2.963   5.181   0.839
 2360SOL    HW2 7980   2.920   5.145   0.686
 2361SOL     OW 7981   3.347   4.830   1.269
 2361SOL    HW1 7982   3.409   4.810   1.193
 2361SOL    HW2 7983   3.335   4.929   1.276
 2362SOL     OW 7984   2.715   4.898   4.676
 2362SOL    HW1 7985   2.691   4.882   4.771
 2362SOL    HW2 7986   2.733   4.811   4.630
 2363SOL     OW 7987   1.997   3.871   0.956
 2363SOL    HW1 7988   1.916   3.848   0.902
 2363SOL    HW2 7989   1.989   3.965   0.989
 2364SOL     OW 7990   5.030   0.709   1.973
 2364SOL    HW1 7991   5.022   0.610   1.966
 2364SOL    HW2 7992   5.081   0.744   1.894
 2365SOL     OW 7993   5.678   4.509   2.965
 2365SOL    HW1 7994   5.736   4.427   2.961
 2365SOL    HW2 7995   5.661   4.542   2.873
 2366SOL     OW 7996   3.329   4.912   5.220
 2366SOL    HW1 7997   3.382   4.830   5.241
 2366SOL    HW2 7998   3.302   4.911   5.124
 2367SOL     OW 7999   6.148   5.431   5.475
 2367SOL    HW1 8000   6.091   5.357   5.508
 2367SOL    HW2 8001   6.098   5.517   5.480
 2368SOL     OW 8002   5.365   0.227   4.962
 2368SOL    HW1 8003   5.446   0.218   5.020
 2368SOL    HW2 8004   5.290   0.267   5.015
 2369SOL     OW 8005   4.047   1.722   4.660
 2369SOL    HW1 8006   4.035   1.623   4.659
 2369SOL    HW2 8007   3.994   1.763   4.585
 2370SOL     OW 8008   4.550   1.813   1.379
 2370SOL    HW1 8009   4.627   1.786   1.438
 2370SOL    HW2 8010   4.497   1.885   1.424
 2371SOL     OW 8011   2.012   7.005   2.025
 2371SOL    HW1 8012   1.913   6.993   2.012
 2371SOL    HW2 8013   2.057   6.916   2.024
 2372SOL     OW 8014   6.705   6.881   5.161
 2372SOL    HW1 8015   6.621   6.828   5.170
 2372SOL    HW2 8016   6.775   6.826   5.117
 2373SOL     OW 8017   6.226   4.472   6.103
 2373SOL    HW1 8018   6.321   4.476   6.134
 2373SOL    HW2 8019   6.177   4.402   6.155
 2374SOL     OW 8020   6.918   6.175   2.084
 2374SOL    HW1 8021   6.956   6.092   2.044
 2374SOL    HW2 8022   6.993   6.232   2.119
 2375SOL     OW 8023   1.764   0.358   4.088
 2375SOL    HW1 8024   1.685   0.402   4.046
 2375SOL    HW2 8025   1.780   0.399   4.178
 2376SOL     OW 8026   5.120   3.424   4.062
 2376SOL    HW1 8027   5.116   3.523   4.076
 2376SOL    HW2 8028   5.085   3.401   3.972
 2377SOL     OW 8029   3.561   4.226   5.745
 2377SOL    HW1 8030   3.604   4.276   5.820
 2377SOL    HW2 8031   3.504   4.153   5.782
 2378SOL     OW 8032   0.983   0.850   0.859
 2378SOL    HW1 8033   0.898   0.802   0.838
 2378SOL    HW2 8034   0.964   0.947   0.874
 2379SOL     OW 8035   0.812   4.713   2.424
 2379SOL    HW1 8036   0.880   4.733   2.353
 2379SOL    HW2 8037   0.834   4.626   2.467
 2380SOL     OW 8038   4.103   5.580   6.375
 2380SOL    HW1 8039   4.017   5.545   6.336
 2380SOL    HW2 8040   4.178   5.562   6.312
 2381SOL     OW 8041   2.143   3.700   3.763
 2381SOL    HW1 8042   2.153   3.755   3.846
 2381SOL    HW2 8043   2.163   3.756   3.683
 2382SOL     OW 8044   6.749   5.664   2.841
 2382SOL    HW1 8045   6.679   5.599   2.871
 2382SOL    HW2 8046   6.714   5.757   2.851
 2383SOL     OW 8047   5.139   3.966   5.954
 2383SOL    HW1 8048   5.078   3.981   5.876
 2383SOL    HW2 8049   5.217   4.027   5.948
 2384SOL     OW 8050   0.397   2.442   3.000
 2384SOL    HW1 8051   0.321   2.476   3.055
 2384SOL    HW2 8052   0.386   2.472   2.905
 2385SOL     OW 8053   0.275   1.014   0.789
 2385SOL    HW1 8054   0.234   1.104   0.774
 2385SOL    HW2 8055   0.301   1.004   0.885
 2386SOL     OW 8056   6.659   4.904   5.404
 2386SOL    HW1 8057   6.699   4.851   5.329
 2386SOL    HW2 8058   6.649   4.999   5.376
 2387SOL     OW 8059   6.882   0.586   3.704
 2387SOL    HW1 8060   6.911   0.663   3.646
 2387SOL    HW2 8061   6.901   0.500   3.657
 2388SOL     OW 8062   1.613   4.255   4.531
 2388SOL    HW1 8063   1.655   4.303   4.454
 2388SOL    HW2 8064   1.655   4.165   4.541
 2389SOL     OW 8065   3.912   6.395   3.039
 2389SOL    HW1 8066   3.829   6.408   2.983
 2389SOL    HW2 8067   3.984   6.455   3.005
 2390SOL     OW 8068   5.406   2.553   5.747
 2390SOL    HW1 8069   5.377   2.546   5.843
 2390SOL    HW2 8070   5.370   2.637   5.707
 2391SOL     OW 8071   2.669   3.696   6.545
 2391SOL    HW1 8072   2.761   3.689   6.582
 2391SOL    HW2 8073   2.673   3.729   6.451
 2392SOL     OW 8074   3.977   5.385   5.990
 2392SOL    HW1 8075   4.072   5.359   6.009
 2392SOL    HW2 8076   3.926   5.304   5.961
 2393SOL     OW 8077   3.651   4.757   0.214
 2393SOL    HW1 8078   3.743   4.717   0.207
 2393SOL    HW2 8079   3.585   4.684   0.232
 2394SOL     OW 8080   6.532   2.651   3.331
 2394SOL    HW1 8081   6.479   2.572   3.363
 2394SOL    HW2 8082   6.580   2.627   3.247
 2395SOL     OW 8083   1.478   2.491   3.707
 2395SOL    HW1 8084   1.473   2.459   3.802
 2395SOL    HW2 8085   1.556   2.552   3.697
 2396SOL     OW 8086   6.968   0.233   6.396
 2396SOL    HW1 8087   6.880   0.233   6.443
 2396SOL    HW2 8088   6.955   0.254   6.300
 2397SOL     OW 8089   2.243   4.757   6.156
 2397SOL    HW1 8090   2.313   4.785   6.090
 2397SOL    HW2 8091   2.268   4.668   6.194
 2398SOL     OW 8092   4.100   6.028   4.932
 2398SOL    HW1 8093   4.103   5.947   4.873
 2398SOL    HW2 8094   4.033   6.013   5.005
 2399SOL     OW 8095   3.028   1.522   2.376
 2399SOL    HW1 8096   2.978   1.591   2.428
 2399SOL    HW2 8097   3.082   1.567   2.304
 2400SOL     OW 8098   0.859   2.870   0.387
 2400SOL    HW1 8099   0.843   2.967   0.367
 2400SOL    HW2 8100   0.819   2.848   0.476
 2401SOL     OW 8101   1.210   6.371   0.297
 2401SOL    HW1 8102   1.131   6.310   0.283
 2401SOL    HW2 8103   1.294   6.317   0.297
 2402SOL     OW 8104   0.599   3.684   2.585
 2402SOL    HW1 8105   0.686   3.638   2.601
 2402SOL    HW2 8106   0.602   3.776   2.623
 2403SOL     OW 8107   3.029   4.309   5.311
 2403SOL    HW1 8108   2.973   4.386   5.278
 2403SOL    HW2 8109   3.014   4.230   5.252
 2404SOL     OW 8110   6.323   1.517   2.279
 2404SOL    HW1 8111   6.373   1.539   2.362
 2404SOL    HW2 8112   6.278   1.599   2.244
 2405SOL     OW 8113   1.544   3.027   0.526
 2405SOL    HW1 8114   1.468   2.973   0.561
 2405SOL    HW2 8115   1.510   3.115   0.492
 2406SOL     OW 8116   4.115   5.713   4.429
 2406SOL    HW1 8117   4.121   5.688   4.525
 2406SOL    HW2 8118   4.207   5.718   4.390
 2407SOL     OW 8119   2.166   1.616   3.873
 2407SOL    HW1 8120   2.129   1.709   3.870
 2407SOL    HW2 8121   2.229   1.607   3.950
 2408SOL     OW 8122   3.962   0.315   5.971
 2408SOL    HW1 8123   4.042   0.256   5.959
 2408SOL    HW2 8124   3.886   0.262   6.009
 2409SOL     OW 8125   0.703   3.110   6.544
 2409SOL    HW1 8126   0.617   3.146   6.577
 2409SOL    HW2 8127   0.693   3.084   6.448
 2410SOL     OW 8128   6.947   3.378   4.184
 2410SOL    HW1 8129   6.995   3.413   4.264
 2410SOL    HW2 8130   6.979   3.425   4.102
 2411SOL     OW 8131   3.132   1.432   0.073
 2411SOL    HW1 8132   3.113   1.528   0.094
 2411SOL    HW2 8133   3.156   1.384   0.157
 2412SOL     OW 8134   2.904   1.799   6.642
 2412SOL    HW1 8135   2.814   1.835   6.618
 2412SOL    HW2 8136   2.928   1.827   6.735
 2413SOL     OW 8137   6.844   4.050   6.856
 2413SOL    HW1 8138   6.857   3.952   6.875
 2413SOL    HW2 8139   6.753   4.078   6.885
 2414SOL     OW 8140   6.465   1.513   4.897
 2414SOL    HW1 8141   6.439   1.418   4.915
 2414SOL    HW2 8142   6.482   1.525   4.799
 2415SOL     OW 8143   3.244   3.881   6.387
 2415SOL    HW1 8144   3.254   3.909   6.483
 2415SOL    HW2 8145   3.160   3.920   6.349
 2416SOL     OW 8146   0.432   3.316   4.036
 2416SOL    HW1 8147   0.384   3.402   4.017
 2416SOL    HW2 8148   0.474   3.320   4.127
 2417SOL     OW 8149   3.592   2.688   1.856
 2417SOL    HW1 8150   3.500   2.723   1.873
 2417SOL    HW2 8151   3.592   2.588   1.870
 2418SOL     OW 8152   5.725   4.121   6.271
 2418SOL    HW1 8153   5.714   4.192   6.201
 2418SOL    HW2 8154   5.681   4.151   6.356
 2419SOL     OW 8155   3.719   1.042   2.850
 2419SOL    HW1 8156   3.732   1.010   2.756
 2419SOL    HW2 8157   3.800   1.093   2.880
 2420SOL     OW 8158   1.428   3.741   2.169
 2420SOL    HW1 8159   1.485   3.765   2.247
 2420SOL    HW2 8160   1.431   3.642   2.154
 2421SOL     OW 8161   2.698   6.966   2.802
 2421SOL    HW1 8162   2.637   6.935   2.875
 2421SOL    HW2 8163   2.782   6.911   2.802
 2422SOL     OW 8164   3.855   6.512   0.318
 2422SOL    HW1 8165   3.802   6.577   0.372
 2422SOL    HW2 8166   3.833   6.524   0.221
 2423SOL     OW 8167   3.406   5.021   4.762
 2423SOL    HW1 8168   3.340   4.962   4.809
 2423SOL    HW2 8169   3.413   4.994   4.666
 2424SOL     OW 8170   5.416   6.699   6.198
 2424SOL    HW1 8171   5.379   6.670   6.109
 2424SOL    HW2 8172   5.487   6.767   6.184
 2425SOL     OW 8173   4.012   5.427   5.366
 2425SOL    HW1 8174   3.932   5.368   5.381
 2425SOL    HW2 8175   4.091   5.390   5.416
 2426SOL     OW 8176   3.127   2.069   5.204
 2426SOL    HW1 8177   3.052   2.119   5.247
 2426SOL    HW2 8178   3.186   2.134   5.154
 2427SOL     OW 8179   3.983   2.069   0.605
 2427SOL    HW1 8180   3.922   2.142   0.634
 2427SOL    HW2 8181   3.970   2.052   0.507
 2428SOL     OW 8182   1.767   1.680   2.857
 2428SOL    HW1 8183   1.815   1.766   2.841
 2428SOL    HW2 8184   1.744   1.638   2.769
 2429SOL     OW 8185   5.555   5.999   1.251
 2429SOL    HW1 8186   5.649   6.018   1.281
 2429SOL    HW2 8187   5.526   5.910   1.288
 2430SOL     OW 8188   6.678   0.206   0.173
 2430SOL    HW1 8189   6.723   0.117   0.186
 2430SOL    HW2 8190   6.723   0.255   0.099
 2431SOL     OW 8191   1.762   3.357   1.791
 2431SOL    HW1 8192   1.692   3.335   1.858
 2431SOL    HW2 8193   1.719   3.375   1.702
 2432SOL     OW 8194   2.940   5.935   2.056
 2432SOL    HW1 8195   2.903   5.876   2.128
 2432SOL    HW2 8196   2.896   5.915   1.969
 2433SOL     OW 8197   6.844   4.625   4.215
 2433SOL    HW1 8198   6.932   4.649   4.175
 2433SOL    HW2 8199   6.827   4.683   4.295
 2434SOL     OW 8200   4.260   1.671   2.853
 2434SOL    HW1 8201   4.309   1.731   2.789
 2434SOL    HW2 8202   4.174   1.714   2.880
 2435SOL     OW 8203   6.129   0.003   6.745
 2435SOL    HW1 8204   6.131   0.038   6.651
 2435SOL    HW2 8205   6.204   6.967   6.759
 2436SOL     OW 8206   6.908   2.684   0.913
 2436SOL    HW1 8207   6.992   2.655   0.868
 2436SOL    HW2 8208   6.861   2.605   0.952
 2437SOL     OW 8209   1.033   4.334   1.330
 2437SOL    HW1 8210   0.965   4.272   1.292
 2437SOL    HW2 8211   1.114   4.335   1.270
 2438SOL     OW 8212   3.671   1.522   4.769
 2438SOL    HW1 8213   3.659   1.442   4.709
 2438SOL    HW2 8214   3.766   1.528   4.799
 2439SOL     OW 8215   0.054   5.916   0.393
 2439SOL    HW1 8216   0.116   5.837   0.398
 2439SOL    HW2 8217   0.081   5.974   0.316
 2440SOL     OW 8218   5.759   1.615   5.405
 2440SOL    HW1 8219   5.687   1.547   5.425
 2440SOL    HW2 8220   5.804   1.642   5.490
 2441SOL     OW 8221   6.070   0.990   0.197
 2441SOL    HW1 8222   6.111   1.061   0.141
 2441SOL    HW2 8223   6.121   0.982   0.283
 2442SOL     OW 8224   4.976   2.846   2.532
 2442SOL    HW1 8225   5.013   2.809   2.447
 2442SOL    HW2 8226   4.933   2.934   2.513
 2443SOL     OW 8227   0.180   2.709   1.419
 2443SOL    HW1 8228   0.252   2.722   1.487
 2443SOL    HW2 8229   0.217   2.722   1.327
 2444SOL     OW 8230   3.691   4.880   3.043
 2444SOL    HW1 8231   3.610   4.920   3.087
 2444SOL    HW2 8232   3.751   4.841   3.113
 2445SOL     OW 8233   0.454   1.823   0.987
 2445SOL    HW1 8234   0.527   1.832   1.055
 2445SOL    HW2 8235   0.493   1.795   0.900
 2446SOL     OW 8236   6.736   5.901   1.634
 2446SOL    HW1 8237   6.683   5.824   1.598
 2446SOL    HW2 8238   6.722   5.982   1.576
 2447SOL     OW 8239   1.751   6.846   0.663
 2447SOL    HW1 8240   1.712   6.823   0.574
 2447SOL    HW2 8241   1.691   6.812   0.735
 2448SOL     OW 8242   5.458   1.230   3.866
 2448SOL    HW1 8243   5.546   1.277   3.870
 2448SOL    HW2 8244   5.472   1.134   3.843
 2449SOL     OW 8245   2.285   4.292   1.438
 2449SOL    HW1 8246   2.306   4.390   1.438
 2449SOL    HW2 8247   2.190   4.278   1.465
 2450SOL     OW 8248   0.991   6.535   5.533
 2450SOL    HW1 8249   0.898   6.507   5.556
 2450SOL    HW2 8250   1.002   6.537   5.434
 2451SOL     OW 8251   1.611   0.104   6.605
 2451SOL    HW1 8252   1.702   0.114   6.565
 2451SOL    HW2 8253   1.606   0.018   6.655
 2452SOL     OW 8254   2.423   1.902   3.965
 2452SOL    HW1 8255   2.324   1.909   3.975
 2452SOL    HW2 8256   2.464   1.992   3.974
 2453SOL     OW 8257   1.316   1.566   6.134
 2453SOL    HW1 8258   1.330   1.573   6.035
 2453SOL    HW2 8259   1.260   1.486   6.155
 2454SOL     OW 8260   2.865   6.233   0.577
 2454SOL    HW1 8261   2.881   6.134   0.570
 2454SOL    HW2 8262   2.779   6.256   0.531
 2455SOL     OW 8263   4.448   2.366   0.065
 2455SOL    HW1 8264   4.437   2.462   0.093
 2455SOL    HW2 8265   4.487   2.314   0.140
 2456SOL     OW 8266   0.848   3.873   6.022
 2456SOL    HW1 8267   0.918   3.802   6.017
 2456SOL    HW2 8268   0.856   3.933   5.943
 2457SOL     OW 8269   4.750   1.305   5.986
 2457SOL    HW1 8270   4.795   1.390   6.014
 2457SOL    HW2 8271   4.807   1.258   5.919
 2458SOL     OW 8272   1.041   0.272   2.397
 2458SOL    HW1 8273   0.981   0.194   2.413
 2458SOL    HW2 8274   1.063   0.316   2.484
 2459SOL     OW 8275   2.323   6.717   1.412
 2459SOL    HW1 8276   2.254   6.700   1.482
 2459SOL    HW2 8277   2.413   6.694   1.448
 2460SOL     OW 8278   0.572   0.441   4.087
 2460SOL    HW1 8279   0.541   0.346   4.090
 2460SOL    HW2 8280   0.562   0.477   3.994
 2461SOL     OW 8281   3.685   1.354   3.407
 2461SOL    HW1 8282   3.624   1.294   3.356
 2461SOL    HW2 8283   3.709   1.433   3.351
 2462SOL     OW 8284   0.425   6.309   0.931
 2462SOL    HW1 8285   0.443   6.372   1.007
 2462SOL    HW2 8286   0.383   6.359   0.856
 2463SOL     OW 8287   6.763   6.653   1.130
 2463SOL    HW1 8288   6.683   6.603   1.098
 2463SOL    HW2 8289   6.842   6.630   1.073
 2464SOL     OW 8290   0.467   2.895   4.658
 2464SOL    HW1 8291   0.402   2.968   4.637
 2464SOL    HW2 8292   0.417   2.810   4.675
 2465SOL     OW 8293   5.965   1.136   6.851
 2465SOL    HW1 8294   5.974   1.095   6.941
 2465SOL    HW2 8295   6.015   1.223   6.849
 2466SOL     OW 8296   0.615   2.494   1.483
 2466SOL    HW1 8297   0.547   2.515   1.553
 2466SOL    HW2 8298   0.646   2.399   1.494
 2467SOL     OW 8299   4.866   2.708   4.917
 2467SOL    HW1 8300   4.838   2.677   5.008
 2467SOL    HW2 8301   4.839   2.804   4.905
 2468SOL     OW 8302   3.682   0.019   5.145
 2468SOL    HW1 8303   3.762   0.027   5.205
 2468SOL    HW2 8304   3.711   0.025   5.050
 2469SOL     OW 8305   3.083   2.061   5.823
 2469SOL    HW1 8306   3.163   2.111   5.790
 2469SOL    HW2 8307   3.055   1.993   5.755
 2470SOL     OW 8308   2.060   5.828   6.488
 2470SOL    HW1 8309   2.016   5.917   6.476
 2470SOL    HW2 8310   1.992   5.756   6.476
 2471SOL     OW 8311   3.241   5.846   2.970
 2471SOL    HW1 8312   3.310   5.869   2.901
 2471SOL    HW2 8313   3.152   5.834   2.925
 2472SOL     OW 8314   4.535   1.569   2.528
 2472SOL    HW1 8315   4.571   1.564   2.435
 2472SOL    HW2 8316   4.611   1.573   2.592
 2473SOL     OW 8317   0.437   4.467   4.340
 2473SOL    HW1 8318   0.459   4.416   4.257
 2473SOL    HW2 8319   0.499   4.545   4.348
 2474SOL     OW 8320   1.661   6.426   0.848
 2474SOL    HW1 8321   1.646   6.329   0.830
 2474SOL    HW2 8322   1.712   6.437   0.934
 2475SOL     OW 8323   5.436   2.465   0.482
 2475SOL    HW1 8324   5.411   2.404   0.408
 2475SOL    HW2 8325   5.518   2.431   0.528
 2476SOL     OW 8326   4.791   0.088   0.536
 2476SOL    HW1 8327   4.835   0.043   0.613
 2476SOL    HW2 8328   4.853   0.088   0.458
 2477SOL     OW 8329   3.807   0.300   3.440
 2477SOL    HW1 8330   3.881   0.239   3.468
 2477SOL    HW2 8331   3.795   0.372   3.509
 2478SOL     OW 8332   3.519   0.054   4.372
 2478SOL    HW1 8333   3.502   6.985   4.352
 2478SOL    HW2 8334   3.454   0.110   4.321
 2479SOL     OW 8335   4.998   3.469   1.263
 2479SOL    HW1 8336   5.088   3.513   1.257
 2479SOL    HW2 8337   4.957   3.487   1.352
 2480SOL     OW 8338   3.415   2.386   1.719
 2480SOL    HW1 8339   3.503   2.395   1.765
 2480SOL    HW2 8340   3.369   2.475   1.719
 2481SOL     OW 8341   3.206   0.186   1.542
 2481SOL    HW1 8342   3.300   0.220   1.547
 2481SOL    HW2 8343   3.152   0.245   1.484
 2482SOL     OW 8344   6.800   3.089   0.004
 2482SOL    HW1 8345   6.898   3.083   7.015
 2482SOL    HW2 8346   6.770   3.184   7.018
 2483SOL     OW 8347   2.875   2.205   1.151
 2483SOL    HW1 8348   2.844   2.133   1.089
 2483SOL    HW2 8349   2.822   2.201   1.235
 2484SOL     OW 8350   4.244   0.197   6.478
 2484SOL    HW1 8351   4.217   0.107   6.512
 2484SOL    HW2 8352   4.344   0.202   6.474
 2485SOL     OW 8353   0.157   1.616   6.110
 2485SOL    HW1 8354   0.158   1.522   6.075
 2485SOL    HW2 8355   0.166   1.614   6.210
 2486SOL     OW 8356   0.369   5.490   3.443
 2486SOL    HW1 8357   0.294   5.468   3.381
 2486SOL    HW2 8358   0.333   5.516   3.532
 2487SOL     OW 8359   4.392   6.222   0.210
 2487SOL    HW1 8360   4.377   6.235   0.112
 2487SOL    HW2 8361   4.461   6.151   0.224
 2488SOL     OW 8362   7.008   3.900   0.845
 2488SOL    HW1 8363   0.029   3.820   0.811
 2488SOL    HW2 8364   6.972   3.882   0.936
 2489SOL     OW 8365   6.256   5.145   4.275
 2489SOL    HW1 8366   6.197   5.122   4.352
 2489SOL    HW2 8367   6.200   5.176   4.198
 2490SOL     OW 8368   2.222   5.708   2.266
 2490SOL    HW1 8369   2.293   5.778   2.269
 2490SOL    HW2 8370   2.210   5.675   2.172
 2491SOL     OW 8371   3.806   4.544   1.630
 2491SOL    HW1 8372   3.903   4.518   1.625
 2491SOL    HW2 8373   3.754   4.472   1.677
 2492SOL     OW 8374   7.012   5.457   1.033
 2492SOL    HW1 8375   6.972   5.376   0.991
 2492SOL    HW2 8376   6.952   5.491   1.106
 2493SOL     OW 8377   5.132   6.611   0.749
 2493SOL    HW1 8378   5.095   6.520   0.766
 2493SOL    HW2 8379   5.089   6.677   0.811
 2494SOL     OW 8380   6.910   3.897   1.099
 2494SOL    HW1 8381   6.851   3.822   1.130
 2494SOL    HW2 8382   6.889   3.980   1.151
 2495SOL     OW 8383   0.544   3.261   2.037
 2495SOL    HW1 8384   0.490   3.248   2.120
 2495SOL    HW2 8385   0.587   3.174   2.012
 2496SOL     OW 8386   5.606   4.769   6.456
 2496SOL    HW1 8387   5.646   4.822   6.381
 2496SOL    HW2 8388   5.582   4.831   6.531
 2497SOL     OW 8389   0.202   0.184   2.523
 2497SOL    HW1 8390   0.183   0.237   2.606
 2497SOL    HW2 8391   0.129   0.198   2.457
 2498SOL     OW 8392   2.000   3.534   5.047
 2498SOL    HW1 8393   2.073   3.590   5.086
 2498SOL    HW2 8394   1.985   3.454   5.106
 2499SOL     OW 8395   6.638   3.801   2.346
 2499SOL    HW1 8396   6.645   3.702   2.353
 2499SOL    HW2 8397   6.658   3.842   2.436
 2500SOL     OW 8398   3.691   3.454   2.119
 2500SOL    HW1 8399   3.598   3.479   2.089
 2500SOL    HW2 8400   3.758   3.507   2.067
 2501SOL     OW 8401   6.127   5.665   6.153
 2501SOL    HW1 8402   6.041   5.624   6.185
 2501SOL    HW2 8403   6.193   5.592   6.134
 2502SOL     OW 8404   2.090   6.527   4.063
 2502SOL    HW1 8405   2.126   6.610   4.104
 2502SOL    HW2 8406   2.164   6.477   4.018
 2503SOL     OW 8407   2.410   0.067   5.359
 2503SOL    HW1 8408   2.349   0.000   5.318
 2503SOL    HW2 8409   2.442   0.033   5.448
 2504SOL     OW 8410   3.550   6.970   3.114
 2504SOL    HW1 8411   3.617   6.949   3.042
 2504SOL    HW2 8412   3.592   0.001   3.182
 2505SOL     OW 8413   6.472   4.316   3.831
 2505SOL    HW1 8414   6.477   4.217   3.846
 2505SOL    HW2 8415   6.471   4.334   3.733
 2506SOL     OW 8416   5.888   5.538   6.241
 2506SOL    HW1 8417   5.837   5.556   6.157
 2506SOL    HW2 8418   5.915   5.442   6.243
 2507SOL     OW 8419   0.088   3.465   2.766
 2507SOL    HW1 8420   0.019   3.535   2.782
 2507SOL    HW2 8421   0.174   3.492   2.811
 2508SOL     OW 8422   5.932   0.924   4.050
 2508SOL    HW1 8423   5.924   1.015   4.010
 2508SOL    HW2 8424   5.854   0.907   4.111
 2509SOL     OW 8425   0.555   3.019   5.612
 2509SOL    HW1 8426   0.618   2.961   5.665
 2509SOL    HW2 8427   0.595   3.037   5.522
 2510SOL     OW 8428   3.241   4.093   2.544
 2510SOL    HW1 8429   3.195   4.176   2.575
 2510SOL    HW2 8430   3.219   4.076   2.448
 2511SOL     OW 8431   1.908   0.520   4.342
 2511SOL    HW1 8432   1.930   0.611   4.307
 2511SOL    HW2 8433   1.879   0.527   4.438
 2512SOL     OW 8434   4.015   4.848   3.749
 2512SOL    HW1 8435   4.002   4.875   3.845
 2512SOL    HW2 8436   3.925   4.837   3.706
 2513SOL     OW 8437   1.892   5.590   6.467
 2513SOL    HW1 8438   1.799   5.617   6.493
 2513SOL    HW2 8439   1.890   5.552   6.374
 2514SOL     OW 8440   1.648   2.012   3.460
 2514SOL    HW1 8441   1.619   2.107   3.455
 2514SOL    HW2 8442   1.715   2.002   3.533
 2515SOL     OW 8443   0.320   2.151   1.391
 2515SOL    HW1 8444   0.348   2.061   1.425
 2515SOL    HW2 8445   0.399   2.199   1.355
 2516SOL     OW 8446   5.841   2.113   4.489
 2516SOL    HW1 8447   5.936   2.090   4.513
 2516SOL    HW2 8448   5.834   2.210   4.469
 2517SOL     OW 8449   0.660   1.353   3.690
 2517SOL    HW1 8450   0.574   1.389   3.727
 2517SOL    HW2 8451   0.727   1.345   3.763
 2518SOL     OW 8452   2.382   4.509   0.774
 2518SOL    HW1 8453   2.318   4.553   0.711
 2518SOL    HW2 8454   2.344   4.421   0.803
 2519SOL     OW 8455   0.941   1.464   1.053
 2519SOL    HW1 8456   0.930   1.458   0.954
 2519SOL    HW2 8457   0.890   1.390   1.097
 2520SOL     OW 8458   2.282   2.524   1.163
 2520SOL    HW1 8459   2.225   2.448   1.130
 2520SOL    HW2 8460   2.354   2.542   1.096
 2521SOL     OW 8461   5.215   0.717   4.791
 2521SOL    HW1 8462   5.156   0.661   4.848
 2521SOL    HW2 8463   5.281   0.765   4.848
 2522SOL     OW 8464   1.141   2.235   6.672
 2522SOL    HW1 8465   1.071   2.254   6.741
 2522SOL    HW2 8466   1.123   2.146   6.630
 2523SOL     OW 8467   1.184   5.289   6.502
 2523SOL    HW1 8468   1.137   5.204   6.523
 2523SOL    HW2 8469   1.118   5.356   6.469
 2524SOL     OW 8470   1.068   1.418   4.332
 2524SOL    HW1 8471   1.099   1.343   4.273
 2524SOL    HW2 8472   0.969   1.427   4.324
 2525SOL     OW 8473   6.505   2.647   5.541
 2525SOL    HW1 8474   6.590   2.595   5.533
 2525SOL    HW2 8475   6.523   2.736   5.581
 2526SOL     OW 8476   1.820   0.621   0.662
 2526SOL    HW1 8477   1.889   0.656   0.726
 2526SOL    HW2 8478   1.729   0.645   0.695
 2527SOL     OW 8479   3.699   5.133   6.748
 2527SOL    HW1 8480   3.757   5.090   6.817
 2527SOL    HW2 8481   3.716   5.232   6.746
 2528SOL     OW 8482   4.570   5.723   6.247
 2528SOL    HW1 8483   4.567   5.698   6.150
 2528SOL    HW2 8484   4.652   5.777   6.265
 2529SOL     OW 8485   0.623   6.510   5.806
 2529SOL    HW1 8486   0.620   6.609   5.817
 2529SOL    HW2 8487   0.670   6.469   5.885
 2530SOL     OW 8488   2.363   6.177   6.553
 2530SOL    HW1 8489   2.405   6.193   6.643
 2530SOL    HW2 8490   2.366   6.079   6.532
 2531SOL     OW 8491   6.785   5.658   6.535
 2531SOL    HW1 8492   6.743   5.611   6.613
 2531SOL    HW2 8493   6.884   5.644   6.537
 2532SOL     OW 8494   5.727   5.888   1.807
 2532SOL    HW1 8495   5.635   5.874   1.771
 2532SOL    HW2 8496   5.735   5.979   1.846
 2533SOL     OW 8497   4.527   0.969   3.763
 2533SOL    HW1 8498   4.603   0.907   3.782
 2533SOL    HW2 8499   4.448   0.915   3.733
 2534SOL     OW 8500   3.978   1.248   2.459
 2534SOL    HW1 8501   4.008   1.307   2.535
 2534SOL    HW2 8502   3.884   1.272   2.434
 2535SOL     OW 8503   3.562   3.011   6.281
 2535SOL    HW1 8504   3.483   2.967   6.323
 2535SOL    HW2 8505   3.642   2.951   6.290
 2536SOL     OW 8506   1.506   0.595   1.556
 2536SOL    HW1 8507   1.422   0.556   1.519
 2536SOL    HW2 8508   1.567   0.521   1.587
 2537SOL     OW 8509   4.036   0.282   5.523
 2537SOL    HW1 8510   4.078   0.222   5.591
 2537SOL    HW2 8511   3.940   0.258   5.513
 2538SOL     OW 8512   5.832   3.466   3.422
 2538SOL    HW1 8513   5.888   3.547   3.408
 2538SOL    HW2 8514   5.738   3.484   3.392
 2539SOL     OW 8515   5.338   2.742   5.172
 2539SOL    HW1 8516   5.299   2.650   5.171
 2539SOL    HW2 8517   5.283   2.802   5.114
 2540SOL     OW 8518   2.696   1.860   1.352
 2540SOL    HW1 8519   2.615   1.842   1.297
 2540SOL    HW2 8520   2.730   1.774   1.390
 2541SOL     OW 8521   3.394   6.543   3.927
 2541SOL    HW1 8522   3.342   6.488   3.861
 2541SOL    HW2 8523   3.433   6.483   3.996
 2542SOL     OW 8524   1.856   5.290   5.951
 2542SOL    HW1 8525   1.956   5.298   5.955
 2542SOL    HW2 8526   1.828   5.202   5.990
 2543SOL     OW 8527   0.533   0.608   4.302
 2543SOL    HW1 8528   0.480   0.561   4.373
 2543SOL    HW2 8529   0.548   0.546   4.225
 2544SOL     OW 8530   0.438   5.190   6.830
 2544SOL    HW1 8531   0.507   5.217   6.762
 2544SOL    HW2 8532   0.443   5.091   6.845
 2545SOL     OW 8533   2.350   5.825   3.377
 2545SOL    HW1 8534   2.403   5.866   3.451
 2545SOL    HW2 8535   2.264   5.788   3.413
 2546SOL     OW 8536   0.192   1.272   1.693
 2546SOL    HW1 8537   0.249   1.352   1.677
 2546SOL    HW2 8538   0.214   1.234   1.783
 2547SOL     OW 8539   1.020   3.560   5.105
 2547SOL    HW1 8540   0.932   3.532   5.067
 2547SOL    HW2 8541   1.006   3.602   5.194
 2548SOL     OW 8542   1.111   0.405   5.669
 2548SOL    HW1 8543   1.011   0.412   5.663
 2548SOL    HW2 8544   1.152   0.469   5.604
 2549SOL     OW 8545   6.474   3.192   2.204
 2549SOL    HW1 8546   6.435   3.283   2.196
 2549SOL    HW2 8547   6.547   3.192   2.272
 2550SOL     OW 8548   5.820   5.574   0.112
 2550SOL    HW1 8549   5.905   5.567   0.164
 2550SOL    HW2 8550   5.746   5.601   0.173
 2551SOL     OW 8551   1.048   4.973   0.576
 2551SOL    HW1 8552   1.018   4.938   0.665
 2551SOL    HW2 8553   0.996   4.928   0.503
 2552SOL     OW 8554   1.699   5.865   3.800
 2552SOL    HW1 8555   1.720   5.788   3.739
 2552SOL    HW2 8556   1.710   5.836   3.895
 2553SOL     OW 8557   4.123   3.749   6.748
 2553SOL    HW1 8558   4.210   3.714   6.783
 2553SOL    HW2 8559   4.064   3.774   6.825
 2554SOL     OW 8560   1.135   2.027   0.643
 2554SOL    HW1 8561   1.106   2.073   0.728
 2554SOL    HW2 8562   1.105   1.932   0.645
 2555SOL     OW 8563   6.404   0.152   6.534
 2555SOL    HW1 8564   6.370   0.244   6.557
 2555SOL    HW2 8565   6.326   0.092   6.515
 2556SOL     OW 8566   3.873   4.952   1.029
 2556SOL    HW1 8567   3.815   5.022   0.988
 2556SOL    HW2 8568   3.818   4.890   1.086
 2557SOL     OW 8569   1.472   4.662   6.815
 2557SOL    HW1 8570   1.392   4.676   6.874
 2557SOL    HW2 8571   1.442   4.634   6.724
 2558SOL     OW 8572   4.258   0.702   5.233
 2558SOL    HW1 8573   4.171   0.655   5.251
 2558SOL    HW2 8574   4.307   0.715   5.319
 2559SOL     OW 8575   0.386   5.166   5.086
 2559SOL    HW1 8576   0.371   5.071   5.112
 2559SOL    HW2 8577   0.401   5.172   4.987
 2560SOL     OW 8578   5.871   1.243   0.091
 2560SOL    HW1 8579   5.794   1.232   0.153
 2560SOL    HW2 8580   5.954   1.259   0.144
 2561SOL     OW 8581   2.804   5.752   4.344
 2561SOL    HW1 8582   2.829   5.679   4.280
 2561SOL    HW2 8583   2.878   5.819   4.348
 2562SOL     OW 8584   2.418   3.656   0.113
 2562SOL    HW1 8585   2.394   3.728   0.049
 2562SOL    HW2 8586   2.473   3.695   0.188
 2563SOL     OW 8587   1.890   0.631   1.858
 2563SOL    HW1 8588   1.848   0.684   1.785
 2563SOL    HW2 8589   1.948   0.560   1.818
 2564SOL     OW 8590   1.859   6.498   2.191
 2564SOL    HW1 8591   1.822   6.472   2.102
 2564SOL    HW2 8592   1.800   6.567   2.233
 2565SOL     OW 8593   0.566   0.897   1.729
 2565SOL    HW1 8594   0.557   0.951   1.645
 2565SOL    HW2 8595   0.531   0.805   1.713
 2566SOL     OW 8596   2.438   7.017   5.611
 2566SOL    HW1 8597   2.535   0.012   5.620
 2566SOL    HW2 8598   2.399   7.000   5.702
 2567SOL     OW 8599   1.273   0.895   0.461
 2567SOL    HW1 8600   1.362   0.851   0.471
 2567SOL    HW2 8601   1.261   0.922   0.365
 2568SOL     OW 8602   5.062   4.314   6.986
 2568SOL    HW1 8603   5.051   4.238   6.921
 2568SOL    HW2 8604   5.108   4.390   6.941
 2569SOL     OW 8605   2.662   0.762   2.596
 2569SOL    HW1 8606   2.658   0.795   2.502
 2569SOL    HW2 8607   2.662   0.841   2.659
 2570SOL     OW 8608   5.472   2.549   6.104
 2570SOL    HW1 8609   5.541   2.612   6.071
 2570SOL    HW2 8610   5.487   2.531   6.202
 2571SOL     OW 8611   0.565   3.933   4.546
 2571SOL    HW1 8612   0.598   3.911   4.637
 2571SOL    HW2 8613   0.492   4.002   4.552
 2572SOL     OW 8614   1.639   4.858   3.813
 2572SOL    HW1 8615   1.651   4.782   3.749
 2572SOL    HW2 8616   1.728   4.899   3.833
 2573SOL     OW 8617   1.092   0.024   0.994
 2573SOL    HW1 8618   1.167   6.989   0.973
 2573SOL    HW2 8619   1.077   0.085   0.916
 2574SOL     OW 8620   6.339   3.567   0.734
 2574SOL    HW1 8621   6.353   3.512   0.817
 2574SOL    HW2 8622   6.283   3.516   0.669
 2575SOL     OW 8623   0.545   6.348   6.301
 2575SOL    HW1 8624   0.613   6.294   6.352
 2575SOL    HW2 8625   0.518   6.298   6.219
 2576SOL     OW 8626   4.266   6.442   5.018
 2576SOL    HW1 8627   4.291   6.346   5.005
 2576SOL    HW2 8628   4.167   6.448   5.033
 2577SOL     OW 8629   1.916   4.093   2.721
 2577SOL    HW1 8630   1.906   4.075   2.819
 2577SOL    HW2 8631   1.870   4.179   2.698
 2578SOL     OW 8632   4.276   1.972   2.438
 2578SOL    HW1 8633   4.320   1.899   2.490
 2578SOL    HW2 8634   4.234   2.038   2.500
 2579SOL     OW 8635   0.816   6.529   2.827
 2579SOL    HW1 8636   0.910   6.513   2.856
 2579SOL    HW2 8637   0.794   6.626   2.835
 2580SOL     OW 8638   2.712   2.177   5.646
 2580SOL    HW1 8639   2.770   2.117   5.590
 2580SOL    HW2 8640   2.755   2.190   5.736
 2581SOL     OW 8641   3.142   0.734   5.131
 2581SOL    HW1 8642   3.050   0.703   5.107
 2581SOL    HW2 8643   3.193   0.755   5.047
 2582SOL     OW 8644   7.013   3.235   1.421
 2582SOL    HW1 8645   7.017   3.166   1.349
 2582SOL    HW2 8646   0.071   3.286   1.423
 2583SOL     OW 8647   5.792   0.549   1.134
 2583SOL    HW1 8648   5.877   0.600   1.120
 2583SOL    HW2 8649   5.809   0.451   1.123
 2584SOL     OW 8650   4.048   4.494   6.144
 2584SOL    HW1 8651   3.976   4.458   6.085
 2584SOL    HW2 8652   4.014   4.499   6.238
 2585SOL     OW 8653   3.056   5.647   6.830
 2585SOL    HW1 8654   3.095   5.557   6.850
 2585SOL    HW2 8655   2.956   5.639   6.827
 2586SOL     OW 8656   2.636   0.831   3.541
 2586SOL    HW1 8657   2.584   0.780   3.610
 2586SOL    HW2 8658   2.733   0.831   3.566
 2587SOL     OW 8659   6.172   0.763   4.364
 2587SOL    HW1 8660   6.167   0.665   4.383
 2587SOL    HW2 8661   6.145   0.815   4.445
 2588SOL     OW 8662   4.619   0.384   6.840
 2588SOL    HW1 8663   4.716   0.389   6.815
 2588SOL    HW2 8664   4.610   0.374   6.939
 2589SOL     OW 8665   2.131   6.075   0.200
 2589SOL    HW1 8666   2.142   6.084   0.299
 2589SOL    HW2 8667   2.037   6.095   0.174
 2590SOL     OW 8668   3.120   5.977   0.187
 2590SOL    HW1 8669   3.026   5.965   0.220
 2590SOL    HW2 8670   3.126   5.952   0.091
 2591SOL     OW 8671   5.413   5.428   2.594
 2591SOL    HW1 8672   5.319   5.446   2.563
 2591SOL    HW2 8673   5.413   5.353   2.659
 2592SOL     OW 8674   3.017   4.143   0.698
 2592SOL    HW1 8675   3.065   4.056   0.707
 2592SOL    HW2 8676   2.920   4.126   0.681
 2593SOL     OW 8677   3.325   4.651   0.153
 2593SOL    HW1 8678   3.383   4.600   0.217
 2593SOL    HW2 8679   3.346   4.749   0.159
 2594SOL     OW 8680   2.250   3.119   3.622
 2594SOL    HW1 8681   2.266   3.078   3.533
 2594SOL    HW2 8682   2.232   3.217   3.612
 2595SOL     OW 8683   2.388   1.478   2.962
 2595SOL    HW1 8684   2.411   1.575   2.970
 2595SOL    HW2 8685   2.318   1.467   2.891
 2596SOL     OW 8686   0.389   2.079   0.588
 2596SOL    HW1 8687   0.478   2.037   0.571
 2596SOL    HW2 8688   0.316   2.015   0.559
 2597SOL     OW 8689   6.523   6.770   0.216
 2597SOL    HW1 8690   6.604   6.719   0.185
 2597SOL    HW2 8691   6.513   6.759   0.315
 2598SOL     OW 8692   4.708   2.409   2.798
 2598SOL    HW1 8693   4.639   2.480   2.815
 2598SOL    HW2 8694   4.707   2.385   2.701
 2599SOL     OW 8695   2.735   5.977   2.607
 2599SOL    HW1 8696   2.670   5.935   2.670
 2599SOL    HW2 8697   2.714   5.950   2.513
 2600SOL     OW 8698   5.635   4.009   4.170
 2600SOL    HW1 8699   5.580   3.926   4.171
 2600SOL    HW2 8700   5.719   3.994   4.223
 2601SOL     OW 8701   6.544   1.093   4.302
 2601SOL    HW1 8702   6.587   1.102   4.393
 2601SOL    HW2 8703   6.548   1.181   4.255
 2602SOL     OW 8704   0.779   4.751   2.763
 2602SOL    HW1 8705   0.784   4.697   2.679
 2602SOL    HW2 8706   0.786   4.848   2.740
 2603SOL     OW 8707   2.148   5.865   2.665
 2603SOL    HW1 8708   2.139   5.857   2.765
 2603SOL    HW2 8709   2.058   5.878   2.625
 2604SOL     OW 8710   4.643   2.655   3.508
 2604SOL    HW1 8711   4.593   2.681   3.591
 2604SOL    HW2 8712   4.730   2.612   3.533
 2605SOL     OW 8713   1.454   3.204   1.687
 2605SOL    HW1 8714   1.391   3.145   1.737
 2605SOL    HW2 8715   1.453   3.295   1.728
 2606SOL     OW 8716   5.075   3.616   0.949
 2606SOL    HW1 8717   5.104   3.602   1.044
 2606SOL    HW2 8718   5.153   3.645   0.895
 2607SOL     OW 8719   2.567   3.011   1.695
 2607SOL    HW1 8720   2.649   3.047   1.740
 2607SOL    HW2 8721   2.495   3.080   1.695
 2608SOL     OW 8722   3.155   5.451   5.330
 2608SOL    HW1 8723   3.063   5.487   5.317
 2608SOL    HW2 8724   3.173   5.441   5.428
 2609SOL     OW 8725   0.628   2.192   1.494
 2609SOL    HW1 8726   0.552   2.146   1.448
 2609SOL    HW2 8727   0.704   2.201   1.431
 2610SOL     OW 8728   1.509   4.041   5.166
 2610SOL    HW1 8729   1.530   3.957   5.117
 2610SOL    HW2 8730   1.473   4.019   5.257
 2611SOL     OW 8731   5.719   0.185   5.714
 2611SOL    HW1 8732   5.684   0.113   5.773
 2611SOL    HW2 8733   5.694   0.274   5.751
 2612SOL     OW 8734   6.670   6.527   0.072
 2612SOL    HW1 8735   6.593   6.468   0.048
 2612SOL    HW2 8736   6.738   6.524   7.027
 2613SOL     OW 8737   1.389   6.814   6.925
 2613SOL    HW1 8738   1.326   6.750   6.881
 2613SOL    HW2 8739   1.472   6.765   6.953
 2614SOL     OW 8740   5.995   1.979   0.598
 2614SOL    HW1 8741   6.083   1.937   0.617
 2614SOL    HW2 8742   5.954   1.937   0.517
 2615SOL     OW 8743   0.611   3.510   6.842
 2615SOL    HW1 8744   0.600   3.412   6.861
 2615SOL    HW2 8745   0.646   3.556   6.924
 2616SOL     OW 8746   1.248   1.217   4.632
 2616SOL    HW1 8747   1.182   1.145   4.612
 2616SOL    HW2 8748   1.329   1.206   4.574
 2617SOL     OW 8749   5.584   0.164   1.779
 2617SOL    HW1 8750   5.529   0.247   1.773
 2617SOL    HW2 8751   5.672   0.186   1.821
 2618SOL     OW 8752   1.370   0.075   6.475
 2618SOL    HW1 8753   1.456   0.079   6.525
 2618SOL    HW2 8754   1.381   0.120   6.386
 2619SOL     OW 8755   4.914   1.388   2.804
 2619SOL    HW1 8756   4.842   1.457   2.809
 2619SOL    HW2 8757   4.929   1.363   2.709
 2620SOL     OW 8758   6.210   2.111   1.927
 2620SOL    HW1 8759   6.221   2.203   1.965
 2620SOL    HW2 8760   6.126   2.107   1.872
 2621SOL     OW 8761   2.551   6.645   1.531
 2621SOL    HW1 8762   2.596   6.720   1.580
 2621SOL    HW2 8763   2.618   6.573   1.511
 2622SOL     OW 8764   2.713   3.519   0.046
 2622SOL    HW1 8765   2.795   3.461   0.049
 2622SOL    HW2 8766   2.659   3.505   0.129
 2623SOL     OW 8767   6.814   0.386   3.913
 2623SOL    HW1 8768   6.720   0.386   3.880
 2623SOL    HW2 8769   6.855   0.475   3.894
 2624SOL     OW 8770   1.041   1.744   5.713
 2624SOL    HW1 8771   1.098   1.816   5.673
 2624SOL    HW2 8772   0.959   1.732   5.658
 2625SOL     OW 8773   2.688   5.422   5.911
 2625SOL    HW1 8774   2.672   5.324   5.924
 2625SOL    HW2 8775   2.785   5.437   5.890
 2626SOL     OW 8776   6.751   7.027   6.888
 2626SOL    HW1 8777   6.808   0.052   6.951
 2626SOL    HW2 8778   6.679   0.058   6.850
 2627SOL     OW 8779   2.124   0.837   6.010
 2627SOL    HW1 8780   2.194   0.907   6.019
 2627SOL    HW2 8781   2.121   0.805   5.915
 2628SOL     OW 8782   6.850   5.087   1.327
 2628SOL    HW1 8783   6.916   5.041   1.267
 2628SOL    HW2 8784   6.886   5.175   1.356
 2629SOL     OW 8785   3.172   3.568   2.795
 2629SOL    HW1 8786   3.113   3.645   2.821
 2629SOL    HW2 8787   3.157   3.545   2.699
 2630SOL     OW 8788   3.232   0.753   4.249
 2630SOL    HW1 8789   3.285   0.823   4.201
 2630SOL    HW2 8790   3.280   0.665   4.242
 2631SOL     OW 8791   5.063   6.364   0.149
 2631SOL    HW1 8792   4.986   6.338   0.090
 2631SOL    HW2 8793   5.055   6.460   0.174
 2632SOL     OW 8794   5.731   4.752   1.757
 2632SOL    HW1 8795   5.640   4.794   1.758
 2632SOL    HW2 8796   5.791   4.806   1.698
 2633SOL     OW 8797   0.135   3.493   5.932
 2633SOL    HW1 8798   0.090   3.414   5.890
 2633SOL    HW2 8799   0.094   3.577   5.897
 2634SOL     OW 8800   1.070   1.674   5.956
 2634SOL    HW1 8801   1.056   1.746   6.024
 2634SOL    HW2 8802   1.068   1.714   5.864
 2635SOL     OW 8803   3.942   5.419   2.941
 2635SOL    HW1 8804   3.929   5.367   2.856
 2635SOL    HW2 8805   3.943   5.516   2.920
 2636SOL     OW 8806   3.468   6.348   6.263
 2636SOL    HW1 8807   3.472   6.254   6.296
 2636SOL    HW2 8808   3.394   6.397   6.309
 2637SOL     OW 8809   0.434   0.853   3.053
 2637SOL    HW1 8810   0.381   0.847   3.137
 2637SOL    HW2 8811   0.501   0.778   3.050
 2638SOL     OW 8812   0.727   6.672   4.670
 2638SOL    HW1 8813   0.764   6.657   4.761
 2638SOL    HW2 8814   0.649   6.734   4.675
 2639SOL     OW 8815   4.746   4.897   4.396
 2639SOL    HW1 8816   4.773   4.805   4.426
 2639SOL    HW2 8817   4.689   4.939   4.466
 2640SOL     OW 8818   2.601   1.188   3.441
 2640SOL    HW1 8819   2.555   1.272   3.412
 2640SOL    HW2 8820   2.573   1.113   3.382
 2641SOL     OW 8821   4.890   2.482   7.002
 2641SOL    HW1 8822   4.865   2.543   0.050
 2641SOL    HW2 8823   4.914   2.392   0.010
 2642SOL     OW 8824   0.434   7.013   2.348
 2642SOL    HW1 8825   0.376   0.003   2.268
 2642SOL    HW2 8826   0.385   0.009   2.431
 2643SOL     OW 8827   1.714   4.816   4.108
 2643SOL    HW1 8828   1.719   4.915   4.102
 2643SOL    HW2 8829   1.632   4.789   4.158
 2644SOL     OW 8830   5.740   5.751   3.925
 2644SOL    HW1 8831   5.719   5.824   3.990
 2644SOL    HW2 8832   5.657   5.728   3.874
 2645SOL     OW 8833   5.154   5.704   2.486
 2645SOL    HW1 8834   5.177   5.608   2.469
 2645SOL    HW2 8835   5.088   5.710   2.561
 2646SOL     OW 8836   1.225   2.166   6.110
 2646SOL    HW1 8837   1.163   2.143   6.034
 2646SOL    HW2 8838   1.217   2.264   6.130
 2647SOL     OW 8839   4.127   6.527   2.672
 2647SOL    HW1 8840   4.046   6.561   2.625
 2647SOL    HW2 8841   4.192   6.491   2.605
 2648SOL     OW 8842   1.500   0.760   5.909
 2648SOL    HW1 8843   1.497   0.672   5.862
 2648SOL    HW2 8844   1.407   0.794   5.923
 2649SOL     OW 8845   5.882   1.728   3.569
 2649SOL    HW1 8846   5.886   1.796   3.495
 2649SOL    HW2 8847   5.932   1.646   3.542
 2650SOL     OW 8848   2.239   0.433   4.537
 2650SOL    HW1 8849   2.226   0.503   4.466
 2650SOL    HW2 8850   2.205   0.345   4.504
 2651SOL     OW 8851   4.107   2.122   3.525
 2651SOL    HW1 8852   4.167   2.055   3.481
 2651SOL    HW2 8853   4.026   2.076   3.562
 2652SOL     OW 8854   4.900   3.789   5.846
 2652SOL    HW1 8855   4.979   3.812   5.789
 2652SOL    HW2 8856   4.827   3.856   5.831
 2653SOL     OW 8857   2.189   6.462   6.887
 2653SOL    HW1 8858   2.222   6.373   6.918
 2653SOL    HW2 8859   2.176   6.460   6.788
 2654SOL     OW 8860   6.832   0.916   0.864
 2654SOL    HW1 8861   6.738   0.897   0.890
 2654SOL    HW2 8862   6.840   0.913   0.764
 2655SOL     OW 8863   5.527   6.577   2.981
 2655SOL    HW1 8864   5.556   6.533   2.896
 2655SOL    HW2 8865   5.490   6.668   2.961
 2656SOL     OW 8866   4.916   6.176   4.164
 2656SOL    HW1 8867   4.936   6.136   4.075
 2656SOL    HW2 8868   4.867   6.262   4.152
 2657SOL     OW 8869   1.559   3.353   6.963
 2657SOL    HW1 8870   1.634   3.335   7.027
 2657SOL    HW2 8871   1.595   3.400   6.882
 2658SOL     OW 8872   3.109   4.531   0.274
 2658SOL    HW1 8873   3.175   4.580   0.218
 2658SOL    HW2 8874   3.033   4.500   0.217
 2659SOL     OW 8875   7.004   1.984   5.297
 2659SOL    HW1 8876   6.976   1.928   5.375
 2659SOL    HW2 8877   0.001   1.924   5.221
 2660SOL     OW 8878   0.794   1.241   1.105
 2660SOL    HW1 8879   0.882   1.204   1.076
 2660SOL    HW2 8880   0.720   1.193   1.058
 2661SOL     OW 8881   1.745   1.213   1.396
 2661SOL    HW1 8882   1.813   1.280   1.365
 2661SOL    HW2 8883   1.716   1.235   1.489
 2662SOL     OW 8884   2.739   1.694   1.622
 2662SOL    HW1 8885   2.745   1.701   1.722
 2662SOL    HW2 8886   2.811   1.750   1.581
 2663SOL     OW 8887   3.927   0.661   0.917
 2663SOL    HW1 8888   3.856   0.610   0.867
 2663SOL    HW2 8889   3.976   0.721   0.854
 2664SOL     OW 8890   5.251   3.224   5.534
 2664SOL    HW1 8891   5.186   3.198   5.605
 2664SOL    HW2 8892   5.223   3.183   5.447
 2665SOL     OW 8893   1.541   2.965   3.751
 2665SOL    HW1 8894   1.617   2.942   3.690
 2665SOL    HW2 8895   1.479   3.028   3.705
 2666SOL     OW 8896   1.483   4.171   1.943
 2666SOL    HW1 8897   1.530   4.120   1.871
 2666SOL    HW2 8898   1.407   4.223   1.904
 2667SOL     OW 8899   6.322   2.596   4.538
 2667SOL    HW1 8900   6.269   2.511   4.536
 2667SOL    HW2 8901   6.384   2.598   4.459
 2668SOL     OW 8902   5.260   0.914   3.996
 2668SOL    HW1 8903   5.253   0.909   3.897
 2668SOL    HW2 8904   5.309   0.834   4.031
 2669SOL     OW 8905   2.688   0.882   1.588
 2669SOL    HW1 8906   2.662   0.977   1.570
 2669SOL    HW2 8907   2.722   0.873   1.681
 2670SOL     OW 8908   0.362   0.578   0.494
 2670SOL    HW1 8909   0.437   0.608   0.552
 2670SOL    HW2 8910   0.319   0.658   0.451
 2671SOL     OW 8911   5.396   4.702   5.999
 2671SOL    HW1 8912   5.324   4.707   6.068
 2671SOL    HW2 8913   5.358   4.727   5.910
 2672SOL     OW 8914   2.638   1.681   2.477
 2672SOL    HW1 8915   2.584   1.755   2.518
 2672SOL    HW2 8916   2.582   1.598   2.473
 2673SOL     OW 8917   3.332   6.784   2.861
 2673SOL    HW1 8918   3.422   6.760   2.897
 2673SOL    HW2 8919   3.289   6.703   2.821
 2674SOL     OW 8920   6.683   5.917   2.931
 2674SOL    HW1 8921   6.658   5.857   3.006
 2674SOL    HW2 8922   6.616   5.991   2.922
 2675SOL     OW 8923   4.391   1.060   4.766
 2675SOL    HW1 8924   4.359   0.968   4.744
 2675SOL    HW2 8925   4.450   1.056   4.847
 2676SOL     OW 8926   3.729   3.025   4.766
 2676SOL    HW1 8927   3.773   2.996   4.682
 2676SOL    HW2 8928   3.630   3.021   4.756
 2677SOL     OW 8929   1.822   5.798   0.149
 2677SOL    HW1 8930   1.745   5.793   0.213
 2677SOL    HW2 8931   1.799   5.858   0.074
 2678SOL     OW 8932   3.547   2.032   2.309
 2678SOL    HW1 8933   3.551   2.046   2.210
 2678SOL    HW2 8934   3.457   2.060   2.343
 2679SOL     OW 8935   2.142   3.769   2.401
 2679SOL    HW1 8936   2.097   3.852   2.435
 2679SOL    HW2 8937   2.134   3.696   2.470
 2680SOL     OW 8938   5.590   2.445   6.869
 2680SOL    HW1 8939   5.662   2.380   6.843
 2680SOL    HW2 8940   5.580   2.445   6.968
 2681SOL     OW 8941   2.379   2.282   3.407
 2681SOL    HW1 8942   2.365   2.220   3.330
 2681SOL    HW2 8943   2.300   2.343   3.417
 2682SOL     OW 8944   3.807   4.024   1.903
 2682SOL    HW1 8945   3.736   4.053   1.968
 2682SOL    HW2 8946   3.876   3.970   1.952
 2683SOL     OW 8947   1.753   3.682   1.661
 2683SOL    HW1 8948   1.709   3.676   1.750
 2683SOL    HW2 8949   1.684   3.681   1.588
 2684SOL     OW 8950   5.813   0.785   3.825
 2684SOL    HW1 8951   5.848   0.783   3.731
 2684SOL    HW2 8952   5.831   0.875   3.865
 2685SOL     OW 8953   1.362   0.007   5.644
 2685SOL    HW1 8954   1.455   0.038   5.626
 2685SOL    HW2 8955   1.354   7.007   5.740
 2686SOL     OW 8956   1.767   1.629   6.021
 2686SOL    HW1 8957   1.686   1.570   6.022
 2686SOL    HW2 8958   1.745   1.718   6.061
 2687SOL     OW 8959   4.177   2.103   1.317
 2687SOL    HW1 8960   4.166   2.031   1.249
 2687SOL    HW2 8961   4.123   2.080   1.399
 2688SOL     OW 8962   3.771   2.780   6.686
 2688SOL    HW1 8963   3.687   2.815   6.726
 2688SOL    HW2 8964   3.763   2.682   6.671
 2689SOL     OW 8965   0.189   3.914   2.916
 2689SOL    HW1 8966   0.173   3.875   2.825
 2689SOL    HW2 8967   0.116   3.885   2.978
 2690SOL     OW 8968   4.956   1.166   4.922
 2690SOL    HW1 8969   4.996   1.257   4.919
 2690SOL    HW2 8970   4.915   1.144   4.833
 2691SOL     OW 8971   0.017   3.395   4.719
 2691SOL    HW1 8972   6.965   3.381   4.778
 2691SOL    HW2 8973   0.075   3.314   4.722
 2692SOL     OW 8974   2.498   5.304   1.728
 2692SOL    HW1 8975   2.466   5.295   1.822
 2692SOL    HW2 8976   2.426   5.276   1.665
 2693SOL     OW 8977   0.832   5.020   2.976
 2693SOL    HW1 8978   0.747   4.968   2.979
 2693SOL    HW2 8979   0.845   5.067   3.063
 2694SOL     OW 8980   2.287   0.489   2.515
 2694SOL    HW1 8981   2.346   0.569   2.513
 2694SOL    HW2 8982   2.198   0.514   2.552
 2695SOL     OW 8983   0.110   5.412   3.365
 2695SOL    HW1 8984   0.144   5.367   3.283
 2695SOL    HW2 8985   0.015   5.386   3.381
 2696SOL     OW 8986   4.193   4.685   5.977
 2696SOL    HW1 8987   4.124   4.674   5.905
 2696SOL    HW2 8988   4.151   4.666   6.066
 2697SOL     OW 8989   3.993   2.374   0.364
 2697SOL    HW1 8990   3.998   2.444   0.436
 2697SOL    HW2 8991   3.922   2.398   0.298
 2698SOL     OW 8992   1.286   5.834   6.397
 2698SOL    HW1 8993   1.263   5.918   6.445
 2698SOL    HW2 8994   1.269   5.756   6.457
 2699SOL     OW 8995   2.907   6.914   1.876
 2699SOL    HW1 8996   2.961   6.970   1.940
 2699SOL    HW2 8997   2.943   6.924   1.784
 2700SOL     OW 8998   4.408   1.999   1.511
 2700SOL    HW1 8999   4.424   2.094   1.485
 2700SOL    HW2 9000   4.394   1.993   1.610
 2701SOL     OW 9001   5.247   3.765   5.102
 2701SOL    HW1 9002   5.325   3.711   5.134
 2701SOL    HW2 9003   5.234   3.748   5.004
 2702SOL     OW 9004   1.989   1.288   4.655
 2702SOL    HW1 9005   2.051   1.367   4.653
 2702SOL    HW2 9006   1.944   1.283   4.744
 2703SOL     OW 9007   2.284   6.228   2.347
 2703SOL    HW1 9008   2.334   6.305   2.308
 2703SOL    HW2 9009   2.190   6.229   2.313
 2704SOL     OW 9010   4.268   0.672   3.423
 2704SOL    HW1 9011   4.218   0.639   3.503
 2704SOL    HW2 9012   4.338   0.606   3.397
 2705SOL     OW 9013   1.771   0.301   5.348
 2705SOL    HW1 9014   1.707   0.227   5.372
 2705SOL    HW2 9015   1.832   0.318   5.425
 2706SOL     OW 9016   6.680   4.721   4.012
 2706SOL    HW1 9017   6.710   4.681   4.099
 2706SOL    HW2 9018   6.757   4.727   3.949
 2707SOL     OW 9019   5.037   1.450   3.038
 2707SOL    HW1 9020   5.004   1.411   2.952
 2707SOL    HW2 9021   4.960   1.486   3.090
 2708SOL     OW 9022   4.950   3.340   5.813
 2708SOL    HW1 9023   4.874   3.403   5.826
 2708SOL    HW2 9024   5.034   3.379   5.851
 2709SOL     OW 9025   5.189   1.279   5.535
 2709SOL    HW1 9026   5.246   1.361   5.530
 2709SOL    HW2 9027   5.117   1.283   5.466
 2710SOL     OW 9028   1.424   2.866   4.619
 2710SOL    HW1 9029   1.383   2.957   4.624
 2710SOL    HW2 9030   1.511   2.871   4.571
 2711SOL     OW 9031   4.674   0.689   1.723
 2711SOL    HW1 9032   4.768   0.701   1.690
 2711SOL    HW2 9033   4.610   0.724   1.655
 2712SOL     OW 9034   5.651   6.014   1.514
 2712SOL    HW1 9035   5.705   6.076   1.572
 2712SOL    HW2 9036   5.583   5.967   1.570
 2713SOL     OW 9037   3.450   5.376   5.567
 2713SOL    HW1 9038   3.440   5.371   5.468
 2713SOL    HW2 9039   3.546   5.368   5.592
 2714SOL     OW 9040   3.154   4.182   6.001
 2714SOL    HW1 9041   3.125   4.219   6.088
 2714SOL    HW2 9042   3.246   4.213   5.980
 2715SOL     OW 9043   4.712   6.033   6.964
 2715SOL    HW1 9044   4.632   6.004   6.911
 2715SOL    HW2 9045   4.686   6.046   0.031
 2716SOL     OW 9046   4.462   0.771   2.727
 2716SOL    HW1 9047   4.443   0.838   2.799
 2716SOL    HW2 9048   4.561   0.764   2.714
 2717SOL     OW 9049   1.253   2.382   2.381
 2717SOL    HW1 9050   1.165   2.349   2.348
 2717SOL    HW2 9051   1.318   2.386   2.305
 2718SOL     OW 9052   6.304   1.525   5.872
 2718SOL    HW1 9053   6.287   1.615   5.831
 2718SOL    HW2 9054   6.282   1.454   5.805
 2719SOL     OW 9055   0.920   4.839   3.370
 2719SOL    HW1 9056   0.958   4.821   3.461
 2719SOL    HW2 9057   0.830   4.798   3.363
 2720SOL     OW 9058   2.186   5.401   6.873
 2720SOL    HW1 9059   2.186   5.451   6.959
 2720SOL    HW2 9060   2.152   5.460   6.800
 2721SOL     OW 9061   2.015   6.740   3.011
 2721SOL    HW1 9062   2.036   6.643   2.992
 2721SOL    HW2 9063   1.971   6.780   2.931
 2722SOL     OW 9064   3.380   4.867   6.549
 2722SOL    HW1 9065   3.328   4.806   6.609
 2722SOL    HW2 9066   3.327   4.883   6.465
 2723SOL     OW 9067   4.131   5.672   6.645
 2723SOL    HW1 9068   4.212   5.624   6.680
 2723SOL    HW2 9069   4.111   5.640   6.552
 2724SOL     OW 9070   6.676   5.889   1.229
 2724SOL    HW1 9071   6.610   5.859   1.160
 2724SOL    HW2 9072   6.630   5.947   1.296
 2725SOL     OW 9073   6.065   4.840   3.229
 2725SOL    HW1 9074   6.155   4.879   3.251
 2725SOL    HW2 9075   6.076   4.770   3.159
 2726SOL     OW 9076   6.627   2.110   3.125
 2726SOL    HW1 9077   6.679   2.046   3.069
 2726SOL    HW2 9078   6.536   2.071   3.144
 2727SOL     OW 9079   1.741   5.233   3.434
 2727SOL    HW1 9080   1.743   5.214   3.336
 2727SOL    HW2 9081   1.822   5.285   3.460
 2728SOL     OW 9082   5.021   5.497   5.665
 2728SOL    HW1 9083   5.082   5.419   5.664
 2728SOL    HW2 9084   5.053   5.564   5.732
 2729SOL     OW 9085   6.566   0.140   0.531
 2729SOL    HW1 9086   6.637   0.072   0.512
 2729SOL    HW2 9087   6.587   0.224   0.480
 2730SOL     OW 9088   1.565   5.573   2.889
 2730SOL    HW1 9089   1.511   5.631   2.949
 2730SOL    HW2 9090   1.507   5.538   2.815
 2731SOL     OW 9091   3.926   4.006   4.950
 2731SOL    HW1 9092   4.025   3.991   4.962
 2731SOL    HW2 9093   3.876   3.946   5.013
 2732SOL     OW 9094   4.770   0.397   1.719
 2732SOL    HW1 9095   4.738   0.486   1.752
 2732SOL    HW2 9096   4.728   0.377   1.630
 2733SOL     OW 9097   0.546   6.749   0.291
 2733SOL    HW1 9098   0.643   6.749   0.315
 2733SOL    HW2 9099   0.499   6.674   0.337
 2734SOL     OW 9100   3.353   0.122   2.443
 2734SOL    HW1 9101   3.451   0.125   2.420
 2734SOL    HW2 9102   3.335   0.044   2.503
 2735SOL     OW 9103   0.917   2.094   2.578
 2735SOL    HW1 9104   0.969   2.021   2.534
 2735SOL    HW2 9105   0.979   2.168   2.603
 2736SOL     OW 9106   5.510   4.321   2.503
 2736SOL    HW1 9107   5.554   4.233   2.482
 2736SOL    HW2 9108   5.414   4.306   2.526
 2737SOL     OW 9109   2.876   0.351   5.632
 2737SOL    HW1 9110   2.861   0.321   5.538
 2737SOL    HW2 9111   2.920   0.441   5.632
 2738SOL     OW 9112   5.266   6.450   1.304
 2738SOL    HW1 9113   5.326   6.374   1.330
 2738SOL    HW2 9114   5.221   6.486   1.386
 2739SOL     OW 9115   0.214   5.734   1.360
 2739SOL    HW1 9116   0.146   5.662   1.366
 2739SOL    HW2 9117   0.297   5.706   1.408
 2740SOL     OW 9118   6.774   5.041   4.080
 2740SOL    HW1 9119   6.757   5.138   4.100
 2740SOL    HW2 9120   6.714   4.984   4.137
 2741SOL     OW 9121   1.239   6.843   6.522
 2741SOL    HW1 9122   1.338   6.830   6.523
 2741SOL    HW2 9123   1.216   6.921   6.464
 2742SOL     OW 9124   2.782   5.071   3.104
 2742SOL    HW1 9125   2.788   4.972   3.113
 2742SOL    HW2 9126   2.821   5.115   3.185
 2743SOL     OW 9127   5.361   1.781   2.903
 2743SOL    HW1 9128   5.414   1.864   2.920
 2743SOL    HW2 9129   5.422   1.702   2.903
 2744SOL     OW 9130   3.482   4.147   2.279
 2744SOL    HW1 9131   3.394   4.105   2.255
 2744SOL    HW2 9132   3.510   4.118   2.370
 2745SOL     OW 9133   0.682   5.953   0.238
 2745SOL    HW1 9134   0.641   5.898   0.310
 2745SOL    HW2 9135   0.664   6.050   0.256
 2746SOL     OW 9136   1.760   0.697   4.124
 2746SOL    HW1 9137   1.753   0.645   4.209
 2746SOL    HW2 9138   1.728   0.790   4.140
 2747SOL     OW 9139   4.231   4.872   0.050
 2747SOL    HW1 9140   4.310   4.857   7.019
 2747SOL    HW2 9141   4.257   4.933   0.126
 2748SOL     OW 9142   4.188   0.536   0.947
 2748SOL    HW1 9143   4.106   0.583   0.979
 2748SOL    HW2 9144   4.258   0.603   0.925
 2749SOL     OW 9145   3.678   1.098   0.610
 2749SOL    HW1 9146   3.616   1.086   0.688
 2749SOL    HW2 9147   3.637   1.055   0.529
 2750SOL     OW 9148   2.783   5.893   3.137
 2750SOL    HW1 9149   2.754   5.802   3.106
 2750SOL    HW2 9150   2.879   5.891   3.162
 2751SOL     OW 9151   5.939   5.197   1.159
 2751SOL    HW1 9152   6.032   5.163   1.148
 2751SOL    HW2 9153   5.935   5.294   1.132
 2752SOL     OW 9154   3.861   5.816   6.557
 2752SOL    HW1 9155   3.906   5.727   6.556
 2752SOL    HW2 9156   3.883   5.865   6.472
 2753SOL     OW 9157   5.674   5.056   5.489
 2753SOL    HW1 9158   5.749   5.077   5.552
 2753SOL    HW2 9159   5.660   5.133   5.428
 2754SOL     OW 9160   1.437   0.375   5.336
 2754SOL    HW1 9161   1.367   0.320   5.380
 2754SOL    HW2 9162   1.416   0.386   5.239
 2755SOL     OW 9163   3.382   6.781   2.322
 2755SOL    HW1 9164   3.374   6.712   2.395
 2755SOL    HW2 9165   3.466   6.765   2.271
 2756SOL     OW 9166   4.544   5.907   6.771
 2756SOL    HW1 9167   4.581   5.824   6.728
 2756SOL    HW2 9168   4.564   5.986   6.713
 2757SOL     OW 9169   0.531   4.946   0.749
 2757SOL    HW1 9170   0.574   5.034   0.766
 2757SOL    HW2 9171   0.446   4.959   0.699
 2758SOL     OW 9172   5.074   0.577   4.976
 2758SOL    HW1 9173   4.982   0.552   5.009
 2758SOL    HW2 9174   5.143   0.529   5.030
 2759SOL     OW 9175   4.743   5.113   3.884
 2759SOL    HW1 9176   4.718   5.090   3.978
 2759SOL    HW2 9177   4.668   5.088   3.823
 2760SOL     OW 9178   0.884   6.380   3.726
 2760SOL    HW1 9179   0.951   6.411   3.794
 2760SOL    HW2 9180   0.838   6.460   3.687
 2761SOL     OW 9181   2.467   5.155   4.580
 2761SOL    HW1 9182   2.406   5.198   4.514
 2761SOL    HW2 9183   2.470   5.057   4.563
 2762SOL     OW 9184   2.048   1.202   5.792
 2762SOL    HW1 9185   2.140   1.179   5.761
 2762SOL    HW2 9186   2.025   1.294   5.760
 2763SOL     OW 9187   5.685   0.656   2.227
 2763SOL    HW1 9188   5.607   0.683   2.283
 2763SOL    HW2 9189   5.662   0.662   2.130
 2764SOL     OW 9190   6.102   0.765   1.910
 2764SOL    HW1 9191   6.054   0.744   1.825
 2764SOL    HW2 9192   6.120   0.863   1.915
 2765SOL     OW 9193   5.199   1.852   3.174
 2765SOL    HW1 9194   5.227   1.827   3.081
 2765SOL    HW2 9195   5.155   1.942   3.172
 2766SOL     OW 9196   5.493   0.015   2.591
 2766SOL    HW1 9197   5.511   0.070   2.673
 2766SOL    HW2 9198   5.543   6.957   2.598
 2767SOL     OW 9199   6.424   4.125   5.805
 2767SOL    HW1 9200   6.518   4.120   5.839
 2767SOL    HW2 9201   6.361   4.130   5.883
 2768SOL     OW 9202   5.697   1.445   6.509
 2768SOL    HW1 9203   5.742   1.475   6.593
 2768SOL    HW2 9204   5.615   1.500   6.493
 2769SOL     OW 9205   0.705   4.655   1.035
 2769SOL    HW1 9206   0.673   4.615   0.949
 2769SOL    HW2 9207   0.684   4.753   1.036
 2770SOL     OW 9208   5.559   6.154   2.308
 2770SOL    HW1 9209   5.592   6.075   2.358
 2770SOL    HW2 9210   5.515   6.218   2.371
 2771SOL     OW 9211   4.795   0.733   1.382
 2771SOL    HW1 9212   4.837   0.722   1.473
 2771SOL    HW2 9213   4.864   0.767   1.318
 2772SOL     OW 9214   3.946   1.463   6.816
 2772SOL    HW1 9215   3.933   1.500   6.724
 2772SOL    HW2 9216   3.903   1.525   6.882
 2773SOL     OW 9217   3.004   4.866   0.887
 2773SOL    HW1 9218   2.923   4.877   0.944
 2773SOL    HW2 9219   2.976   4.843   0.793
 2774SOL     OW 9220   5.318   3.193   2.026
 2774SOL    HW1 9221   5.313   3.248   2.109
 2774SOL    HW2 9222   5.292   3.248   1.947
 2775SOL     OW 9223   0.181   0.088   2.852
 2775SOL    HW1 9224   0.197   0.183   2.825
 2775SOL    HW2 9225   0.108   0.049   2.796
 2776SOL     OW 9226   2.510   6.439   6.927
 2776SOL    HW1 9227   2.506   6.352   6.879
 2776SOL    HW2 9228   2.501   6.424   7.025
 2777SOL     OW 9229   1.985   2.175   4.043
 2777SOL    HW1 9230   1.926   2.255   4.034
 2777SOL    HW2 9231   2.042   2.166   3.961
 2778SOL     OW 9232   2.800   2.248   4.902
 2778SOL    HW1 9233   2.877   2.184   4.911
 2778SOL    HW2 9234   2.716   2.203   4.932
 2779SOL     OW 9235   6.367   1.151   1.431
 2779SOL    HW1 9236   6.339   1.234   1.479
 2779SOL    HW2 9237   6.439   1.105   1.483
 2780SOL     OW 9238   3.665   6.248   0.199
 2780SOL    HW1 9239   3.627   6.324   0.252
 2780SOL    HW2 9240   3.591   6.193   0.162
 2781SOL     OW 9241   4.672   3.761   6.514
 2781SOL    HW1 9242   4.589   3.727   6.467
 2781SOL    HW2 9243   4.663   3.859   6.528
 2782SOL     OW 9244   3.549   1.357   5.734
 2782SOL    HW1 9245   3.631   1.353   5.791
 2782SOL    HW2 9246   3.499   1.271   5.742
 2783SOL     OW 9247   0.489   4.110   5.616
 2783SOL    HW1 9248   0.469   4.044   5.689
 2783SOL    HW2 9249   0.426   4.187   5.622
 2784SOL     OW 9250   2.462   2.608   1.874
 2784SOL    HW1 9251   2.392   2.578   1.810
 2784SOL    HW2 9252   2.422   2.666   1.944
 2785SOL     OW 9253   5.964   1.348   2.022
 2785SOL    HW1 9254   6.032   1.297   2.075
 2785SOL    HW2 9255   5.908   1.403   2.085
 2786SOL     OW 9256   3.427   0.689   0.457
 2786SOL    HW1 9257   3.405   0.628   0.533
 2786SOL    HW2 9258   3.385   0.654   0.373
 2787SOL     OW 9259   2.051   3.745   6.359
 2787SOL    HW1 9260   2.100   3.678   6.303
 2787SOL    HW2 9261   1.981   3.698   6.413
 2788SOL     OW 9262   0.332   3.831   7.022
 2788SOL    HW1 9263   0.404   3.833   6.953
 2788SOL    HW2 9264   0.341   3.748   0.049
 2789SOL     OW 9265   0.908   2.851   4.069
 2789SOL    HW1 9266   0.862   2.928   4.024
 2789SOL    HW2 9267   0.897   2.860   4.168
 2790SOL     OW 9268   3.422   6.207   4.550
 2790SOL    HW1 9269   3.400   6.110   4.549
 2790SOL    HW2 9270   3.385   6.251   4.468
 2791SOL     OW 9271   1.927   3.965   2.987
 2791SOL    HW1 9272   1.859   3.897   2.963
 2791SOL    HW2 9273   1.941   3.964   3.086
 2792SOL     OW 9274   1.080   2.383   5.407
 2792SOL    HW1 9275   1.106   2.396   5.312
 2792SOL    HW2 9276   1.092   2.469   5.457
 2793SOL     OW 9277   4.711   0.432   3.952
 2793SOL    HW1 9278   4.621   0.390   3.961
 2793SOL    HW2 9279   4.725   0.460   3.856
 2794SOL     OW 9280   1.055   1.584   1.483
 2794SOL    HW1 9281   1.097   1.619   1.567
 2794SOL    HW2 9282   1.045   1.484   1.491
 2795SOL     OW 9283   1.077   3.823   1.100
 2795SOL    HW1 9284   1.128   3.739   1.119
 2795SOL    HW2 9285   1.042   3.861   1.186
 2796SOL     OW 9286   5.029   4.189   2.465
 2796SOL    HW1 9287   5.090   4.262   2.496
 2796SOL    HW2 9288   4.968   4.225   2.395
 2797SOL     OW 9289   4.620   4.110   5.288
 2797SOL    HW1 9290   4.641   4.188   5.230
 2797SOL    HW2 9291   4.532   4.122   5.332
 2798SOL     OW 9292   1.707   3.870   3.467
 2798SOL    HW1 9293   1.695   3.950   3.526
 2798SOL    HW2 9294   1.699   3.787   3.522
 2799SOL     OW 9295   6.887   5.831   6.164
 2799SOL    HW1 9296   6.809   5.883   6.197
 2799SOL    HW2 9297   6.858   5.739   6.137
 2800SOL     OW 9298   2.789   1.368   6.443
 2800SOL    HW1 9299   2.714   1.420   6.485
 2800SOL    HW2 9300   2.817   1.294   6.504
 2801SOL     OW 9301   3.984   5.609   2.254
 2801SOL    HW1 9302   3.908   5.663   2.218
 2801SOL    HW2 9303   4.018   5.548   2.182
 2802SOL     OW 9304   6.230   0.410   6.488
 2802SOL    HW1 9305   6.212   0.372   6.398
 2802SOL    HW2 9306   6.284   0.493   6.479
 2803SOL     OW 9307   2.295   5.635   5.556
 2803SOL    HW1 9308   2.369   5.697   5.582
 2803SOL    HW2 9309   2.301   5.616   5.458
 2804SOL     OW 9310   0.451   4.708   2.339
 2804SOL    HW1 9311   0.524   4.676   2.279
 2804SOL    HW2 9312   0.393   4.631   2.365
 2805SOL     OW 9313   5.825   3.933   6.837
 2805SOL    HW1 9314   5.804   3.947   6.740
 2805SOL    HW2 9315   5.847   4.021   6.879
 2806SOL     OW 9316   6.561   5.592   2.543
 2806SOL    HW1 9317   6.513   5.657   2.602
 2806SOL    HW2 9318   6.511   5.584   2.456
 2807SOL     OW 9319   3.888   5.110   3.875
 2807SOL    HW1 9320   3.942   5.168   3.814
 2807SOL    HW2 9321   3.947   5.072   3.946
 2808SOL     OW 9322   4.605   6.057   4.048
 2808SOL    HW1 9323   4.513   6.050   4.009
 2808SOL    HW2 9324   4.604   6.023   4.142
 2809SOL     OW 9325   5.914   2.902   0.230
 2809SOL    HW1 9326   5.930   2.803   0.225
 2809SOL    HW2 9327   5.952   2.937   0.316
 2810SOL     OW 9328   1.462   1.131   6.463
 2810SOL    HW1 9329   1.393   1.066   6.431
 2810SOL    HW2 9330   1.418   1.205   6.513
 2811SOL     OW 9331   6.958   0.633   4.144
 2811SOL    HW1 9332   6.994   0.540   4.139
 2811SOL    HW2 9333   6.859   0.630   4.156
 2812SOL     OW 9334   4.648   4.215   2.873
 2812SOL    HW1 9335   4.550   4.232   2.863
 2812SOL    HW2 9336   4.699   4.277   2.815
 2813SOL     OW 9337   6.106   1.687   6.319
 2813SOL    HW1 9338   6.119   1.752   6.394
 2813SOL    HW2 9339   6.033   1.623   6.342
 2814SOL     OW 9340   5.534   4.277   4.531
 2814SOL    HW1 9341   5.597   4.333   4.585
 2814SOL    HW2 9342   5.448   4.327   4.518
 2815SOL     OW 9343   0.399   0.906   4.493
 2815SOL    HW1 9344   0.307   0.868   4.479
 2815SOL    HW2 9345   0.426   0.894   4.588
 2816SOL     OW 9346   5.290   6.428   3.008
 2816SOL    HW1 9347   5.242   6.440   3.095
 2816SOL    HW2 9348   5.372   6.486   3.007
 2817SOL     OW 9349   1.416   1.277   1.376
 2817SOL    HW1 9350   1.438   1.364   1.330
 2817SOL    HW2 9351   1.496   1.243   1.423
 2818SOL     OW 9352   1.120   3.251   6.918
 2818SOL    HW1 9353   1.165   3.212   6.838
 2818SOL    HW2 9354   1.026   3.217   6.923
 2819SOL     OW 9355   6.717   3.266   1.223
 2819SOL    HW1 9356   6.684   3.277   1.129
 2819SOL    HW2 9357   6.640   3.272   1.286
 2820SOL     OW 9358   5.096   2.489   4.008
 2820SOL    HW1 9359   5.046   2.551   4.068
 2820SOL    HW2 9360   5.168   2.442   4.059
 2821SOL     OW 9361   1.739   3.300   3.716
 2821SOL    HW1 9362   1.698   3.295   3.807
 2821SOL    HW2 9363   1.684   3.359   3.657
 2822SOL     OW 9364   2.878   1.709   1.052
 2822SOL    HW1 9365   2.944   1.696   1.126
 2822SOL    HW2 9366   2.864   1.622   1.004
 2823SOL     OW 9367   1.656   6.962   4.200
 2823SOL    HW1 9368   1.734   7.021   4.181
 2823SOL    HW2 9369   1.678   6.868   4.176
 2824SOL     OW 9370   3.120   1.853   5.398
 2824SOL    HW1 9371   3.203   1.824   5.444
 2824SOL    HW2 9372   3.133   1.945   5.360
 2825SOL     OW 9373   6.178   6.313   1.257
 2825SOL    HW1 9374   6.117   6.353   1.188
 2825SOL    HW2 9375   6.142   6.334   1.348
 2826SOL     OW 9376   4.922   3.455   4.332
 2826SOL    HW1 9377   4.868   3.385   4.285
 2826SOL    HW2 9378   5.018   3.427   4.334
 2827SOL     OW 9379   6.682   0.240   6.485
 2827SOL    HW1 9380   6.704   0.306   6.413
 2827SOL    HW2 9381   6.601   0.188   6.459
 2828SOL     OW 9382   3.959   1.875   6.685
 2828SOL    HW1 9383   3.968   1.975   6.693
 2828SOL    HW2 9384   3.943   1.851   6.590
 2829SOL     OW 9385   2.984   0.371   6.993
 2829SOL    HW1 9386   2.964   0.277   6.964
 2829SOL    HW2 9387   3.016   0.370   0.060
 2830SOL     OW 9388   3.347   3.654   6.725
 2830SOL    HW1 9389   3.362   3.752   6.738
 2830SOL    HW2 9390   3.289   3.640   6.646
 2831SOL     OW 9391   0.049   6.236   4.096
 2831SOL    HW1 9392   0.003   6.282   4.020
 2831SOL    HW2 9393   0.055   6.298   4.174
 2832SOL     OW 9394   0.695   1.408   2.096
 2832SOL    HW1 9395   0.659   1.499   2.074
 2832SOL    HW2 9396   0.619   1.343   2.104
 2833SOL     OW 9397   6.657   3.384   2.668
 2833SOL    HW1 9398   6.580   3.324   2.645
 2833SOL    HW2 9399   6.719   3.336   2.731
 2834SOL     OW 9400   4.574   0.651   5.691
 2834SOL    HW1 9401   4.592   0.596   5.609
 2834SOL    HW2 9402   4.525   0.734   5.665
 2835SOL     OW 9403   6.629   6.245   3.496
 2835SOL    HW1 9404   6.575   6.192   3.430
 2835SOL    HW2 9405   6.670   6.323   3.449
 2836SOL     OW 9406   6.300   0.354   0.761
 2836SOL    HW1 9407   6.325   0.448   0.782
 2836SOL    HW2 9408   6.202   0.341   0.776
 2837SOL     OW 9409   6.179   3.302   3.279
 2837SOL    HW1 9410   6.113   3.291   3.353
 2837SOL    HW2 9411   6.135   3.282   3.192
 2838SOL     OW 9412   2.130   4.478   4.251
 2838SOL    HW1 9413   2.090   4.482   4.160
 2838SOL    HW2 9414   2.058   4.481   4.320
 2839SOL     OW 9415   4.590   2.849   0.678
 2839SOL    HW1 9416   4.601   2.815   0.771
 2839SOL    HW2 9417   4.536   2.933   0.679
 2840SOL     OW 9418   6.418   2.832   4.875
 2840SOL    HW1 9419   6.335   2.862   4.921
 2840SOL    HW2 9420   6.460   2.909   4.827
 2841SOL     OW 9421   0.195   6.332   0.567
 2841SOL    HW1 9422   0.116   6.339   0.628
 2841SOL    HW2 9423   0.221   6.423   0.534
 2842SOL     OW 9424   5.905   3.482   2.736
 2842SOL    HW1 9425   5.899   3.578   2.709
 2842SOL    HW2 9426   5.844   3.466   2.814
 2843SOL     OW 9427   4.009   1.111   3.945
 2843SOL    HW1 9428   4.082   1.129   4.011
 2843SOL    HW2 9429   3.993   1.193   3.890
 2844SOL     OW 9430   1.033   4.119   5.373
 2844SOL    HW1 9431   0.968   4.045   5.352
 2844SOL    HW2 9432   0.983   4.205   5.380
 2845SOL     OW 9433   7.027   4.197   5.940
 2845SOL    HW1 9434   6.955   4.262   5.964
 2845SOL    HW2 9435   0.087   4.245   5.937
 2846SOL     OW 9436   5.339   1.166   5.981
 2846SOL    HW1 9437   5.313   1.170   6.077
 2846SOL    HW2 9438   5.429   1.124   5.972
 2847SOL     OW 9439   4.469   4.580   4.241
 2847SOL    HW1 9440   4.488   4.564   4.338
 2847SOL    HW2 9441   4.535   4.528   4.185
 2848SOL     OW 9442   2.157   6.714   5.631
 2848SOL    HW1 9443   2.107   6.750   5.553
 2848SOL    HW2 9444   2.093   6.698   5.707
 2849SOL     OW 9445   1.837   2.974   1.806
 2849SOL    HW1 9446   1.894   3.033   1.749
 2849SOL    HW2 9447   1.818   3.021   1.893
 2850SOL     OW 9448   3.760   1.363   0.608
 2850SOL    HW1 9449   3.826   1.363   0.532
 2850SOL    HW2 9450   3.720   1.272   0.617
 2851SOL     OW 9451   2.331   5.327   6.234
 2851SOL    HW1 9452   2.320   5.243   6.287
 2851SOL    HW2 9453   2.402   5.314   6.165
 2852SOL     OW 9454   0.490   2.742   6.500
 2852SOL    HW1 9455   0.553   2.725   6.424
 2852SOL    HW2 9456   0.396   2.728   6.470
 2853SOL     OW 9457   3.672   2.564   1.556
 2853SOL    HW1 9458   3.722   2.622   1.620
 2853SOL    HW2 9459   3.579   2.549   1.589
 2854SOL     OW 9460   0.510   0.871   3.486
 2854SOL    HW1 9461   0.527   0.876   3.585
 2854SOL    HW2 9462   0.589   0.906   3.437
 2855SOL     OW 9463   3.494   1.507   5.044
 2855SOL    HW1 9464   3.542   1.528   4.958
 2855SOL    HW2 9465   3.562   1.494   5.116
 2856SOL     OW 9466   2.241   1.717   5.344
 2856SOL    HW1 9467   2.208   1.640   5.397
 2856SOL    HW2 9468   2.334   1.741   5.374
 2857SOL     OW 9469   3.348   3.407   3.726
 2857SOL    HW1 9470   3.366   3.428   3.630
 2857SOL    HW2 9471   3.254   3.431   3.748
 2858SOL     OW 9472   5.493   2.589   2.973
 2858SOL    HW1 9473   5.456   2.516   3.030
 2858SOL    HW2 9474   5.444   2.674   2.991
 2859SOL     OW 9475   5.306   6.243   0.074
 2859SOL    HW1 9476   5.381   6.284   0.024
 2859SOL    HW2 9477   5.221   6.291   0.053
 2860SOL     OW 9478   4.371   2.249   0.899
 2860SOL    HW1 9479   4.312   2.312   0.951
 2860SOL    HW2 9480   4.330   2.232   0.810
 2861SOL     OW 9481   3.877   5.449   6.254
 2861SOL    HW1 9482   3.847   5.373   6.312
 2861SOL    HW2 9483   3.916   5.412   6.169
 2862SOL     OW 9484   6.406   6.863   3.469
 2862SOL    HW1 9485   6.330   6.842   3.531
 2862SOL    HW2 9486   6.452   6.778   3.444
 2863SOL     OW 9487   6.775   0.899   0.005
 2863SOL    HW1 9488   6.787   0.962   6.956
 2863SOL    HW2 9489   6.689   0.919   0.052
 2864SOL     OW 9490   3.468   1.712   0.449
 2864SOL    HW1 9491   3.433   1.646   0.383
 2864SOL    HW2 9492   3.434   1.690   0.540
 2865SOL     OW 9493   4.352   5.167   5.117
 2865SOL    HW1 9494   4.335   5.251   5.067
 2865SOL    HW2 9495   4.412   5.107   5.063
 2866SOL     OW 9496   0.071   6.990   6.397
 2866SOL    HW1 9497   0.162   6.993   6.438
 2866SOL    HW2 9498   0.034   0.055   6.393
 2867SOL     OW 9499   6.870   4.730   3.523
 2867SOL    HW1 9500   6.823   4.643   3.504
 2867SOL    HW2 9501   6.870   4.747   3.621
 2868SOL     OW 9502   1.657   5.040   4.601
 2868SOL    HW1 9503   1.694   5.118   4.551
 2868SOL    HW2 9504   1.712   5.024   4.683
 2869SOL     OW 9505   6.288   1.287   2.415
 2869SOL    HW1 9506   6.377   1.282   2.460
 2869SOL    HW2 9507   6.280   1.374   2.367
 2870SOL     OW 9508   4.490   2.156   2.356
 2870SOL    HW1 9509   4.429   2.090   2.400
 2870SOL    HW2 9510   4.436   2.228   2.313
 2871SOL     OW 9511   1.334   1.618   5.845
 2871SOL    HW1 9512   1.252   1.576   5.805
 2871SOL    HW2 9513   1.315   1.714   5.865
 2872SOL     OW 9514   1.913   6.836   4.033
 2872SOL    HW1 9515   1.871   6.919   3.995
 2872SOL    HW2 9516   1.933   6.772   3.959
 2873SOL     OW 9517   6.664   6.028   1.886
 2873SOL    HW1 9518   6.659   6.124   1.914
 2873SOL    HW2 9519   6.758   6.005   1.862
 2874SOL     OW 9520   5.572   1.754   2.302
 2874SOL    HW1 9521   5.610   1.664   2.281
 2874SOL    HW2 9522   5.476   1.744   2.327
 2875SOL     OW 9523   2.643   5.153   1.370
 2875SOL    HW1 9524   2.567   5.122   1.313
 2875SOL    HW2 9525   2.706   5.208   1.315
 2876SOL     OW 9526   6.713   2.262   1.677
 2876SOL    HW1 9527   6.656   2.180   1.676
 2876SOL    HW2 9528   6.729   2.292   1.583
 2877SOL     OW 9529   2.204   3.890   5.945
 2877SOL    HW1 9530   2.293   3.936   5.944
 2877SOL    HW2 9531   2.137   3.945   5.895
 2878SOL     OW 9532   3.572   5.047   0.384
 2878SOL    HW1 9533   3.509   5.016   0.313
 2878SOL    HW2 9534   3.638   4.975   0.404
 2879SOL     OW 9535   4.542   4.269   0.064
 2879SOL    HW1 9536   4.527   4.187   0.009
 2879SOL    HW2 9537   4.455   4.319   0.074
 2880SOL     OW 9538   1.746   6.750   2.570
 2880SOL    HW1 9539   1.782   6.826   2.516
 2880SOL    HW2 9540   1.818   6.684   2.586
 2881SOL     OW 9541   0.098   0.224   6.719
 2881SOL    HW1 9542   0.010   0.267   6.705
 2881SOL    HW2 9543   0.170   0.293   6.718
 2882SOL     OW 9544   6.918   3.172   3.212
 2882SOL    HW1 9545   7.017   3.178   3.195
 2882SOL    HW2 9546   6.902   3.147   3.307
 2883SOL     OW 9547   4.371   6.014   2.231
 2883SOL    HW1 9548   4.325   5.926   2.220
 2883SOL    HW2 9549   4.385   6.055   2.141
 2884SOL     OW 9550   1.858   5.409   3.177
 2884SOL    HW1 9551   1.856   5.309   3.187
 2884SOL    HW2 9552   1.856   5.433   3.080
 2885SOL     OW 9553   1.054   2.397   4.256
 2885SOL    HW1 9554   1.115   2.382   4.333
 2885SOL    HW2 9555   0.961   2.369   4.281
 2886SOL     OW 9556   2.736   2.888   6.498
 2886SOL    HW1 9557   2.753   2.986   6.502
 2886SOL    HW2 9558   2.701   2.856   6.586
 2887SOL     OW 9559   2.713   1.512   4.813
 2887SOL    HW1 9560   2.668   1.479   4.895
 2887SOL    HW2 9561   2.806   1.476   4.808
 2888SOL     OW 9562   0.022   5.326   0.169
 2888SOL    HW1 9563   0.008   5.282   0.257
 2888SOL    HW2 9564   6.962   5.333   0.120
 2889SOL     OW 9565   0.566   0.050   0.973
 2889SOL    HW1 9566   0.652   0.065   1.021
 2889SOL    HW2 9567   0.583   0.006   0.885
 2890SOL     OW 9568   3.072   0.609   0.571
 2890SOL    HW1 9569   3.095   0.578   0.479
 2890SOL    HW2 9570   2.974   0.624   0.577
 2891SOL     OW 9571   2.979   4.870   5.032
 2891SOL    HW1 9572   2.937   4.912   4.952
 2891SOL    HW2 9573   2.944   4.777   5.044
 2892SOL     OW 9574   4.367   4.261   5.344
 2892SOL    HW1 9575   4.332   4.318   5.270
 2892SOL    HW2 9576   4.353   4.308   5.431
 2893SOL     OW 9577   3.481   1.097   5.790
 2893SOL    HW1 9578   3.528   1.039   5.857
 2893SOL    HW2 9579   3.390   1.061   5.773
 2894SOL     OW 9580   3.729   2.785   1.250
 2894SOL    HW1 9581   3.688   2.867   1.290
 2894SOL    HW2 9582   3.772   2.730   1.321
 2895SOL     OW 9583   3.226   2.937   0.296
 2895SOL    HW1 9584   3.207   3.009   0.229
 2895SOL    HW2 9585   3.249   2.852   0.248
 2896SOL     OW 9586   1.827   4.714   0.681
 2896SOL    HW1 9587   1.744   4.751   0.640
 2896SOL    HW2 9588   1.898   4.784   0.684
 2897SOL     OW 9589   1.222   0.107   3.654
 2897SOL    HW1 9590   1.278   0.026   3.632
 2897SOL    HW2 9591   1.138   0.104   3.600
 2898SOL     OW 9592   2.292   4.711   3.021
 2898SOL    HW1 9593   2.310   4.614   3.004
 2898SOL    HW2 9594   2.278   4.725   3.119
 2899SOL     OW 9595   5.956   1.143   0.845
 2899SOL    HW1 9596   6.011   1.153   0.927
 2899SOL    HW2 9597   5.860   1.132   0.870
 2900SOL     OW 9598   3.299   5.519   6.613
 2900SOL    HW1 9599   3.363   5.445   6.594
 2900SOL    HW2 9600   3.337   5.606   6.580
 2901SOL     OW 9601   2.490   0.176   1.212
 2901SOL    HW1 9602   2.444   0.105   1.265
 2901SOL    HW2 9603   2.588   0.174   1.232
 2902SOL     OW 9604   4.973   5.615   0.738
 2902SOL    HW1 9605   4.992   5.570   0.651
 2902SOL    HW2 9606   4.944   5.547   0.805
 2903SOL     OW 9607   2.737   2.325   1.732
 2903SOL    HW1 9608   2.685   2.397   1.684
 2903SOL    HW2 9609   2.774   2.362   1.817
 2904SOL     OW 9610   2.554   2.521   4.088
 2904SOL    HW1 9611   2.568   2.494   4.183
 2904SOL    HW2 9612   2.468   2.572   4.080
 2905SOL     OW 9613   1.404   2.142   2.160
 2905SOL    HW1 9614   1.350   2.200   2.099
 2905SOL    HW2 9615   1.349   2.063   2.187
 2906SOL     OW 9616   5.434   5.574   2.119
 2906SOL    HW1 9617   5.470   5.483   2.139
 2906SOL    HW2 9618   5.508   5.640   2.118
 2907SOL     OW 9619   6.192   0.526   4.491
 2907SOL    HW1 9620   6.146   0.492   4.573
 2907SOL    HW2 9621   6.288   0.541   4.510
 2908SOL     OW 9622   3.877   5.935   5.379
 2908SOL    HW1 9623   3.891   5.923   5.281
 2908SOL    HW2 9624   3.965   5.957   5.422
 2909SOL     OW 9625   2.065   5.818   5.434
 2909SOL    HW1 9626   2.111   5.732   5.459
 2909SOL    HW2 9627   1.999   5.841   5.505
 2910SOL     OW 9628   4.743   6.308   5.277
 2910SOL    HW1 9629   4.668   6.366   5.245
 2910SOL    HW2 9630   4.721   6.271   5.367
 2911SOL     OW 9631   2.363   4.507   3.757
 2911SOL    HW1 9632   2.441   4.509   3.818
 2911SOL    HW2 9633   2.337   4.601   3.732
 2912SOL     OW 9634   2.640   5.288   1.031
 2912SOL    HW1 9635   2.557   5.295   1.088
 2912SOL    HW2 9636   2.650   5.371   0.976
 2913SOL     OW 9637   1.020   3.587   2.475
 2913SOL    HW1 9638   1.083   3.647   2.425
 2913SOL    HW2 9639   0.932   3.585   2.428
 2914SOL     OW 9640   5.331   5.028   5.923
 2914SOL    HW1 9641   5.243   5.022   5.970
 2914SOL    HW2 9642   5.328   4.970   5.841
 2915SOL     OW 9643   4.215   1.404   4.369
 2915SOL    HW1 9644   4.253   1.332   4.428
 2915SOL    HW2 9645   4.273   1.485   4.374
 2916SOL     OW 9646   4.954   6.841   4.574
 2916SOL    HW1 9647   4.856   6.861   4.569
 2916SOL    HW2 9648   4.969   6.744   4.555
 2917SOL     OW 9649   4.329   0.791   1.724
 2917SOL    HW1 9650   4.340   0.814   1.821
 2917SOL    HW2 9651   4.234   0.808   1.696
 2918SOL     OW 9652   0.635   3.120   4.466
 2918SOL    HW1 9653   0.633   3.202   4.408
 2918SOL    HW2 9654   0.645   3.039   4.408
 2919SOL     OW 9655   6.193   6.209   0.665
 2919SOL    HW1 9656   6.258   6.141   0.630
 2919SOL    HW2 9657   6.240   6.294   0.686
 2920SOL     OW 9658   4.574   2.172   2.885
 2920SOL    HW1 9659   4.500   2.222   2.841
 2920SOL    HW2 9660   4.655   2.231   2.892
 2921SOL     OW 9661   7.000   0.887   1.418
 2921SOL    HW1 9662   6.938   0.854   1.347
 2921SOL    HW2 9663   0.056   0.833   1.418
 2922SOL     OW 9664   4.157   6.361   5.414
 2922SOL    HW1 9665   4.162   6.365   5.514
 2922SOL    HW2 9666   4.231   6.414   5.374
 2923SOL     OW 9667   6.996   4.089   0.064
 2923SOL    HW1 9668   6.955   4.102   7.001
 2923SOL    HW2 9669   0.066   4.107   0.059
 2924SOL     OW 9670   6.443   6.660   5.749
 2924SOL    HW1 9671   6.517   6.724   5.728
 2924SOL    HW2 9672   6.356   6.708   5.742
 2925SOL     OW 9673   5.652   3.311   1.398
 2925SOL    HW1 9674   5.654   3.212   1.412
 2925SOL    HW2 9675   5.671   3.331   1.302
 2926SOL     OW 9676   0.064   1.477   4.004
 2926SOL    HW1 9677   7.003   1.509   3.972
 2926SOL    HW2 9678   0.098   1.405   3.944
 2927SOL     OW 9679   0.965   3.193   2.503
 2927SOL    HW1 9680   0.961   3.194   2.603
 2927SOL    HW2 9681   0.907   3.266   2.467
 2928SOL     OW 9682   5.409   6.001   1.013
 2928SOL    HW1 9683   5.427   5.935   0.939
 2928SOL    HW2 9684   5.483   5.995   1.080
 2929SOL     OW 9685   0.703   0.242   6.219
 2929SOL    HW1 9686   0.637   0.306   6.257
 2929SOL    HW2 9687   0.770   0.291   6.164
 2930SOL     OW 9688   3.135   6.447   4.268
 2930SOL    HW1 9689   3.070   6.492   4.329
 2930SOL    HW2 9690   3.087   6.416   4.185
 2931SOL     OW 9691   3.690   4.565   6.514
 2931SOL    HW1 9692   3.668   4.657   6.547
 2931SOL    HW2 9693   3.614   4.503   6.536
 2932SOL     OW 9694   1.432   4.778   2.007
 2932SOL    HW1 9695   1.499   4.848   2.032
 2932SOL    HW2 9696   1.362   4.818   1.948
 2933SOL     OW 9697   4.817   2.338   3.535
 2933SOL    HW1 9698   4.717   2.335   3.526
 2933SOL    HW2 9699   4.850   2.427   3.503
 2934SOL     OW 9700   1.978   1.164   0.819
 2934SOL    HW1 9701   2.008   1.242   0.764
 2934SOL    HW2 9702   1.900   1.190   0.876
 2935SOL     OW 9703   6.867   1.425   1.334
 2935SOL    HW1 9704   6.837   1.355   1.269
 2935SOL    HW2 9705   6.827   1.513   1.308
 2936SOL     OW 9706   3.281   5.706   0.242
 2936SOL    HW1 9707   3.187   5.740   0.250
 2936SOL    HW2 9708   3.297   5.671   0.150
 2937SOL     OW 9709   2.664   4.859   0.175
 2937SOL    HW1 9710   2.588   4.804   0.207
 2937SOL    HW2 9711   2.672   4.942   0.230
 2938SOL     OW 9712   5.346   4.855   5.681
 2938SOL    HW1 9713   5.360   4.759   5.655
 2938SOL    HW2 9714   5.282   4.898   5.618
 2939SOL     OW 9715   0.318   6.678   6.203
 2939SOL    HW1 9716   0.353   6.668   6.297
 2939SOL    HW2 9717   0.389   6.650   6.138
 2940SOL     OW 9718   3.760   6.708   5.173
 2940SOL    HW1 9719   3.817   6.643   5.223
 2940SOL    HW2 9720   3.772   6.799   5.210
 2941SOL     OW 9721   3.640   1.485   5.280
 2941SOL    HW1 9722   3.647   1.565   5.339
 2941SOL    HW2 9723   3.597   1.410   5.329
 2942SOL     OW 9724   4.113   6.289   4.111
 2942SOL    HW1 9725   4.065   6.293   4.023
 2942SOL    HW2 9726   4.182   6.361   4.114
 2943SOL     OW 9727   5.069   4.523   2.670
 2943SOL    HW1 9728   5.079   4.616   2.635
 2943SOL    HW2 9729   5.117   4.460   2.610
 2944SOL     OW 9730   4.288   6.245   6.960
 2944SOL    HW1 9731   4.211   6.266   7.019
 2944SOL    HW2 9732   4.278   6.153   6.922
 2945SOL     OW 9733   3.257   4.147   3.819
 2945SOL    HW1 9734   3.186   4.105   3.876
 2945SOL    HW2 9735   3.335   4.170   3.876
 2946SOL     OW 9736   0.597   6.067   6.171
 2946SOL    HW1 9737   0.695   6.078   6.187
 2946SOL    HW2 9738   0.572   6.108   6.083
 2947SOL     OW 9739   0.335   5.254   0.279
 2947SOL    HW1 9740   0.333   5.157   0.304
 2947SOL    HW2 9741   0.268   5.271   0.206
 2948SOL     OW 9742   5.769   4.224   5.453
 2948SOL    HW1 9743   5.854   4.219   5.505
 2948SOL    HW2 9744   5.709   4.149   5.481
 2949SOL     OW 9745   1.002   6.379   0.658
 2949SOL    HW1 9746   1.016   6.300   0.719
 2949SOL    HW2 9747   0.955   6.452   0.708
 2950SOL     OW 9748   4.946   3.718   4.753
 2950SOL    HW1 9749   4.923   3.785   4.824
 2950SOL    HW2 9750   4.997   3.642   4.794
 2951SOL     OW 9751   5.984   0.517   0.882
 2951SOL    HW1 9752   6.016   0.593   0.938
 2951SOL    HW2 9753   5.911   0.547   0.822
 2952SOL     OW 9754   0.932   3.812   1.616
 2952SOL    HW1 9755   0.859   3.789   1.680
 2952SOL    HW2 9756   0.955   3.909   1.623
 2953SOL     OW 9757   5.576   1.487   2.309
 2953SOL    HW1 9758   5.483   1.499   2.273
 2953SOL    HW2 9759   5.571   1.465   2.406
 2954SOL     OW 9760   5.680   6.424   1.978
 2954SOL    HW1 9761   5.580   6.415   1.980
 2954SOL    HW2 9762   5.710   6.433   1.883
 2955SOL     OW 9763   6.328   2.605   0.418
 2955SOL    HW1 9764   6.399   2.625   0.485
 2955SOL    HW2 9765   6.365   2.543   0.348
 2956SOL     OW 9766   6.866   5.387   3.371
 2956SOL    HW1 9767   6.798   5.316   3.350
 2956SOL    HW2 9768   6.819   5.471   3.398
 2957SOL     OW 9769   1.394   4.864   1.436
 2957SOL    HW1 9770   1.328   4.796   1.469
 2957SOL    HW2 9771   1.350   4.953   1.430
 2958SOL     OW 9772   3.026   5.260   6.652
 2958SOL    HW1 9773   3.096   5.308   6.706
 2958SOL    HW2 9774   2.976   5.326   6.596
 2959SOL     OW 9775   3.991   5.652   6.877
 2959SOL    HW1 9776   4.038   5.649   6.789
 2959SOL    HW2 9777   3.975   5.559   6.910
 2960SOL     OW 9778   2.773   1.469   0.066
 2960SOL    HW1 9779   2.835   1.515   0.129
 2960SOL    HW2 9780   2.736   1.387   0.109
 2961SOL     OW 9781   6.062   1.606   4.328
 2961SOL    HW1 9782   6.082   1.568   4.238
 2961SOL    HW2 9783   6.023   1.697   4.318
 2962SOL     OW 9784   4.017   0.478   2.504
 2962SOL    HW1 9785   3.976   0.563   2.537
 2962SOL    HW2 9786   4.115   0.479   2.523
 2963SOL     OW 9787   1.940   3.802   4.936
 2963SOL    HW1 9788   1.972   3.721   4.985
 2963SOL    HW2 9789   1.853   3.832   4.975
 2964SOL     OW 9790   2.853   5.988   0.231
 2964SOL    HW1 9791   2.759   5.981   0.265
 2964SOL    HW2 9792   2.880   6.084   0.229
 2965SOL     OW 9793   0.207   2.340   6.212
 2965SOL    HW1 9794   0.125   2.336   6.156
 2965SOL    HW2 9795   0.190   2.395   6.294
 2966SOL     OW 9796   4.849   4.833   3.532
 2966SOL    HW1 9797   4.796   4.835   3.617
 2966SOL    HW2 9798   4.787   4.833   3.454
 2967SOL     OW 9799   5.750   2.546   3.771
 2967SOL    HW1 9800   5.785   2.601   3.847
 2967SOL    HW2 9801   5.657   2.576   3.749
 2968SOL     OW 9802   6.479   3.674   3.310
 2968SOL    HW1 9803   6.521   3.738   3.374
 2968SOL    HW2 9804   6.473   3.584   3.352
 2969SOL     OW 9805   3.884   1.023   4.650
 2969SOL    HW1 9806   3.969   1.069   4.626
 2969SOL    HW2 9807   3.865   1.037   4.747
 2970SOL     OW 9808   1.116   4.173   6.265
 2970SOL    HW1 9809   1.080   4.204   6.177
 2970SOL    HW2 9810   1.122   4.073   6.265
 2971SOL     OW 9811   5.285   3.483   2.743
 2971SOL    HW1 9812   5.226   3.556   2.710
 2971SOL    HW2 9813   5.270   3.401   2.688
 2972SOL     OW 9814   1.177   4.476   5.511
 2972SOL    HW1 9815   1.083   4.477   5.478
 2972SOL    HW2 9816   1.179   4.508   5.606
 2973SOL     OW 9817   6.116   6.924   4.444
 2973SOL    HW1 9818   6.184   6.918   4.517
 2973SOL    HW2 9819   6.162   6.938   4.356
 2974SOL     OW 9820   6.899   4.307   2.207
 2974SOL    HW1 9821   6.989   4.290   2.248
 2974SOL    HW2 9822   6.877   4.234   2.143
 2975SOL     OW 9823   0.104   1.407   4.267
 2975SOL    HW1 9824   0.079   1.497   4.302
 2975SOL    HW2 9825   0.082   1.401   4.170
 2976SOL     OW 9826   2.640   6.129   1.720
 2976SOL    HW1 9827   2.578   6.108   1.797
 2976SOL    HW2 9828   2.650   6.228   1.712
 2977SOL     OW 9829   3.362   6.330   4.320
 2977SOL    HW1 9830   3.269   6.361   4.299
 2977SOL    HW2 9831   3.425   6.367   4.252
 2978SOL     OW 9832   3.731   0.187   6.349
 2978SOL    HW1 9833   3.660   0.257   6.357
 2978SOL    HW2 9834   3.719   0.119   6.421
 2979SOL     OW 9835   3.452   1.259   3.248
 2979SOL    HW1 9836   3.513   1.202   3.193
 2979SOL    HW2 9837   3.439   1.347   3.202
 2980SOL     OW 9838   6.876   6.006   3.913
 2980SOL    HW1 9839   6.955   5.976   3.967
 2980SOL    HW2 9840   6.819   5.928   3.889
 2981SOL     OW 9841   2.006   1.494   5.955
 2981SOL    HW1 9842   2.016   1.400   5.985
 2981SOL    HW2 9843   1.919   1.531   5.990
 2982SOL     OW 9844   4.829   6.257   2.067
 2982SOL    HW1 9845   4.863   6.346   2.039
 2982SOL    HW2 9846   4.903   6.189   2.061
 2983SOL     OW 9847   6.345   0.355   2.910
 2983SOL    HW1 9848   6.410   0.402   2.970
 2983SOL    HW2 9849   6.390   0.276   2.868
 2984SOL     OW 9850   5.893   4.329   1.555
 2984SOL    HW1 9851   5.990   4.351   1.565
 2984SOL    HW2 9852   5.866   4.266   1.628
 2985SOL     OW 9853   6.930   2.135   3.052
 2985SOL    HW1 9854   6.928   2.136   3.152
 2985SOL    HW2 9855   6.846   2.094   3.018
 2986SOL     OW 9856   2.186   3.697   5.140
 2986SOL    HW1 9857   2.260   3.711   5.074
 2986SOL    HW2 9858   2.156   3.785   5.176
 2987SOL     OW 9859   4.962   1.679   5.023
 2987SOL    HW1 9860   4.906   1.762   5.016
 2987SOL    HW2 9861   4.903   1.600   5.039
 2988SOL     OW 9862   0.823   6.526   2.191
 2988SOL    HW1 9863   0.838   6.578   2.106
 2988SOL    HW2 9864   0.854   6.432   2.178
 2989SOL     OW 9865   6.234   5.381   0.633
 2989SOL    HW1 9866   6.160   5.434   0.591
 2989SOL    HW2 9867   6.240   5.404   0.730
 2990SOL     OW 9868   3.000   1.210   1.539
 2990SOL    HW1 9869   2.901   1.217   1.523
 2990SOL    HW2 9870   3.028   1.278   1.607
 2991SOL     OW 9871   6.081   4.706   0.050
 2991SOL    HW1 9872   6.168   4.657   0.042
 2991SOL    HW2 9873   6.006   4.641   0.051
 2992SOL     OW 9874   4.458   4.634   6.719
 2992SOL    HW1 9875   4.417   4.565   6.779
 2992SOL    HW2 9876   4.534   4.593   6.670
 2993SOL     OW 9877   1.491   4.625   0.602
 2993SOL    HW1 9878   1.570   4.640   0.543
 2993SOL    HW2 9879   1.519   4.574   0.683
 2994SOL     OW 9880   3.963   6.223   0.216
 2994SOL    HW1 9881   3.867   6.250   0.227
 2994SOL    HW2 9882   4.009   6.290   0.158
 2995SOL     OW 9883   2.665   0.920   5.949
 2995SOL    HW1 9884   2.652   0.841   5.889
 2995SOL    HW2 9885   2.679   1.002   5.893
 2996SOL     OW 9886   4.442   5.844   5.339
 2996SOL    HW1 9887   4.343   5.832   5.328
 2996SOL    HW2 9888   4.460   5.937   5.371
 2997SOL     OW 9889   4.237   5.924   0.534
 2997SOL    HW1 9890   4.261   6.012   0.493
 2997SOL    HW2 9891   4.191   5.867   0.467
 2998SOL     OW 9892   6.181   5.033   5.386
 2998SOL    HW1 9893   6.215   4.998   5.299
 2998SOL    HW2 9894   6.169   4.958   5.451
 2999SOL     OW 9895   2.468   0.504   2.128
 2999SOL    HW1 9896   2.479   0.588   2.181
 2999SOL    HW2 9897   2.440   0.430   2.189
 3000SOL     OW 9898   1.496   2.172   4.806
 3000SOL    HW1 9899   1.461   2.086   4.769
 3000SOL    HW2 9900   1.468   2.247   4.748
 3001SOL     OW 9901   5.017   6.670   5.721
 3001SOL    HW1 9902   5.049   6.578   5.697
 3001SOL    HW2 9903   5.004   6.723   5.637
 3002SOL     OW 9904   3.053   0.665   5.420
 3002SOL    HW1 9905   3.099   0.578   5.405
 3002SOL    HW2 9906   3.116   0.741   5.401
 3003SOL     OW 9907   2.347   0.247   5.939
 3003SOL    HW1 9908   2.345   0.298   6.026
 3003SOL    HW2 9909   2.318   0.153   5.956
 3004SOL     OW 9910   6.892   2.926   5.529
 3004SOL    HW1 9911   6.820   2.990   5.553
 3004SOL    HW2 9912   6.872   2.884   5.441
 3005SOL     OW 9913   4.669   2.623   1.102
 3005SOL    HW1 9914   4.720   2.604   1.018
 3005SOL    HW2 9915   4.721   2.590   1.180
 3006SOL     OW 9916   4.463   0.049   1.042
 3006SOL    HW1 9917   4.391   0.117   1.060
 3006SOL    HW2 9918   4.523   0.041   1.122
 3007SOL     OW 9919   6.090   5.438   1.774
 3007SOL    HW1 9920   6.181   5.408   1.746
 3007SOL    HW2 9921   6.092   5.466   1.870
 3008SOL     OW 9922   4.913   6.014   5.479
 3008SOL    HW1 9923   4.933   5.916   5.481
 3008SOL    HW2 9924   4.969   6.058   5.409
 3009SOL     OW 9925   1.788   0.707   2.485
 3009SOL    HW1 9926   1.717   0.759   2.533
 3009SOL    HW2 9927   1.785   0.611   2.515
 3010SOL     OW 9928   2.716   6.529   2.772
 3010SOL    HW1 9929   2.726   6.431   2.787
 3010SOL    HW2 9930   2.659   6.545   2.691
 3011SOL     OW 9931   5.619   0.460   0.137
 3011SOL    HW1 9932   5.644   0.515   0.217
 3011SOL    HW2 9933   5.701   0.423   0.094
 3012SOL     OW 9934   6.998   4.766   1.473
 3012SOL    HW1 9935   6.972   4.726   1.386
 3012SOL    HW2 9936   0.058   4.727   1.503
 3013SOL     OW 9937   6.386   4.055   2.061
 3013SOL    HW1 9938   6.305   4.003   2.033
 3013SOL    HW2 9939   6.405   4.036   2.157
 3014SOL     OW 9940   5.228   0.002   5.504
 3014SOL    HW1 9941   5.269   0.086   5.541
 3014SOL    HW2 9942   5.135   0.022   5.472
 3015SOL     OW 9943   2.703   1.002   0.176
 3015SOL    HW1 9944   2.781   0.980   0.235
 3015SOL    HW2 9945   2.719   0.965   0.085
 3016SOL     OW 9946   3.913   6.097   3.267
 3016SOL    HW1 9947   3.870   6.171   3.215
 3016SOL    HW2 9948   3.967   6.137   3.342
 3017SOL     OW 9949   0.064   5.943   1.181
 3017SOL    HW1 9950   0.081   5.867   1.244
 3017SOL    HW2 9951   0.136   6.011   1.191
 3018SOL     OW 9952   4.247   0.270   6.140
 3018SOL    HW1 9953   4.235   0.369   6.128
 3018SOL    HW2 9954   4.170   0.233   6.191
 3019SOL     OW 9955   5.268   6.722   2.032
 3019SOL    HW1 9956   5.227   6.781   2.102
 3019SOL    HW2 9957   5.350   6.765   1.995
 3020SOL     OW 9958   2.386   0.879   1.746
 3020SOL    HW1 9959   2.295   0.852   1.778
 3020SOL    HW2 9960   2.419   0.812   1.680
 3021SOL     OW 9961   4.229   0.728   5.960
 3021SOL    HW1 9962   4.144   0.780   5.974
 3021SOL    HW2 9963   4.306   0.791   5.957
 3022SOL     OW 9964   6.640   0.134   2.271
 3022SOL    HW1 9965   6.581   0.182   2.336
 3022SOL    HW2 9966   6.723   0.104   2.317
 3023SOL     OW 9967   6.009   0.198   1.586
 3023SOL    HW1 9968   5.959   0.122   1.626
 3023SOL    HW2 9969   5.974   0.217   1.494
 3024SOL     OW 9970   3.128   6.900   6.294
 3024SOL    HW1 9971   3.149   6.968   6.364
 3024SOL    HW2 9972   3.177   6.924   6.210
 3025SOL     OW 9973   2.032   2.693   2.179
 3025SOL    HW1 9974   2.024   2.742   2.093
 3025SOL    HW2 9975   2.078   2.750   2.247
 3026SOL     OW 9976   2.471   5.653   0.441
 3026SOL    HW1 9977   2.428   5.589   0.377
 3026SOL    HW2 9978   2.555   5.613   0.476
 3027SOL     OW 9979   1.842   1.688   3.663
 3027SOL    HW1 9980   1.857   1.627   3.585
 3027SOL    HW2 9981   1.841   1.634   3.747
 3028SOL     OW 9982   1.064   0.883   4.586
 3028SOL    HW1 9983   0.994   0.954   4.576
 3028SOL    HW2 9984   1.071   0.856   4.682
 3029SOL     OW 9985   5.559   5.379   6.188
 3029SOL    HW1 9986   5.546   5.464   6.238
 3029SOL    HW2 9987   5.592   5.308   6.251
 3030SOL     OW 9988   1.105   1.455   5.773
 3030SOL    HW1 9989   1.058   1.532   5.817
 3030SOL    HW2 9990   1.098   1.374   5.831
 3031SOL     OW 9991   0.474   5.170   6.418
 3031SOL    HW1 9992   0.378   5.196   6.429
 3031SOL    HW2 9993   0.515   5.221   6.343
 3032SOL     OW 9994   3.897   0.001   5.814
 3032SOL    HW1 9995   3.950   0.009   5.898
 3032SOL    HW2 9996   3.801   7.016   5.836
 3033SOL     OW 9997   5.681   5.017   5.864
 3033SOL    HW1 9998   5.596   5.070   5.869
 3033SOL    HW2 9999   5.660   4.919   5.868
 3034SOL     OW10000   2.891   6.563   4.383
 3034SOL    HW110001   2.856   6.590   4.293
 3034SOL    HW210002   2.850   6.620   4.453
 3035SOL     OW10003   6.411   6.856   7.014
 3035SOL    HW110004   6.446   6.799   0.061
 3035SOL    HW210005   6.423   6.952   0.008
 3036SOL     OW10006   1.095   5.042   5.355
 3036SOL    HW110007   1.093   4.976   5.429
 3036SOL    HW210008   1.021   5.022   5.290
 3037SOL     OW10009   6.093   6.857   5.764
 3037SOL    HW110010   6.147   6.849   5.680
 3037SOL    HW210011   6.136   6.923   5.825
 3038SOL     OW10012   6.137   6.303   5.701
 3038SOL    HW110013   6.131   6.403   5.693
 3038SOL    HW210014   6.233   6.276   5.702
 3039SOL     OW10015   0.052   4.975   0.354
 3039SOL    HW110016   0.105   4.891   0.370
 3039SOL    HW210017   0.077   5.013   0.265
 3040SOL     OW10018   2.518   1.548   7.008
 3040SOL    HW110019   2.610   1.513   7.028
 3040SOL    HW210020   2.453   1.472   7.009
 3041SOL     OW10021   1.555   2.578   6.201
 3041SOL    HW110022   1.593   2.491   6.169
 3041SOL    HW210023   1.577   2.591   6.297
 3042SOL     OW10024   5.875   6.784   1.808
 3042SOL    HW110025   5.959   6.826   1.844
 3042SOL    HW210026   5.865   6.808   1.712
 3043SOL     OW10027   6.530   4.986   6.646
 3043SOL    HW110028   6.492   5.078   6.653
 3043SOL    HW210029   6.615   4.988   6.593
 3044SOL     OW10030   2.677   3.278   5.946
 3044SOL    HW110031   2.602   3.292   6.011
 3044SOL    HW210032   2.709   3.366   5.911
 3045SOL     OW10033   4.692   1.842   3.992
 3045SOL    HW110034   4.722   1.782   4.066
 3045SOL    HW210035   4.619   1.903   4.025
 3046SOL     OW10036   1.986   2.284   6.091
 3046SOL    HW110037   2.002   2.246   6.000
 3046SOL    HW210038   2.073   2.308   6.133
 3047SOL     OW10039   0.225   4.625   1.392
 3047SOL    HW110040   0.226   4.525   1.391
 3047SOL    HW210041   0.314   4.659   1.423
 3048SOL     OW10042   2.923   2.756   1.729
 3048SOL    HW110043   2.964   2.677   1.774
 3048SOL    HW210044   2.826   2.739   1.712
 3049SOL     OW10045   0.953   0.221   1.533
 3049SOL    HW110046   1.011   0.303   1.534
 3049SOL    HW210047   0.915   0.207   1.625
 3050SOL     OW10048   1.843   0.105   4.123
 3050SOL    HW110049   1.797   0.187   4.090
 3050SOL    HW210050   1.922   0.131   4.179
 3051SOL     OW10051   2.919   4.401   5.818
 3051SOL    HW110052   2.906   4.500   5.820
 3051SOL    HW210053   2.839   4.356   5.859
 3052SOL     OW10054   4.888   6.806   2.674
 3052SOL    HW110055   4.907   6.877   2.606
 3052SOL    HW210056   4.924   6.718   2.641
 3053SOL     OW10057   4.979   6.900   1.816
 3053SOL    HW110058   4.990   6.995   1.847
 3053SOL    HW210059   5.058   6.874   1.760
 3054SOL     OW10060   2.122   4.299   5.541
 3054SOL    HW110061   2.164   4.215   5.576
 3054SOL    HW210062   2.168   4.378   5.581
 3055SOL     OW10063   5.868   6.585   3.059
 3055SOL    HW110064   5.787   6.636   3.031
 3055SOL    HW210065   5.848   6.531   3.140
 3056SOL     OW10066   5.719   0.590   1.914
 3056SOL    HW110067   5.671   0.666   1.871
 3056SOL    HW210068   5.812   0.618   1.938
 3057SOL     OW10069   6.492   6.070   2.611
 3057SOL    HW110070   6.464   6.111   2.698
 3057SOL    HW210071   6.592   6.068   2.607
 3058SOL     OW10072   6.297   5.594   1.591
 3058SOL    HW110073   6.199   5.606   1.600
 3058SOL    HW210074   6.326   5.516   1.647
 3059SOL     OW10075   1.832   2.909   5.486
 3059SOL    HW110076   1.772   2.944   5.415
 3059SOL    HW210077   1.879   2.985   5.531
 3060SOL     OW10078   0.390   6.484   0.318
 3060SOL    HW110079   0.315   6.523   0.372
 3060SOL    HW210080   0.357   6.405   0.267
 3061SOL     OW10081   0.502   0.674   5.700
 3061SOL    HW110082   0.435   0.611   5.662
 3061SOL    HW210083   0.497   0.671   5.800
 3062SOL     OW10084   3.233   5.539   6.071
 3062SOL    HW110085   3.333   5.545   6.081
 3062SOL    HW210086   3.204   5.445   6.089
 3063SOL     OW10087   2.387   5.825   0.651
 3063SOL    HW110088   2.398   5.767   0.570
 3063SOL    HW210089   2.477   5.844   0.690
 3064SOL     OW10090   6.864   4.758   3.823
 3064SOL    HW110091   6.950   4.711   3.840
 3064SOL    HW210092   6.874   4.855   3.843
 3065SOL     OW10093   2.843   0.982   1.162
 3065SOL    HW110094   2.928   0.963   1.114
 3065SOL    HW210095   2.766   0.978   1.098
 3066SOL     OW10096   5.300   5.701   0.490
 3066SOL    HW110097   5.345   5.786   0.462
 3066SOL    HW210098   5.230   5.676   0.423
 3067SOL     OW10099   4.269   6.817   2.975
 3067SOL    HW110100   4.255   6.760   2.894
 3067SOL    HW210101   4.180   6.847   3.011
 3068SOL     OW10102   5.720   4.779   0.240
 3068SOL    HW110103   5.688   4.764   0.147
 3068SOL    HW210104   5.685   4.867   0.273
 3069SOL     OW10105   0.896   5.181   3.943
 3069SOL    HW110106   0.862   5.115   4.010
 3069SOL    HW210107   0.875   5.148   3.851
 3070SOL     OW10108   3.742   1.626   4.450
 3070SOL    HW110109   3.710   1.534   4.471
 3070SOL    HW210110   3.711   1.653   4.359
 3071SOL     OW10111   5.737   0.248   4.136
 3071SOL    HW110112   5.649   0.248   4.089
 3071SOL    HW210113   5.780   0.158   4.128
 3072SOL     OW10114   0.429   0.269   1.759
 3072SOL    HW110115   0.432   0.300   1.854
 3072SOL    HW210116   0.376   0.334   1.704
 3073SOL     OW10117   1.824   2.479   4.856
 3073SOL    HW110118   1.788   2.429   4.935
 3073SOL    HW210119   1.915   2.444   4.834
 3074SOL     OW10120   4.912   3.591   6.104
 3074SOL    HW110121   4.852   3.584   6.024
 3074SOL    HW210122   4.857   3.599   6.187
 3075SOL     OW10123   6.936   6.093   0.564
 3075SOL    HW110124   6.947   6.093   0.663
 3075SOL    HW210125   7.009   6.038   0.523
 3076SOL     OW10126   0.667   0.846   4.903
 3076SOL    HW110127   0.601   0.886   4.967
 3076SOL    HW210128   0.739   0.913   4.885
 3077SOL     OW10129   5.133   4.592   3.952
 3077SOL    HW110130   5.205   4.550   4.007
 3077SOL    HW210131   5.098   4.524   3.887
 3078SOL     OW10132   1.928   2.784   0.064
 3078SOL    HW110133   1.953   2.868   0.016
 3078SOL    HW210134   1.829   2.768   0.054
 3079SOL     OW10135   5.576   2.621   6.673
 3079SOL    HW110136   5.643   2.687   6.707
 3079SOL    HW210137   5.566   2.546   6.738
 3080SOL     OW10138   6.621   6.712   1.360
 3080SOL    HW110139   6.542   6.663   1.323
 3080SOL    HW210140   6.699   6.698   1.299
 3081SOL     OW10141   0.573   4.470   6.316
 3081SOL    HW110142   0.648   4.405   6.307
 3081SOL    HW210143   0.495   4.424   6.359
 3082SOL     OW10144   2.520   6.798   2.240
 3082SOL    HW110145   2.617   6.788   2.265
 3082SOL    HW210146   2.512   6.807   2.141
 3083SOL     OW10147   3.262   0.314   2.071
 3083SOL    HW110148   3.282   0.326   1.974
 3083SOL    HW210149   3.315   0.380   2.125
 3084SOL     OW10150   4.682   6.199   3.829
 3084SOL    HW110151   4.655   6.154   3.914
 3084SOL    HW210152   4.654   6.143   3.751
 3085SOL     OW10153   1.229   5.315   1.986
 3085SOL    HW110154   1.314   5.362   1.961
 3085SOL    HW210155   1.158   5.382   2.007
 3086SOL     OW10156   6.128   1.485   4.091
 3086SOL    HW110157   6.041   1.513   4.050
 3086SOL    HW210158   6.150   1.392   4.062
 3087SOL     OW10159   5.592   3.532   2.020
 3087SOL    HW110160   5.569   3.453   2.076
 3087SOL    HW210161   5.511   3.590   2.011
 3088SOL     OW10162   2.940   3.723   6.578
 3088SOL    HW110163   2.961   3.726   6.480
 3088SOL    HW210164   2.973   3.637   6.617
 3089SOL     OW10165   3.317   2.204   1.124
 3089SOL    HW110166   3.229   2.160   1.144
 3089SOL    HW210167   3.382   2.136   1.090
 3090SOL     OW10168   6.776   2.006   0.690
 3090SOL    HW110169   6.746   1.920   0.649
 3090SOL    HW210170   6.712   2.079   0.665
 3091SOL     OW10171   2.492   6.659   0.416
 3091SOL    HW110172   2.585   6.632   0.439
 3091SOL    HW210173   2.447   6.698   0.497
 3092SOL     OW10174   3.727   5.792   0.389
 3092SOL    HW110175   3.787   5.738   0.448
 3092SOL    HW210176   3.701   5.877   0.435
 3093SOL     OW10177   4.851   6.181   3.581
 3093SOL    HW110178   4.943   6.204   3.612
 3093SOL    HW210179   4.850   6.086   3.548
 3094SOL     OW10180   2.745   5.418   5.586
 3094SOL    HW110181   2.737   5.353   5.662
 3094SOL    HW210182   2.798   5.377   5.512
 3095SOL     OW10183   1.957   5.152   5.014
 3095SOL    HW110184   1.942   5.121   4.920
 3095SOL    HW210185   1.902   5.233   5.032
 3096SOL     OW10186   0.338   0.516   5.458
 3096SOL    HW110187   0.423   0.477   5.426
 3096SOL    HW210188   0.319   0.601   5.408
 3097SOL     OW10189   1.730   1.875   0.108
 3097SOL    HW110190   1.671   1.957   0.110
 3097SOL    HW210191   1.774   1.869   0.019
 3098SOL     OW10192   3.934   2.109   0.342
 3098SOL    HW110193   3.854   2.069   0.296
 3098SOL    HW210194   3.932   2.208   0.330
 3099SOL     OW10195   1.296   5.806   5.374
 3099SOL    HW110196   1.323   5.758   5.291
 3099SOL    HW210197   1.293   5.904   5.357
 3100SOL     OW10198   5.907   6.256   6.279
 3100SOL    HW110199   6.000   6.270   6.311
 3100SOL    HW210200   5.902   6.172   6.225
 3101SOL     OW10201   3.964   0.322   1.138
 3101SOL    HW110202   3.883   0.266   1.120
 3101SOL    HW210203   4.033   0.268   1.185
 3102SOL     OW10204   0.870   6.025   0.575
 3102SOL    HW110205   0.861   5.927   0.559
 3102SOL    HW210206   0.779   6.066   0.581
 3103SOL     OW10207   4.124   3.921   1.876
 3103SOL    HW110208   4.152   4.016   1.886
 3103SOL    HW210209   4.066   3.895   1.954
 3104SOL     OW10210   5.953   6.032   3.886
 3104SOL    HW110211   6.035   6.023   3.944
 3104SOL    HW210212   5.967   5.981   3.802
 3105SOL     OW10213   5.789   5.310   3.331
 3105SOL    HW110214   5.759   5.295   3.426
 3105SOL    HW210215   5.818   5.223   3.292
 3106SOL     OW10216   6.825   3.149   4.571
 3106SOL    HW110217   6.918   3.115   4.560
 3106SOL    HW210218   6.805   3.215   4.498
 3107SOL     OW10219   2.829   6.662   4.126
 3107SOL    HW110220   2.743   6.713   4.135
 3107SOL    HW210221   2.895   6.717   4.075
 3108SOL     OW10222   3.064   0.819   2.987
 3108SOL    HW110223   3.062   0.765   2.903
 3108SOL    HW210224   3.033   0.912   2.967
 3109SOL     OW10225   4.674   5.520   3.156
 3109SOL    HW110226   4.670   5.593   3.088
 3109SOL    HW210227   4.615   5.445   3.127
 3110SOL     OW10228   1.375   2.978   1.860
 3110SOL    HW110229   1.434   2.934   1.928
 3110SOL    HW210230   1.351   2.913   1.789
 3111SOL     OW10231   6.851   5.058   2.635
 3111SOL    HW110232   6.873   4.978   2.692
 3111SOL    HW210233   6.752   5.069   2.630
 3112SOL     OW10234   2.725   3.831   6.316
 3112SOL    HW110235   2.637   3.834   6.268
 3112SOL    HW210236   2.798   3.861   6.255
 3113SOL     OW10237   4.305   6.490   4.202
 3113SOL    HW110238   4.329   6.581   4.170
 3113SOL    HW210239   4.282   6.494   4.300
 3114SOL     OW10240   5.458   5.767   0.875
 3114SOL    HW110241   5.413   5.695   0.822
 3114SOL    HW210242   5.556   5.769   0.854
 3115SOL     OW10243   2.588   3.480   1.731
 3115SOL    HW110244   2.645   3.411   1.688
 3115SOL    HW210245   2.514   3.436   1.781
 3116SOL     OW10246   0.261   1.614   0.037
 3116SOL    HW110247   0.273   1.677   6.988
 3116SOL    HW210248   0.290   1.522   0.009
 3117SOL     OW10249   3.772   3.894   5.657
 3117SOL    HW110250   3.740   3.977   5.612
 3117SOL    HW210251   3.787   3.913   5.754
 3118SOL     OW10252   5.923   5.597   6.518
 3118SOL    HW110253   5.899   5.585   6.422
 3118SOL    HW210254   5.937   5.694   6.537
 3119SOL     OW10255   2.094   4.636   6.673
 3119SOL    HW110256   2.044   4.625   6.587
 3119SOL    HW210257   2.181   4.684   6.655
 3120SOL     OW10258   2.425   5.558   6.352
 3120SOL    HW110259   2.395   5.464   6.332
 3120SOL    HW210260   2.362   5.623   6.310
 3121SOL     OW10261   0.640   6.232   3.065
 3121SOL    HW110262   0.675   6.278   3.146
 3121SOL    HW210263   0.611   6.139   3.089
 3122SOL     OW10264   2.871   5.991   0.840
 3122SOL    HW110265   2.882   6.013   0.743
 3122SOL    HW210266   2.960   5.988   0.884
 3123SOL     OW10267   3.798   6.567   4.246
 3123SOL    HW110268   3.873   6.610   4.197
 3123SOL    HW210269   3.823   6.472   4.268
 3124SOL     OW10270   3.873   0.578   5.967
 3124SOL    HW110271   3.864   0.621   6.057
 3124SOL    HW210272   3.906   0.484   5.978
 3125SOL     OW10273   6.837   1.951   5.907
 3125SOL    HW110274   6.862   2.026   5.846
 3125SOL    HW210275   6.921   1.908   5.943
 3126SOL     OW10276   3.662   6.400   6.940
 3126SOL    HW110277   3.571   6.422   6.906
 3126SOL    HW210278   3.655   6.342   7.021
 3127SOL     OW10279   1.559   1.129   3.918
 3127SOL    HW110280   1.522   1.199   3.979
 3127SOL    HW210281   1.577   1.169   3.828
 3128SOL     OW10282   1.770   1.187   1.001
 3128SOL    HW110283   1.736   1.112   1.058
 3128SOL    HW210284   1.695   1.251   0.982
 3129SOL     OW10285   1.531   3.090   3.429
 3129SOL    HW110286   1.477   3.146   3.492
 3129SOL    HW210287   1.470   3.029   3.378
 3130SOL     OW10288   2.119   5.714   3.458
 3130SOL    HW110289   2.035   5.686   3.412
 3130SOL    HW210290   2.097   5.754   3.547
 3131SOL     OW10291   0.731   3.382   4.708
 3131SOL    HW110292   0.740   3.365   4.610
 3131SOL    HW210293   0.796   3.452   4.736
 3132SOL     OW10294   5.452   5.030   5.256
 3132SOL    HW110295   5.358   5.031   5.223
 3132SOL    HW210296   5.470   4.944   5.303
 3133SOL     OW10297   2.438   2.142   3.168
 3133SOL    HW110298   2.461   2.226   3.119
 3133SOL    HW210299   2.347   2.111   3.140
 3134SOL     OW10300   5.715   2.889   1.788
 3134SOL    HW110301   5.772   2.967   1.765
 3134SOL    HW210302   5.728   2.817   1.720
 3135SOL     OW10303   2.381   1.830   3.365
 3135SOL    HW110304   2.451   1.891   3.327
 3135SOL    HW210305   2.291   1.870   3.350
 3136SOL     OW10306   6.740   6.919   4.760
 3136SOL    HW110307   6.710   6.824   4.751
 3136SOL    HW210308   6.683   6.965   4.829
 3137SOL     OW10309   0.174   1.531   4.557
 3137SOL    HW110310   0.272   1.512   4.548
 3137SOL    HW210311   0.142   1.580   4.476
 3138SOL     OW10312   5.353   1.626   4.733
 3138SOL    HW110313   5.451   1.608   4.725
 3138SOL    HW210314   5.302   1.544   4.707
 3139SOL     OW10315   4.989   5.437   4.737
 3139SOL    HW110316   4.994   5.516   4.798
 3139SOL    HW210317   4.894   5.421   4.711
 3140SOL     OW10318   5.735   5.943   6.331
 3140SOL    HW110319   5.800   5.908   6.399
 3140SOL    HW210320   5.785   5.993   6.260
 3141SOL     OW10321   0.700   5.517   1.140
 3141SOL    HW110322   0.624   5.537   1.201
 3141SOL    HW210323   0.748   5.434   1.172
 3142SOL     OW10324   3.713   0.034   0.297
 3142SOL    HW110325   3.786   7.007   0.256
 3142SOL    HW210326   3.747   0.126   0.315
 3143SOL     OW10327   0.324   1.559   1.096
 3143SOL    HW110328   0.393   1.490   1.073
 3143SOL    HW210329   0.357   1.614   1.173
 3144SOL     OW10330   1.756   3.087   6.867
 3144SOL    HW110331   1.663   3.052   6.875
 3144SOL    HW210332   1.769   3.163   6.930
 3145SOL     OW10333   2.908   5.434   3.914
 3145SOL    HW110334   2.929   5.514   3.859
 3145SOL    HW210335   2.886   5.356   3.855
 3146SOL     OW10336   2.571   7.007   3.762
 3146SOL    HW110337   2.581   0.070   3.722
 3146SOL    HW210338   2.660   6.961   3.762
 3147SOL     OW10339   4.017   4.421   0.852
 3147SOL    HW110340   4.114   4.398   0.855
 3147SOL    HW210341   4.005   4.516   0.879
 3148SOL     OW10342   3.708   5.391   5.181
 3148SOL    HW110343   3.724   5.477   5.229
 3148SOL    HW210344   3.740   5.398   5.086
 3149SOL     OW10345   2.815   6.265   6.108
 3149SOL    HW110346   2.808   6.273   6.207
 3149SOL    HW210347   2.737   6.212   6.073
 3150SOL     OW10348   0.025   0.096   4.288
 3150SOL    HW110349   0.036   0.111   4.386
 3150SOL    HW210350   0.111   0.119   4.241
 3151SOL     OW10351   3.908   7.009   1.144
 3151SOL    HW110352   3.890   6.921   1.101
 3151SOL    HW210353   3.978   0.030   1.092
 3152SOL     OW10354   1.422   4.676   6.269
 3152SOL    HW110355   1.503   4.735   6.263
 3152SOL    HW210356   1.407   4.632   6.180
 3153SOL     OW10357   0.055   4.682   2.962
 3153SOL    HW110358   0.155   4.676   2.968
 3153SOL    HW210359   0.017   4.695   3.054
 3154SOL     OW10360   5.688   2.371   6.477
 3154SOL    HW110361   5.718   2.430   6.553
 3154SOL    HW210362   5.728   2.280   6.488
 3155SOL     OW10363   4.189   6.119   0.344
 3155SOL    HW110364   4.271   6.148   0.295
 3155SOL    HW210365   4.109   6.167   0.307
 3156SOL     OW10366   3.332   3.254   3.047
 3156SOL    HW110367   3.379   3.210   3.124
 3156SOL    HW210368   3.352   3.352   3.047
 3157SOL     OW10369   2.135   3.050   4.976
 3157SOL    HW110370   2.089   2.961   4.978
 3157SOL    HW210371   2.219   3.045   5.030
 3158SOL     OW10372   4.633   6.436   1.135
 3158SOL    HW110373   4.608   6.411   1.229
 3158SOL    HW210374   4.567   6.397   1.071
 3159SOL     OW10375   5.450   4.790   0.407
 3159SOL    HW110376   5.413   4.808   0.498
 3159SOL    HW210377   5.496   4.701   0.406
 3160SOL     OW10378   5.956   4.864   0.573
 3160SOL    HW110379   6.005   4.867   0.486
 3160SOL    HW210380   6.021   4.866   0.649
 3161SOL     OW10381   0.959   1.275   3.321
 3161SOL    HW110382   1.057   1.287   3.335
 3161SOL    HW210383   0.909   1.309   3.400
 3162SOL     OW10384   0.141   6.839   5.996
 3162SOL    HW110385   0.154   6.806   5.902
 3162SOL    HW210386   0.202   6.788   6.057
 3163SOL     OW10387   2.265   4.496   5.705
 3163SOL    HW110388   2.358   4.504   5.671
 3163SOL    HW210389   2.214   4.579   5.682
 3164SOL     OW10390   6.237   5.418   6.060
 3164SOL    HW110391   6.242   5.411   5.960
 3164SOL    HW210392   6.263   5.330   6.101
 3165SOL     OW10393   0.416   2.568   1.667
 3165SOL    HW110394   0.432   2.521   1.753
 3165SOL    HW210395   0.356   2.513   1.609
 3166SOL     OW10396   4.674   2.831   6.388
 3166SOL    HW110397   4.772   2.849   6.392
 3166SOL    HW210398   4.654   2.741   6.428
 3167SOL     OW10399   0.443   4.430   1.905
 3167SOL    HW110400   0.496   4.512   1.926
 3167SOL    HW210401   0.457   4.405   1.809
 3168SOL     OW10402   6.110   2.995   1.073
 3168SOL    HW110403   6.135   3.037   1.161
 3168SOL    HW210404   6.190   2.950   1.034
 3169SOL     OW10405   2.515   2.317   5.206
 3169SOL    HW110406   2.494   2.408   5.169
 3169SOL    HW210407   2.450   2.296   5.280
 3170SOL     OW10408   4.034   0.179   5.242
 3170SOL    HW110409   3.950   0.234   5.237
 3170SOL    HW210410   4.062   0.171   5.338
 3171SOL     OW10411   6.253   6.379   3.066
 3171SOL    HW110412   6.191   6.365   3.143
 3171SOL    HW210413   6.279   6.476   3.062
 3172SOL     OW10414   5.920   0.075   5.253
 3172SOL    HW110415   5.914   0.142   5.327
 3172SOL    HW210416   5.888   7.014   5.286
 3173SOL     OW10417   2.315   1.100   1.590
 3173SOL    HW110418   2.342   1.020   1.642
 3173SOL    HW210419   2.384   1.172   1.601
 3174SOL     OW10420   1.994   3.016   6.963
 3174SOL    HW110421   2.062   3.079   7.000
 3174SOL    HW210422   1.905   3.061   6.961
 3175SOL     OW10423   0.097   6.009   0.152
 3175SOL    HW110424   0.036   6.039   0.079
 3175SOL    HW210425   0.126   5.914   0.134
 3176SOL     OW10426   1.314   5.744   6.939
 3176SOL    HW110427   1.215   5.735   6.953
 3176SOL    HW210428   1.362   5.674   6.991
 3177SOL     OW10429   1.102   6.923   4.489
 3177SOL    HW110430   1.022   6.869   4.465
 3177SOL    HW210431   1.079   7.020   4.487
 3178SOL     OW10432   2.622   3.188   6.792
 3178SOL    HW110433   2.720   3.200   6.812
 3178SOL    HW210434   2.576   3.276   6.800
 3179SOL     OW10435   1.255   2.626   4.227
 3179SOL    HW110436   1.232   2.674   4.312
 3179SOL    HW210437   1.173   2.584   4.188
 3180SOL     OW10438   5.959   1.108   6.076
 3180SOL    HW110439   6.025   1.041   6.041
 3180SOL    HW210440   6.007   1.174   6.135
 3181SOL     OW10441   0.778   1.800   2.594
 3181SOL    HW110442   0.685   1.790   2.628
 3181SOL    HW210443   0.778   1.795   2.494
 3182SOL     OW10444   1.570   4.479   5.570
 3182SOL    HW110445   1.631   4.558   5.573
 3182SOL    HW210446   1.528   4.472   5.480
 3183SOL     OW10447   4.649   2.928   1.081
 3183SOL    HW110448   4.648   2.828   1.082
 3183SOL    HW210449   4.731   2.960   1.033
 3184SOL     OW10450   0.839   2.113   3.401
 3184SOL    HW110451   0.775   2.114   3.478
 3184SOL    HW210452   0.922   2.064   3.428
 3185SOL     OW10453   0.402   6.559   0.042
 3185SOL    HW110454   0.466   6.619   7.023
 3185SOL    HW210455   0.416   6.567   0.141
 3186SOL     OW10456   3.404   0.779   1.711
 3186SOL    HW110457   3.415   0.845   1.636
 3186SOL    HW210458   3.404   0.827   1.798
 3187SOL     OW10459   2.571   4.310   0.125
 3187SOL    HW110460   2.566   4.213   0.147
 3187SOL    HW210461   2.643   4.353   0.179
 3188SOL     OW10462   4.029   6.896   3.058
 3188SOL    HW110463   4.020   6.990   3.090
 3188SOL    HW210464   4.031   6.834   3.136
 3189SOL     OW10465   6.421   6.465   2.694
 3189SOL    HW110466   6.340   6.407   2.684
 3189SOL    HW210467   6.425   6.530   2.618
 3190SOL     OW10468   0.738   0.011   1.448
 3190SOL    HW110469   0.657   0.014   1.507
 3190SOL    HW210470   0.812   0.064   1.490
 3191SOL     OW10471   3.768   0.950   0.168
 3191SOL    HW110472   3.750   0.956   0.267
 3191SOL    HW210473   3.687   0.978   0.118
 3192SOL     OW10474   5.382   2.249   3.675
 3192SOL    HW110475   5.408   2.263   3.580
 3192SOL    HW210476   5.285   2.227   3.681
 3193SOL     OW10477   5.094   4.543   1.141
 3193SOL    HW110478   5.169   4.608   1.154
 3193SOL    HW210479   5.023   4.560   1.210
 3194SOL     OW10480   2.482   5.265   4.898
 3194SOL    HW110481   2.513   5.171   4.914
 3194SOL    HW210482   2.473   5.312   4.986
 3195SOL     OW10483   0.054   4.564   3.814
 3195SOL    HW110484   0.117   4.628   3.769
 3195SOL    HW210485   0.051   4.478   3.763
 3196SOL     OW10486   0.118   6.509   6.118
 3196SOL    HW110487   0.074   6.446   6.182
 3196SOL    HW210488   0.183   6.567   6.168
 3197SOL     OW10489   0.362   4.700   4.928
 3197SOL    HW110490   0.334   4.612   4.966
 3197SOL    HW210491   0.282   4.749   4.893
 3198SOL     OW10492   5.582   6.739   0.264
 3198SOL    HW110493   5.658   6.676   0.278
 3198SOL    HW210494   5.499   6.688   0.245
 3199SOL     OW10495   3.679   1.613   3.221
 3199SOL    HW110496   3.696   1.692   3.162
 3199SOL    HW210497   3.580   1.605   3.237
 3200SOL     OW10498   6.482   1.994   0.608
 3200SOL    HW110499   6.527   1.906   0.590
 3200SOL    HW210500   6.404   2.003   0.546
 3201SOL     OW10501   4.691   4.750   3.175
 3201SOL    HW110502   4.631   4.772   3.252
 3201SOL    HW210503   4.725   4.657   3.186
 3202SOL     OW10504   1.424   5.533   1.649
 3202SOL    HW110505   1.488   5.529   1.572
 3202SOL    HW210506   1.331   5.516   1.616
 3203SOL     OW10507   4.700   0.094   0.905
 3203SOL    HW110508   4.659   0.174   0.860
 3203SOL    HW210509   4.631   0.050   0.963
 3204SOL     OW10510   6.337   6.430   1.828
 3204SOL    HW110511   6.381   6.515   1.857
 3204SOL    HW210512   6.362   6.356   1.890
 3205SOL     OW10513   0.810   3.605   4.486
 3205SOL    HW110514   0.891   3.603   4.545
 3205SOL    HW210515   0.729   3.624   4.540
 3206SOL     OW10516   1.664   0.130   0.190
 3206SOL    HW110517   1.733   0.133   0.118
 3206SOL    HW210518   1.706   0.151   0.278
 3207SOL     OW10519   1.297   1.743   2.793
 3207SOL    HW110520   1.343   1.771   2.877
 3207SOL    HW210521   1.199   1.755   2.803
 3208SOL     OW10522   6.414   0.322   4.792
 3208SOL    HW110523   6.476   0.326   4.870
 3208SOL    HW210524   6.452   0.261   4.722
 3209SOL     OW10525   1.589   0.150   3.399
 3209SOL    HW110526   1.493   0.129   3.385
 3209SOL    HW210527   1.600   0.202   3.484
 3210SOL     OW10528   0.624   5.371   2.397
 3210SOL    HW110529   0.602   5.386   2.301
 3210SOL    HW210530   0.705   5.425   2.422
 3211SOL     OW10531   0.478   4.727   3.346
 3211SOL    HW110532   0.490   4.772   3.435
 3211SOL    HW210533   0.568   4.704   3.309
 3212SOL     OW10534   4.959   2.830   5.354
 3212SOL    HW110535   4.935   2.904   5.291
 3212SOL    HW210536   4.925   2.852   5.446
 3213SOL     OW10537   5.617   6.762   1.561
 3213SOL    HW110538   5.691   6.819   1.524
 3213SOL    HW210539   5.589   6.799   1.649
 3214SOL     OW10540   4.284   4.348   6.917
 3214SOL    HW110541   4.190   4.331   6.947
 3214SOL    HW210542   4.314   4.437   6.951
 3215SOL     OW10543   6.101   1.313   0.207
 3215SOL    HW110544   6.201   1.311   0.198
 3215SOL    HW210545   6.076   1.306   0.304
 3216SOL     OW10546   5.312   6.288   4.784
 3216SOL    HW110547   5.324   6.241   4.696
 3216SOL    HW210548   5.324   6.223   4.858
 3217SOL     OW10549   6.693   4.316   0.326
 3217SOL    HW110550   6.768   4.371   0.289
 3217SOL    HW210551   6.666   4.352   0.415
 3218SOL     OW10552   3.832   1.868   1.963
 3218SOL    HW110553   3.809   1.815   1.882
 3218SOL    HW210554   3.749   1.890   2.014
 3219SOL     OW10555   0.308   0.272   3.458
 3219SOL    HW110556   0.241   0.269   3.384
 3219SOL    HW210557   0.396   0.237   3.424
 3220SOL     OW10558   6.333   3.334   6.444
 3220SOL    HW110559   6.245   3.290   6.428
 3220SOL    HW210560   6.351   3.339   6.542
 3221SOL     OW10561   3.774   1.100   1.857
 3221SOL    HW110562   3.797   1.063   1.947
 3221SOL    HW210563   3.675   1.119   1.853
 3222SOL     OW10564   6.536   4.248   1.675
 3222SOL    HW110565   6.483   4.171   1.640
 3222SOL    HW210566   6.552   4.236   1.773
 3223SOL     OW10567   2.412   4.396   4.240
 3223SOL    HW110568   2.430   4.322   4.174
 3223SOL    HW210569   2.319   4.430   4.226
 3224SOL     OW10570   3.428   6.276   1.198
 3224SOL    HW110571   3.506   6.284   1.259
 3224SOL    HW210572   3.343   6.283   1.251
 3225SOL     OW10573   2.093   2.914   0.620
 3225SOL    HW110574   2.017   2.850   0.606
 3225SOL    HW210575   2.180   2.867   0.603
 3226SOL     OW10576   6.505   0.707   3.820
 3226SOL    HW110577   6.590   0.757   3.835
 3226SOL    HW210578   6.428   0.771   3.825
 3227SOL     OW10579   1.996   2.066   5.561
 3227SOL    HW110580   2.039   2.069   5.470
 3227SOL    HW210581   1.924   1.997   5.562
 3228SOL     OW10582   5.036   3.527   4.978
 3228SOL    HW110583   5.102   3.602   4.970
 3228SOL    HW210584   4.949   3.563   5.012
 3229SOL     OW10585   4.497   1.655   5.004
 3229SOL    HW110586   4.575   1.670   4.942
 3229SOL    HW210587   4.459   1.743   5.031
 3230SOL     OW10588   1.374   0.069   3.889
 3230SOL    HW110589   1.374   0.169   3.890
 3230SOL    HW210590   1.297   0.036   3.834
 3231SOL     OW10591   4.473   4.692   0.945
 3231SOL    HW110592   4.472   4.608   1.000
 3231SOL    HW210593   4.405   4.685   0.873
 3232SOL     OW10594   1.097   3.975   2.952
 3232SOL    HW110595   1.082   3.949   2.857
 3232SOL    HW210596   1.180   4.030   2.959
 3233SOL     OW10597   1.991   4.160   1.053
 3233SOL    HW110598   2.059   4.186   1.122
 3233SOL    HW210599   1.939   4.241   1.026
 3234SOL     OW10600   6.843   2.018   4.879
 3234SOL    HW110601   6.824   2.012   4.781
 3234SOL    HW210602   6.798   2.100   4.916
 3235SOL     OW10603   5.800   0.789   2.462
 3235SOL    HW110604   5.840   0.849   2.531
 3235SOL    HW210605   5.720   0.834   2.421
 3236SOL     OW10606   0.242   2.435   1.534
 3236SOL    HW110607   0.214   2.464   1.443
 3236SOL    HW210608   0.285   2.344   1.529
 3237SOL     OW10609   2.859   6.095   5.010
 3237SOL    HW110610   2.892   6.058   4.923
 3237SOL    HW210611   2.885   6.034   5.084
 3238SOL     OW10612   6.553   6.506   6.703
 3238SOL    HW110613   6.514   6.492   6.793
 3238SOL    HW210614   6.640   6.555   6.712
 3239SOL     OW10615   1.300   6.080   5.307
 3239SOL    HW110616   1.281   6.132   5.224
 3239SOL    HW210617   1.396   6.093   5.333
 3240SOL     OW10618   0.497   2.328   4.584
 3240SOL    HW110619   0.461   2.263   4.652
 3240SOL    HW210620   0.580   2.369   4.619
 3241SOL     OW10621   4.155   6.716   5.192
 3241SOL    HW110622   4.091   6.776   5.240
 3241SOL    HW210623   4.150   6.734   5.093
 3242SOL     OW10624   3.359   0.512   0.658
 3242SOL    HW110625   3.401   0.520   0.748
 3242SOL    HW210626   3.275   0.460   0.664
 3243SOL     OW10627   3.779   5.198   1.749
 3243SOL    HW110628   3.808   5.249   1.831
 3243SOL    HW210629   3.773   5.101   1.771
 3244SOL     OW10630   0.972   7.008   5.973
 3244SOL    HW110631   0.953   6.963   5.886
 3244SOL    HW210632   0.907   6.977   6.042
 3245SOL     OW10633   3.284   2.200   5.714
 3245SOL    HW110634   3.361   2.140   5.690
 3245SOL    HW210635   3.254   2.249   5.632
 3246SOL     OW10636   5.092   6.340   2.834
 3246SOL    HW110637   5.165   6.381   2.889
 3246SOL    HW210638   5.084   6.243   2.854
 3247SOL     OW10639   6.301   3.328   5.575
 3247SOL    HW110640   6.237   3.369   5.640
 3247SOL    HW210641   6.392   3.364   5.592
 3248SOL     OW10642   4.860   4.030   2.854
 3248SOL    HW110643   4.761   4.044   2.866
 3248SOL    HW210644   4.884   3.937   2.883
 3249SOL     OW10645   3.464   4.904   5.552
 3249SOL    HW110646   3.477   4.826   5.490
 3249SOL    HW210647   3.473   4.873   5.646
 3250SOL     OW10648   4.522   4.964   1.402
 3250SOL    HW110649   4.470   4.950   1.487
 3250SOL    HW210650   4.488   4.901   1.332
 3251SOL     OW10651   3.396   0.707   3.567
 3251SOL    HW110652   3.440   0.702   3.657
 3251SOL    HW210653   3.457   0.665   3.499
 3252SOL     OW10654   3.794   2.152   3.366
 3252SOL    HW110655   3.818   2.215   3.439
 3252SOL    HW210656   3.731   2.083   3.400
 3253SOL     OW10657   5.103   4.283   1.476
 3253SOL    HW110658   5.078   4.366   1.526
 3253SOL    HW210659   5.028   4.257   1.416
 3254SOL     OW10660   6.629   4.660   2.483
 3254SOL    HW110661   6.604   4.739   2.427
 3254SOL    HW210662   6.673   4.691   2.567
 3255SOL     OW10663   3.840   5.161   0.677
 3255SOL    HW110664   3.854   5.260   0.673
 3255SOL    HW210665   3.775   5.139   0.749
 3256SOL     OW10666   6.787   7.009   5.377
 3256SOL    HW110667   6.745   6.955   5.303
 3256SOL    HW210668   6.760   0.077   5.368
 3257SOL     OW10669   2.601   0.967   1.008
 3257SOL    HW110670   2.593   0.902   0.932
 3257SOL    HW210671   2.539   0.939   1.082
 3258SOL     OW10672   5.534   6.539   1.466
 3258SOL    HW110673   5.567   6.627   1.501
 3258SOL    HW210674   5.529   6.543   1.367
 3259SOL     OW10675   5.284   5.870   3.226
 3259SOL    HW110676   5.252   5.965   3.229
 3259SOL    HW210677   5.206   5.809   3.239
 3260SOL     OW10678   2.380   1.539   1.535
 3260SOL    HW110679   2.327   1.488   1.467
 3260SOL    HW210680   2.458   1.583   1.490
 3261SOL     OW10681   4.815   6.591   4.237
 3261SOL    HW110682   4.907   6.612   4.205
 3261SOL    HW210683   4.781   6.510   4.189
 3262SOL     OW10684   4.116   1.586   3.838
 3262SOL    HW110685   4.151   1.618   3.750
 3262SOL    HW210686   4.192   1.560   3.897
 3263SOL     OW10687   3.295   4.875   3.384
 3263SOL    HW110688   3.355   4.796   3.374
 3263SOL    HW210689   3.350   4.955   3.409
 3264SOL     OW10690   5.679   5.152   6.320
 3264SOL    HW110691   5.637   5.091   6.253
 3264SOL    HW210692   5.639   5.133   6.410
 3265SOL     OW10693   5.641   0.103   5.469
 3265SOL    HW110694   5.604   0.011   5.481
 3265SOL    HW210695   5.665   0.141   5.558
 3266SOL     OW10696   1.154   2.791   6.821
 3266SOL    HW110697   1.090   2.833   6.885
 3266SOL    HW210698   1.199   2.713   6.864
 3267SOL     OW10699   5.349   3.662   2.011
 3267SOL    HW110700   5.278   3.674   1.942
 3267SOL    HW210701   5.337   3.728   2.085
 3268SOL     OW10702   1.854   5.664   6.781
 3268SOL    HW110703   1.820   5.586   6.833
 3268SOL    HW210704   1.785   5.694   6.715
 3269SOL     OW10705   4.348   3.698   0.844
 3269SOL    HW110706   4.302   3.785   0.866
 3269SOL    HW210707   4.339   3.635   0.922
 3270SOL     OW10708   6.921   5.253   3.779
 3270SOL    HW110709   7.006   5.246   3.728
 3270SOL    HW210710   6.856   5.310   3.729
 3271SOL     OW10711   4.678   6.742   1.172
 3271SOL    HW110712   4.616   6.725   1.249
 3271SOL    HW210713   4.718   6.656   1.142
 3272SOL     OW10714   4.749   5.712   6.712
 3272SOL    HW110715   4.789   5.793   6.667
 3272SOL    HW210716   4.817   5.672   6.774
 3273SOL     OW10717   0.861   0.449   2.953
 3273SOL    HW110718   0.909   0.375   2.904
 3273SOL    HW210719   0.779   0.475   2.902
 3274SOL     OW10720   2.595   1.242   0.235
 3274SOL    HW110721   2.628   1.148   0.236
 3274SOL    HW210722   2.531   1.255   0.159
 3275SOL     OW10723   4.512   0.523   0.054
 3275SOL    HW110724   4.457   0.549   7.002
 3275SOL    HW210725   4.547   0.605   0.099
 3276SOL     OW10726   1.441   6.223   0.273
 3276SOL    HW110727   1.520   6.258   0.323
 3276SOL    HW210728   1.468   6.143   0.219
 3277SOL     OW10729   0.488   6.256   0.028
 3277SOL    HW110730   0.473   6.345   7.014
 3277SOL    HW210731   0.408   6.197   0.013
 3278SOL     OW10732   1.272   0.418   6.991
 3278SOL    HW110733   1.325   0.394   6.910
 3278SOL    HW210734   1.242   0.334   0.010
 3279SOL     OW10735   1.971   0.010   1.346
 3279SOL    HW110736   1.983   6.970   1.273
 3279SOL    HW210737   1.880   0.050   1.340
 3280SOL     OW10738   2.870   6.075   3.699
 3280SOL    HW110739   2.801   6.024   3.648
 3280SOL    HW210740   2.878   6.038   3.791
 3281SOL     OW10741   1.386   6.486   0.698
 3281SOL    HW110742   1.366   6.577   0.662
 3281SOL    HW210743   1.484   6.472   0.702
 3282SOL     OW10744   2.244   5.009   3.006
 3282SOL    HW110745   2.294   5.020   2.920
 3282SOL    HW210746   2.252   4.914   3.037
 3283SOL     OW10747   2.083   0.482   3.338
 3283SOL    HW110748   2.087   0.547   3.414
 3283SOL    HW210749   2.048   0.395   3.370
 3284SOL     OW10750   1.774   5.387   5.586
 3284SOL    HW110751   1.710   5.367   5.513
 3284SOL    HW210752   1.724   5.409   5.670
 3285SOL     OW10753   0.677   2.677   4.425
 3285SOL    HW110754   0.726   2.684   4.512
 3285SOL    HW210755   0.705   2.751   4.364
 3286SOL     OW10756   4.917   4.586   6.038
 3286SOL    HW110757   4.970   4.637   6.106
 3286SOL    HW210758   4.857   4.521   6.084
 3287SOL     OW10759   0.283   3.041   1.897
 3287SOL    HW110760   0.365   3.091   1.869
 3287SOL    HW210761   0.215   3.047   1.825
 3288SOL     OW10762   0.810   0.064   0.323
 3288SOL    HW110763   0.858   7.023   0.378
 3288SOL    HW210764   0.712   0.061   0.344
 3289SOL     OW10765   1.545   6.887   3.851
 3289SOL    HW110766   1.482   6.962   3.872
 3289SOL    HW210767   1.632   6.925   3.819
 3290SOL     OW10768   0.211   5.025   3.770
 3290SOL    HW110769   0.181   5.102   3.714
 3290SOL    HW210770   0.159   5.022   3.854
 3291SOL     OW10771   1.409   1.478   1.775
 3291SOL    HW110772   1.467   1.559   1.767
 3291SOL    HW210773   1.433   1.413   1.703
 3292SOL     OW10774   0.681   5.863   4.614
 3292SOL    HW110775   0.717   5.912   4.534
 3292SOL    HW210776   0.653   5.929   4.683
 3293SOL     OW10777   5.639   0.438   3.206
 3293SOL    HW110778   5.667   0.532   3.224
 3293SOL    HW210779   5.669   0.410   3.115
 3294SOL     OW10780   6.802   6.911   0.781
 3294SOL    HW110781   6.723   6.876   0.831
 3294SOL    HW210782   6.837   6.992   0.827
 3295SOL     OW10783   2.487   2.783   6.021
 3295SOL    HW110784   2.526   2.853   5.962
 3295SOL    HW210785   2.416   2.733   5.972
 3296SOL     OW10786   1.361   6.658   2.273
 3296SOL    HW110787   1.417   6.576   2.287
 3296SOL    HW210788   1.329   6.691   2.361
 3297SOL     OW10789   3.455   1.001   5.358
 3297SOL    HW110790   3.512   1.072   5.398
 3297SOL    HW210791   3.438   1.020   5.261
 3298SOL     OW10792   0.714   4.619   3.003
 3298SOL    HW110793   0.725   4.655   2.910
 3298SOL    HW210794   0.646   4.546   3.003
 3299SOL     OW10795   1.187   1.264   4.058
 3299SOL    HW110796   1.276   1.298   4.028
 3299SOL    HW210797   1.200   1.193   4.127
 3300SOL     OW10798   0.497   6.826   4.725
 3300SOL    HW110799   0.474   6.887   4.650
 3300SOL    HW210800   0.536   6.879   4.800
 3301SOL     OW10801   6.395   4.234   2.849
 3301SOL    HW110802   6.427   4.229   2.944
 3301SOL    HW210803   6.355   4.146   2.823
 3302SOL     OW10804   0.869   5.860   5.452
 3302SOL    HW110805   0.944   5.902   5.402
 3302SOL    HW210806   0.782   5.877   5.404
 3303SOL     OW10807   3.320   3.768   4.597
 3303SOL    HW110808   3.351   3.822   4.518
 3303SOL    HW210809   3.334   3.821   4.681
 3304SOL     OW10810   1.584   1.182   3.607
 3304SOL    HW110811   1.542   1.107   3.557
 3304SOL    HW210812   1.601   1.258   3.545
 3305SOL     OW10813   1.026   2.630   0.735
 3305SOL    HW110814   1.007   2.533   0.754
 3305SOL    HW210815   1.046   2.677   0.822
 3306SOL     OW10816   1.690   2.516   1.725
 3306SOL    HW110817   1.606   2.516   1.779
 3306SOL    HW210818   1.768   2.503   1.785
 3307SOL     OW10819   0.843   0.320   6.815
 3307SOL    HW110820   0.857   0.299   6.718
 3307SOL    HW210821   0.766   0.266   6.850
 3308SOL     OW10822   4.701   6.201   0.932
 3308SOL    HW110823   4.739   6.114   0.964
 3308SOL    HW210824   4.615   6.220   0.979
 3309SOL     OW10825   1.400   4.616   1.754
 3309SOL    HW110826   1.474   4.556   1.723
 3309SOL    HW210827   1.439   4.693   1.805
 3310SOL     OW10828   2.097   6.579   2.268
 3310SOL    HW110829   2.075   6.645   2.340
 3310SOL    HW210830   2.013   6.545   2.226
 3311SOL     OW10831   4.183   5.496   0.700
 3311SOL    HW110832   4.227   5.464   0.785
 3311SOL    HW210833   4.247   5.484   0.624
 3312SOL     OW10834   1.159   2.393   5.905
 3312SOL    HW110835   1.249   2.397   5.947
 3312SOL    HW210836   1.102   2.467   5.941
 3313SOL     OW10837   5.497   6.511   4.844
 3313SOL    HW110838   5.446   6.596   4.850
 3313SOL    HW210839   5.436   6.437   4.814
 3314SOL     OW10840   0.405   4.139   6.775
 3314SOL    HW110841   0.488   4.124   6.723
 3314SOL    HW210842   0.428   4.178   6.865
 3315SOL     OW10843   5.888   2.909   3.005
 3315SOL    HW110844   5.889   2.861   3.093
 3315SOL    HW210845   5.795   2.908   2.968
 3316SOL     OW10846   4.143   0.643   6.812
 3316SOL    HW110847   4.183   0.588   6.738
 3316SOL    HW210848   4.059   0.686   6.778
 3317SOL     OW10849   4.582   2.629   1.510
 3317SOL    HW110850   4.629   2.596   1.429
 3317SOL    HW210851   4.483   2.621   1.496
 3318SOL     OW10852   2.721   5.178   6.212
 3318SOL    HW110853   2.788   5.249   6.188
 3318SOL    HW210854   2.705   5.179   6.311
 3319SOL     OW10855   0.509   6.252   6.603
 3319SOL    HW110856   0.463   6.176   6.556
 3319SOL    HW210857   0.484   6.338   6.559
 3320SOL     OW10858   0.770   0.499   0.972
 3320SOL    HW110859   0.724   0.588   0.962
 3320SOL    HW210860   0.866   0.514   0.995
 3321SOL     OW10861   3.705   3.651   4.307
 3321SOL    HW110862   3.680   3.720   4.375
 3321SOL    HW210863   3.757   3.579   4.352
 3322SOL     OW10864   4.681   2.778   2.686
 3322SOL    HW110865   4.714   2.868   2.716
 3322SOL    HW210866   4.601   2.752   2.740
 3323SOL     OW10867   1.661   4.504   0.807
 3323SOL    HW110868   1.654   4.431   0.739
 3323SOL    HW210869   1.735   4.566   0.781
 3324SOL     OW10870   6.568   3.256   1.429
 3324SOL    HW110871   6.469   3.250   1.440
 3324SOL    HW210872   6.610   3.171   1.459
 3325SOL     OW10873   1.087   4.496   5.110
 3325SOL    HW110874   1.077   4.409   5.061
 3325SOL    HW210875   1.097   4.571   5.044
 3326SOL     OW10876   5.454   0.029   2.270
 3326SOL    HW110877   5.457   6.959   2.289
 3326SOL    HW210878   5.448   0.080   2.355
 3327SOL     OW10879   4.444   6.039   1.795
 3327SOL    HW110880   4.502   6.116   1.821
 3327SOL    HW210881   4.489   5.987   1.722
 3328SOL     OW10882   6.445   6.427   4.305
 3328SOL    HW110883   6.392   6.511   4.298
 3328SOL    HW210884   6.428   6.384   4.394
 3329SOL     OW10885   5.411   0.599   5.937
 3329SOL    HW110886   5.390   0.581   6.033
 3329SOL    HW210887   5.424   0.698   5.924
 3330SOL     OW10888   6.126   0.113   3.029
 3330SOL    HW110889   6.219   0.137   3.054
 3330SOL    HW210890   6.091   0.044   3.093
 3331SOL     OW10891   1.193   3.745   2.328
 3331SOL    HW110892   1.272   3.717   2.274
 3331SOL    HW210893   1.157   3.832   2.293
 3332SOL     OW10894   4.108   5.040   0.666
 3332SOL    HW110895   4.184   5.075   0.611
 3332SOL    HW210896   4.026   5.094   0.646
 3333SOL     OW10897   2.163   4.212   0.789
 3333SOL    HW110898   2.064   4.197   0.794
 3333SOL    HW210899   2.207   4.171   0.869
 3334SOL     OW10900   1.859   2.412   3.023
 3334SOL    HW110901   1.846   2.334   2.962
 3334SOL    HW210902   1.886   2.492   2.969
 3335SOL     OW10903   4.336   4.112   6.055
 3335SOL    HW110904   4.272   4.184   6.083
 3335SOL    HW210905   4.296   4.022   6.073
 3336SOL     OW10906   3.663   5.670   6.218
 3336SOL    HW110907   3.746   5.615   6.210
 3336SOL    HW210908   3.683   5.753   6.270
 3337SOL     OW10909   2.934   3.620   4.159
 3337SOL    HW110910   2.998   3.558   4.113
 3337SOL    HW210911   2.848   3.572   4.178
 3338SOL     OW10912   2.617   3.275   1.309
 3338SOL    HW110913   2.536   3.334   1.300
 3338SOL    HW210914   2.680   3.316   1.375
 3339SOL     OW10915   0.935   6.623   6.227
 3339SOL    HW110916   0.907   6.529   6.211
 3339SOL    HW210917   1.027   6.624   6.266
 3340SOL     OW10918   4.806   1.098   6.345
 3340SOL    HW110919   4.804   1.049   6.432
 3340SOL    HW210920   4.718   1.142   6.331
 3341SOL     OW10921   1.591   4.402   1.354
 3341SOL    HW110922   1.651   4.330   1.317
 3341SOL    HW210923   1.577   4.473   1.285
 3342SOL     OW10924   6.066   7.009   2.090
 3342SOL    HW110925   6.022   6.983   2.176
 3342SOL    HW210926   5.996   7.021   2.020
 3343SOL     OW10927   3.099   5.114   1.025
 3343SOL    HW110928   3.153   5.032   1.007
 3343SOL    HW210929   3.001   5.091   1.019
 3344SOL     OW10930   1.233   3.368   1.490
 3344SOL    HW110931   1.186   3.329   1.411
 3344SOL    HW210932   1.213   3.314   1.571
 3345SOL     OW10933   4.944   5.425   0.948
 3345SOL    HW110934   4.988   5.338   0.967
 3345SOL    HW210935   4.886   5.451   1.025
 3346SOL     OW10936   1.320   0.800   6.765
 3346SOL    HW110937   1.420   0.794   6.767
 3346SOL    HW210938   1.286   0.763   6.678
 3347SOL     OW10939   0.741   4.189   5.620
 3347SOL    HW110940   0.650   4.153   5.638
 3347SOL    HW210941   0.738   4.248   5.539
 3348SOL     OW10942   3.393   3.878   6.157
 3348SOL    HW110943   3.375   3.853   6.252
 3348SOL    HW210944   3.357   3.807   6.096
 3349SOL     OW10945   1.739   5.724   1.741
 3349SOL    HW110946   1.768   5.645   1.687
 3349SOL    HW210947   1.689   5.692   1.822
 3350SOL     OW10948   2.929   5.607   4.718
 3350SOL    HW110949   2.843   5.613   4.769
 3350SOL    HW210950   3.006   5.606   4.783
 3351SOL     OW10951   5.912   6.966   1.330
 3351SOL    HW110952   5.996   7.020   1.337
 3351SOL    HW210953   5.837   7.026   1.305
 3352SOL     OW10954   5.420   1.269   6.907
 3352SOL    HW110955   5.375   1.253   6.995
 3352SOL    HW210956   5.519   1.265   6.919
 3353SOL     OW10957   4.170   0.553   6.413
 3353SOL    HW110958   4.235   0.613   6.460
 3353SOL    HW210959   4.087   0.605   6.391
 3354SOL     OW10960   2.257   2.474   0.210
 3354SOL    HW110961   2.286   2.417   0.288
 3354SOL    HW210962   2.173   2.521   0.233
 3355SOL     OW10963   1.412   1.604   4.975
 3355SOL    HW110964   1.448   1.618   4.882
 3355SOL    HW210965   1.353   1.681   4.999
 3356SOL     OW10966   3.248   0.913   5.507
 3356SOL    HW110967   3.312   0.962   5.448
 3356SOL    HW210968   3.283   0.914   5.601
 3357SOL     OW10969   3.142   4.022   4.013
 3357SOL    HW110970   3.082   3.962   3.960
 3357SOL    HW210971   3.127   4.006   4.111
 3358SOL     OW10972   0.235   2.124   1.740
 3358SOL    HW110973   0.149   2.076   1.722
 3358SOL    HW210974   0.312   2.065   1.715
 3359SOL     OW10975   1.132   0.058   4.147
 3359SOL    HW110976   1.228   0.044   4.170
 3359SOL    HW210977   1.101   0.147   4.182
 3360SOL     OW10978   1.475   5.437   5.147
 3360SOL    HW110979   1.493   5.532   5.173
 3360SOL    HW210980   1.385   5.411   5.179
 3361SOL     OW10981   0.433   7.015   4.478
 3361SOL    HW110982   0.390   6.946   4.419
 3361SOL    HW210983   0.516   0.021   4.434
 3362SOL     OW10984   3.007   0.631   4.651
 3362SOL    HW110985   3.040   0.702   4.713
 3362SOL    HW210986   3.064   0.628   4.569
 3363SOL     OW10987   4.328   3.596   0.603
 3363SOL    HW110988   4.404   3.598   0.538
 3363SOL    HW210989   4.362   3.622   0.694
 3364SOL     OW10990   1.673   3.239   1.527
 3364SOL    HW110991   1.580   3.229   1.560
 3364SOL    HW210992   1.681   3.201   1.436
 3365SOL     OW10993   0.936   2.950   3.011
 3365SOL    HW110994   0.996   2.973   3.088
 3365SOL    HW210995   0.889   2.864   3.030
 3366SOL     OW10996   5.802   3.504   4.199
 3366SOL    HW110997   5.865   3.466   4.268
 3366SOL    HW210998   5.853   3.566   4.139
 3367SOL     OW10999   2.958   3.829   3.942
 3367SOL    HW111000   2.943   3.788   3.852
 3367SOL    HW211001   2.898   3.785   4.009
 3368SOL     OW11002   2.082   0.703   3.533
 3368SOL    HW111003   2.141   0.778   3.506
 3368SOL    HW211004   2.120   0.658   3.614
 3369SOL     OW11005   5.316   2.699   1.229
 3369SOL    HW111006   5.385   2.674   1.161
 3369SOL    HW211007   5.280   2.790   1.206
 3370SOL     OW11008   0.595   5.563   3.322
 3370SOL    HW111009   0.501   5.529   3.335
 3370SOL    HW211010   0.619   5.624   3.398
 3371SOL     OW11011   2.409   2.861   1.289
 3371SOL    HW111012   2.359   2.826   1.209
 3371SOL    HW211013   2.374   2.952   1.312
 3372SOL     OW11014   5.230   2.660   2.946
 3372SOL    HW111015   5.166   2.602   2.996
 3372SOL    HW211016   5.254   2.616   2.860
 3373SOL     OW11017   0.562   4.567   0.544
 3373SOL    HW111018   0.643   4.509   0.539
 3373SOL    HW211019   0.586   4.660   0.513
 3374SOL     OW11020   1.238   5.609   4.146
 3374SOL    HW111021   1.239   5.609   4.246
 3374SOL    HW211022   1.323   5.650   4.111
 3375SOL     OW11023   6.907   6.649   5.826
 3375SOL    HW111024   6.864   6.631   5.914
 3375SOL    HW211025   6.836   6.673   5.759
 3376SOL     OW11026   3.766   4.013   4.708
 3376SOL    HW111027   3.844   3.989   4.766
 3376SOL    HW211028   3.720   4.093   4.747
 3377SOL     OW11029   0.175   5.439   4.053
 3377SOL    HW111030   0.232   5.436   4.135
 3377SOL    HW211031   0.233   5.438   3.972
 3378SOL     OW11032   1.239   5.561   0.379
 3378SOL    HW111033   1.178   5.588   0.304
 3378SOL    HW211034   1.211   5.609   0.463
 3379SOL     OW11035   5.755   4.649   3.939
 3379SOL    HW111036   5.722   4.617   4.028
 3379SOL    HW211037   5.770   4.570   3.880
 3380SOL     OW11038   1.708   5.081   1.891
 3380SOL    HW111039   1.787   5.118   1.940
 3380SOL    HW211040   1.634   5.064   1.955
 3381SOL     OW11041   2.959   3.878   6.825
 3381SOL    HW111042   2.933   3.808   6.758
 3381SOL    HW211043   2.904   3.960   6.810
 3382SOL     OW11044   0.377   3.909   6.604
 3382SOL    HW111045   0.347   3.996   6.645
 3382SOL    HW211046   0.424   3.854   6.673
 3383SOL     OW11047   3.170   6.015   0.483
 3383SOL    HW111048   3.155   6.037   0.386
 3383SOL    HW211049   3.260   5.974   0.494
 3384SOL     OW11050   3.015   2.758   6.783
 3384SOL    HW111051   3.072   2.692   6.831
 3384SOL    HW211052   3.057   2.779   6.694
 3385SOL     OW11053   5.619   2.691   4.576
 3385SOL    HW111054   5.549   2.638   4.624
 3385SOL    HW211055   5.578   2.739   4.498
 3386SOL     OW11056   0.201   5.061   5.533
 3386SOL    HW111057   0.122   5.089   5.478
 3386SOL    HW211058   0.175   5.057   5.630
 3387SOL     OW11059   6.048   0.332   3.181
 3387SOL    HW111060   6.063   0.265   3.109
 3387SOL    HW211061   6.049   0.286   3.270
 3388SOL     OW11062   1.059   3.757   0.380
 3388SOL    HW111063   1.014   3.840   0.412
 3388SOL    HW211064   1.003   3.678   0.402
 3389SOL     OW11065   6.513   5.163   5.920
 3389SOL    HW111066   6.418   5.194   5.932
 3389SOL    HW211067   6.514   5.064   5.908
 3390SOL     OW11068   2.925   5.395   1.109
 3390SOL    HW111069   2.916   5.475   1.051
 3390SOL    HW211070   2.967   5.321   1.057
 3391SOL     OW11071   5.377   4.022   5.853
 3391SOL    HW111072   5.391   3.925   5.832
 3391SOL    HW211073   5.455   4.057   5.904
 3392SOL     OW11074   4.838   6.004   5.749
 3392SOL    HW111075   4.858   6.018   5.653
 3392SOL    HW211076   4.869   6.083   5.802
 3393SOL     OW11077   3.645   0.384   0.865
 3393SOL    HW111078   3.702   0.302   0.874
 3393SOL    HW211079   3.638   0.409   0.769
 3394SOL     OW11080   2.735   6.460   1.516
 3394SOL    HW111081   2.765   6.459   1.612
 3394SOL    HW211082   2.786   6.390   1.465
 3395SOL     OW11083   1.978   6.126   3.267
 3395SOL    HW111084   2.072   6.133   3.231
 3395SOL    HW211085   1.980   6.089   3.359
 3396SOL     OW11086   4.243   0.915   4.371
 3396SOL    HW111087   4.216   0.911   4.468
 3396SOL    HW211088   4.287   0.829   4.346
 3397SOL     OW11089   2.095   6.371   1.273
 3397SOL    HW111090   2.037   6.422   1.210
 3397SOL    HW211091   2.145   6.300   1.223
 3398SOL     OW11092   6.501   0.853   0.132
 3398SOL    HW111093   6.420   0.836   0.076
 3398SOL    HW211094   6.473   0.891   0.221
 3399SOL     OW11095   0.137   5.929   2.023
 3399SOL    HW111096   0.222   5.936   2.075
 3399SOL    HW211097   0.118   5.833   2.002
 3400SOL     OW11098   3.653   2.979   5.884
 3400SOL    HW111099   3.682   2.915   5.812
 3400SOL    HW211100   3.559   2.958   5.911
 3401SOL     OW11101   6.755   3.547   4.139
 3401SOL    HW111102   6.709   3.574   4.224
 3401SOL    HW211103   6.811   3.466   4.155
 3402SOL     OW11104   5.544   3.646   6.930
 3402SOL    HW111105   5.512   3.719   6.869
 3402SOL    HW211106   5.499   3.560   6.905
 3403SOL     OW11107   5.623   6.960   4.387
 3403SOL    HW111108   5.575   0.019   4.380
 3403SOL    HW211109   5.560   6.885   4.364
 3404SOL     OW11110   5.614   4.727   3.215
 3404SOL    HW111111   5.597   4.635   3.248
 3404SOL    HW211112   5.539   4.787   3.242
 3405SOL     OW11113   4.073   6.589   1.593
 3405SOL    HW111114   4.142   6.555   1.657
 3405SOL    HW211115   3.983   6.557   1.621
 3406SOL     OW11116   4.344   4.996   1.090
 3406SOL    HW111117   4.356   4.918   1.152
 3406SOL    HW211118   4.273   4.974   1.023
 3407SOL     OW11119   1.347   2.545   0.686
 3407SOL    HW111120   1.253   2.554   0.651
 3407SOL    HW211121   1.392   2.468   0.642
 3408SOL     OW11122   3.951   6.894   3.792
 3408SOL    HW111123   3.878   6.869   3.728
 3408SOL    HW211124   3.923   6.873   3.885
 3409SOL     OW11125   4.348   1.969   6.571
 3409SOL    HW111126   4.381   2.008   6.485
 3409SOL    HW211127   4.336   2.041   6.639
 3410SOL     OW11128   6.694   0.546   2.737
 3410SOL    HW111129   6.671   0.614   2.667
 3410SOL    HW211130   6.690   0.588   2.827
 3411SOL     OW11131   5.716   3.513   6.424
 3411SOL    HW111132   5.783   3.518   6.498
 3411SOL    HW211133   5.663   3.428   6.433
 3412SOL     OW11134   5.126   3.236   3.607
 3412SOL    HW111135   5.091   3.288   3.685
 3412SOL    HW211136   5.157   3.300   3.536
 3413SOL     OW11137   1.021   2.458   1.301
 3413SOL    HW111138   0.953   2.526   1.328
 3413SOL    HW211139   1.054   2.411   1.383
 3414SOL     OW11140   3.945   2.947   1.986
 3414SOL    HW111141   4.008   2.973   2.059
 3414SOL    HW211142   3.968   2.998   1.902
 3415SOL     OW11143   2.570   0.923   6.652
 3415SOL    HW111144   2.488   0.881   6.612
 3415SOL    HW211145   2.553   0.943   6.749
 3416SOL     OW11146   5.285   6.722   5.736
 3416SOL    HW111147   5.317   6.674   5.819
 3416SOL    HW211148   5.188   6.743   5.745
 3417SOL     OW11149   6.083   1.001   2.636
 3417SOL    HW111150   6.035   1.071   2.583
 3417SOL    HW211151   6.178   0.996   2.605
 3418SOL     OW11152   4.270   5.415   0.943
 3418SOL    HW111153   4.206   5.435   1.017
 3418SOL    HW211154   4.341   5.354   0.977
 3419SOL     OW11155   3.063   4.629   5.391
 3419SOL    HW111156   2.997   4.593   5.326
 3419SOL    HW211157   3.041   4.724   5.413
 3420SOL     OW11158   4.026   1.433   1.452
 3420SOL    HW111159   4.105   1.372   1.458
 3420SOL    HW211160   4.058   1.526   1.435
 3421SOL     OW11161   0.475   1.280   4.355
 3421SOL    HW111162   0.534   1.208   4.318
 3421SOL    HW211163   0.394   1.290   4.296
 3422SOL     OW11164   3.108   5.612   1.547
 3422SOL    HW111165   3.070   5.632   1.457
 3422SOL    HW211166   3.071   5.526   1.581
 3423SOL     OW11167   1.802   4.541   6.390
 3423SOL    HW111168   1.770   4.490   6.470
 3423SOL    HW211169   1.829   4.477   6.319
 3424SOL     OW11170   5.564   6.418   2.735
 3424SOL    HW111171   5.532   6.473   2.657
 3424SOL    HW211172   5.571   6.322   2.708
 3425SOL     OW11173   5.452   2.793   6.453
 3425SOL    HW111174   5.499   2.772   6.367
 3425SOL    HW211175   5.443   2.710   6.507
 3426SOL     OW11176   6.669   5.514   6.756
 3426SOL    HW111177   6.709   5.544   6.842
 3426SOL    HW211178   6.570   5.530   6.758
 3427SOL     OW11179   1.652   1.662   6.763
 3427SOL    HW111180   1.735   1.711   6.736
 3427SOL    HW211181   1.650   1.572   6.719
 3428SOL     OW11182   4.461   0.386   4.048
 3428SOL    HW111183   4.449   0.289   4.025
 3428SOL    HW211184   4.376   0.422   4.085
 3429SOL     OW11185   4.462   5.788   0.590
 3429SOL    HW111186   4.375   5.837   0.595
 3429SOL    HW211187   4.536   5.853   0.576
 3430SOL     OW11188   2.332   4.412   6.857
 3430SOL    HW111189   2.323   4.324   6.904
 3430SOL    HW211190   2.414   4.458   6.889
 3431SOL     OW11191   1.254   4.521   2.351
 3431SOL    HW111192   1.242   4.428   2.384
 3431SOL    HW211193   1.305   4.520   2.266
 3432SOL     OW11194   0.207   5.186   6.450
 3432SOL    HW111195   0.165   5.098   6.425
 3432SOL    HW211196   0.182   5.209   6.544
 3433SOL     OW11197   0.965   1.213   0.317
 3433SOL    HW111198   0.932   1.136   0.370
 3433SOL    HW211199   1.061   1.199   0.293
 3434SOL     OW11200   4.299   2.327   2.163
 3434SOL    HW111201   4.256   2.268   2.094
 3434SOL    HW211202   4.229   2.383   2.207
 3435SOL     OW11203   2.685   2.899   1.143
 3435SOL    HW111204   2.774   2.856   1.158
 3435SOL    HW211205   2.645   2.924   1.232
 3436SOL     OW11206   4.436   5.520   5.339
 3436SOL    HW111207   4.525   5.534   5.382
 3436SOL    HW211208   4.381   5.603   5.348
 3437SOL     OW11209   1.730   6.561   0.300
 3437SOL    HW111210   1.732   6.546   0.201
 3437SOL    HW211211   1.821   6.588   0.332
 3438SOL     OW11212   2.342   4.441   0.130
 3438SOL    HW111213   2.347   4.519   0.068
 3438SOL    HW211214   2.421   4.382   0.116
 3439SOL     OW11215   3.003   6.212   1.161
 3439SOL    HW111216   3.022   6.159   1.079
 3439SOL    HW211217   2.995   6.309   1.137
 3440SOL     OW11218   4.035   4.111   5.576
 3440SOL    HW111219   4.049   4.033   5.636
 3440SOL    HW211220   3.938   4.117   5.551
 3441SOL     OW11221   6.973   5.000   5.142
 3441SOL    HW111222   6.961   5.044   5.231
 3441SOL    HW211223   7.014   5.064   5.078
 3442SOL     OW11224   0.732   2.113   0.315
 3442SOL    HW111225   0.813   2.170   0.302
 3442SOL    HW211226   0.709   2.068   0.228
 3443SOL     OW11227   6.876   5.632   2.206
 3443SOL    HW111228   6.864   5.581   2.291
 3443SOL    HW211229   6.971   5.626   2.177
 3444SOL     OW11230   0.867   3.859   6.395
 3444SOL    HW111231   0.850   3.778   6.451
 3444SOL    HW211232   0.966   3.879   6.394
 3445SOL     OW11233   6.265   5.478   4.549
 3445SOL    HW111234   6.202   5.415   4.504
 3445SOL    HW211235   6.319   5.428   4.617
 3446SOL     OW11236   5.079   1.866   0.263
 3446SOL    HW111237   5.089   1.790   0.327
 3446SOL    HW211238   5.003   1.924   0.292
 3447SOL     OW11239   5.481   1.684   5.554
 3447SOL    HW111240   5.465   1.629   5.472
 3447SOL    HW211241   5.519   1.773   5.529
 3448SOL     OW11242   0.913   5.518   5.117
 3448SOL    HW111243   0.999   5.551   5.077
 3448SOL    HW211244   0.932   5.471   5.203
 3449SOL     OW11245   1.849   3.773   4.670
 3449SOL    HW111246   1.914   3.781   4.745
 3449SOL    HW211247   1.856   3.681   4.630
 3450SOL     OW11248   2.292   6.832   2.455
 3450SOL    HW111249   2.279   6.760   2.524
 3450SOL    HW211250   2.351   6.798   2.382
 3451SOL     OW11251   2.070   1.867   0.715
 3451SOL    HW111252   1.999   1.937   0.725
 3451SOL    HW211253   2.156   1.902   0.752
 3452SOL     OW11254   4.877   1.011   5.574
 3452SOL    HW111255   4.828   1.078   5.519
 3452SOL    HW211256   4.816   0.974   5.644
 3453SOL     OW11257   4.503   6.069   5.138
 3453SOL    HW111258   4.504   6.070   5.238
 3453SOL    HW211259   4.582   6.119   5.103
 3454SOL     OW11260   0.928   3.164   3.613
 3454SOL    HW111261   0.995   3.107   3.565
 3454SOL    HW211262   0.861   3.106   3.659
 3455SOL     OW11263   1.552   4.112   6.321
 3455SOL    HW111264   1.641   4.107   6.274
 3455SOL    HW211265   1.515   4.205   6.312
 3456SOL     OW11266   4.081   5.337   2.338
 3456SOL    HW111267   4.173   5.364   2.369
 3456SOL    HW211268   4.076   5.343   2.238
 3457SOL     OW11269   3.984   3.882   6.952
 3457SOL    HW111270   3.975   3.964   7.009
 3457SOL    HW211271   3.921   3.811   6.986
 3458SOL     OW11272   4.336   1.895   0.970
 3458SOL    HW111273   4.291   1.940   0.893
 3458SOL    HW211274   4.277   1.901   1.051
 3459SOL     OW11275   6.708   0.264   2.895
 3459SOL    HW111276   6.784   0.223   2.843
 3459SOL    HW211277   6.621   0.239   2.853
 3460SOL     OW11278   4.519   1.490   5.227
 3460SOL    HW111279   4.507   1.548   5.146
 3460SOL    HW211280   4.544   1.398   5.198
 3461SOL     OW11281   4.215   4.678   3.581
 3461SOL    HW111282   4.195   4.745   3.509
 3461SOL    HW211283   4.181   4.713   3.669
 3462SOL     OW11284   0.902   4.645   6.733
 3462SOL    HW111285   0.931   4.636   6.638
 3462SOL    HW211286   0.935   4.732   6.770
 3463SOL     OW11287   5.696   4.498   6.980
 3463SOL    HW111288   5.671   4.592   7.001
 3463SOL    HW211289   5.791   4.481   7.006
 3464SOL     OW11290   6.611   5.063   3.865
 3464SOL    HW111291   6.662   5.041   3.948
 3464SOL    HW211292   6.666   5.039   3.784
 3465SOL     OW11293   0.833   2.634   1.406
 3465SOL    HW111294   0.839   2.691   1.488
 3465SOL    HW211295   0.741   2.593   1.401
 3466SOL     OW11296   5.954   3.780   3.202
 3466SOL    HW111297   6.034   3.790   3.261
 3466SOL    HW211298   5.978   3.723   3.123
 3467SOL     OW11299   1.788   1.878   5.571
 3467SOL    HW111300   1.704   1.884   5.624
 3467SOL    HW211301   1.823   1.784   5.575
 3468SOL     OW11302   4.918   5.172   1.740
 3468SOL    HW111303   4.995   5.170   1.677
 3468SOL    HW211304   4.948   5.207   1.829
 3469SOL     OW11305   5.208   3.794   0.012
 3469SOL    HW111306   5.214   3.856   6.961
 3469SOL    HW211307   5.271   3.825   0.083
 3470SOL     OW11308   6.458   5.705   0.098
 3470SOL    HW111309   6.381   5.644   0.115
 3470SOL    HW211310   6.429   5.800   0.105
 3471SOL     OW11311   4.728   6.509   4.680
 3471SOL    HW111312   4.652   6.573   4.694
 3471SOL    HW211313   4.792   6.516   4.756
 3472SOL     OW11314   3.700   0.139   4.595
 3472SOL    HW111315   3.638   0.093   4.531
 3472SOL    HW211316   3.788   0.092   4.596
 3473SOL     OW11317   4.723   6.367   4.103
 3473SOL    HW111318   4.623   6.364   4.107
 3473SOL    HW211319   4.753   6.373   4.007
 3474SOL     OW11320   4.545   4.541   6.981
 3474SOL    HW111321   4.585   4.507   0.038
 3474SOL    HW211322   4.618   4.572   6.919
 3475SOL     OW11323   1.341   5.396   5.728
 3475SOL    HW111324   1.384   5.444   5.805
 3475SOL    HW211325   1.310   5.463   5.661
 3476SOL     OW11326   3.560   1.931   3.396
 3476SOL    HW111327   3.532   1.875   3.318
 3476SOL    HW211328   3.495   2.006   3.408
 3477SOL     OW11329   4.403   5.513   2.172
 3477SOL    HW111330   4.405   5.438   2.238
 3477SOL    HW211331   4.493   5.520   2.128
 3478SOL     OW11332   3.495   4.513   0.307
 3478SOL    HW111333   3.500   4.550   0.399
 3478SOL    HW211334   3.529   4.418   0.307
 3479SOL     OW11335   1.943   0.745   0.451
 3479SOL    HW111336   1.890   0.700   0.523
 3479SOL    HW211337   1.951   0.843   0.471
 3480SOL     OW11338   1.415   6.517   4.496
 3480SOL    HW111339   1.510   6.500   4.470
 3480SOL    HW211340   1.403   6.614   4.518
 3481SOL     OW11341   2.218   5.212   0.314
 3481SOL    HW111342   2.144   5.254   0.366
 3481SOL    HW211343   2.214   5.243   0.219
 3482SOL     OW11344   0.458   2.337   1.847
 3482SOL    HW111345   0.523   2.288   1.905
 3482SOL    HW211346   0.423   2.275   1.776
 3483SOL     OW11347   3.568   1.327   1.186
 3483SOL    HW111348   3.646   1.390   1.191
 3483SOL    HW211349   3.565   1.283   1.097
 3484SOL     OW11350   3.792   4.047   3.152
 3484SOL    HW111351   3.726   3.975   3.172
 3484SOL    HW211352   3.878   4.027   3.200
 3485SOL     OW11353   5.881   2.382   4.137
 3485SOL    HW111354   5.921   2.429   4.058
 3485SOL    HW211355   5.950   2.322   4.177
 3486SOL     OW11356   6.477   1.356   3.065
 3486SOL    HW111357   6.395   1.299   3.060
 3486SOL    HW211358   6.461   1.433   3.126
 3487SOL     OW11359   1.321   0.621   0.962
 3487SOL    HW111360   1.343   0.675   1.043
 3487SOL    HW211361   1.308   0.683   0.884
 3488SOL     OW11362   6.376   3.782   5.018
 3488SOL    HW111363   6.469   3.819   5.017
 3488SOL    HW211364   6.379   3.684   5.001
 3489SOL     OW11365   2.919   5.334   6.954
 3489SOL    HW111366   2.995   5.315   6.893
 3489SOL    HW211367   2.861   5.405   6.915
 3490SOL     OW11368   4.922   3.680   0.112
 3490SOL    HW111369   5.002   3.645   0.063
 3490SOL    HW211370   4.931   3.779   0.123
 3491SOL     OW11371   5.842   2.545   4.735
 3491SOL    HW111372   5.841   2.617   4.666
 3491SOL    HW211373   5.865   2.457   4.692
 3492SOL     OW11374   6.759   4.290   6.580
 3492SOL    HW111375   6.764   4.361   6.509
 3492SOL    HW211376   6.831   4.222   6.564
 3493SOL     OW11377   6.322   4.807   0.916
 3493SOL    HW111378   6.369   4.894   0.903
 3493SOL    HW211379   6.307   4.763   0.828
 3494SOL     OW11380   3.522   6.692   1.032
 3494SOL    HW111381   3.493   6.784   1.055
 3494SOL    HW211382   3.480   6.626   1.094
 3495SOL     OW11383   6.105   4.728   6.310
 3495SOL    HW111384   6.090   4.629   6.313
 3495SOL    HW211385   6.202   4.748   6.320
 3496SOL     OW11386   0.456   6.057   1.003
 3496SOL    HW111387   0.415   6.146   0.987
 3496SOL    HW211388   0.512   6.060   1.085
 3497SOL     OW11389   2.878   0.064   5.044
 3497SOL    HW111390   2.926   7.019   5.092
 3497SOL    HW211391   2.779   0.047   5.047
 3498SOL     OW11392   0.912   1.920   0.202
 3498SOL    HW111393   0.883   2.013   0.222
 3498SOL    HW211394   0.902   1.863   0.284
 3499SOL     OW11395   6.583   4.034   3.406
 3499SOL    HW111396   6.591   3.960   3.473
 3499SOL    HW211397   6.586   3.996   3.314
 3500SOL     OW11398   6.550   2.865   1.060
 3500SOL    HW111399   6.588   2.897   1.147
 3500SOL    HW211400   6.618   2.876   0.988
 3501SOL     OW11401   0.191   5.068   3.460
 3501SOL    HW111402   0.105   5.018   3.469
 3501SOL    HW211403   0.251   5.021   3.395
 3502SOL     OW11404   1.141   6.297   1.005
 3502SOL    HW111405   1.059   6.335   0.963
 3502SOL    HW211406   1.196   6.251   0.935
 3503SOL     OW11407   3.403   0.175   3.399
 3503SOL    HW111408   3.388   0.158   3.302
 3503SOL    HW211409   3.451   0.097   3.440
 3504SOL     OW11410   2.144   2.960   2.764
 3504SOL    HW111411   2.164   2.959   2.862
 3504SOL    HW211412   2.073   3.028   2.746
 3505SOL     OW11413   4.341   6.464   4.730
 3505SOL    HW111414   4.391   6.378   4.721
 3505SOL    HW211415   4.288   6.463   4.815
 3506SOL     OW11416   6.928   3.983   2.598
 3506SOL    HW111417   7.019   3.948   2.620
 3506SOL    HW211418   6.929   4.083   2.598
 3507SOL     OW11419   6.833   0.314   5.822
 3507SOL    HW111420   6.868   0.365   5.743
 3507SOL    HW211421   6.808   0.221   5.793
 3508SOL     OW11422   6.867   4.468   0.192
 3508SOL    HW111423   6.959   4.430   0.194
 3508SOL    HW211424   6.849   4.507   0.102
 3509SOL     OW11425   5.083   6.887   6.700
 3509SOL    HW111426   5.164   6.935   6.667
 3509SOL    HW211427   5.059   6.920   6.791
 3510SOL     OW11428   2.265   1.136   2.807
 3510SOL    HW111429   2.253   1.234   2.793
 3510SOL    HW211430   2.199   1.103   2.875
 3511SOL     OW11431   0.954   0.684   4.017
 3511SOL    HW111432   0.994   0.757   3.962
 3511SOL    HW211433   0.929   0.721   4.107
 3512SOL     OW11434   3.579   3.383   1.751
 3512SOL    HW111435   3.655   3.445   1.772
 3512SOL    HW211436   3.497   3.413   1.800
 3513SOL     OW11437   6.538   4.396   1.087
 3513SOL    HW111438   6.459   4.457   1.094
 3513SOL    HW211439   6.617   4.440   1.130
 3514SOL     OW11440   3.386   5.900   3.219
 3514SOL    HW111441   3.305   5.871   3.168
 3514SOL    HW211442   3.455   5.827   3.217
 3515SOL     OW11443   3.653   5.556   3.571
 3515SOL    HW111444   3.650   5.656   3.571
 3515SOL    HW211445   3.682   5.523   3.481
 3516SOL     OW11446   1.407   1.212   0.348
 3516SOL    HW111447   1.363   1.290   0.393
 3516SOL    HW211448   1.337   1.150   0.314
 3517SOL     OW11449   0.530   0.640   0.174
 3517SOL    HW111450   0.441   0.606   0.203
 3517SOL    HW211451   0.578   0.570   0.122
 3518SOL     OW11452   4.028   3.640   6.229
 3518SOL    HW111453   4.046   3.596   6.316
 3518SOL    HW211454   4.104   3.622   6.166
 3519SOL     OW11455   3.970   0.593   0.268
 3519SOL    HW111456   4.037   0.607   0.341
 3519SOL    HW211457   3.884   0.562   0.308
 3520SOL     OW11458   3.924   4.816   1.505
 3520SOL    HW111459   3.900   4.866   1.422
 3520SOL    HW211460   4.021   4.827   1.525
 3521SOL     OW11461   6.906   2.143   5.724
 3521SOL    HW111462   6.949   2.115   5.638
 3521SOL    HW211463   6.811   2.168   5.708
 3522SOL     OW11464   1.971   0.692   0.954
 3522SOL    HW111465   2.071   0.706   0.955
 3522SOL    HW211466   1.946   0.627   1.025
 3523SOL     OW11467   2.419   4.512   5.229
 3523SOL    HW111468   2.397   4.415   5.236
 3523SOL    HW211469   2.381   4.549   5.145
 3524SOL     OW11470   3.066   1.678   3.367
 3524SOL    HW111471   3.031   1.588   3.342
 3524SOL    HW211472   3.129   1.670   3.444
 3525SOL     OW11473   1.342   2.952   3.289
 3525SOL    HW111474   1.352   2.854   3.273
 3525SOL    HW211475   1.252   2.982   3.256
 3526SOL     OW11476   3.345   6.036   3.471
 3526SOL    HW111477   3.398   5.997   3.396
 3526SOL    HW211478   3.248   6.026   3.452
 3527SOL     OW11479   6.464   3.927   6.657
 3527SOL    HW111480   6.451   3.898   6.752
 3527SOL    HW211481   6.518   3.859   6.609
 3528SOL     OW11482   1.081   0.154   4.535
 3528SOL    HW111483   1.142   0.207   4.475
 3528SOL    HW211484   1.011   0.214   4.572
 3529SOL     OW11485   3.460   5.589   0.419
 3529SOL    HW111486   3.527   5.528   0.376
 3529SOL    HW211487   3.402   5.630   0.349
 3530SOL     OW11488   2.066   5.633   2.988
 3530SOL    HW111489   1.989   5.573   2.965
 3530SOL    HW211490   2.152   5.583   2.976
 3531SOL     OW11491   5.003   4.668   6.986
 3531SOL    HW111492   5.057   4.592   6.952
 3531SOL    HW211493   5.060   4.750   6.993
 3532SOL     OW11494   2.351   6.284   0.221
 3532SOL    HW111495   2.436   6.266   0.172
 3532SOL    HW211496   2.286   6.210   0.202
 3533SOL     OW11497   1.148   1.015   3.218
 3533SOL    HW111498   1.232   0.969   3.245
 3533SOL    HW211499   1.132   1.094   3.278
 3534SOL     OW11500   5.220   0.068   4.123
 3534SOL    HW111501   5.180   0.029   4.206
 3534SOL    HW211502   5.261   7.023   4.068
 3535SOL     OW11503   4.712   5.268   0.134
 3535SOL    HW111504   4.677   5.208   0.062
 3535SOL    HW211505   4.638   5.292   0.197
 3536SOL     OW11506   2.085   3.599   2.589
 3536SOL    HW111507   2.074   3.507   2.553
 3536SOL    HW211508   2.001   3.627   2.635
 3537SOL     OW11509   3.256   4.870   2.177
 3537SOL    HW111510   3.189   4.848   2.106
 3537SOL    HW211511   3.287   4.785   2.220
 3538SOL     OW11512   3.488   0.383   3.146
 3538SOL    HW111513   3.523   0.385   3.240
 3538SOL    HW211514   3.448   0.294   3.127
 3539SOL     OW11515   5.027   5.274   5.123
 3539SOL    HW111516   5.081   5.215   5.183
 3539SOL    HW211517   4.937   5.232   5.107
 3540SOL     OW11518   4.440   4.285   6.509
 3540SOL    HW111519   4.511   4.323   6.568
 3540SOL    HW211520   4.352   4.326   6.532
 3541SOL     OW11521   0.323   2.779   2.581
 3541SOL    HW111522   0.331   2.702   2.644
 3541SOL    HW211523   0.294   2.747   2.492
 3542SOL     OW11524   5.615   1.604   6.901
 3542SOL    HW111525   5.524   1.606   6.860
 3542SOL    HW211526   5.621   1.675   6.971
 3543SOL     OW11527   0.278   3.040   4.308
 3543SOL    HW111528   0.232   3.086   4.232
 3543SOL    HW211529   0.350   2.980   4.272
 3544SOL     OW11530   3.171   4.519   5.954
 3544SOL    HW111531   3.236   4.460   5.907
 3544SOL    HW211532   3.083   4.518   5.906
 3545SOL     OW11533   2.549   0.041   0.904
 3545SOL    HW111534   2.486   0.119   0.908
 3545SOL    HW211535   2.577   0.017   0.997
 3546SOL     OW11536   6.780   4.712   0.800
 3546SOL    HW111537   6.838   4.650   0.852
 3546SOL    HW211538   6.732   4.662   0.728
 3547SOL     OW11539   1.447   4.061   4.732
 3547SOL    HW111540   1.437   4.021   4.641
 3547SOL    HW211541   1.531   4.027   4.775
 3548SOL     OW11542   6.438   0.408   5.791
 3548SOL    HW111543   6.523   0.412   5.843
 3548SOL    HW211544   6.451   0.451   5.702
 3549SOL     OW11545   2.055   6.978   6.449
 3549SOL    HW111546   2.037   6.900   6.389
 3549SOL    HW211547   2.090   6.945   6.537
 3550SOL     OW11548   6.148   2.232   5.460
 3550SOL    HW111549   6.157   2.256   5.363
 3550SOL    HW211550   6.104   2.143   5.468
 3551SOL     OW11551   6.312   0.905   4.694
 3551SOL    HW111552   6.389   0.968   4.699
 3551SOL    HW211553   6.312   0.845   4.774
 3552SOL     OW11554   6.752   1.133   3.424
 3552SOL    HW111555   6.842   1.158   3.460
 3552SOL    HW211556   6.721   1.049   3.468
 3553SOL     OW11557   5.308   6.034   6.067
 3553SOL    HW111558   5.367   6.111   6.092
 3553SOL    HW211559   5.215   6.051   6.100
 3554SOL     OW11560   5.454   4.013   6.178
 3554SOL    HW111561   5.535   3.967   6.141
 3554SOL    HW211562   5.392   3.945   6.218
 3555SOL     OW11563   2.759   0.948   5.437
 3555SOL    HW111564   2.789   0.854   5.421
 3555SOL    HW211565   2.776   1.003   5.355
 3556SOL     OW11566   5.790   1.851   0.718
 3556SOL    HW111567   5.815   1.817   0.809
 3556SOL    HW211568   5.845   1.931   0.696
 3557SOL     OW11569   4.876   6.837   1.515
 3557SOL    HW111570   4.963   6.841   1.564
 3557SOL    HW211571   4.811   6.780   1.566
 3558SOL     OW11572   3.922   5.522   2.531
 3558SOL    HW111573   4.018   5.502   2.553
 3558SOL    HW211574   3.914   5.545   2.434
 3559SOL     OW11575   4.304   6.334   6.307
 3559SOL    HW111576   4.310   6.258   6.243
 3559SOL    HW211577   4.306   6.299   6.401
 3560SOL     OW11578   2.175   6.016   4.548
 3560SOL    HW111579   2.260   6.012   4.600
 3560SOL    HW211580   2.177   5.948   4.475
 3561SOL     OW11581   3.795   2.704   5.838
 3561SOL    HW111582   3.849   2.746   5.911
 3561SOL    HW211583   3.839   2.720   5.750
 3562SOL     OW11584   2.887   0.881   0.362
 3562SOL    HW111585   2.933   0.872   0.450
 3562SOL    HW211586   2.935   0.827   0.293
 3563SOL     OW11587   6.821   2.267   6.830
 3563SOL    HW111588   6.797   2.317   6.913
 3563SOL    HW211589   6.775   2.178   6.830
 3564SOL     OW11590   6.190   3.552   2.966
 3564SOL    HW111591   6.181   3.468   2.913
 3564SOL    HW211592   6.189   3.631   2.904
 3565SOL     OW11593   5.302   6.991   4.748
 3565SOL    HW111594   5.331   0.051   4.785
 3565SOL    HW211595   5.332   6.918   4.810
 3566SOL     OW11596   0.727   1.243   5.023
 3566SOL    HW111597   0.628   1.237   5.031
 3566SOL    HW211598   0.752   1.280   4.933
 3567SOL     OW11599   0.387   4.384   6.615
 3567SOL    HW111600   0.350   4.342   6.698
 3567SOL    HW211601   0.351   4.476   6.605
 3568SOL     OW11602   3.404   4.152   5.537
 3568SOL    HW111603   3.359   4.225   5.485
 3568SOL    HW211604   3.449   4.190   5.617
 3569SOL     OW11605   1.139   0.727   3.087
 3569SOL    HW111606   1.189   0.732   3.001
 3569SOL    HW211607   1.197   0.760   3.162
 3570SOL     OW11608   0.076   2.034   4.695
 3570SOL    HW111609   0.001   2.048   4.631
 3570SOL    HW211610   0.108   2.123   4.729
 3571SOL     OW11611   6.623   5.161   5.058
 3571SOL    HW111612   6.614   5.135   5.154
 3571SOL    HW211613   6.533   5.176   5.019
 3572SOL     OW11614   6.032   6.765   5.327
 3572SOL    HW111615   5.954   6.804   5.375
 3572SOL    HW211616   6.016   6.769   5.228
 3573SOL     OW11617   0.695   2.527   2.021
 3573SOL    HW111618   0.678   2.433   2.051
 3573SOL    HW211619   0.638   2.590   2.075
 3574SOL     OW11620   6.883   3.739   6.885
 3574SOL    HW111621   6.789   3.706   6.891
 3574SOL    HW211622   6.924   3.742   6.976
 3575SOL     OW11623   6.442   0.258   2.440
 3575SOL    HW111624   6.428   0.338   2.382
 3575SOL    HW211625   6.354   0.228   2.477
 3576SOL     OW11626   0.927   1.166   0.823
 3576SOL    HW111627   0.971   1.233   0.763
 3576SOL    HW211628   0.975   1.166   0.911
 3577SOL     OW11629   2.329   4.998   0.038
 3577SOL    HW111630   2.368   5.004   6.974
 3577SOL    HW211631   2.281   5.083   0.060
 3578SOL     OW11632   3.403   4.627   1.608
 3578SOL    HW111633   3.452   4.630   1.695
 3578SOL    HW211634   3.318   4.575   1.620
 3579SOL     OW11635   1.848   3.103   6.081
 3579SOL    HW111636   1.821   3.150   6.164
 3579SOL    HW211637   1.948   3.107   6.072
 3580SOL     OW11638   5.841   2.036   1.575
 3580SOL    HW111639   5.825   2.048   1.477
 3580SOL    HW211640   5.859   1.940   1.595
 3581SOL     OW11641   0.073   1.038   2.702
 3581SOL    HW111642   0.047   0.941   2.708
 3581SOL    HW211643   0.166   1.045   2.665
 3582SOL     OW11644   0.460   0.145   5.787
 3582SOL    HW111645   0.376   0.114   5.743
 3582SOL    HW211646   0.492   0.075   5.851
 3583SOL     OW11647   1.444   6.666   1.448
 3583SOL    HW111648   1.474   6.720   1.369
 3583SOL    HW211649   1.378   6.597   1.417
 3584SOL     OW11650   5.265   0.327   4.528
 3584SOL    HW111651   5.172   0.307   4.497
 3584SOL    HW211652   5.264   0.409   4.586
 3585SOL     OW11653   2.704   4.698   3.873
 3585SOL    HW111654   2.651   4.644   3.938
 3585SOL    HW211655   2.659   4.786   3.859
 3586SOL     OW11656   1.016   1.100   6.839
 3586SOL    HW111657   1.013   1.198   6.820
 3586SOL    HW211658   1.072   1.054   6.770
 3587SOL     OW11659   3.683   6.909   6.011
 3587SOL    HW111660   3.593   6.909   6.054
 3587SOL    HW211661   3.712   6.814   5.994
 3588SOL     OW11662   2.674   2.444   5.669
 3588SOL    HW111663   2.695   2.489   5.583
 3588SOL    HW211664   2.702   2.348   5.664
 3589SOL     OW11665   3.204   6.462   5.047
 3589SOL    HW111666   3.259   6.532   5.000
 3589SOL    HW211667   3.154   6.505   5.122
 3590SOL     OW11668   1.040   5.178   0.136
 3590SOL    HW111669   1.069   5.201   0.229
 3590SOL    HW211670   0.942   5.197   0.126
 3591SOL     OW11671   5.189   1.148   5.257
 3591SOL    HW111672   5.274   1.156   5.308
 3591SOL    HW211673   5.140   1.235   5.260
 3592SOL     OW11674   5.363   1.854   1.755
 3592SOL    HW111675   5.398   1.800   1.831
 3592SOL    HW211676   5.367   1.951   1.778
 3593SOL     OW11677   1.241   5.639   4.413
 3593SOL    HW111678   1.265   5.598   4.500
 3593SOL    HW211679   1.216   5.735   4.427
 3594SOL     OW11680   3.928   1.376   4.367
 3594SOL    HW111681   3.906   1.452   4.306
 3594SOL    HW211682   4.025   1.380   4.391
 3595SOL     OW11683   2.476   6.349   6.372
 3595SOL    HW111684   2.421   6.387   6.298
 3595SOL    HW211685   2.428   6.272   6.414
 3596SOL     OW11686   0.048   3.758   3.098
 3596SOL    HW111687   6.999   3.716   3.050
 3596SOL    HW211688   0.117   3.689   3.119
 3597SOL     OW11689   4.120   0.137   4.194
 3597SOL    HW111690   4.136   0.067   4.124
 3597SOL    HW211691   4.207   0.165   4.234
 3598SOL     OW11692   2.101   0.563   0.131
 3598SOL    HW111693   2.107   0.520   0.040
 3598SOL    HW211694   2.019   0.531   0.177
 3599SOL     OW11695   0.259   1.867   4.867
 3599SOL    HW111696   0.319   1.919   4.928
 3599SOL    HW211697   0.216   1.930   4.802
 3600SOL     OW11698   6.391   6.583   1.305
 3600SOL    HW111699   6.383   6.506   1.369
 3600SOL    HW211700   6.307   6.588   1.250
 3601SOL     OW11701   6.753   3.463   5.963
 3601SOL    HW111702   6.788   3.553   5.990
 3601SOL    HW211703   6.734   3.409   6.045
 3602SOL     OW11704   3.224   2.514   1.424
 3602SOL    HW111705   3.131   2.483   1.403
 3602SOL    HW211706   3.288   2.438   1.411
 3603SOL     OW11707   4.051   5.095   4.382
 3603SOL    HW111708   4.075   5.004   4.349
 3603SOL    HW211709   4.003   5.087   4.469
 3604SOL     OW11710   6.118   4.349   3.142
 3604SOL    HW111711   6.045   4.382   3.201
 3604SOL    HW211712   6.183   4.423   3.124
 3605SOL     OW11713   5.852   1.800   6.227
 3605SOL    HW111714   5.846   1.710   6.269
 3605SOL    HW211715   5.948   1.821   6.206
 3606SOL     OW11716   2.007   4.376   2.801
 3606SOL    HW111717   2.030   4.449   2.737
 3606SOL    HW211718   2.091   4.341   2.843
 3607SOL     OW11719   4.377   0.153   5.532
 3607SOL    HW111720   4.332   0.175   5.619
 3607SOL    HW211721   4.325   0.083   5.484
 3608SOL     OW11722   0.504   2.684   3.467
 3608SOL    HW111723   0.407   2.659   3.459
 3608SOL    HW211724   0.511   2.773   3.512
 3609SOL     OW11725   6.997   0.789   3.560
 3609SOL    HW111726   0.009   0.870   3.602
 3609SOL    HW211727   0.029   0.756   3.486
 3610SOL     OW11728   1.777   5.021   5.463
 3610SOL    HW111729   1.727   4.959   5.524
 3610SOL    HW211730   1.857   5.058   5.512
 3611SOL     OW11731   5.197   5.258   5.365
 3611SOL    HW111732   5.281   5.304   5.394
 3611SOL    HW211733   5.124   5.326   5.357
 3612SOL     OW11734   1.618   6.158   0.728
 3612SOL    HW111735   1.593   6.063   0.710
 3612SOL    HW211736   1.694   6.185   0.669
 3613SOL     OW11737   5.090   5.071   6.090
 3613SOL    HW111738   5.098   4.976   6.122
 3613SOL    HW211739   5.174   5.121   6.111
 3614SOL     OW11740   3.324   2.980   4.446
 3614SOL    HW111741   3.316   2.925   4.529
 3614SOL    HW211742   3.345   3.074   4.471
 3615SOL     OW11743   5.513   6.943   5.650
 3615SOL    HW111744   5.459   6.860   5.637
 3615SOL    HW211745   5.502   6.977   5.743
 3616SOL     OW11746   6.343   1.242   4.582
 3616SOL    HW111747   6.250   1.224   4.612
 3616SOL    HW211748   6.408   1.195   4.643
 3617SOL     OW11749   6.921   0.776   0.591
 3617SOL    HW111750   6.981   0.824   0.654
 3617SOL    HW211751   6.964   0.771   0.501
 3618SOL     OW11752   3.295   6.055   6.183
 3618SOL    HW111753   3.362   6.068   6.256
 3618SOL    HW211754   3.230   6.131   6.184
 3619SOL     OW11755   5.465   3.883   3.607
 3619SOL    HW111756   5.428   3.966   3.565
 3619SOL    HW211757   5.426   3.871   3.699
 3620SOL     OW11758   6.160   1.525   5.001
 3620SOL    HW111759   6.072   1.537   4.956
 3620SOL    HW211760   6.178   1.603   5.061
 3621SOL     OW11761   1.241   2.883   5.677
 3621SOL    HW111762   1.318   2.904   5.617
 3621SOL    HW211763   1.275   2.862   5.769
 3622SOL     OW11764   0.741   3.794   0.972
 3622SOL    HW111765   0.789   3.880   0.989
 3622SOL    HW211766   0.728   3.745   1.058
 3623SOL     OW11767   6.535   4.963   4.720
 3623SOL    HW111768   6.629   4.932   4.737
 3623SOL    HW211769   6.475   4.884   4.709
 3624SOL     OW11770   1.950   0.358   1.537
 3624SOL    HW111771   1.947   0.449   1.496
 3624SOL    HW211772   2.001   0.296   1.477
 3625SOL     OW11773   1.222   2.762   4.482
 3625SOL    HW111774   1.167   2.736   4.562
 3625SOL    HW211775   1.315   2.784   4.511
 3626SOL     OW11776   2.443   3.853   5.655
 3626SOL    HW111777   2.460   3.894   5.744
 3626SOL    HW211778   2.451   3.924   5.584
 3627SOL     OW11779   3.322   3.264   4.066
 3627SOL    HW111780   3.242   3.314   4.097
 3627SOL    HW211781   3.362   3.310   3.986
 3628SOL     OW11782   2.423   6.068   4.300
 3628SOL    HW111783   2.507   6.106   4.338
 3628SOL    HW211784   2.403   5.981   4.345
 3629SOL     OW11785   5.634   3.325   4.755
 3629SOL    HW111786   5.663   3.420   4.740
 3629SOL    HW211787   5.713   3.271   4.782
 3630SOL     OW11788   5.837   1.322   5.223
 3630SOL    HW111789   5.871   1.330   5.317
 3630SOL    HW211790   5.813   1.412   5.189
 3631SOL     OW11791   2.007   0.973   4.039
 3631SOL    HW111792   2.035   1.044   3.975
 3631SOL    HW211793   1.912   0.989   4.067
 3632SOL     OW11794   5.014   6.791   6.141
 3632SOL    HW111795   4.958   6.746   6.072
 3632SOL    HW211796   5.087   6.842   6.096
 3633SOL     OW11797   1.067   2.608   5.599
 3633SOL    HW111798   1.019   2.570   5.678
 3633SOL    HW211799   1.091   2.703   5.618
 3634SOL     OW11800   3.197   5.029   5.928
 3634SOL    HW111801   3.223   4.952   5.986
 3634SOL    HW211802   3.276   5.056   5.872
 3635SOL     OW11803   2.269   1.415   4.515
 3635SOL    HW111804   2.292   1.485   4.583
 3635SOL    HW211805   2.350   1.396   4.459
 3636SOL     OW11806   1.414   6.284   1.140
 3636SOL    HW111807   1.394   6.362   1.199
 3636SOL    HW211808   1.341   6.274   1.072
 3637SOL     OW11809   4.795   0.881   2.017
 3637SOL    HW111810   4.801   0.955   2.084
 3637SOL    HW211811   4.879   0.827   2.019
 3638SOL     OW11812   6.529   5.050   3.364
 3638SOL    HW111813   6.556   5.041   3.460
 3638SOL    HW211814   6.588   5.118   3.319
 3639SOL     OW11815   2.751   6.546   0.081
 3639SOL    HW111816   2.825   6.596   0.128
 3639SOL    HW211817   2.693   6.611   0.033
 3640SOL     OW11818   2.430   6.930   1.939
 3640SOL    HW111819   2.448   7.027   1.923
 3640SOL    HW211820   2.373   6.893   1.866
 3641SOL     OW11821   1.816   0.958   4.752
 3641SOL    HW111822   1.834   1.001   4.840
 3641SOL    HW211823   1.739   0.894   4.761
 3642SOL     OW11824   6.107   6.773   2.461
 3642SOL    HW111825   6.017   6.809   2.436
 3642SOL    HW211826   6.104   6.673   2.461
 3643SOL     OW11827   4.023   6.247   4.490
 3643SOL    HW111828   4.035   6.153   4.458
 3643SOL    HW211829   4.024   6.248   4.590
 3644SOL     OW11830   6.388   0.176   1.715
 3644SOL    HW111831   6.426   0.149   1.804
 3644SOL    HW211832   6.290   0.195   1.725
 3645SOL     OW11833   4.319   5.853   3.364
 3645SOL    HW111834   4.318   5.953   3.367
 3645SOL    HW211835   4.340   5.823   3.271
 3646SOL     OW11836   0.318   5.343   4.835
 3646SOL    HW111837   0.335   5.302   4.746
 3646SOL    HW211838   0.394   5.403   4.860
 3647SOL     OW11839   3.005   3.218   1.266
 3647SOL    HW111840   2.943   3.237   1.190
 3647SOL    HW211841   3.036   3.123   1.260
 3648SOL     OW11842   3.009   6.873   3.349
 3648SOL    HW111843   2.913   6.875   3.324
 3648SOL    HW211844   3.059   6.815   3.285
 3649SOL     OW11845   3.459   3.172   2.093
 3649SOL    HW111846   3.542   3.132   2.053
 3649SOL    HW211847   3.483   3.258   2.137
 3650SOL     OW11848   5.817   6.624   0.943
 3650SOL    HW111849   5.756   6.584   0.875
 3650SOL    HW211850   5.773   6.703   0.985
 3651SOL     OW11851   1.741   6.068   2.383
 3651SOL    HW111852   1.791   6.144   2.340
 3651SOL    HW211853   1.711   6.096   2.474
 3652SOL     OW11854   4.452   5.667   2.496
 3652SOL    HW111855   4.483   5.721   2.574
 3652SOL    HW211856   4.374   5.713   2.453
 3653SOL     OW11857   6.641   3.029   4.080
 3653SOL    HW111858   6.723   3.019   4.136
 3653SOL    HW211859   6.641   3.118   4.036
 3654SOL     OW11860   2.185   0.186   1.899
 3654SOL    HW111861   2.137   0.099   1.905
 3654SOL    HW211862   2.279   0.170   1.867
 3655SOL     OW11863   6.621   1.314   3.704
 3655SOL    HW111864   6.609   1.308   3.804
 3655SOL    HW211865   6.556   1.380   3.667
 3656SOL     OW11866   2.377   1.868   3.041
 3656SOL    HW111867   2.467   1.908   3.058
 3656SOL    HW211868   2.382   1.809   2.960
 3657SOL     OW11869   5.033   5.265   1.951
 3657SOL    HW111870   5.124   5.303   1.936
 3657SOL    HW211871   4.988   5.314   2.027
 3658SOL     OW11872   2.431   4.808   5.976
 3658SOL    HW111873   2.489   4.884   6.005
 3658SOL    HW211874   2.377   4.836   5.897
 3659SOL     OW11875   1.140   4.087   6.810
 3659SOL    HW111876   1.237   4.089   6.834
 3659SOL    HW211877   1.130   4.079   6.711
 3660SOL     OW11878   4.460   4.189   0.818
 3660SOL    HW111879   4.528   4.219   0.751
 3660SOL    HW211880   4.419   4.103   0.788
 3661SOL     OW11881   5.800   1.487   1.445
 3661SOL    HW111882   5.845   1.474   1.357
 3661SOL    HW211883   5.724   1.551   1.434
 3662SOL     OW11884   1.598   6.154   4.646
 3662SOL    HW111885   1.526   6.117   4.704
 3662SOL    HW211886   1.587   6.119   4.553
 3663SOL     OW11887   1.439   3.044   6.024
 3663SOL    HW111888   1.462   3.065   6.119
 3663SOL    HW211889   1.507   3.084   5.963
 3664SOL     OW11890   3.599   0.117   2.072
 3664SOL    HW111891   3.639   0.209   2.077
 3664SOL    HW211892   3.504   0.121   2.105
 3665SOL     OW11893   2.175   1.301   5.312
 3665SOL    HW111894   2.140   1.299   5.218
 3665SOL    HW211895   2.175   1.208   5.349
 3666SOL     OW11896   1.323   4.638   3.697
 3666SOL    HW111897   1.367   4.630   3.786
 3666SOL    HW211898   1.294   4.733   3.682
 3667SOL     OW11899   0.656   1.482   0.281
 3667SOL    HW111900   0.613   1.565   0.243
 3667SOL    HW211901   0.755   1.487   0.268
 3668SOL     OW11902   2.305   6.431   2.130
 3668SOL    HW111903   2.238   6.494   2.169
 3668SOL    HW211904   2.258   6.363   2.073
 3669SOL     OW11905   5.479   1.654   3.906
 3669SOL    HW111906   5.393   1.614   3.874
 3669SOL    HW211907   5.469   1.753   3.911
 3670SOL     OW11908   2.675   5.669   6.288
 3670SOL    HW111909   2.694   5.699   6.194
 3670SOL    HW211910   2.587   5.622   6.290
 3671SOL     OW11911   2.149   0.519   3.720
 3671SOL    HW111912   2.203   0.557   3.794
 3671SOL    HW211913   2.169   0.421   3.711
 3672SOL     OW11914   6.243   6.945   0.739
 3672SOL    HW111915   6.167   7.009   0.735
 3672SOL    HW211916   6.278   6.928   0.647
 3673SOL     OW11917   4.633   6.774   6.189
 3673SOL    HW111918   4.663   6.868   6.203
 3673SOL    HW211919   4.535   6.773   6.170
 3674SOL     OW11920   0.920   6.274   0.415
 3674SOL    HW111921   0.940   6.316   0.503
 3674SOL    HW211922   0.904   6.346   0.347
 3675SOL     OW11923   2.398   2.330   4.333
 3675SOL    HW111924   2.358   2.245   4.297
 3675SOL    HW211925   2.492   2.313   4.362
 3676SOL     OW11926   1.351   4.640   2.584
 3676SOL    HW111927   1.410   4.715   2.554
 3676SOL    HW211928   1.315   4.592   2.504
 3677SOL     OW11929   5.980   0.311   3.785
 3677SOL    HW111930   5.960   0.371   3.862
 3677SOL    HW211931   5.948   0.352   3.700
 3678SOL     OW11932   1.481   2.368   4.217
 3678SOL    HW111933   1.396   2.419   4.228
 3678SOL    HW211934   1.474   2.309   4.136
 3679SOL     OW11935   0.016   0.958   1.978
 3679SOL    HW111936   0.097   1.016   1.991
 3679SOL    HW211937   0.035   0.889   1.908
 3680SOL     OW11938   5.944   4.310   4.762
 3680SOL    HW111939   5.904   4.219   4.771
 3680SOL    HW211940   6.039   4.303   4.732
 3681SOL     OW11941   5.275   6.586   4.436
 3681SOL    HW111942   5.273   6.508   4.374
 3681SOL    HW211943   5.199   6.579   4.501
 3682SOL     OW11944   0.563   2.484   6.754
 3682SOL    HW111945   0.488   2.434   6.796
 3682SOL    HW211946   0.563   2.579   6.787
 3683SOL     OW11947   5.146   5.879   2.813
 3683SOL    HW111948   5.228   5.869   2.755
 3683SOL    HW211949   5.075   5.816   2.782
 3684SOL     OW11950   2.143   3.468   1.119
 3684SOL    HW111951   2.113   3.459   1.214
 3684SOL    HW211952   2.076   3.425   1.058
 3685SOL     OW11953   5.607   6.451   5.976
 3685SOL    HW111954   5.633   6.447   5.879
 3685SOL    HW211955   5.679   6.498   6.027
 3686SOL     OW11956   0.423   4.084   0.632
 3686SOL    HW111957   0.397   4.046   0.721
 3686SOL    HW211958   0.385   4.176   0.622
 3687SOL     OW11959   3.954   1.420   0.364
 3687SOL    HW111960   3.988   1.407   0.271
 3687SOL    HW211961   3.936   1.517   0.380
 3688SOL     OW11962   0.115   3.390   0.391
 3688SOL    HW111963   0.095   3.396   0.293
 3688SOL    HW211964   0.055   3.453   0.441
 3689SOL     OW11965   1.851   6.663   3.251
 3689SOL    HW111966   1.921   6.631   3.315
 3689SOL    HW211967   1.894   6.722   3.183
 3690SOL     OW11968   4.827   5.423   5.311
 3690SOL    HW111969   4.918   5.463   5.303
 3690SOL    HW211970   4.782   5.423   5.222
 3691SOL     OW11971   3.340   2.918   5.929
 3691SOL    HW111972   3.367   2.822   5.922
 3691SOL    HW211973   3.273   2.940   5.858
 3692SOL     OW11974   0.162   0.215   5.798
 3692SOL    HW111975   0.159   0.147   5.725
 3692SOL    HW211976   0.079   0.208   5.854
 3693SOL     OW11977   1.790   1.047   3.424
 3693SOL    HW111978   1.854   1.119   3.399
 3693SOL    HW211979   1.698   1.072   3.394
 3694SOL     OW11980   2.001   5.349   3.466
 3694SOL    HW111981   2.047   5.423   3.416
 3694SOL    HW211982   2.003   5.265   3.412
 3695SOL     OW11983   1.662   2.189   0.471
 3695SOL    HW111984   1.757   2.218   0.461
 3695SOL    HW211985   1.658   2.097   0.510
 3696SOL     OW11986   2.913   6.304   5.833
 3696SOL    HW111987   2.882   6.296   5.927
 3696SOL    HW211988   3.012   6.296   5.829
 3697SOL     OW11989   4.868   0.949   3.706
 3697SOL    HW111990   4.854   0.882   3.779
 3697SOL    HW211991   4.966   0.956   3.686
 3698SOL     OW11992   3.389   0.012   6.559
 3698SOL    HW111993   3.332   0.078   6.510
 3698SOL    HW211994   3.379   6.950   6.517
 3699SOL     OW11995   0.605   5.493   2.135
 3699SOL    HW111996   0.644   5.426   2.071
 3699SOL    HW211997   0.516   5.523   2.101
 3700SOL     OW11998   6.285   0.546   3.764
 3700SOL    HW111999   6.374   0.590   3.774
 3700SOL    HW212000   6.289   0.453   3.802
 3701SOL     OW12001   5.238   0.496   3.982
 3701SOL    HW112002   5.319   0.489   3.924
 3701SOL    HW212003   5.189   0.409   3.981
 3702SOL     OW12004   5.133   0.889   6.526
 3702SOL    HW112005   5.143   0.988   6.526
 3702SOL    HW212006   5.176   0.851   6.444
 3703SOL     OW12007   3.767   4.772   1.187
 3703SOL    HW112008   3.777   4.700   1.255
 3703SOL    HW212009   3.754   4.731   1.096
 3704SOL     OW12010   3.225   6.179   1.394
 3704SOL    HW112011   3.135   6.220   1.407
 3704SOL    HW212012   3.222   6.083   1.420
 3705SOL     OW12013   6.788   1.071   4.574
 3705SOL    HW112014   6.779   0.971   4.579
 3705SOL    HW212015   6.854   1.094   4.503
 3706SOL     OW12016   3.133   2.157   3.213
 3706SOL    HW112017   3.115   2.059   3.222
 3706SOL    HW212018   3.047   2.205   3.194
 3707SOL     OW12019   4.009   2.453   5.589
 3707SOL    HW112020   3.973   2.360   5.589
 3707SOL    HW212021   4.011   2.488   5.682
 3708SOL     OW12022   6.405   0.563   6.963
 3708SOL    HW112023   6.349   0.481   6.953
 3708SOL    HW212024   6.483   0.557   6.900
 3709SOL     OW12025   6.578   0.166   6.798
 3709SOL    HW112026   6.619   0.257   6.804
 3709SOL    HW212027   6.567   0.140   6.702
 3710SOL     OW12028   0.450   4.772   6.826
 3710SOL    HW112029   0.431   4.730   6.737
 3710SOL    HW212030   0.365   4.780   6.878
 3711SOL     OW12031   6.690   5.349   2.310
 3711SOL    HW112032   6.682   5.346   2.210
 3711SOL    HW212033   6.602   5.324   2.351
 3712SOL     OW12034   1.695   0.534   6.643
 3712SOL    HW112035   1.715   0.488   6.730
 3712SOL    HW212036   1.646   0.619   6.661
 3713SOL     OW12037   3.738   5.362   5.672
 3713SOL    HW112038   3.773   5.310   5.750
 3713SOL    HW212039   3.745   5.460   5.691
 3714SOL     OW12040   4.725   1.872   4.946
 3714SOL    HW112041   4.767   1.961   4.964
 3714SOL    HW212042   4.631   1.886   4.914
 3715SOL     OW12043   5.240   3.661   3.545
 3715SOL    HW112044   5.154   3.702   3.513
 3715SOL    HW212045   5.246   3.673   3.644
 3716SOL     OW12046   0.928   1.337   3.907
 3716SOL    HW112047   0.998   1.277   3.944
 3716SOL    HW212048   0.968   1.427   3.887
 3717SOL     OW12049   5.737   0.651   7.003
 3717SOL    HW112050   5.706   0.726   6.944
 3717SOL    HW212051   5.665   0.630   0.042
 3718SOL     OW12052   0.855   5.941   6.619
 3718SOL    HW112053   0.770   5.910   6.661
 3718SOL    HW212054   0.933   5.898   6.665
 3719SOL     OW12055   3.273   4.819   0.504
 3719SOL    HW112056   3.230   4.858   0.423
 3719SOL    HW212057   3.339   4.884   0.542
 3720SOL     OW12058   0.156   1.100   5.943
 3720SOL    HW112059   0.174   1.081   6.039
 3720SOL    HW212060   0.215   1.044   5.886
 3721SOL     OW12061   5.022   3.190   0.314
 3721SOL    HW112062   4.979   3.188   0.224
 3721SOL    HW212063   5.063   3.101   0.335
 3722SOL     OW12064   5.479   5.622   1.437
 3722SOL    HW112065   5.434   5.655   1.355
 3722SOL    HW212066   5.562   5.573   1.412
 3723SOL     OW12067   4.724   0.866   0.430
 3723SOL    HW112068   4.707   0.940   0.494
 3723SOL    HW212069   4.742   0.781   0.480
 3724SOL     OW12070   0.667   4.347   5.977
 3724SOL    HW112071   0.666   4.375   5.881
 3724SOL    HW212072   0.575   4.320   6.005
 3725SOL     OW12073   5.863   6.171   1.219
 3725SOL    HW112074   5.867   6.269   1.240
 3725SOL    HW212075   5.904   6.119   1.294
 3726SOL     OW12076   6.366   2.622   1.434
 3726SOL    HW112077   6.275   2.589   1.456
 3726SOL    HW212078   6.363   2.676   1.350
 3727SOL     OW12079   2.575   2.795   5.329
 3727SOL    HW112080   2.546   2.875   5.277
 3727SOL    HW212081   2.667   2.810   5.365
 3728SOL     OW12082   0.492   3.782   6.828
 3728SOL    HW112083   0.486   3.684   6.843
 3728SOL    HW212084   0.576   3.818   6.868
 3729SOL     OW12085   0.666   2.907   4.261
 3729SOL    HW112086   0.710   2.974   4.200
 3729SOL    HW212087   0.581   2.875   4.219
 3730SOL     OW12088   1.888   0.586   1.224
 3730SOL    HW112089   1.940   0.618   1.303
 3730SOL    HW212090   1.924   0.497   1.194
 3731SOL     OW12091   2.547   5.462   6.848
 3731SOL    HW112092   2.497   5.489   6.766
 3731SOL    HW212093   2.555   5.540   6.909
 3732SOL     OW12094   2.123   3.765   4.273
 3732SOL    HW112095   2.147   3.778   4.369
 3732SOL    HW212096   2.069   3.843   4.241
 3733SOL     OW12097   3.495   3.999   0.977
 3733SOL    HW112098   3.594   3.985   0.978
 3733SOL    HW212099   3.463   4.003   0.882
 3734SOL     OW12100   4.429   0.522   2.992
 3734SOL    HW112101   4.419   0.558   2.899
 3734SOL    HW212102   4.385   0.584   3.057
 3735SOL     OW12103   3.562   2.018   2.030
 3735SOL    HW112104   3.504   1.981   1.957
 3735SOL    HW212105   3.622   2.088   1.992
 3736SOL     OW12106   5.029   0.962   6.190
 3736SOL    HW112107   4.998   0.868   6.202
 3736SOL    HW212108   4.971   1.023   6.244
 3737SOL     OW12109   3.724   6.790   3.688
 3737SOL    HW112110   3.696   6.706   3.734
 3737SOL    HW212111   3.726   6.776   3.589
 3738SOL     OW12112   6.859   0.311   4.199
 3738SOL    HW112113   6.811   0.296   4.113
 3738SOL    HW212114   6.928   0.239   4.211
 3739SOL     OW12115   0.601   2.985   1.310
 3739SOL    HW112116   0.546   2.902   1.301
 3739SOL    HW212117   0.571   3.037   1.391
 3740SOL     OW12118   5.561   0.104   0.079
 3740SOL    HW112119   5.585   0.054   7.023
 3740SOL    HW212120   5.628   0.177   0.094
 3741SOL     OW12121   3.568   1.949   6.854
 3741SOL    HW112122   3.520   1.936   6.940
 3741SOL    HW212123   3.658   1.904   6.859
 3742SOL     OW12124   3.525   3.528   6.018
 3742SOL    HW112125   3.606   3.539   5.960
 3742SOL    HW212126   3.537   3.446   6.076
 3743SOL     OW12127   0.740   5.842   6.394
 3743SOL    HW112128   0.776   5.886   6.476
 3743SOL    HW212129   0.805   5.856   6.319
 3744SOL     OW12130   6.701   5.212   3.220
 3744SOL    HW112131   6.702   5.126   3.170
 3744SOL    HW212132   6.714   5.288   3.156
 3745SOL     OW12133   5.152   5.102   1.610
 3745SOL    HW112134   5.194   5.168   1.548
 3745SOL    HW212135   5.157   5.010   1.570
 3746SOL     OW12136   4.360   1.640   1.287
 3746SOL    HW112137   4.421   1.716   1.310
 3746SOL    HW212138   4.312   1.610   1.370
 3747SOL     OW12139   2.623   0.212   0.492
 3747SOL    HW112140   2.656   0.196   0.585
 3747SOL    HW212141   2.565   0.293   0.491
 3748SOL     OW12142   5.830   0.341   1.795
 3748SOL    HW112143   5.781   0.424   1.772
 3748SOL    HW212144   5.888   0.314   1.718
 3749SOL     OW12145   1.175   0.590   4.136
 3749SOL    HW112146   1.194   0.649   4.215
 3749SOL    HW212147   1.092   0.622   4.090
 3750SOL     OW12148   0.101   3.856   6.582
 3750SOL    HW112149   0.085   3.812   6.671
 3750SOL    HW212150   0.196   3.884   6.575
 3751SOL     OW12151   1.800   5.294   1.615
 3751SOL    HW112152   1.727   5.278   1.549
 3751SOL    HW212153   1.788   5.234   1.694
 3752SOL     OW12154   4.838   5.971   6.589
 3752SOL    HW112155   4.754   6.026   6.593
 3752SOL    HW212156   4.913   6.023   6.629
 3753SOL     OW12157   0.668   0.380   3.298
 3753SOL    HW112158   0.622   0.466   3.277
 3753SOL    HW212159   0.714   0.387   3.387
 3754SOL     OW12160   3.060   1.668   1.240
 3754SOL    HW112161   3.073   1.569   1.237
 3754SOL    HW212162   3.149   1.713   1.244
 3755SOL     OW12163   2.132   6.149   4.331
 3755SOL    HW112164   2.147   6.105   4.419
 3755SOL    HW212165   2.164   6.243   4.334
 3756SOL     OW12166   1.593   6.758   0.443
 3756SOL    HW112167   1.624   6.674   0.399
 3756SOL    HW212168   1.501   6.744   0.479
 3757SOL     OW12169   0.371   4.471   0.342
 3757SOL    HW112170   0.468   4.469   0.367
 3757SOL    HW212171   0.362   4.481   0.243
 3758SOL     OW12172   1.050   6.372   3.992
 3758SOL    HW112173   1.055   6.273   3.978
 3758SOL    HW212174   1.112   6.398   4.066
 3759SOL     OW12175   4.635   0.694   3.727
 3759SOL    HW112176   4.707   0.625   3.725
 3759SOL    HW212177   4.655   0.766   3.660
 3760SOL     OW12178   0.930   0.761   2.917
 3760SOL    HW112179   0.895   0.724   2.832
 3760SOL    HW212180   0.979   0.690   2.967
 3761SOL     OW12181   4.752   1.521   5.394
 3761SOL    HW112182   4.750   1.428   5.430
 3761SOL    HW212183   4.667   1.538   5.343
 3762SOL     OW12184   0.837   2.265   4.355
 3762SOL    HW112185   0.857   2.186   4.413
 3762SOL    HW212186   0.745   2.256   4.316
 3763SOL     OW12187   0.635   6.121   6.844
 3763SOL    HW112188   0.613   6.143   6.939
 3763SOL    HW212189   0.559   6.148   6.785
 3764SOL     OW12190   2.941   0.940   2.558
 3764SOL    HW112191   2.855   0.924   2.607
 3764SOL    HW212192   3.014   0.954   2.625
 3765SOL     OW12193   5.556   3.346   2.735
 3765SOL    HW112194   5.609   3.412   2.788
 3765SOL    HW212195   5.460   3.350   2.762
 3766SOL     OW12196   1.710   2.752   2.218
 3766SOL    HW112197   1.772   2.700   2.159
 3766SOL    HW212198   1.702   2.706   2.306
 3767SOL     OW12199   2.055   6.047   5.961
 3767SOL    HW112200   1.960   6.019   5.976
 3767SOL    HW212201   2.070   6.062   5.863
 3768SOL     OW12202   1.709   6.817   2.872
 3768SOL    HW112203   1.755   6.735   2.838
 3768SOL    HW212204   1.654   6.857   2.799
 3769SOL     OW12205   5.395   5.232   4.901
 3769SOL    HW112206   5.415   5.268   4.992
 3769SOL    HW212207   5.296   5.226   4.888
 3770SOL     OW12208   2.685   6.842   1.088
 3770SOL    HW112209   2.611   6.870   1.149
 3770SOL    HW212210   2.680   6.743   1.072
 3771SOL     OW12211   6.634   6.203   5.844
 3771SOL    HW112212   6.712   6.162   5.892
 3771SOL    HW212213   6.645   6.302   5.841
 3772SOL     OW12214   2.368   5.876   1.996
 3772SOL    HW112215   2.426   5.952   1.966
 3772SOL    HW212216   2.424   5.811   2.048
 3773SOL     OW12217   4.728   4.799   6.593
 3773SOL    HW112218   4.676   4.722   6.555
 3773SOL    HW212219   4.741   4.868   6.523
 3774SOL     OW12220   6.766   4.548   1.156
 3774SOL    HW112221   6.848   4.605   1.161
 3774SOL    HW212222   6.685   4.605   1.172
 3775SOL     OW12223   5.831   5.656   4.733
 3775SOL    HW112224   5.825   5.752   4.762
 3775SOL    HW212225   5.855   5.652   4.635
 3776SOL     OW12226   4.035   2.512   6.686
 3776SOL    HW112227   4.111   2.448   6.674
 3776SOL    HW212228   4.071   2.604   6.702
 3777SOL     OW12229   2.866   5.203   4.078
 3777SOL    HW112230   2.897   5.138   4.009
 3777SOL    HW212231   2.895   5.295   4.052
 3778SOL     OW12232   3.229   5.070   6.724
 3778SOL    HW112233   3.234   4.971   6.729
 3778SOL    HW212234   3.165   5.097   6.653
 3779SOL     OW12235   6.986   4.822   6.261
 3779SOL    HW112236   7.019   4.869   6.343
 3779SOL    HW212237   0.037   4.788   6.209
 3780SOL     OW12238   6.282   3.069   2.055
 3780SOL    HW112239   6.208   3.134   2.073
 3780SOL    HW212240   6.363   3.095   2.108
 3781SOL     OW12241   1.697   6.879   5.986
 3781SOL    HW112242   1.744   6.855   6.071
 3781SOL    HW212243   1.753   6.851   5.908
 3782SOL     OW12244   3.783   5.673   0.145
 3782SOL    HW112245   3.781   5.722   0.232
 3782SOL    HW212246   3.848   5.717   0.083
 3783SOL     OW12247   4.349   4.836   5.451
 3783SOL    HW112248   4.387   4.916   5.498
 3783SOL    HW212249   4.308   4.774   5.519
 3784SOL     OW12250   6.088   3.245   4.718
 3784SOL    HW112251   6.005   3.193   4.737
 3784SOL    HW212252   6.063   3.335   4.683
 3785SOL     OW12253   1.205   2.990   2.814
 3785SOL    HW112254   1.144   3.063   2.783
 3785SOL    HW212255   1.159   2.937   2.886
 3786SOL     OW12256   2.276   2.838   5.770
 3786SOL    HW112257   2.180   2.841   5.740
 3786SOL    HW212258   2.333   2.804   5.695
 3787SOL     OW12259   5.022   5.838   4.594
 3787SOL    HW112260   5.120   5.827   4.585
 3787SOL    HW212261   4.989   5.902   4.525
 3788SOL     OW12262   5.742   3.288   5.974
 3788SOL    HW112263   5.716   3.307   5.880
 3788SOL    HW212264   5.837   3.255   5.976
 3789SOL     OW12265   2.083   3.773   1.211
 3789SOL    HW112266   1.990   3.768   1.247
 3789SOL    HW212267   2.081   3.810   1.119
 3790SOL     OW12268   1.619   6.869   1.533
 3790SOL    HW112269   1.557   6.790   1.542
 3790SOL    HW212270   1.665   6.884   1.620
 3791SOL     OW12271   4.843   0.449   4.206
 3791SOL    HW112272   4.833   0.458   4.107
 3791SOL    HW212273   4.885   0.532   4.243
 3792SOL     OW12274   6.218   6.826   3.685
 3792SOL    HW112275   6.251   6.898   3.746
 3792SOL    HW212276   6.182   6.751   3.740
 3793SOL     OW12277   4.554   3.766   6.956
 3793SOL    HW112278   4.463   3.731   6.979
 3793SOL    HW212279   4.589   3.717   6.876
 3794SOL     OW12280   1.066   4.891   6.543
 3794SOL    HW112281   1.055   4.855   6.635
 3794SOL    HW212282   1.163   4.910   6.525
 3795SOL     OW12283   3.284   6.329   0.648
 3795SOL    HW112284   3.260   6.236   0.674
 3795SOL    HW212285   3.379   6.332   0.616
 3796SOL     OW12286   5.312   0.750   6.884
 3796SOL    HW112287   5.283   0.829   6.939
 3796SOL    HW212288   5.352   0.681   6.943
 3797SOL     OW12289   0.291   2.996   1.444
 3797SOL    HW112290   0.336   2.921   1.396
 3797SOL    HW212291   0.358   3.066   1.467
 3798SOL     OW12292   0.883   5.079   3.680
 3798SOL    HW112293   0.939   4.998   3.667
 3798SOL    HW212294   0.795   5.066   3.634
 3799SOL     OW12295   6.946   1.555   2.780
 3799SOL    HW112296   6.866   1.535   2.836
 3799SOL    HW212297   6.917   1.583   2.689
 3800SOL     OW12298   5.346   3.026   2.698
 3800SOL    HW112299   5.286   3.034   2.778
 3800SOL    HW212300   5.295   3.049   2.615
 3801SOL     OW12301   6.507   1.358   1.182
 3801SOL    HW112302   6.592   1.334   1.135
 3801SOL    HW212303   6.499   1.303   1.266
 3802SOL     OW12304   6.362   3.493   2.580
 3802SOL    HW112305   6.382   3.396   2.589
 3802SOL    HW212306   6.315   3.509   2.493
 3803SOL     OW12307   4.285   3.803   5.502
 3803SOL    HW112308   4.273   3.902   5.498
 3803SOL    HW212309   4.208   3.763   5.551
 3804SOL     OW12310   3.397   6.107   3.766
 3804SOL    HW112311   3.488   6.069   3.783
 3804SOL    HW212312   3.367   6.080   3.674
 3805SOL     OW12313   2.276   1.941   6.844
 3805SOL    HW112314   2.212   1.927   6.769
 3805SOL    HW212315   2.355   1.880   6.832
 3806SOL     OW12316   1.880   4.269   2.048
 3806SOL    HW112317   1.910   4.195   1.988
 3806SOL    HW212318   1.923   4.355   2.019
 3807SOL     OW12319   0.527   4.282   4.096
 3807SOL    HW112320   0.472   4.312   4.018
 3807SOL    HW212321   0.577   4.198   4.071
 3808SOL     OW12322   2.743   6.971   6.449
 3808SOL    HW112323   2.748   0.013   6.378
 3808SOL    HW212324   2.651   6.972   6.490
 3809SOL     OW12325   5.066   1.237   2.241
 3809SOL    HW112326   5.017   1.291   2.172
 3809SOL    HW212327   5.164   1.237   2.221
 3810SOL     OW12328   5.233   2.331   2.907
 3810SOL    HW112329   5.260   2.370   2.995
 3810SOL    HW212330   5.207   2.405   2.844
 3811SOL     OW12331   0.204   5.968   5.657
 3811SOL    HW112332   0.244   5.878   5.640
 3811SOL    HW212333   0.106   5.958   5.678
 3812SOL     OW12334   3.868   5.663   0.573
 3812SOL    HW112335   3.881   5.739   0.636
 3812SOL    HW212336   3.828   5.585   0.622
 3813SOL     OW12337   6.037   3.493   6.847
 3813SOL    HW112338   5.950   3.539   6.828
 3813SOL    HW212339   6.055   3.495   6.945
 3814SOL     OW12340   0.309   0.250   4.867
 3814SOL    HW112341   0.223   0.204   4.888
 3814SOL    HW212342   0.336   0.228   4.773
 3815SOL     OW12343   4.910   2.332   5.665
 3815SOL    HW112344   4.964   2.413   5.686
 3815SOL    HW212345   4.851   2.310   5.743
 3816SOL     OW12346   6.606   6.385   1.008
 3816SOL    HW112347   6.680   6.348   1.063
 3816SOL    HW212348   6.518   6.352   1.044
 3817SOL     OW12349   3.828   3.636   1.937
 3817SOL    HW112350   3.789   3.684   1.858
 3817SOL    HW212351   3.788   3.672   2.021
 3818SOL     OW12352   4.606   5.805   1.867
 3818SOL    HW112353   4.627   5.886   1.921
 3818SOL    HW212354   4.616   5.827   1.769
 3819SOL     OW12355   6.421   3.246   2.963
 3819SOL    HW112356   6.513   3.208   2.967
 3819SOL    HW212357   6.411   3.318   3.032
 3820SOL     OW12358   3.110   6.524   5.996
 3820SOL    HW112359   3.090   6.539   6.093
 3820SOL    HW212360   3.128   6.426   5.981
 3821SOL     OW12361   2.036   6.769   0.588
 3821SOL    HW112362   2.100   6.846   0.594
 3821SOL    HW212363   1.944   6.800   0.612
 3822SOL     OW12364   5.622   6.812   1.933
 3822SOL    HW112365   5.713   6.798   1.895
 3822SOL    HW212366   5.616   6.769   2.023
 3823SOL     OW12367   5.174   5.881   5.197
 3823SOL    HW112368   5.231   5.837   5.128
 3823SOL    HW212369   5.099   5.929   5.152
 3824SOL     OW12370   2.054   2.504   0.849
 3824SOL    HW112371   2.012   2.519   0.939
 3824SOL    HW212372   1.994   2.445   0.794
 3825SOL     OW12373   0.757   4.922   5.471
 3825SOL    HW112374   0.686   4.922   5.400
 3825SOL    HW212375   0.842   4.958   5.433
 3826SOL     OW12376   5.054   4.057   3.492
 3826SOL    HW112377   5.036   4.084   3.397
 3826SOL    HW212378   5.140   4.099   3.523
 3827SOL     OW12379   0.531   1.492   6.818
 3827SOL    HW112380   0.588   1.536   6.887
 3827SOL    HW212381   0.498   1.404   6.852
 3828SOL     OW12382   3.326   3.298   5.123
 3828SOL    HW112383   3.284   3.378   5.165
 3828SOL    HW212384   3.260   3.252   5.064
 3829SOL     OW12385   0.498   3.141   1.502
 3829SOL    HW112386   0.524   3.237   1.492
 3829SOL    HW212387   0.492   3.119   1.599
 3830SOL     OW12388   5.287   6.836   3.720
 3830SOL    HW112389   5.270   6.876   3.810
 3830SOL    HW212390   5.205   6.787   3.689
 3831SOL     OW12391   5.142   2.419   3.220
 3831SOL    HW112392   5.203   2.353   3.262
 3831SOL    HW212393   5.057   2.373   3.193
 3832SOL     OW12394   6.237   1.371   3.709
 3832SOL    HW112395   6.270   1.287   3.754
 3832SOL    HW212396   6.287   1.450   3.745
 3833SOL     OW12397   1.480   2.900   5.478
 3833SOL    HW112398   1.515   2.875   5.568
 3833SOL    HW212399   1.425   2.825   5.442
 3834SOL     OW12400   5.400   4.548   0.803
 3834SOL    HW112401   5.418   4.592   0.891
 3834SOL    HW212402   5.486   4.519   0.762
 3835SOL     OW12403   4.374   5.454   5.063
 3835SOL    HW112404   4.359   5.476   5.159
 3835SOL    HW212405   4.443   5.516   5.025
 3836SOL     OW12406   0.131   6.722   4.683
 3836SOL    HW112407   0.114   6.634   4.638
 3836SOL    HW212408   0.115   6.796   4.618
 3837SOL     OW12409   4.739   4.473   5.784
 3837SOL    HW112410   4.814   4.520   5.832
 3837SOL    HW212411   4.777   4.412   5.715
 3838SOL     OW12412   6.697   0.667   4.217
 3838SOL    HW112413   6.607   0.692   4.179
 3838SOL    HW212414   6.740   0.748   4.256
 3839SOL     OW12415   4.721   1.071   3.530
 3839SOL    HW112416   4.762   1.011   3.599
 3839SOL    HW212417   4.671   1.015   3.464
 3840SOL     OW12418   3.883   1.530   6.542
 3840SOL    HW112419   3.804   1.496   6.492
 3840SOL    HW212420   3.964   1.530   6.483
 3841SOL     OW12421   5.955   4.069   3.149
 3841SOL    HW112422   6.054   4.060   3.151
 3841SOL    HW212423   5.913   3.978   3.152
 3842SOL     OW12424   1.897   4.170   5.460
 3842SOL    HW112425   1.993   4.190   5.476
 3842SOL    HW212426   1.883   4.071   5.462
 3843SOL     OW12427   5.931   2.677   6.434
 3843SOL    HW112428   5.880   2.637   6.357
 3843SOL    HW212429   5.871   2.684   6.514
 3844SOL     OW12430   6.906   0.046   1.162
 3844SOL    HW112431   6.809   0.029   1.147
 3844SOL    HW212432   6.929   0.028   1.258
 3845SOL     OW12433   2.169   5.577   0.108
 3845SOL    HW112434   2.162   5.633   0.026
 3845SOL    HW212435   2.087   5.521   0.118
 3846SOL     OW12436   6.858   3.315   2.868
 3846SOL    HW112437   6.930   3.274   2.812
 3846SOL    HW212438   6.898   3.385   2.928
 3847SOL     OW12439   0.453   1.566   6.532
 3847SOL    HW112440   0.484   1.539   6.623
 3847SOL    HW212441   0.516   1.533   6.463
 3848SOL     OW12442   6.397   4.986   1.867
 3848SOL    HW112443   6.381   5.033   1.781
 3848SOL    HW212444   6.336   5.023   1.937
 3849SOL     OW12445   0.912   4.096   5.808
 3849SOL    HW112446   0.926   4.177   5.865
 3849SOL    HW212447   0.857   4.121   5.728
 3850SOL     OW12448   2.900   2.715   1.242
 3850SOL    HW112449   2.948   2.629   1.225
 3850SOL    HW212450   2.919   2.746   1.335
 3851SOL     OW12451   0.443   5.834   2.878
 3851SOL    HW112452   0.477   5.755   2.827
 3851SOL    HW212453   0.373   5.803   2.943
 3852SOL     OW12454   2.139   0.600   4.753
 3852SOL    HW112455   2.103   0.510   4.780
 3852SOL    HW212456   2.210   0.588   4.684
 3853SOL     OW12457   2.735   0.822   3.103
 3853SOL    HW112458   2.797   0.776   3.040
 3853SOL    HW212459   2.661   0.865   3.052
 3854SOL     OW12460   0.474   1.871   2.178
 3854SOL    HW112461   0.385   1.827   2.167
 3854SOL    HW212462   0.469   1.938   2.253
 3855SOL     OW12463   3.454   6.767   6.500
 3855SOL    HW112464   3.480   6.699   6.432
 3855SOL    HW212465   3.475   6.732   6.592
 3856SOL     OW12466   6.777   2.393   6.476
 3856SOL    HW112467   6.829   2.408   6.560
 3856SOL    HW212468   6.828   2.429   6.398
 3857SOL     OW12469   2.461   0.702   6.065
 3857SOL    HW112470   2.461   0.798   6.094
 3857SOL    HW212471   2.386   0.654   6.110
 3858SOL     OW12472   3.672   0.828   4.586
 3858SOL    HW112473   3.750   0.890   4.577
 3858SOL    HW212474   3.664   0.799   4.682
 3859SOL     OW12475   6.444   0.121   1.981
 3859SOL    HW112476   6.459   0.211   2.022
 3859SOL    HW212477   6.482   0.050   2.040
 3860SOL     OW12478   1.339   6.792   4.485
 3860SOL    HW112479   1.409   6.849   4.528
 3860SOL    HW212480   1.258   6.847   4.466
 3861SOL     OW12481   3.028   5.643   1.969
 3861SOL    HW112482   3.091   5.612   1.897
 3861SOL    HW212483   2.964   5.710   1.931
 3862SOL     OW12484   1.424   0.766   4.241
 3862SOL    HW112485   1.509   0.755   4.292
 3862SOL    HW212486   1.444   0.782   4.145
 3863SOL     OW12487   3.751   0.670   0.585
 3863SOL    HW112488   3.724   0.598   0.521
 3863SOL    HW212489   3.781   0.750   0.534
 3864SOL     OW12490   1.236   0.391   4.461
 3864SOL    HW112491   1.146   0.432   4.449
 3864SOL    HW212492   1.273   0.417   4.551
 3865SOL     OW12493   5.175   1.327   0.861
 3865SOL    HW112494   5.190   1.239   0.817
 3865SOL    HW212495   5.077   1.349   0.859
 3866SOL     OW12496   3.133   0.824   6.804
 3866SOL    HW112497   3.126   0.879   6.887
 3866SOL    HW212498   3.132   0.727   6.829
 3867SOL     OW12499   6.923   3.436   2.548
 3867SOL    HW112500   6.835   3.402   2.583
 3867SOL    HW212501   6.997   3.405   2.608
 3868SOL     OW12502   4.149   0.484   0.099
 3868SOL    HW112503   4.164   0.543   0.020
 3868SOL    HW212504   4.079   0.524   0.158
 3869SOL     OW12505   4.439   1.029   4.009
 3869SOL    HW112506   4.466   1.043   3.914
 3869SOL    HW212507   4.370   0.957   4.014
 3870SOL     OW12508   6.981   1.366   5.662
 3870SOL    HW112509   6.968   1.372   5.761
 3870SOL    HW212510   0.015   1.291   5.641
 3871SOL     OW12511   2.626   5.904   4.167
 3871SOL    HW112512   2.675   5.852   4.237
 3871SOL    HW212513   2.530   5.914   4.195
 3872SOL     OW12514   2.885   3.509   5.212
 3872SOL    HW112515   2.934   3.501   5.299
 3872SOL    HW212516   2.906   3.598   5.171
 3873SOL     OW12517   4.345   1.827   0.172
 3873SOL    HW112518   4.411   1.901   0.161
 3873SOL    HW212519   4.266   1.860   0.225
 3874SOL     OW12520   2.334   1.404   1.260
 3874SOL    HW112521   2.298   1.311   1.258
 3874SOL    HW212522   2.434   1.402   1.260
 3875SOL     OW12523   0.771   2.107   6.428
 3875SOL    HW112524   0.857   2.072   6.391
 3875SOL    HW212525   0.781   2.123   6.526
 3876SOL     OW12526   3.191   5.416   2.363
 3876SOL    HW112527   3.168   5.446   2.271
 3876SOL    HW212528   3.160   5.484   2.429
 3877SOL     OW12529   0.302   1.391   5.736
 3877SOL    HW112530   0.258   1.481   5.738
 3877SOL    HW212531   0.263   1.337   5.661
 3878SOL     OW12532   4.812   1.412   5.015
 3878SOL    HW112533   4.893   1.389   5.069
 3878SOL    HW212534   4.742   1.341   5.027
 3879SOL     OW12535   4.983   5.894   0.325
 3879SOL    HW112536   5.037   5.933   0.400
 3879SOL    HW212537   4.910   5.837   0.362
 3880SOL     OW12538   4.956   4.809   3.976
 3880SOL    HW112539   5.016   4.729   3.974
 3880SOL    HW212540   4.893   4.801   4.054
 3881SOL     OW12541   1.088   3.338   0.418
 3881SOL    HW112542   1.042   3.403   0.478
 3881SOL    HW212543   1.020   3.287   0.365
 3882SOL     OW12544   0.328   1.759   5.641
 3882SOL    HW112545   0.268   1.809   5.579
 3882SOL    HW212546   0.273   1.704   5.704
 3883SOL     OW12547   4.335   6.161   3.646
 3883SOL    HW112548   4.419   6.107   3.644
 3883SOL    HW212549   4.283   6.144   3.562
 3884SOL     OW12550   0.341   3.593   2.564
 3884SOL    HW112551   0.439   3.610   2.576
 3884SOL    HW212552   0.316   3.611   2.469
 3885SOL     OW12553   4.270   5.747   2.244
 3885SOL    HW112554   4.176   5.717   2.254
 3885SOL    HW212555   4.325   5.673   2.204
 3886SOL     OW12556   2.669   5.700   6.020
 3886SOL    HW112557   2.648   5.604   6.034
 3886SOL    HW212558   2.704   5.714   5.927
 3887SOL     OW12559   1.434   6.076   1.865
 3887SOL    HW112560   1.488   6.134   1.927
 3887SOL    HW212561   1.480   6.071   1.776
 3888SOL     OW12562   5.582   4.878   3.915
 3888SOL    HW112563   5.492   4.884   3.958
 3888SOL    HW212564   5.632   4.799   3.952
 3889SOL     OW12565   5.697   4.196   0.493
 3889SOL    HW112566   5.761   4.180   0.568
 3889SOL    HW212567   5.633   4.268   0.519
 3890SOL     OW12568   5.560   3.578   3.778
 3890SOL    HW112569   5.534   3.606   3.686
 3890SOL    HW212570   5.637   3.633   3.809
 3891SOL     OW12571   4.929   5.384   3.598
 3891SOL    HW112572   4.980   5.438   3.531
 3891SOL    HW212573   4.984   5.306   3.628
 3892SOL     OW12574   6.560   2.021   1.638
 3892SOL    HW112575   6.605   1.967   1.567
 3892SOL    HW212576   6.573   1.976   1.727
 3893SOL     OW12577   4.145   3.558   2.774
 3893SOL    HW112578   4.138   3.533   2.677
 3893SOL    HW212579   4.241   3.558   2.802
 3894SOL     OW12580   4.699   0.532   5.910
 3894SOL    HW112581   4.635   0.575   5.846
 3894SOL    HW212582   4.793   0.552   5.882
 3895SOL     OW12583   0.147   0.423   3.990
 3895SOL    HW112584   0.172   0.492   3.922
 3895SOL    HW212585   0.098   0.348   3.945
 3896SOL     OW12586   2.078   1.657   6.248
 3896SOL    HW112587   2.112   1.750   6.257
 3896SOL    HW212588   2.001   1.655   6.184
 3897SOL     OW12589   3.808   5.564   1.255
 3897SOL    HW112590   3.801   5.663   1.244
 3897SOL    HW212591   3.762   5.538   1.340
 3898SOL     OW12592   3.453   3.265   1.510
 3898SOL    HW112593   3.532   3.298   1.562
 3898SOL    HW212594   3.374   3.257   1.572
 3899SOL     OW12595   3.392   0.011   5.081
 3899SOL    HW112596   3.485   0.026   5.114
 3899SOL    HW212597   3.377   0.064   4.997
 3900SOL     OW12598   4.742   4.483   3.245
 3900SOL    HW112599   4.840   4.467   3.259
 3900SOL    HW212600   4.692   4.448   3.325
 3901SOL     OW12601   2.881   1.126   6.580
 3901SOL    HW112602   2.839   1.042   6.616
 3901SOL    HW212603   2.917   1.180   6.655
 3902SOL     OW12604   5.074   2.862   2.792
 3902SOL    HW112605   5.047   2.837   2.699
 3902SOL    HW212606   5.147   2.802   2.823
 3903SOL     OW12607   2.736   4.100   6.047
 3903SOL    HW112608   2.712   4.180   5.992
 3903SOL    HW212609   2.817   4.056   6.008
 3904SOL     OW12610   2.011   0.440   0.770
 3904SOL    HW112611   1.963   0.502   0.708
 3904SOL    HW212612   1.961   0.434   0.856
 3905SOL     OW12613   0.069   6.398   5.089
 3905SOL    HW112614   7.000   6.376   5.080
 3905SOL    HW212615   0.088   6.485   5.043
 3906SOL     OW12616   6.997   6.320   4.796
 3906SOL    HW112617   7.027   6.243   4.852
 3906SOL    HW212618   0.049   6.363   4.753
 3907SOL     OW12619   5.646   2.160   3.600
 3907SOL    HW112620   5.728   2.214   3.623
 3907SOL    HW212621   5.578   2.171   3.672
 3908SOL     OW12622   2.833   4.165   6.289
 3908SOL    HW112623   2.796   4.138   6.200
 3908SOL    HW212624   2.768   4.225   6.336
 3909SOL     OW12625   5.836   5.976   3.445
 3909SOL    HW112626   5.934   5.955   3.444
 3909SOL    HW212627   5.801   5.976   3.351
 3910SOL     OW12628   3.629   3.203   2.832
 3910SOL    HW112629   3.637   3.204   2.732
 3910SOL    HW212630   3.703   3.256   2.873
 3911SOL     OW12631   6.243   2.708   5.614
 3911SOL    HW112632   6.153   2.688   5.575
 3911SOL    HW212633   6.308   2.723   5.540
 3912SOL     OW12634   5.219   2.756   6.222
 3912SOL    HW112635   5.249   2.685   6.285
 3912SOL    HW212636   5.137   2.727   6.174
 3913SOL     OW12637   1.476   6.654   1.139
 3913SOL    HW112638   1.399   6.628   1.081
 3913SOL    HW212639   1.513   6.742   1.109
 3914SOL     OW12640   3.173   5.622   5.794
 3914SOL    HW112641   3.221   5.658   5.874
 3914SOL    HW212642   3.210   5.664   5.711
 3915SOL     OW12643   0.103   6.144   1.453
 3915SOL    HW112644   0.129   6.197   1.533
 3915SOL    HW212645   0.135   6.050   1.463
 3916SOL     OW12646   1.105   0.218   3.271
 3916SOL    HW112647   1.175   0.223   3.199
 3916SOL    HW212648   1.015   0.214   3.229
 3917SOL     OW12649   2.539   0.516   6.838
 3917SOL    HW112650   2.451   0.528   6.792
 3917SOL    HW212651   2.570   0.422   6.827
 3918SOL     OW12652   5.439   3.394   6.825
 3918SOL    HW112653   5.529   3.354   6.810
 3918SOL    HW212654   5.399   3.357   6.908
 3919SOL     OW12655   2.943   6.861   0.738
 3919SOL    HW112656   3.028   6.862   0.684
 3919SOL    HW212657   2.962   6.892   0.831
 3920SOL     OW12658   2.129   1.347   6.903
 3920SOL    HW112659   2.029   1.345   6.902
 3920SOL    HW212660   2.161   1.427   6.852
 3921SOL     OW12661   0.788   3.679   1.229
 3921SOL    HW112662   0.854   3.733   1.282
 3921SOL    HW212663   0.786   3.586   1.265
 3922SOL     OW12664   1.513   5.344   1.279
 3922SOL    HW112665   1.567   5.319   1.199
 3922SOL    HW212666   1.532   5.439   1.303
 3923SOL     OW12667   6.415   0.539   1.104
 3923SOL    HW112668   6.419   0.439   1.112
 3923SOL    HW212669   6.488   0.571   1.044
 3924SOL     OW12670   6.491   5.244   4.666
 3924SOL    HW112671   6.545   5.283   4.591
 3924SOL    HW212672   6.506   5.146   4.670
 3925SOL     OW12673   1.251   4.939   1.872
 3925SOL    HW112674   1.181   5.002   1.907
 3925SOL    HW212675   1.313   4.989   1.812
 3926SOL     OW12676   3.541   5.400   2.932
 3926SOL    HW112677   3.542   5.445   3.021
 3926SOL    HW212678   3.629   5.355   2.916
 3927SOL     OW12679   0.915   3.289   6.521
 3927SOL    HW112680   0.851   3.365   6.520
 3927SOL    HW212681   0.869   3.208   6.558
 3928SOL     OW12682   6.219   5.909   6.587
 3928SOL    HW112683   6.246   5.938   6.496
 3928SOL    HW212684   6.169   5.982   6.633
 3929SOL     OW12685   0.644   1.484   4.337
 3929SOL    HW112686   0.592   1.399   4.334
 3929SOL    HW212687   0.583   1.561   4.319
 3930SOL     OW12688   3.039   1.832   3.968
 3930SOL    HW112689   3.137   1.828   3.986
 3930SOL    HW212690   3.023   1.831   3.869
 3931SOL     OW12691   4.955   0.218   2.304
 3931SOL    HW112692   4.930   0.198   2.209
 3931SOL    HW212693   5.011   0.301   2.307
 3932SOL     OW12694   1.512   1.916   4.297
 3932SOL    HW112695   1.600   1.953   4.327
 3932SOL    HW212696   1.440   1.980   4.321
 3933SOL     OW12697   1.499   0.045   6.191
 3933SOL    HW112698   1.407   0.049   6.152
 3933SOL    HW212699   1.563   0.095   6.133
 3934SOL     OW12700   5.526   6.360   6.979
 3934SOL    HW112701   5.543   6.318   6.890
 3934SOL    HW212702   5.562   6.454   6.978
 3935SOL     OW12703   5.157   6.801   1.604
 3935SOL    HW112704   5.229   6.809   1.536
 3935SOL    HW212705   5.190   6.747   1.681
 3936SOL     OW12706   0.648   4.329   2.642
 3936SOL    HW112707   0.626   4.259   2.711
 3936SOL    HW212708   0.673   4.284   2.556
 3937SOL     OW12709   0.481   2.064   2.386
 3937SOL    HW112710   0.454   2.040   2.479
 3937SOL    HW212711   0.419   2.134   2.351
 3938SOL     OW12712   0.181   2.502   3.145
 3938SOL    HW112713   0.101   2.551   3.180
 3938SOL    HW212714   0.154   2.443   3.069
 3939SOL     OW12715   2.073   2.085   1.864
 3939SOL    HW112716   2.130   2.139   1.926
 3939SOL    HW212717   2.131   2.031   1.803
 3940SOL     OW12718   4.617   3.874   1.289
 3940SOL    HW112719   4.666   3.875   1.201
 3940SOL    HW212720   4.624   3.964   1.332
 3941SOL     OW12721   4.926   3.188   6.669
 3941SOL    HW112722   4.868   3.129   6.725
 3941SOL    HW212723   4.873   3.266   6.637
 3942SOL     OW12724   0.118   0.344   0.418
 3942SOL    HW112725   0.181   0.421   0.426
 3942SOL    HW212726   0.043   0.356   0.482
 3943SOL     OW12727   6.752   2.908   5.031
 3943SOL    HW112728   6.714   2.987   5.080
 3943SOL    HW212729   6.850   2.922   5.017
 3944SOL     OW12730   5.692   1.503   5.076
 3944SOL    HW112731   5.603   1.460   5.062
 3944SOL    HW212732   5.679   1.601   5.090
 3945SOL     OW12733   6.655   0.619   0.963
 3945SOL    HW112734   6.621   0.713   0.970
 3945SOL    HW212735   6.682   0.601   0.869
 3946SOL     OW12736   3.896   5.131   3.265
 3946SOL    HW112737   3.806   5.162   3.235
 3946SOL    HW212738   3.966   5.169   3.206
 3947SOL     OW12739   6.503   4.005   6.320
 3947SOL    HW112740   6.456   3.931   6.273
 3947SOL    HW212741   6.602   3.998   6.304
 3948SOL     OW12742   5.973   3.876   0.741
 3948SOL    HW112743   6.000   3.967   0.710
 3948SOL    HW212744   6.045   3.838   0.800
 3949SOL     OW12745   5.663   6.002   3.215
 3949SOL    HW112746   5.717   6.028   3.136
 3949SOL    HW212747   5.577   6.054   3.214
 3950SOL     OW12748   1.673   6.278   0.411
 3950SOL    HW112749   1.695   6.376   0.411
 3950SOL    HW212750   1.735   6.230   0.349
 3951SOL     OW12751   6.077   6.465   1.913
 3951SOL    HW112752   6.165   6.447   1.870
 3951SOL    HW212753   6.079   6.554   1.959
 3952SOL     OW12754   5.824   2.035   7.023
 3952SOL    HW112755   5.785   2.006   6.935
 3952SOL    HW212756   5.756   2.087   0.046
 3953SOL     OW12757   3.724   4.044   2.872
 3953SOL    HW112758   3.630   4.077   2.867
 3953SOL    HW212759   3.758   4.056   2.965
 3954SOL     OW12760   3.871   5.155   5.832
 3954SOL    HW112761   3.945   5.113   5.780
 3954SOL    HW212762   3.814   5.083   5.872
 3955SOL     OW12763   3.868   1.042   4.938
 3955SOL    HW112764   3.914   0.956   4.963
 3955SOL    HW212765   3.874   1.106   5.015
 3956SOL     OW12766   2.391   1.435   1.792
 3956SOL    HW112767   2.391   1.491   1.709
 3956SOL    HW212768   2.298   1.429   1.828
 3957SOL     OW12769   3.572   0.960   4.372
 3957SOL    HW112770   3.587   0.902   4.453
 3957SOL    HW212771   3.656   1.009   4.350
 3958SOL     OW12772   5.519   6.708   5.395
 3958SOL    HW112773   5.477   6.798   5.385
 3958SOL    HW212774   5.570   6.685   5.312
 3959SOL     OW12775   4.927   5.125   6.935
 3959SOL    HW112776   4.872   5.203   6.902
 3959SOL    HW212777   5.024   5.145   6.921
 3960SOL     OW12778   6.249   1.714   4.734
 3960SOL    HW112779   6.216   1.649   4.802
 3960SOL    HW212780   6.342   1.744   4.759
 3961SOL     OW12781   5.518   6.124   3.959
 3961SOL    HW112782   5.448   6.125   4.031
 3961SOL    HW212783   5.479   6.083   3.876
 3962SOL     OW12784   6.780   5.381   5.098
 3962SOL    HW112785   6.714   5.315   5.063
 3962SOL    HW212786   6.732   5.452   5.150
 3963SOL     OW12787   4.601   6.908   1.865
 3963SOL    HW112788   4.651   6.827   1.898
 3963SOL    HW212789   4.512   6.881   1.831
 3964SOL     OW12790   5.295   2.882   3.347
 3964SOL    HW112791   5.297   2.877   3.247
 3964SOL    HW212792   5.343   2.964   3.377
 3965SOL     OW12793   4.816   4.095   4.074
 3965SOL    HW112794   4.726   4.113   4.113
 3965SOL    HW212795   4.874   4.176   4.083
 3966SOL     OW12796   2.305   0.019   6.337
 3966SOL    HW112797   2.211   7.026   6.365
 3966SOL    HW212798   2.369   6.997   6.396
 3967SOL     OW12799   1.862   4.335   3.737
 3967SOL    HW112800   1.772   4.347   3.780
 3967SOL    HW212801   1.934   4.363   3.801
 3968SOL     OW12802   3.543   0.110   0.632
 3968SOL    HW112803   3.453   0.089   0.669
 3968SOL    HW212804   3.600   0.028   0.634
 3969SOL     OW12805   0.529   5.010   3.247
 3969SOL    HW112806   0.547   5.029   3.343
 3969SOL    HW212807   0.434   5.030   3.226
 3970SOL     OW12808   5.051   6.080   2.034
 3970SOL    HW112809   5.129   6.121   1.986
 3970SOL    HW212810   5.048   5.982   2.014
 3971SOL     OW12811   1.890   6.338   3.532
 3971SOL    HW112812   1.901   6.320   3.630
 3971SOL    HW212813   1.856   6.255   3.487
 3972SOL     OW12814   1.172   3.521   6.715
 3972SOL    HW112815   1.138   3.443   6.768
 3972SOL    HW212816   1.095   3.568   6.672
 3973SOL     OW12817   2.004   4.912   0.706
 3973SOL    HW112818   2.070   4.922   0.780
 3973SOL    HW212819   1.939   4.988   0.709
 3974SOL     OW12820   2.441   1.334   5.618
 3974SOL    HW112821   2.409   1.405   5.556
 3974SOL    HW212822   2.450   1.371   5.710
 3975SOL     OW12823   6.279   3.010   6.406
 3975SOL    HW112824   6.252   2.924   6.363
 3975SOL    HW212825   6.378   3.023   6.396
 3976SOL     OW12826   1.975   4.615   2.645
 3976SOL    HW112827   1.960   4.544   2.576
 3976SOL    HW212828   1.972   4.705   2.600
 3977SOL     OW12829   0.627   3.035   0.061
 3977SOL    HW112830   0.597   3.052   0.155
 3977SOL    HW212831   0.611   2.939   0.037
 3978SOL     OW12832   5.964   4.631   3.658
 3978SOL    HW112833   6.001   4.551   3.705
 3978SOL    HW212834   6.004   4.714   3.695
 3979SOL     OW12835   4.124   6.434   5.976
 3979SOL    HW112836   4.077   6.496   6.039
 3979SOL    HW212837   4.212   6.408   6.014
 3980SOL     OW12838   5.125   5.228   5.672
 3980SOL    HW112839   5.169   5.262   5.755
 3980SOL    HW212840   5.192   5.180   5.616
 3981SOL     OW12841   4.601   5.519   0.272
 3981SOL    HW112842   4.532   5.535   0.201
 3981SOL    HW212843   4.578   5.436   0.323
 3982SOL     OW12844   3.050   5.916   3.241
 3982SOL    HW112845   3.069   5.821   3.266
 3982SOL    HW212846   3.032   5.970   3.323
 3983SOL     OW12847   3.269   5.574   4.523
 3983SOL    HW112848   3.295   5.582   4.427
 3983SOL    HW212849   3.221   5.656   4.552
 3984SOL     OW12850   6.714   2.777   3.538
 3984SOL    HW112851   6.756   2.709   3.598
 3984SOL    HW212852   6.624   2.744   3.508
 3985SOL     OW12853   4.277   5.024   6.422
 3985SOL    HW112854   4.320   4.936   6.444
 3985SOL    HW212855   4.249   5.069   6.506
 3986SOL     OW12856   5.343   0.575   2.886
 3986SOL    HW112857   5.273   0.596   2.818
 3986SOL    HW212858   5.335   0.638   2.963
 3987SOL     OW12859   3.831   5.630   4.679
 3987SOL    HW112860   3.888   5.707   4.708
 3987SOL    HW212861   3.786   5.653   4.592
 3988SOL     OW12862   3.684   5.631   0.790
 3988SOL    HW112863   3.737   5.559   0.834
 3988SOL    HW212864   3.724   5.720   0.813
 3989SOL     OW12865   5.861   2.828   0.839
 3989SOL    HW112866   5.761   2.823   0.833
 3989SOL    HW212867   5.890   2.806   0.932
 3990SOL     OW12868   6.855   1.620   2.531
 3990SOL    HW112869   6.897   1.588   2.446
 3990SOL    HW212870   6.774   1.675   2.510
 3991SOL     OW12871   5.814   0.390   2.991
 3991SOL    HW112872   5.853   0.427   2.907
 3991SOL    HW212873   5.887   0.360   3.052
 3992SOL     OW12874   3.547   2.082   0.805
 3992SOL    HW112875   3.638   2.125   0.799
 3992SOL    HW212876   3.506   2.078   0.714
 3993SOL     OW12877   0.975   2.855   2.105
 3993SOL    HW112878   0.931   2.917   2.170
 3993SOL    HW212879   1.033   2.907   2.042
 3994SOL     OW12880   2.209   6.448   4.336
 3994SOL    HW112881   2.178   6.515   4.403
 3994SOL    HW212882   2.308   6.434   4.346
 3995SOL     OW12883   1.721   1.526   4.570
 3995SOL    HW112884   1.808   1.555   4.609
 3995SOL    HW212885   1.673   1.606   4.533
 3996SOL     OW12886   6.921   6.256   4.532
 3996SOL    HW112887   6.990   6.212   4.476
 3996SOL    HW212888   6.962   6.333   4.581
 3997SOL     OW12889   3.925   0.877   4.314
 3997SOL    HW112890   4.003   0.936   4.295
 3997SOL    HW212891   3.935   0.836   4.405
 3998SOL     OW12892   4.554   2.049   3.200
 3998SOL    HW112893   4.526   1.993   3.278
 3998SOL    HW212894   4.504   2.021   3.118
 3999SOL     OW12895   4.999   1.741   4.252
 3999SOL    HW112896   4.983   1.837   4.274
 3999SOL    HW212897   5.051   1.698   4.325
 4000SOL     OW12898   4.240   6.622   3.892
 4000SOL    HW112899   4.219   6.707   3.843
 4000SOL    HW212900   4.338   6.621   3.914
 4001SOL     OW12901   1.149   1.695   4.141
 4001SOL    HW112902   1.111   1.657   4.057
 4001SOL    HW212903   1.222   1.636   4.175
 4002SOL     OW12904   2.378   4.603   1.701
 4002SOL    HW112905   2.401   4.692   1.740
 4002SOL    HW212906   2.450   4.538   1.722
 4003SOL     OW12907   3.893   2.130   4.991
 4003SOL    HW112908   3.811   2.137   4.935
 4003SOL    HW212909   3.960   2.199   4.963
 4004SOL     OW12910   6.370   1.965   5.812
 4004SOL    HW112911   6.284   2.013   5.827
 4004SOL    HW212912   6.374   1.885   5.873
 4005SOL     OW12913   5.842   4.581   5.269
 4005SOL    HW112914   5.919   4.546   5.324
 4005SOL    HW212915   5.872   4.594   5.175
 4006SOL     OW12916   3.935   5.845   2.545
 4006SOL    HW112917   3.895   5.842   2.453
 4006SOL    HW212918   4.030   5.814   2.541
 4007SOL     OW12919   0.203   1.350   6.025
 4007SOL    HW112920   0.166   1.258   6.010
 4007SOL    HW212921   0.262   1.375   5.948
 4008SOL     OW12922   3.060   1.686   5.103
 4008SOL    HW112923   3.093   1.632   5.181
 4008SOL    HW212924   2.979   1.738   5.131
 4009SOL     OW12925   3.366   3.522   3.035
 4009SOL    HW112926   3.461   3.522   3.003
 4009SOL    HW212927   3.306   3.552   2.961
 4010SOL     OW12928   1.370   3.142   0.028
 4010SOL    HW112929   1.271   3.152   0.015
 4010SOL    HW212930   1.417   3.216   7.008
 4011SOL     OW12931   0.773   2.732   0.629
 4011SOL    HW112932   0.862   2.709   0.668
 4011SOL    HW212933   0.702   2.677   0.672
 4012SOL     OW12934   5.535   3.344   3.569
 4012SOL    HW112935   5.525   3.435   3.528
 4012SOL    HW212936   5.510   3.348   3.665
 4013SOL     OW12937   4.931   2.310   3.087
 4013SOL    HW112938   4.942   2.257   3.002
 4013SOL    HW212939   4.836   2.305   3.117
 4014SOL     OW12940   5.742   6.141   1.902
 4014SOL    HW112941   5.818   6.147   1.968
 4014SOL    HW212942   5.657   6.166   1.948
 4015SOL     OW12943   4.642   3.636   0.200
 4015SOL    HW112944   4.551   3.669   0.176
 4015SOL    HW212945   4.711   3.684   0.146
 4016SOL     OW12946   3.240   6.171   4.974
 4016SOL    HW112947   3.219   6.260   5.014
 4016SOL    HW212948   3.281   6.112   5.044
 4017SOL     OW12949   6.169   6.608   6.708
 4017SOL    HW112950   6.148   6.592   6.612
 4017SOL    HW212951   6.210   6.699   6.719
 4018SOL     OW12952   1.827   0.199   6.957
 4018SOL    HW112953   1.878   0.143   7.022
 4018SOL    HW212954   1.776   0.140   6.895
 4019SOL     OW12955   4.877   5.317   3.259
 4019SOL    HW112956   4.843   5.408   3.233
 4019SOL    HW212957   4.957   5.326   3.318
 4020SOL     OW12958   5.097   2.056   4.869
 4020SOL    HW112959   5.086   1.977   4.809
 4020SOL    HW212960   5.193   2.080   4.875
 4021SOL     OW12961   4.635   4.057   6.556
 4021SOL    HW112962   4.542   4.078   6.527
 4021SOL    HW212963   4.672   4.136   6.606
 4022SOL     OW12964   4.961   0.327   0.930
 4022SOL    HW112965   5.054   0.365   0.923
 4022SOL    HW212966   4.913   0.342   0.844
 4023SOL     OW12967   6.268   0.219   5.694
 4023SOL    HW112968   6.185   0.228   5.749
 4023SOL    HW212969   6.345   0.260   5.742
 4024SOL     OW12970   4.568   4.527   4.911
 4024SOL    HW112971   4.561   4.560   4.817
 4024SOL    HW212972   4.480   4.541   4.958
 4025SOL     OW12973   0.793   3.866   4.043
 4025SOL    HW112974   0.869   3.832   4.098
 4025SOL    HW212975   0.715   3.804   4.054
 4026SOL     OW12976   5.066   6.988   5.217
 4026SOL    HW112977   5.043   7.014   5.311
 4026SOL    HW212978   5.005   0.009   5.153
 4027SOL     OW12979   3.112   5.189   2.646
 4027SOL    HW112980   3.184   5.230   2.702
 4027SOL    HW212981   3.140   5.191   2.550
 4028SOL     OW12982   2.371   6.244   3.464
 4028SOL    HW112983   2.300   6.174   3.454
 4028SOL    HW212984   2.415   6.233   3.553
 4029SOL     OW12985   1.924   4.017   3.719
 4029SOL    HW112986   1.901   4.105   3.678
 4029SOL    HW212987   2.006   3.980   3.674
 4030SOL     OW12988   1.629   1.907   5.865
 4030SOL    HW112989   1.692   1.936   5.793
 4030SOL    HW212990   1.542   1.880   5.824
 4031SOL     OW12991   6.307   5.684   4.334
 4031SOL    HW112992   6.225   5.683   4.277
 4031SOL    HW212993   6.299   5.612   4.403
 4032SOL     OW12994   3.413   0.142   4.870
 4032SOL    HW112995   3.490   0.204   4.883
 4032SOL    HW212996   3.415   0.105   4.777
 4033SOL     OW12997   3.765   3.707   6.111
 4033SOL    HW112998   3.849   3.708   6.166
 4033SOL    HW212999   3.687   3.728   6.169
 4034SOL     OW13000   5.861   3.189   4.881
 4034SOL    HW113001   5.833   3.093   4.887
 4034SOL    HW213002   5.892   3.221   4.970
 4035SOL     OW13003   0.429   5.781   1.900
 4035SOL    HW113004   0.408   5.696   1.949
 4035SOL    HW213005   0.421   5.858   1.963
 4036SOL     OW13006   6.666   6.213   2.418
 4036SOL    HW113007   6.675   6.125   2.372
 4036SOL    HW213008   6.634   6.282   2.352
 4037SOL     OW13009   0.243   3.874   5.273
 4037SOL    HW113010   0.240   3.920   5.185
 4037SOL    HW213011   0.319   3.910   5.327
 4038SOL     OW13012   5.899   5.104   2.968
 4038SOL    HW113013   5.988   5.127   3.006
 4038SOL    HW213014   5.867   5.018   3.008
 4039SOL     OW13015   2.753   5.817   1.084
 4039SOL    HW113016   2.671   5.820   1.141
 4039SOL    HW213017   2.738   5.871   1.001
 4040SOL     OW13018   3.316   6.725   0.129
 4040SOL    HW113019   3.264   6.795   0.080
 4040SOL    HW213020   3.253   6.665   0.180
 4041SOL     OW13021   0.811   5.766   2.956
 4041SOL    HW113022   0.721   5.767   2.913
 4041SOL    HW213023   0.807   5.815   3.043
 4042SOL     OW13024   5.993   6.072   2.706
 4042SOL    HW113025   6.005   6.080   2.607
 4042SOL    HW213026   6.077   6.100   2.753
 4043SOL     OW13027   6.030   3.990   1.344
 4043SOL    HW113028   6.019   3.935   1.262
 4043SOL    HW213029   5.977   4.074   1.336
 4044SOL     OW13030   5.936   5.003   2.177
 4044SOL    HW113031   5.919   4.906   2.159
 4044SOL    HW213032   5.849   5.050   2.191
 4045SOL     OW13033   2.662   4.578   5.886
 4045SOL    HW113034   2.735   4.628   5.840
 4045SOL    HW213035   2.592   4.643   5.917
 4046SOL     OW13036   0.247   3.263   0.948
 4046SOL    HW113037   0.285   3.254   1.040
 4046SOL    HW213038   0.272   3.352   0.910
 4047SOL     OW13039   3.001   3.752   2.942
 4047SOL    HW113040   2.943   3.685   2.987
 4047SOL    HW213041   3.056   3.800   3.010
 4048SOL     OW13042   4.460   2.616   0.629
 4048SOL    HW113043   4.515   2.699   0.628
 4048SOL    HW213044   4.498   2.551   0.695
 4049SOL     OW13045   6.596   0.547   6.744
 4049SOL    HW113046   6.683   0.589   6.717
 4049SOL    HW213047   6.520   0.601   6.708
 4050SOL     OW13048   3.077   0.572   2.506
 4050SOL    HW113049   3.108   0.484   2.472
 4050SOL    HW213050   3.073   0.638   2.431
 4051SOL     OW13051   1.559   3.704   0.982
 4051SOL    HW113052   1.504   3.741   1.056
 4051SOL    HW213053   1.616   3.630   1.017
 4052SOL     OW13054   1.252   0.186   1.443
 4052SOL    HW113055   1.191   0.184   1.364
 4052SOL    HW213056   1.201   0.165   1.526
 4053SOL     OW13057   2.898   5.039   3.384
 4053SOL    HW113058   2.883   4.941   3.400
 4053SOL    HW213059   2.815   5.089   3.409
 4054SOL     OW13060   5.187   1.595   6.872
 4054SOL    HW113061   5.119   1.645   6.927
 4054SOL    HW213062   5.225   1.656   6.802
 4055SOL     OW13063   4.567   3.334   0.061
 4055SOL    HW113064   4.653   3.375   0.032
 4055SOL    HW213065   4.524   3.393   0.130
 4056SOL     OW13066   4.280   2.972   0.206
 4056SOL    HW113067   4.324   3.028   0.137
 4056SOL    HW213068   4.250   3.029   0.282
 4057SOL     OW13069   6.288   2.907   0.601
 4057SOL    HW113070   6.307   2.948   0.690
 4057SOL    HW213071   6.367   2.853   0.572
 4058SOL     OW13072   0.478   1.885   3.754
 4058SOL    HW113073   0.478   1.962   3.690
 4058SOL    HW213074   0.506   1.917   3.844
 4059SOL     OW13075   6.801   2.176   5.351
 4059SOL    HW113076   6.845   2.255   5.392
 4059SOL    HW213077   6.870   2.108   5.326
 4060SOL     OW13078   3.435   6.203   5.857
 4060SOL    HW113079   3.457   6.127   5.918
 4060SOL    HW213080   3.496   6.280   5.877
 4061SOL     OW13081   2.135   3.127   1.545
 4061SOL    HW113082   2.217   3.154   1.496
 4061SOL    HW213083   2.095   3.046   1.502
 4062SOL     OW13084   2.894   6.726   2.772
 4062SOL    HW113085   2.817   6.669   2.742
 4062SOL    HW213086   2.895   6.730   2.872
 4063SOL     OW13087   2.791   5.540   6.521
 4063SOL    HW113088   2.734   5.560   6.442
 4063SOL    HW213089   2.886   5.566   6.501
 4064SOL     OW13090   6.693   7.013   4.190
 4064SOL    HW113091   6.786   0.000   4.158
 4064SOL    HW213092   6.691   7.018   4.290
 4065SOL     OW13093   1.001   4.339   6.032
 4065SOL    HW113094   0.908   4.328   5.998
 4065SOL    HW213095   1.060   4.373   5.959
 4066SOL     OW13096   4.832   5.406   1.228
 4066SOL    HW113097   4.889   5.356   1.292
 4066SOL    HW213098   4.747   5.355   1.212
 4067SOL     OW13099   5.499   0.768   1.296
 4067SOL    HW113100   5.564   0.845   1.295
 4067SOL    HW213101   5.514   0.712   1.215
 4068SOL     OW13102   5.445   1.140   4.835
 4068SOL    HW113103   5.423   1.048   4.869
 4068SOL    HW213104   5.522   1.134   4.771
 4069SOL     OW13105   6.387   6.194   1.096
 4069SOL    HW113106   6.331   6.265   1.137
 4069SOL    HW213107   6.401   6.120   1.162
 4070SOL     OW13108   6.450   3.783   2.945
 4070SOL    HW113109   6.504   3.711   2.989
 4070SOL    HW213110   6.449   3.768   2.846
 4071SOL     OW13111   2.587   0.636   4.307
 4071SOL    HW113112   2.635   0.548   4.308
 4071SOL    HW213113   2.532   0.646   4.390
 4072SOL     OW13114   0.643   0.079   4.318
 4072SOL    HW113115   0.707   0.003   4.302
 4072SOL    HW213116   0.677   0.136   4.393
 4073SOL     OW13117   2.545   4.989   2.542
 4073SOL    HW113118   2.517   4.964   2.450
 4073SOL    HW213119   2.470   4.970   2.606
 4074SOL     OW13120   0.218   2.994   0.873
 4074SOL    HW113121   0.213   3.091   0.896
 4074SOL    HW213122   0.239   2.984   0.776
 4075SOL     OW13123   5.605   6.875   3.992
 4075SOL    HW113124   5.637   6.907   3.903
 4075SOL    HW213125   5.654   6.925   4.064
 4076SOL     OW13126   1.701   2.755   3.142
 4076SOL    HW113127   1.706   2.825   3.070
 4076SOL    HW213128   1.793   2.731   3.171
 4077SOL     OW13129   3.730   0.992   1.171
 4077SOL    HW113130   3.795   0.917   1.180
 4077SOL    HW213131   3.679   0.982   1.086
 4078SOL     OW13132   4.643   4.531   2.830
 4078SOL    HW113133   4.600   4.498   2.914
 4078SOL    HW213134   4.737   4.559   2.849
 4079SOL     OW13135   5.023   0.646   3.900
 4079SOL    HW113136   5.099   0.594   3.938
 4079SOL    HW213137   5.049   0.743   3.893
 4080SOL     OW13138   3.233   4.153   4.583
 4080SOL    HW113139   3.324   4.191   4.595
 4080SOL    HW213140   3.235   4.080   4.514
 4081SOL     OW13141   2.356   1.287   0.043
 4081SOL    HW113142   2.399   1.198   0.027
 4081SOL    HW213143   2.274   1.295   7.015
 4082SOL     OW13144   1.154   1.362   6.253
 4082SOL    HW113145   1.132   1.267   6.231
 4082SOL    HW213146   1.070   1.411   6.276
 4083SOL     OW13147   6.242   5.032   2.081
 4083SOL    HW113148   6.310   4.976   2.128
 4083SOL    HW213149   6.159   4.978   2.068
 4084SOL     OW13150   4.629   6.646   1.986
 4084SOL    HW113151   4.600   6.575   2.050
 4084SOL    HW213152   4.559   6.658   1.915
 4085SOL     OW13153   2.431   4.451   2.651
 4085SOL    HW113154   2.369   4.445   2.573
 4085SOL    HW213155   2.511   4.505   2.625
 4086SOL     OW13156   5.720   5.195   4.968
 4086SOL    HW113157   5.764   5.134   5.033
 4086SOL    HW213158   5.635   5.155   4.936
 4087SOL     OW13159   2.183   0.892   2.365
 4087SOL    HW113160   2.188   0.990   2.345
 4087SOL    HW213161   2.151   0.879   2.459
 4088SOL     OW13162   6.877   1.628   5.653
 4088SOL    HW113163   6.883   1.529   5.638
 4088SOL    HW213164   6.782   1.653   5.670
 4089SOL     OW13165   1.374   0.515   2.872
 4089SOL    HW113166   1.297   0.540   2.813
 4089SOL    HW213167   1.415   0.598   2.909
 4090SOL     OW13168   3.091   2.615   5.501
 4090SOL    HW113169   3.099   2.630   5.599
 4090SOL    HW213170   3.043   2.529   5.484
 4091SOL     OW13171   3.576   5.943   2.302
 4091SOL    HW113172   3.547   5.945   2.206
 4091SOL    HW213173   3.514   5.886   2.355
 4092SOL     OW13174   5.130   1.887   5.978
 4092SOL    HW113175   5.087   1.874   5.889
 4092SOL    HW213176   5.229   1.886   5.968
 4093SOL     OW13177   5.680   4.044   2.202
 4093SOL    HW113178   5.666   4.057   2.300
 4093SOL    HW213179   5.611   3.981   2.166
 4094SOL     OW13180   6.748   6.962   0.139
 4094SOL    HW113181   6.707   6.973   0.048
 4094SOL    HW213182   6.680   6.927   0.202
 4095SOL     OW13183   1.652   5.200   1.062
 4095SOL    HW113184   1.565   5.150   1.052
 4095SOL    HW213185   1.728   5.134   1.064
 4096SOL     OW13186   0.410   0.298   6.365
 4096SOL    HW113187   0.356   0.228   6.412
 4096SOL    HW213188   0.363   0.326   6.281
 4097SOL     OW13189   1.205   3.864   5.409
 4097SOL    HW113190   1.298   3.900   5.407
 4097SOL    HW213191   1.141   3.937   5.435
 4098SOL     OW13192   1.517   5.835   2.057
 4098SOL    HW113193   1.514   5.865   2.153
 4098SOL    HW213194   1.508   5.914   1.997
 4099SOL     OW13195   0.075   3.278   5.756
 4099SOL    HW113196   0.112   3.207   5.697
 4099SOL    HW213197   0.050   3.357   5.701
 4100SOL     OW13198   2.265   0.317   3.186
 4100SOL    HW113199   2.211   0.377   3.245
 4100SOL    HW213200   2.339   0.276   3.239
 4101SOL     OW13201   6.355   6.266   6.136
 4101SOL    HW113202   6.324   6.180   6.098
 4101SOL    HW213203   6.360   6.335   6.064
 4102SOL     OW13204   2.017   5.327   0.462
 4102SOL    HW113205   2.036   5.424   0.478
 4102SOL    HW213206   2.070   5.272   0.528
 4103SOL     OW13207   2.279   5.095   3.259
 4103SOL    HW113208   2.263   5.044   3.175
 4103SOL    HW213209   2.351   5.163   3.244
 4104SOL     OW13210   1.811   5.846   5.575
 4104SOL    HW113211   1.733   5.905   5.597
 4104SOL    HW213212   1.839   5.796   5.656
 4105SOL     OW13213   3.465   6.857   1.684
 4105SOL    HW113214   3.451   6.867   1.783
 4105SOL    HW213215   3.554   6.895   1.659
 4106SOL     OW13216   1.371   0.069   3.023
 4106SOL    HW113217   1.402   0.154   2.982
 4106SOL    HW213218   1.385   0.072   3.122
 4107SOL     OW13219   1.863   1.949   1.109
 4107SOL    HW113220   1.862   1.966   1.010
 4107SOL    HW213221   1.785   1.995   1.151
 4108SOL     OW13222   0.402   6.494   5.091
 4108SOL    HW113223   0.343   6.537   5.022
 4108SOL    HW213224   0.345   6.448   5.159
 4109SOL     OW13225   4.962   6.656   4.899
 4109SOL    HW113226   4.956   6.751   4.870
 4109SOL    HW213227   5.032   6.609   4.846
 4110SOL     OW13228   4.092   3.009   0.773
 4110SOL    HW113229   4.061   2.955   0.851
 4110SOL    HW213230   4.146   2.951   0.712
 4111SOL     OW13231   5.796   4.865   3.610
 4111SOL    HW113232   5.702   4.895   3.595
 4111SOL    HW213233   5.798   4.767   3.628
 4112SOL     OW13234   4.571   5.732   5.126
 4112SOL    HW113235   4.516   5.788   5.189
 4112SOL    HW213236   4.667   5.737   5.152
 4113SOL     OW13237   4.646   5.526   5.497
 4113SOL    HW113238   4.715   5.493   5.433
 4113SOL    HW213239   4.666   5.491   5.589
 4114SOL     OW13240   6.857   1.114   2.941
 4114SOL    HW113241   6.942   1.165   2.956
 4114SOL    HW213242   6.793   1.134   3.014
 4115SOL     OW13243   3.894   6.315   4.271
 4115SOL    HW113244   3.933   6.307   4.362
 4115SOL    HW213245   3.967   6.320   4.203
 4116SOL     OW13246   6.331   3.390   3.812
 4116SOL    HW113247   6.296   3.333   3.886
 4116SOL    HW213248   6.428   3.409   3.828
 4117SOL     OW13249   0.150   1.907   2.656
 4117SOL    HW113250   0.227   1.970   2.663
 4117SOL    HW213251   0.164   1.846   2.579
 4118SOL     OW13252   1.167   0.186   1.746
 4118SOL    HW113253   1.161   0.089   1.769
 4118SOL    HW213254   1.255   0.222   1.776
 4119SOL     OW13255   6.861   0.740   5.578
 4119SOL    HW113256   6.778   0.736   5.524
 4119SOL    HW213257   6.917   0.818   5.549
 4120SOL     OW13258   1.647   0.727   6.130
 4120SOL    HW113259   1.596   0.731   6.043
 4120SOL    HW213260   1.719   0.796   6.130
 4121SOL     OW13261   6.739   1.166   1.419
 4121SOL    HW113262   6.655   1.132   1.461
 4121SOL    HW213263   6.771   1.246   1.469
 4122SOL     OW13264   0.630   4.809   3.609
 4122SOL    HW113265   0.708   4.766   3.654
 4122SOL    HW213266   0.551   4.810   3.672
 4123SOL     OW13267   5.745   4.533   1.452
 4123SOL    HW113268   5.816   4.473   1.490
 4123SOL    HW213269   5.704   4.490   1.372
 4124SOL     OW13270   6.209   6.718   0.105
 4124SOL    HW113271   6.211   6.750   0.200
 4124SOL    HW213272   6.255   6.784   0.046
 4125SOL     OW13273   6.929   2.454   6.681
 4125SOL    HW113274   6.885   2.388   6.742
 4125SOL    HW213275   6.951   2.538   6.732
 4126SOL     OW13276   1.478   4.135   4.099
 4126SOL    HW113277   1.399   4.107   4.154
 4126SOL    HW213278   1.475   4.087   4.011
 4127SOL     OW13279   4.714   2.434   3.798
 4127SOL    HW113280   4.663   2.515   3.768
 4127SOL    HW213281   4.769   2.400   3.722
 4128SOL     OW13282   6.437   1.987   6.426
 4128SOL    HW113283   6.510   1.950   6.483
 4128SOL    HW213284   6.457   2.083   6.404
 4129SOL     OW13285   3.411   0.498   1.653
 4129SOL    HW113286   3.410   0.592   1.688
 4129SOL    HW213287   3.467   0.494   1.570
 4130SOL     OW13288   5.121   2.669   0.207
 4130SOL    HW113289   5.205   2.678   0.261
 4130SOL    HW213290   5.062   2.600   0.247
 4131SOL     OW13291   4.961   5.904   3.466
 4131SOL    HW113292   4.971   5.860   3.555
 4131SOL    HW213293   5.050   5.907   3.420
 4132SOL     OW13294   6.509   3.966   3.152
 4132SOL    HW113295   6.495   3.915   3.067
 4132SOL    HW213296   6.543   4.058   3.131
 4133SOL     OW13297   5.297   6.436   3.605
 4133SOL    HW113298   5.296   6.526   3.649
 4133SOL    HW213299   5.383   6.390   3.628
 4134SOL     OW13300   1.124   3.277   1.270
 4134SOL    HW113301   1.151   3.220   1.193
 4134SOL    HW213302   1.031   3.310   1.256
 4135SOL     OW13303   6.151   1.530   1.005
 4135SOL    HW113304   6.100   1.499   0.925
 4135SOL    HW213305   6.135   1.468   1.082
 4136SOL     OW13306   0.795   5.079   0.402
 4136SOL    HW113307   0.798   5.129   0.315
 4136SOL    HW213308   0.810   4.982   0.385
 4137SOL     OW13309   0.150   2.666   5.764
 4137SOL    HW113310   0.083   2.624   5.702
 4137SOL    HW213311   0.113   2.752   5.800
 4138SOL     OW13312   5.646   6.843   6.131
 4138SOL    HW113313   5.676   6.913   6.196
 4138SOL    HW213314   5.726   6.810   6.080
 4139SOL     OW13315   1.730   4.236   2.371
 4139SOL    HW113316   1.701   4.280   2.286
 4139SOL    HW213317   1.686   4.281   2.449
 4140SOL     OW13318   2.197   0.113   0.001
 4140SOL    HW113319   2.263   0.051   0.044
 4140SOL    HW213320   2.110   0.107   0.050
 4141SOL     OW13321   5.150   0.299   5.907
 4141SOL    HW113322   5.112   0.255   5.988
 4141SOL    HW213323   5.122   0.395   5.904
 4142SOL     OW13324   0.238   6.662   1.534
 4142SOL    HW113325   0.322   6.619   1.500
 4142SOL    HW213326   0.158   6.611   1.501
 4143SOL     OW13327   6.661   3.540   6.774
 4143SOL    HW113328   6.641   3.613   6.709
 4143SOL    HW213329   6.599   3.463   6.758
 4144SOL     OW13330   4.420   0.441   1.671
 4144SOL    HW113331   4.402   0.437   1.573
 4144SOL    HW213332   4.439   0.536   1.698
 4145SOL     OW13333   5.391   0.812   0.960
 4145SOL    HW113334   5.320   0.816   1.031
 4145SOL    HW213335   5.462   0.748   0.987
 4146SOL     OW13336   4.096   6.808   2.457
 4146SOL    HW113337   4.071   6.882   2.520
 4146SOL    HW213338   4.014   6.762   2.424
 4147SOL     OW13339   4.648   4.341   6.683
 4147SOL    HW113340   4.649   4.283   6.764
 4147SOL    HW213341   4.741   4.375   6.665
 4148SOL     OW13342   3.071   1.359   5.909
 4148SOL    HW113343   3.023   1.408   5.982
 4148SOL    HW213344   3.169   1.378   5.914
 4149SOL     OW13345   1.801   3.282   0.028
 4149SOL    HW113346   1.881   3.342   0.032
 4149SOL    HW213347   1.819   3.200   0.083
 4150SOL     OW13348   6.377   1.399   0.949
 4150SOL    HW113349   6.304   1.464   0.969
 4150SOL    HW213350   6.439   1.394   1.027
 4151SOL     OW13351   3.008   5.836   4.958
 4151SOL    HW113352   3.051   5.746   4.946
 4151SOL    HW213353   2.945   5.832   5.035
 4152SOL     OW13354   2.811   4.154   1.295
 4152SOL    HW113355   2.820   4.117   1.387
 4152SOL    HW213356   2.829   4.081   1.228
 4153SOL     OW13357   6.860   6.034   1.402
 4153SOL    HW113358   6.956   6.062   1.399
 4153SOL    HW213359   6.835   5.989   1.316
 4154SOL     OW13360   0.238   6.296   4.795
 4154SOL    HW113361   0.237   6.220   4.730
 4154SOL    HW213362   0.276   6.265   4.882
 4155SOL     OW13363   5.828   1.261   1.789
 4155SOL    HW113364   5.834   1.165   1.815
 4155SOL    HW213365   5.849   1.318   1.868
 4156SOL     OW13366   0.612   4.880   5.717
 4156SOL    HW113367   0.642   4.864   5.811
 4156SOL    HW213368   0.691   4.889   5.657
 4157SOL     OW13369   5.356   6.270   0.903
 4157SOL    HW113370   5.306   6.350   0.934
 4157SOL    HW213371   5.399   6.225   0.981
 4158SOL     OW13372   6.463   2.349   0.294
 4158SOL    HW113373   6.469   2.274   0.360
 4158SOL    HW213374   6.394   2.327   0.225
 4159SOL     OW13375   3.093   0.179   4.693
 4159SOL    HW113376   3.107   0.156   4.597
 4159SOL    HW213377   3.153   0.255   4.718
 4160SOL     OW13378   1.868   0.009   5.701
 4160SOL    HW113379   1.879   0.108   5.691
 4160SOL    HW213380   1.955   6.992   5.682
 4161SOL     OW13381   3.149   3.057   3.945
 4161SOL    HW113382   3.219   3.101   4.001
 4161SOL    HW213383   3.064   3.051   3.996
 4162SOL     OW13384   5.205   5.885   1.423
 4162SOL    HW113385   5.208   5.975   1.466
 4162SOL    HW213386   5.195   5.897   1.324
 4163SOL     OW13387   3.528   5.629   1.324
 4163SOL    HW113388   3.492   5.570   1.252
 4163SOL    HW213389   3.509   5.589   1.414
 4164SOL     OW13390   5.511   2.019   6.947
 4164SOL    HW113391   5.504   2.020   0.019
 4164SOL    HW213392   5.420   2.025   6.907
 4165SOL     OW13393   3.643   1.847   3.915
 4165SOL    HW113394   3.690   1.761   3.935
 4165SOL    HW213395   3.688   1.893   3.838
 4166SOL     OW13396   5.961   2.254   2.347
 4166SOL    HW113397   5.932   2.274   2.440
 4166SOL    HW213398   5.899   2.298   2.282
 4167SOL     OW13399   4.043   6.243   4.773
 4167SOL    HW113400   4.030   6.329   4.823
 4167SOL    HW213401   4.072   6.172   4.836
 4168SOL     OW13402   5.060   3.908   6.490
 4168SOL    HW113403   4.999   3.882   6.415
 4168SOL    HW213404   5.126   3.976   6.457
 4169SOL     OW13405   5.197   3.791   6.694
 4169SOL    HW113406   5.229   3.704   6.658
 4169SOL    HW213407   5.142   3.838   6.626
 4170SOL     OW13408   1.603   3.501   5.054
 4170SOL    HW113409   1.663   3.497   4.975
 4170SOL    HW213410   1.515   3.459   5.031
 4171SOL     OW13411   0.600   1.086   6.315
 4171SOL    HW113412   0.646   1.048   6.235
 4171SOL    HW213413   0.531   1.021   6.348
 4172SOL     OW13414   2.633   2.882   6.757
 4172SOL    HW113415   2.660   2.831   6.839
 4172SOL    HW213416   2.626   2.979   6.780
 4173SOL     OW13417   5.189   1.008   5.008
 4173SOL    HW113418   5.101   1.028   4.963
 4173SOL    HW213419   5.190   1.049   5.099
 4174SOL     OW13420   3.277   6.786   3.922
 4174SOL    HW113421   3.281   6.687   3.936
 4174SOL    HW213422   3.294   6.807   3.826
 4175SOL     OW13423   1.040   4.831   6.855
 4175SOL    HW113424   0.977   4.871   6.922
 4175SOL    HW213425   1.098   4.763   6.901
 4176SOL     OW13426   4.608   0.242   5.413
 4176SOL    HW113427   4.524   0.207   5.453
 4176SOL    HW213428   4.615   0.212   5.318
 4177SOL     OW13429   4.094   5.480   3.370
 4177SOL    HW113430   4.117   5.383   3.364
 4177SOL    HW213431   4.040   5.496   3.452
 4178SOL     OW13432   3.969   6.498   1.047
 4178SOL    HW113433   3.875   6.466   1.048
 4178SOL    HW213434   3.975   6.588   1.091
 4179SOL     OW13435   4.381   2.273   6.528
 4179SOL    HW113436   4.305   2.295   6.590
 4179SOL    HW213437   4.464   2.258   6.581
 4180SOL     OW13438   3.608   4.277   6.779
 4180SOL    HW113439   3.582   4.361   6.829
 4180SOL    HW213440   3.577   4.197   6.831
 4181SOL     OW13441   5.470   6.084   5.480
 4181SOL    HW113442   5.540   6.026   5.523
 4181SOL    HW213443   5.382   6.037   5.483
 4182SOL     OW13444   0.100   5.604   5.493
 4182SOL    HW113445   0.180   5.643   5.538
 4182SOL    HW213446   0.128   5.531   5.432
 4183SOL     OW13447   4.979   2.522   0.382
 4183SOL    HW113448   4.884   2.545   0.404
 4183SOL    HW213449   5.007   2.443   0.436
 4184SOL     OW13450   3.040   5.433   3.294
 4184SOL    HW113451   3.061   5.485   3.211
 4184SOL    HW213452   3.062   5.488   3.375
 4185SOL     OW13453   4.790   4.224   3.120
 4185SOL    HW113454   4.720   4.210   3.050
 4185SOL    HW213455   4.779   4.315   3.160
 4186SOL     OW13456   1.712   5.092   6.909
 4186SOL    HW113457   1.633   5.045   6.871
 4186SOL    HW213458   1.775   5.025   6.949
 4187SOL     OW13459   2.606   4.312   6.384
 4187SOL    HW113460   2.520   4.271   6.414
 4187SOL    HW213461   2.593   4.356   6.295
 4188SOL     OW13462   5.366   0.570   6.640
 4188SOL    HW113463   5.318   0.595   6.556
 4188SOL    HW213464   5.332   0.626   6.716
 4189SOL     OW13465   5.057   5.349   2.754
 4189SOL    HW113466   5.077   5.319   2.847
 4189SOL    HW213467   4.965   5.320   2.728
 4190SOL     OW13468   6.751   6.580   2.020
 4190SOL    HW113469   6.843   6.589   1.980
 4190SOL    HW213470   6.700   6.664   2.005
 4191SOL     OW13471   4.577   2.574   6.440
 4191SOL    HW113472   4.479   2.580   6.424
 4191SOL    HW213473   4.606   2.478   6.435
 4192SOL     OW13474   1.762   3.849   6.049
 4192SOL    HW113475   1.823   3.771   6.059
 4192SOL    HW213476   1.667   3.819   6.063
 4193SOL     OW13477   6.465   0.257   1.180
 4193SOL    HW113478   6.476   0.165   1.143
 4193SOL    HW213479   6.546   0.282   1.232
 4194SOL     OW13480   5.626   0.626   6.643
 4194SOL    HW113481   5.527   0.623   6.630
 4194SOL    HW213482   5.672   0.580   6.567
 4195SOL     OW13483   2.159   6.295   0.701
 4195SOL    HW113484   2.179   6.343   0.787
 4195SOL    HW213485   2.174   6.356   0.624
 4196SOL     OW13486   0.200   2.917   3.476
 4196SOL    HW113487   0.189   2.874   3.386
 4196SOL    HW213488   0.236   2.849   3.541
 4197SOL     OW13489   3.892   0.755   0.015
 4197SOL    HW113490   3.936   0.688   0.075
 4197SOL    HW213491   3.842   0.821   0.071
 4198SOL     OW13492   6.917   2.526   1.883
 4198SOL    HW113493   6.956   2.539   1.792
 4198SOL    HW213494   6.990   2.516   1.950
 4199SOL     OW13495   0.808   3.835   6.862
 4199SOL    HW113496   0.779   3.891   6.785
 4199SOL    HW213497   0.908   3.828   6.862
 4200SOL     OW13498   5.370   1.864   3.367
 4200SOL    HW113499   5.424   1.947   3.354
 4200SOL    HW213500   5.308   1.852   3.290
 4201SOL     OW13501   5.509   0.203   4.385
 4201SOL    HW113502   5.577   0.256   4.436
 4201SOL    HW213503   5.417   0.224   4.420
 4202SOL     OW13504   4.492   4.094   1.651
 4202SOL    HW113505   4.474   4.139   1.738
 4202SOL    HW213506   4.462   3.999   1.654
 4203SOL     OW13507   6.183   3.984   5.502
 4203SOL    HW113508   6.095   4.019   5.534
 4203SOL    HW213509   6.212   4.035   5.422
 4204SOL     OW13510   1.915   4.118   6.403
 4204SOL    HW113511   1.981   4.092   6.474
 4204SOL    HW213512   1.937   4.209   6.369
 4205SOL     OW13513   5.373   5.985   5.789
 4205SOL    HW113514   5.360   6.011   5.884
 4205SOL    HW213515   5.469   5.998   5.763
 4206SOL     OW13516   2.701   2.229   4.226
 4206SOL    HW113517   2.758   2.176   4.290
 4206SOL    HW213518   2.654   2.167   4.164
 4207SOL     OW13519   2.018   2.704   1.316
 4207SOL    HW113520   2.091   2.683   1.382
 4207SOL    HW213521   1.957   2.625   1.307
 4208SOL     OW13522   2.852   2.318   3.481
 4208SOL    HW113523   2.936   2.272   3.509
 4208SOL    HW213524   2.811   2.364   3.560
 4209SOL     OW13525   6.398   5.610   2.897
 4209SOL    HW113526   6.389   5.666   2.815
 4209SOL    HW213527   6.351   5.656   2.973
 4210SOL     OW13528   3.160   4.538   5.622
 4210SOL    HW113529   3.130   4.574   5.534
 4210SOL    HW213530   3.090   4.556   5.691
 4211SOL     OW13531   4.359   2.654   5.773
 4211SOL    HW113532   4.284   2.609   5.821
 4211SOL    HW213533   4.422   2.695   5.840
 4212SOL     OW13534   0.832   2.707   3.066
 4212SOL    HW113535   0.890   2.669   3.138
 4212SOL    HW213536   0.737   2.710   3.098
 4213SOL     OW13537   3.826   0.542   3.583
 4213SOL    HW113538   3.779   0.616   3.535
 4213SOL    HW213539   3.788   0.533   3.676
 4214SOL     OW13540   6.724   6.212   3.831
 4214SOL    HW113541   6.763   6.125   3.862
 4214SOL    HW213542   6.742   6.225   3.734
 4215SOL     OW13543   6.369   0.232   5.438
 4215SOL    HW113544   6.311   0.199   5.364
 4215SOL    HW213545   6.327   0.208   5.526
 4216SOL     OW13546   2.763   5.487   2.280
 4216SOL    HW113547   2.776   5.483   2.181
 4216SOL    HW213548   2.744   5.581   2.308
 4217SOL     OW13549   0.950   0.573   3.174
 4217SOL    HW113550   0.911   0.530   3.093
 4217SOL    HW213551   1.030   0.627   3.148
 4218SOL     OW13552   3.472   0.956   1.952
 4218SOL    HW113553   3.418   0.949   2.036
 4218SOL    HW213554   3.477   1.052   1.924
 4219SOL     OW13555   3.308   5.198   3.137
 4219SOL    HW113556   3.248   5.204   3.057
 4219SOL    HW213557   3.253   5.192   3.220
 4220SOL     OW13558   6.139   2.492   1.525
 4220SOL    HW113559   6.148   2.498   1.624
 4220SOL    HW213560   6.052   2.450   1.501
 4221SOL     OW13561   0.606   6.433   0.508
 4221SOL    HW113562   0.596   6.343   0.551
 4221SOL    HW213563   0.608   6.423   0.409
 4222SOL     OW13564   4.926   3.466   4.613
 4222SOL    HW113565   4.913   3.566   4.611
 4222SOL    HW213566   4.924   3.431   4.520
 4223SOL     OW13567   3.413   4.032   2.747
 4223SOL    HW113568   3.414   4.108   2.812
 4223SOL    HW213569   3.334   4.040   2.687
 4224SOL     OW13570   4.830   4.482   4.763
 4224SOL    HW113571   4.852   4.386   4.777
 4224SOL    HW213572   4.874   4.537   4.834
 4225SOL     OW13573   0.654   1.760   6.214
 4225SOL    HW113574   0.649   1.751   6.313
 4225SOL    HW213575   0.561   1.752   6.176
 4226SOL     OW13576   6.034   4.734   4.665
 4226SOL    HW113577   6.127   4.746   4.630
 4226SOL    HW213578   6.009   4.813   4.722
 4227SOL     OW13579   5.452   5.360   1.126
 4227SOL    HW113580   5.410   5.352   1.036
 4227SOL    HW213581   5.397   5.422   1.183
 4228SOL     OW13582   1.548   4.182   3.442
 4228SOL    HW113583   1.601   4.265   3.458
 4228SOL    HW213584   1.520   4.178   3.346
 4229SOL     OW13585   6.452   6.171   5.365
 4229SOL    HW113586   6.381   6.223   5.317
 4229SOL    HW213587   6.453   6.077   5.330
 4230SOL     OW13588   0.361   0.851   1.892
 4230SOL    HW113589   0.386   0.800   1.975
 4230SOL    HW213590   0.444   0.889   1.851
 4231SOL     OW13591   0.486   0.588   6.361
 4231SOL    HW113592   0.391   0.567   6.385
 4231SOL    HW213593   0.547   0.534   6.419
 4232SOL     OW13594   1.705   4.645   3.665
 4232SOL    HW113595   1.656   4.577   3.612
 4232SOL    HW213596   1.745   4.602   3.746
 4233SOL     OW13597   4.402   4.950   2.272
 4233SOL    HW113598   4.376   5.032   2.221
 4233SOL    HW213599   4.458   4.977   2.350
 4234SOL     OW13600   3.605   5.338   5.944
 4234SOL    HW113601   3.529   5.281   5.912
 4234SOL    HW213602   3.589   5.433   5.918
 4235SOL     OW13603   0.231   6.241   6.677
 4235SOL    HW113604   0.231   6.174   6.602
 4235SOL    HW213605   0.205   6.330   6.641
 4236SOL     OW13606   0.548   5.321   3.163
 4236SOL    HW113607   0.606   5.255   3.212
 4236SOL    HW213608   0.558   5.411   3.204
 4237SOL     OW13609   6.597   4.582   3.729
 4237SOL    HW113610   6.516   4.639   3.719
 4237SOL    HW213611   6.656   4.620   3.801
 4238SOL     OW13612   2.966   5.819   2.832
 4238SOL    HW113613   2.949   5.759   2.910
 4238SOL    HW213614   2.905   5.898   2.837
 4239SOL     OW13615   3.762   1.044   3.342
 4239SOL    HW113616   3.718   1.050   3.252
 4239SOL    HW213617   3.700   1.002   3.407
 4240SOL     OW13618   5.744   6.760   2.495
 4240SOL    HW113619   5.715   6.762   2.590
 4240SOL    HW213620   5.763   6.666   2.468
 4241SOL     OW13621   6.440   4.750   0.204
 4241SOL    HW113622   6.444   4.650   0.210
 4241SOL    HW213623   6.472   4.779   0.113
 4242SOL     OW13624   3.362   2.135   3.399
 4242SOL    HW113625   3.321   2.179   3.319
 4242SOL    HW213626   3.293   2.128   3.471
 4243SOL     OW13627   3.612   2.084   2.946
 4243SOL    HW113628   3.692   2.119   2.994
 4243SOL    HW213629   3.605   2.129   2.857
 4244SOL     OW13630   3.010   3.154   4.904
 4244SOL    HW113631   2.938   3.222   4.902
 4244SOL    HW213632   3.030   3.124   4.810
 4245SOL     OW13633   6.648   0.742   6.278
 4245SOL    HW113634   6.650   0.784   6.187
 4245SOL    HW213635   6.555   0.746   6.314
 4246SOL     OW13636   0.170   4.756   6.087
 4246SOL    HW113637   0.235   4.680   6.096
 4246SOL    HW213638   0.159   4.778   5.990
 4247SOL     OW13639   0.137   5.511   5.133
 4247SOL    HW113640   0.159   5.505   5.036
 4247SOL    HW213641   0.186   5.587   5.175
 4248SOL     OW13642   2.284   3.422   6.410
 4248SOL    HW113643   2.334   3.465   6.485
 4248SOL    HW213644   2.272   3.325   6.429
 4249SOL     OW13645   5.581   3.449   6.125
 4249SOL    HW113646   5.622   3.399   6.048
 4249SOL    HW213647   5.626   3.422   6.210
 4250SOL     OW13648   6.738   4.206   3.665
 4250SOL    HW113649   6.777   4.234   3.753
 4250SOL    HW213650   6.648   4.167   3.680
 4251SOL     OW13651   5.874   4.867   6.361
 4251SOL    HW113652   5.863   4.920   6.445
 4251SOL    HW213653   5.965   4.825   6.359
 4252SOL     OW13654   6.549   4.864   5.082
 4252SOL    HW113655   6.640   4.822   5.089
 4252SOL    HW213656   6.546   4.923   5.002
 4253SOL     OW13657   3.429   6.167   3.105
 4253SOL    HW113658   3.387   6.100   3.166
 4253SOL    HW213659   3.481   6.119   3.034
 4254SOL     OW13660   2.797   3.596   1.860
 4254SOL    HW113661   2.723   3.536   1.829
 4254SOL    HW213662   2.789   3.685   1.814
 4255SOL     OW13663   0.563   2.259   4.300
 4255SOL    HW113664   0.560   2.339   4.241
 4255SOL    HW213665   0.527   2.282   4.391
 4256SOL     OW13666   1.893   1.214   2.137
 4256SOL    HW113667   1.820   1.282   2.131
 4256SOL    HW213668   1.977   1.257   2.167
 4257SOL     OW13669   4.203   2.226   5.384
 4257SOL    HW113670   4.282   2.227   5.446
 4257SOL    HW213671   4.224   2.170   5.304
 4258SOL     OW13672   5.237   6.260   2.530
 4258SOL    HW113673   5.163   6.241   2.595
 4258SOL    HW213674   5.208   6.231   2.438
 4259SOL     OW13675   2.352   3.396   1.447
 4259SOL    HW113676   2.258   3.414   1.419
 4259SOL    HW213677   2.385   3.472   1.504
 4260SOL     OW13678   3.694   5.950   4.480
 4260SOL    HW113679   3.695   6.015   4.555
 4260SOL    HW213680   3.683   5.999   4.393
 4261SOL     OW13681   0.927   1.297   3.023
 4261SOL    HW113682   0.943   1.199   3.021
 4261SOL    HW213683   0.900   1.325   3.115
 4262SOL     OW13684   0.730   6.325   5.993
 4262SOL    HW113685   0.794   6.344   6.068
 4262SOL    HW213686   0.749   6.234   5.956
 4263SOL     OW13687   4.262   5.097   6.726
 4263SOL    HW113688   4.199   5.141   6.790
 4263SOL    HW213689   4.341   5.155   6.712
 4264SOL     OW13690   0.766   0.312   1.737
 4264SOL    HW113691   0.700   0.240   1.758
 4264SOL    HW213692   0.736   0.362   1.656
 4265SOL     OW13693   1.682   1.613   0.496
 4265SOL    HW113694   1.676   1.622   0.397
 4265SOL    HW213695   1.778   1.600   0.522
 4266SOL     OW13696   3.681   4.682   0.922
 4266SOL    HW113697   3.697   4.679   0.823
 4266SOL    HW213698   3.585   4.704   0.939
 4267SOL     OW13699   1.495   4.214   5.650
 4267SOL    HW113700   1.530   4.196   5.742
 4267SOL    HW213701   1.517   4.308   5.623
 4268SOL     OW13702   1.748   1.119   1.767
 4268SOL    HW113703   1.798   1.054   1.711
 4268SOL    HW213704   1.773   1.106   1.863
 4269SOL     OW13705   2.852   3.805   0.740
 4269SOL    HW113706   2.772   3.746   0.729
 4269SOL    HW213707   2.926   3.771   0.682
 4270SOL     OW13708   3.804   2.799   6.256
 4270SOL    HW113709   3.850   2.711   6.269
 4270SOL    HW213710   3.864   2.862   6.208
 4271SOL     OW13711   1.394   1.150   1.094
 4271SOL    HW113712   1.457   1.072   1.089
 4271SOL    HW213713   1.374   1.169   1.190
 4272SOL     OW13714   0.070   3.943   3.937
 4272SOL    HW113715   0.014   3.905   4.010
 4272SOL    HW213716   0.145   3.880   3.916
 4273SOL     OW13717   6.035   6.939   3.986
 4273SOL    HW113718   6.121   6.985   3.966
 4273SOL    HW213719   6.024   6.860   3.927
 4274SOL     OW13720   2.301   0.339   3.993
 4274SOL    HW113721   2.353   0.322   4.077
 4274SOL    HW213722   2.241   0.260   3.975
 4275SOL     OW13723   0.580   0.118   5.518
 4275SOL    HW113724   0.636   0.036   5.529
 4275SOL    HW213725   0.549   0.149   5.608
 4276SOL     OW13726   1.958   4.405   2.441
 4276SOL    HW113727   2.003   4.346   2.508
 4276SOL    HW213728   1.881   4.356   2.399
 4277SOL     OW13729   0.620   5.461   5.880
 4277SOL    HW113730   0.656   5.381   5.832
 4277SOL    HW213731   0.677   5.480   5.961
 4278SOL     OW13732   1.470   6.278   6.342
 4278SOL    HW113733   1.376   6.311   6.329
 4278SOL    HW213734   1.499   6.297   6.435
 4279SOL     OW13735   2.898   5.929   3.931
 4279SOL    HW113736   2.960   5.996   3.971
 4279SOL    HW213737   2.848   5.881   4.003
 4280SOL     OW13738   4.909   2.595   3.514
 4280SOL    HW113739   4.990   2.594   3.456
 4280SOL    HW213740   4.912   2.675   3.574
 4281SOL     OW13741   2.325   4.248   5.267
 4281SOL    HW113742   2.248   4.230   5.328
 4281SOL    HW213743   2.344   4.166   5.213
 4282SOL     OW13744   0.438   2.397   0.944
 4282SOL    HW113745   0.494   2.364   1.020
 4282SOL    HW213746   0.402   2.319   0.892
 4283SOL     OW13747   2.236   1.025   4.305
 4283SOL    HW113748   2.247   1.112   4.256
 4283SOL    HW213749   2.292   0.955   4.262
 4284SOL     OW13750   0.128   1.934   3.080
 4284SOL    HW113751   0.117   1.846   3.035
 4284SOL    HW213752   0.057   1.997   3.049
 4285SOL     OW13753   1.111   5.977   4.783
 4285SOL    HW113754   1.056   5.928   4.715
 4285SOL    HW213755   1.100   5.933   4.872
 4286SOL     OW13756   4.350   5.550   6.230
 4286SOL    HW113757   4.389   5.459   6.245
 4286SOL    HW213758   4.419   5.619   6.249
 4287SOL     OW13759   3.905   5.704   5.533
 4287SOL    HW113760   3.898   5.787   5.478
 4287SOL    HW213761   3.905   5.624   5.473
 4288SOL     OW13762   1.032   5.809   3.404
 4288SOL    HW113763   1.092   5.887   3.386
 4288SOL    HW213764   1.074   5.726   3.368
 4289SOL     OW13765   0.029   3.787   0.081
 4289SOL    HW113766   0.126   3.760   0.080
 4289SOL    HW213767   0.023   3.887   0.082
 4290SOL     OW13768   2.157   1.683   3.480
 4290SOL    HW113769   2.255   1.701   3.478
 4290SOL    HW213770   2.129   1.662   3.574
 4291SOL     OW13771   6.918   4.398   1.349
 4291SOL    HW113772   6.869   4.364   1.429
 4291SOL    HW213773   6.856   4.448   1.290
 4292SOL     OW13774   5.823   5.478   5.789
 4292SOL    HW113775   5.876   5.426   5.856
 4292SOL    HW213776   5.840   5.441   5.697
 4293SOL     OW13777   0.219   2.059   6.659
 4293SOL    HW113778   0.220   2.048   6.758
 4293SOL    HW213779   0.237   1.971   6.615
 4294SOL     OW13780   4.932   1.506   6.082
 4294SOL    HW113781   4.932   1.604   6.102
 4294SOL    HW213782   5.026   1.472   6.082
 4295SOL     OW13783   3.577   6.038   5.648
 4295SOL    HW113784   3.661   6.090   5.665
 4295SOL    HW213785   3.501   6.102   5.639
 4296SOL     OW13786   2.594   1.284   2.680
 4296SOL    HW113787   2.670   1.308   2.740
 4296SOL    HW213788   2.630   1.259   2.590
 4297SOL     OW13789   5.418   0.280   0.302
 4297SOL    HW113790   5.464   0.274   0.213
 4297SOL    HW213791   5.476   0.331   0.366
 4298SOL     OW13792   2.270   5.269   1.592
 4298SOL    HW113793   2.209   5.291   1.515
 4298SOL    HW213794   2.217   5.271   1.677
 4299SOL     OW13795   1.302   5.190   5.299
 4299SOL    HW113796   1.346   5.210   5.387
 4299SOL    HW213797   1.229   5.124   5.313
 4300SOL     OW13798   6.288   6.783   5.391
 4300SOL    HW113799   6.192   6.777   5.364
 4300SOL    HW213800   6.300   6.864   5.449
 4301SOL     OW13801   3.150   0.890   0.568
 4301SOL    HW113802   3.137   0.796   0.599
 4301SOL    HW213803   3.095   0.952   0.626
 4302SOL     OW13804   0.849   0.283   6.562
 4302SOL    HW113805   0.905   0.201   6.550
 4302SOL    HW213806   0.866   0.346   6.487
 4303SOL     OW13807   6.762   4.263   1.521
 4303SOL    HW113808   6.688   4.260   1.588
 4303SOL    HW213809   6.735   4.209   1.440
 4304SOL     OW13810   3.303   3.375   5.432
 4304SOL    HW113811   3.322   3.301   5.367
 4304SOL    HW213812   3.330   3.346   5.524
 4305SOL     OW13813   6.725   1.271   5.145
 4305SOL    HW113814   6.680   1.300   5.229
 4305SOL    HW213815   6.804   1.215   5.167
 4306SOL     OW13816   6.009   5.669   5.505
 4306SOL    HW113817   5.980   5.725   5.583
 4306SOL    HW213818   6.008   5.724   5.422
 4307SOL     OW13819   5.342   3.313   0.022
 4307SOL    HW113820   5.277   3.389   0.012
 4307SOL    HW213821   5.390   3.323   0.109
 4308SOL     OW13822   3.345   6.668   5.370
 4308SOL    HW113823   3.280   6.718   5.313
 4308SOL    HW213824   3.299   6.592   5.415
 4309SOL     OW13825   1.751   0.729   1.624
 4309SOL    HW113826   1.749   0.824   1.594
 4309SOL    HW213827   1.668   0.683   1.593
 4310SOL     OW13828   1.671   0.471   2.825
 4310SOL    HW113829   1.586   0.517   2.802
 4310SOL    HW213830   1.690   0.483   2.923
 4311SOL     OW13831   1.251   5.491   4.642
 4311SOL    HW113832   1.263   5.408   4.588
 4311SOL    HW213833   1.203   5.470   4.727
 4312SOL     OW13834   1.539   6.028   1.333
 4312SOL    HW113835   1.580   5.951   1.284
 4312SOL    HW213836   1.544   6.110   1.275
 4313SOL     OW13837   5.278   0.983   1.479
 4313SOL    HW113838   5.187   0.993   1.519
 4313SOL    HW213839   5.292   0.888   1.451
 4314SOL     OW13840   5.937   3.317   1.444
 4314SOL    HW113841   5.837   3.314   1.451
 4314SOL    HW213842   5.977   3.310   1.535
 4315SOL     OW13843   2.456   1.504   2.608
 4315SOL    HW113844   2.388   1.458   2.550
 4315SOL    HW213845   2.527   1.439   2.635
 4316SOL     OW13846   0.766   1.005   2.466
 4316SOL    HW113847   0.770   0.906   2.465
 4316SOL    HW213848   0.815   1.040   2.545
 4317SOL     OW13849   3.883   0.213   3.034
 4317SOL    HW113850   3.861   0.301   3.076
 4317SOL    HW213851   3.887   0.225   2.935
 4318SOL     OW13852   6.377   2.464   5.139
 4318SOL    HW113853   6.300   2.495   5.084
 4318SOL    HW213854   6.459   2.516   5.115
 4319SOL     OW13855   3.095   2.677   6.072
 4319SOL    HW113856   3.027   2.750   6.085
 4319SOL    HW213857   3.122   2.641   6.161
 4320SOL     OW13858   0.268   5.804   3.574
 4320SOL    HW113859   0.255   5.725   3.634
 4320SOL    HW213860   0.214   5.792   3.490
 4321SOL     OW13861   0.779   0.710   4.602
 4321SOL    HW113862   0.874   0.699   4.631
 4321SOL    HW213863   0.770   0.792   4.546
 4322SOL     OW13864   5.826   1.331   1.090
 4322SOL    HW113865   5.789   1.414   1.049
 4322SOL    HW213866   5.751   1.277   1.129
 4323SOL     OW13867   0.088   1.886   4.120
 4323SOL    HW113868   0.135   1.799   4.106
 4323SOL    HW213869   7.017   1.873   4.111
 4324SOL     OW13870   5.640   2.790   5.739
 4324SOL    HW113871   5.616   2.813   5.834
 4324SOL    HW213872   5.556   2.779   5.685
 4325SOL     OW13873   1.621   2.199   6.426
 4325SOL    HW113874   1.555   2.157   6.364
 4325SOL    HW213875   1.639   2.293   6.397
 4326SOL     OW13876   6.612   2.618   5.114
 4326SOL    HW113877   6.576   2.691   5.057
 4326SOL    HW213878   6.667   2.556   5.058
 4327SOL     OW13879   4.927   1.145   2.959
 4327SOL    HW113880   4.947   1.208   2.883
 4327SOL    HW213881   5.012   1.102   2.989
 4328SOL     OW13882   5.996   5.032   0.246
 4328SOL    HW113883   5.985   4.939   0.282
 4328SOL    HW213884   5.989   5.098   0.321
 4329SOL     OW13885   5.214   2.078   0.165
 4329SOL    HW113886   5.229   2.064   0.067
 4329SOL    HW213887   5.174   1.996   0.205
 4330SOL     OW13888   0.989   0.867   6.461
 4330SOL    HW113889   1.076   0.819   6.473
 4330SOL    HW213890   0.992   0.954   6.510
 4331SOL     OW13891   5.295   2.350   6.842
 4331SOL    HW113892   5.382   2.369   6.886
 4331SOL    HW213893   5.230   2.424   6.861
 4332SOL     OW13894   5.432   3.057   1.729
 4332SOL    HW113895   5.361   3.125   1.747
 4332SOL    HW213896   5.483   3.083   1.646
 4333SOL     OW13897   6.245   1.490   5.569
 4333SOL    HW113898   6.344   1.498   5.584
 4333SOL    HW213899   6.197   1.547   5.636
 4334SOL     OW13900   4.521   0.220   1.809
 4334SOL    HW113901   4.621   0.218   1.810
 4334SOL    HW213902   4.491   0.299   1.755
 4335SOL     OW13903   3.564   4.558   5.631
 4335SOL    HW113904   3.530   4.652   5.639
 4335SOL    HW213905   3.662   4.557   5.652
 4336SOL     OW13906   0.899   6.647   5.941
 4336SOL    HW113907   0.889   6.667   6.038
 4336SOL    HW213908   0.937   6.555   5.930
 4337SOL     OW13909   0.204   5.690   0.413
 4337SOL    HW113910   0.302   5.676   0.428
 4337SOL    HW213911   0.175   5.641   0.331
 4338SOL     OW13912   5.265   6.341   3.341
 4338SOL    HW113913   5.183   6.388   3.308
 4338SOL    HW213914   5.287   6.374   3.433
 4339SOL     OW13915   6.267   1.177   6.625
 4339SOL    HW113916   6.296   1.107   6.690
 4339SOL    HW213917   6.202   1.137   6.560
 4340SOL     OW13918   4.281   3.415   1.600
 4340SOL    HW113919   4.317   3.323   1.616
 4340SOL    HW213920   4.287   3.437   1.503
 4341SOL     OW13921   0.896   3.565   0.499
 4341SOL    HW113922   0.832   3.495   0.528
 4341SOL    HW213923   0.906   3.634   0.571
 4342SOL     OW13924   0.406   2.148   3.276
 4342SOL    HW113925   0.321   2.192   3.304
 4342SOL    HW213926   0.464   2.214   3.228
 4343SOL     OW13927   2.781   1.980   0.955
 4343SOL    HW113928   2.686   1.987   0.984
 4343SOL    HW213929   2.816   1.889   0.976
 4344SOL     OW13930   1.887   3.707   2.096
 4344SOL    HW113931   1.883   3.607   2.100
 4344SOL    HW213932   1.981   3.737   2.112
 4345SOL     OW13933   2.653   1.501   6.227
 4345SOL    HW113934   2.679   1.436   6.155
 4345SOL    HW213935   2.592   1.455   6.292
 4346SOL     OW13936   6.809   3.639   1.142
 4346SOL    HW113937   6.729   3.646   1.202
 4346SOL    HW213938   6.849   3.548   1.151
 4347SOL     OW13939   5.022   5.874   2.320
 4347SOL    HW113940   5.058   5.802   2.380
 4347SOL    HW213941   4.984   5.831   2.238
 4348SOL     OW13942   1.451   3.977   6.883
 4348SOL    HW113943   1.459   3.919   6.964
 4348SOL    HW213944   1.491   3.929   6.804
 4349SOL     OW13945   6.726   0.949   1.826
 4349SOL    HW113946   6.815   0.977   1.789
 4349SOL    HW213947   6.721   0.971   1.923
 4350SOL     OW13948   4.339   0.234   2.973
 4350SOL    HW113949   4.292   0.259   2.888
 4350SOL    HW213950   4.416   0.296   2.987
 4351SOL     OW13951   3.177   7.006   0.031
 4351SOL    HW113952   3.201   0.006   0.123
 4351SOL    HW213953   3.175   0.057   6.998
 4352SOL     OW13954   6.679   2.005   2.551
 4352SOL    HW113955   6.619   2.065   2.497
 4352SOL    HW213956   6.665   1.910   2.524
 4353SOL     OW13957   2.851   5.858   1.554
 4353SOL    HW113958   2.906   5.835   1.473
 4353SOL    HW213959   2.760   5.817   1.544
 4354SOL     OW13960   2.702   0.691   1.140
 4354SOL    HW113961   2.673   0.731   1.227
 4354SOL    HW213962   2.734   0.597   1.155
 4355SOL     OW13963   4.798   0.033   0.091
 4355SOL    HW113964   4.801   6.972   0.137
 4355SOL    HW213965   4.708   0.047   0.050
 4356SOL     OW13966   3.694   3.975   0.400
 4356SOL    HW113967   3.686   4.042   0.473
 4356SOL    HW213968   3.636   4.001   0.323
 4357SOL     OW13969   5.811   0.909   0.195
 4357SOL    HW113970   5.748   0.939   0.124
 4357SOL    HW213971   5.906   0.920   0.164
 4358SOL     OW13972   6.026   0.707   1.085
 4358SOL    HW113973   5.973   0.792   1.082
 4358SOL    HW213974   6.119   0.728   1.115
 4359SOL     OW13975   5.951   3.695   4.467
 4359SOL    HW113976   5.983   3.754   4.540
 4359SOL    HW213977   6.005   3.711   4.384
 4360SOL     OW13978   2.182   3.571   0.838
 4360SOL    HW113979   2.116   3.624   0.785
 4360SOL    HW213980   2.136   3.527   0.915
 4361SOL     OW13981   5.800   2.033   2.272
 4361SOL    HW113982   5.877   2.098   2.274
 4361SOL    HW213983   5.720   2.076   2.315
 4362SOL     OW13984   5.113   3.819   2.935
 4362SOL    HW113985   5.181   3.806   2.863
 4362SOL    HW213986   5.147   3.885   3.001
 4363SOL     OW13987   5.212   0.336   6.353
 4363SOL    HW113988   5.292   0.369   6.302
 4363SOL    HW213989   5.160   0.273   6.297
 4364SOL     OW13990   3.616   3.801   4.538
 4364SOL    HW113991   3.640   3.719   4.591
 4364SOL    HW213992   3.653   3.882   4.583
 4365SOL     OW13993   4.379   1.898   0.659
 4365SOL    HW113994   4.439   1.978   0.656
 4365SOL    HW213995   4.285   1.927   0.673
 4366SOL     OW13996   5.592   5.037   0.375
 4366SOL    HW113997   5.522   5.103   0.347
 4366SOL    HW213998   5.559   4.944   0.359
 4367SOL     OW13999   6.923   0.120   0.859
 4367SOL    HW114000   6.844   0.180   0.857
 4367SOL    HW214001   6.976   0.138   0.941
 4368SOL     OW14002   4.388   4.683   2.335
 4368SOL    HW114003   4.396   4.778   2.303
 4368SOL    HW214004   4.453   4.626   2.285
 4369SOL     OW14005   3.106   5.150   1.479
 4369SOL    HW114006   3.034   5.212   1.509
 4369SOL    HW214007   3.076   5.055   1.490
 4370SOL     OW14008   5.304   4.425   2.128
 4370SOL    HW114009   5.219   4.474   2.111
 4370SOL    HW214010   5.338   4.387   2.042
 4371SOL     OW14011   1.130   1.872   2.519
 4371SOL    HW114012   1.086   1.802   2.462
 4371SOL    HW214013   1.110   1.853   2.615
 4372SOL     OW14014   4.999   0.118   3.551
 4372SOL    HW114015   5.081   0.061   3.559
 4372SOL    HW214016   5.007   0.177   3.471
 4373SOL     OW14017   6.579   1.377   6.263
 4373SOL    HW114018   6.641   1.326   6.323
 4373SOL    HW214019   6.631   1.413   6.185
 4374SOL     OW14020   3.412   1.180   0.762
 4374SOL    HW114021   3.325   1.220   0.736
 4374SOL    HW214022   3.404   1.080   0.765
 4375SOL     OW14023   3.339   5.805   4.360
 4375SOL    HW114024   3.397   5.727   4.384
 4375SOL    HW214025   3.389   5.866   4.298
 4376SOL     OW14026   0.186   2.042   4.311
 4376SOL    HW114027   0.210   2.125   4.261
 4376SOL    HW214028   0.176   1.966   4.246
 4377SOL     OW14029   6.519   5.074   6.230
 4377SOL    HW114030   6.603   5.099   6.182
 4377SOL    HW214031   6.440   5.100   6.175
 4378SOL     OW14032   3.372   1.851   3.988
 4378SOL    HW114033   3.368   1.850   4.088
 4378SOL    HW214034   3.468   1.846   3.958
 4379SOL     OW14035   3.541   2.205   6.119
 4379SOL    HW114036   3.625   2.220   6.170
 4379SOL    HW214037   3.502   2.117   6.145
 4380SOL     OW14038   0.162   2.277   3.292
 4380SOL    HW114039   0.171   2.363   3.241
 4380SOL    HW214040   0.113   2.210   3.235
 4381SOL     OW14041   1.473   5.575   0.046
 4381SOL    HW114042   1.469   5.475   0.048
 4381SOL    HW214043   1.528   5.608   0.123
 4382SOL     OW14044   0.964   5.353   4.627
 4382SOL    HW114045   1.024   5.318   4.556
 4382SOL    HW214046   0.994   5.445   4.655
 4383SOL     OW14047   6.989   4.066   0.646
 4383SOL    HW114048   0.011   4.030   0.566
 4383SOL    HW214049   7.003   4.003   0.723
 4384SOL     OW14050   5.087   6.849   3.524
 4384SOL    HW114051   5.047   6.928   3.479
 4384SOL    HW214052   5.014   6.787   3.554
 4385SOL     OW14053   4.776   1.265   5.552
 4385SOL    HW114054   4.678   1.245   5.543
 4385SOL    HW214055   4.800   1.265   5.649
 4386SOL     OW14056   1.624   3.443   4.257
 4386SOL    HW114057   1.714   3.443   4.215
 4386SOL    HW214058   1.626   3.390   4.342
 4387SOL     OW14059   5.688   1.913   1.052
 4387SOL    HW114060   5.761   1.850   1.026
 4387SOL    HW214061   5.613   1.861   1.093
 4388SOL     OW14062   5.150   3.548   6.959
 4388SOL    HW114063   5.096   3.556   6.875
 4388SOL    HW214064   5.188   3.638   6.982
 4389SOL     OW14065   1.901   1.522   0.100
 4389SOL    HW114066   1.830   1.471   0.052
 4389SOL    HW214067   1.886   1.620   0.088
 4390SOL     OW14068   6.972   1.894   0.865
 4390SOL    HW114069   6.924   1.829   0.924
 4390SOL    HW214070   6.922   1.903   0.779
 4391SOL     OW14071   0.714   5.871   0.939
 4391SOL    HW114072   0.788   5.927   0.975
 4391SOL    HW214073   0.639   5.929   0.908
 4392SOL     OW14074   1.045   2.828   6.082
 4392SOL    HW114075   1.026   2.925   6.095
 4392SOL    HW214076   1.113   2.815   6.010
 4393SOL     OW14077   6.131   0.411   2.123
 4393SOL    HW114078   6.084   0.495   2.093
 4393SOL    HW214079   6.065   0.349   2.164
 4394SOL     OW14080   0.493   0.481   2.448
 4394SOL    HW114081   0.577   0.429   2.460
 4394SOL    HW214082   0.415   0.423   2.469
 4395SOL     OW14083   1.625   4.336   2.124
 4395SOL    HW114084   1.561   4.284   2.068
 4395SOL    HW214085   1.717   4.295   2.116
 4396SOL     OW14086   3.206   1.019   2.738
 4396SOL    HW114087   3.286   1.079   2.737
 4396SOL    HW214088   3.233   0.928   2.769
 4397SOL     OW14089   3.430   1.270   4.782
 4397SOL    HW114090   3.412   1.290   4.686
 4397SOL    HW214091   3.345   1.277   4.834
 4398SOL     OW14092   2.399   3.599   5.695
 4398SOL    HW114093   2.484   3.546   5.699
 4398SOL    HW214094   2.420   3.696   5.703
 4399SOL     OW14095   2.781   6.835   1.606
 4399SOL    HW114096   2.853   6.799   1.548
 4399SOL    HW214097   2.790   6.797   1.698
 4400SOL     OW14098   1.770   6.214   5.066
 4400SOL    HW114099   1.817   6.175   5.145
 4400SOL    HW214100   1.789   6.158   4.985
 4401SOL     OW14101   2.455   6.939   6.541
 4401SOL    HW114102   2.427   6.976   6.629
 4401SOL    HW214103   2.444   6.840   6.541
 4402SOL     OW14104   1.848   0.888   3.088
 4402SOL    HW114105   1.924   0.926   3.035
 4402SOL    HW214106   1.883   0.818   3.151
 4403SOL     OW14107   0.219   5.652   2.414
 4403SOL    HW114108   0.166   5.707   2.479
 4403SOL    HW214109   0.309   5.632   2.452
 4404SOL     OW14110   0.811   6.886   6.184
 4404SOL    HW114111   0.718   6.875   6.220
 4404SOL    HW214112   0.866   6.806   6.208
 4405SOL     OW14113   1.694   5.086   2.490
 4405SOL    HW114114   1.700   5.066   2.588
 4405SOL    HW214115   1.620   5.152   2.473
 4406SOL     OW14116   6.587   4.510   1.962
 4406SOL    HW114117   6.493   4.518   1.993
 4406SOL    HW214118   6.615   4.414   1.963
 4407SOL     OW14119   6.097   0.071   1.080
 4407SOL    HW114120   6.049   0.116   1.005
 4407SOL    HW214121   6.136   0.140   1.141
 4408SOL     OW14122   4.449   1.160   1.002
 4408SOL    HW114123   4.542   1.128   1.020
 4408SOL    HW214124   4.444   1.197   0.909
 4409SOL     OW14125   2.752   0.719   4.051
 4409SOL    HW114126   2.712   0.691   4.138
 4409SOL    HW214127   2.702   0.799   4.016
 4410SOL     OW14128   0.500   0.431   0.969
 4410SOL    HW114129   0.598   0.452   0.973
 4410SOL    HW214130   0.480   0.353   1.028
 4411SOL     OW14131   4.490   4.555   5.354
 4411SOL    HW114132   4.539   4.608   5.424
 4411SOL    HW214133   4.547   4.478   5.325
 4412SOL     OW14134   4.402   6.210   2.033
 4412SOL    HW114135   4.403   6.270   2.113
 4412SOL    HW214136   4.325   6.235   1.974
 4413SOL     OW14137   4.577   5.584   3.862
 4413SOL    HW114138   4.601   5.499   3.908
 4413SOL    HW214139   4.612   5.583   3.768
 4414SOL     OW14140   5.393   3.848   1.613
 4414SOL    HW114141   5.376   3.757   1.575
 4414SOL    HW214142   5.319   3.909   1.586
 4415SOL     OW14143   1.701   3.989   1.125
 4415SOL    HW114144   1.627   4.053   1.107
 4415SOL    HW214145   1.722   3.937   1.041
 4416SOL     OW14146   4.853   2.975   4.699
 4416SOL    HW114147   4.820   2.927   4.618
 4416SOL    HW214148   4.950   2.996   4.688
 4417SOL     OW14149   0.183   4.498   1.789
 4417SOL    HW114150   0.140   4.416   1.751
 4417SOL    HW214151   0.261   4.471   1.846
 4418SOL     OW14152   6.134   0.981   5.706
 4418SOL    HW114153   6.038   0.988   5.732
 4418SOL    HW214154   6.165   1.070   5.672
 4419SOL     OW14155   6.601   6.156   6.851
 4419SOL    HW114156   6.588   6.253   6.870
 4419SOL    HW214157   6.551   6.131   6.768
 4420SOL     OW14158   3.900   1.548   1.020
 4420SOL    HW114159   3.851   1.600   0.950
 4420SOL    HW214160   3.930   1.460   0.982
 4421SOL     OW14161   2.026   2.608   0.241
 4421SOL    HW114162   1.990   2.677   0.178
 4421SOL    HW214163   1.955   2.584   0.308
 4422SOL     OW14164   0.486   3.108   5.853
 4422SOL    HW114165   0.495   3.094   5.754
 4422SOL    HW214166   0.440   3.195   5.870
 4423SOL     OW14167   5.831   4.546   4.709
 4423SOL    HW114168   5.858   4.454   4.736
 4423SOL    HW214169   5.906   4.609   4.725
 4424SOL     OW14170   4.531   6.022   2.473
 4424SOL    HW114171   4.624   5.984   2.464
 4424SOL    HW214172   4.483   6.013   2.386
 4425SOL     OW14173   1.105   6.198   1.271
 4425SOL    HW114174   1.123   6.230   1.178
 4425SOL    HW214175   1.050   6.114   1.267
 4426SOL     OW14176   0.332   0.469   4.427
 4426SOL    HW114177   0.348   0.422   4.514
 4426SOL    HW214178   0.334   0.402   4.353
 4427SOL     OW14179   2.802   5.767   2.218
 4427SOL    HW114180   2.721   5.794   2.270
 4427SOL    HW214181   2.774   5.708   2.142
 4428SOL     OW14182   6.338   5.606   3.478
 4428SOL    HW114183   6.318   5.684   3.538
 4428SOL    HW214184   6.256   5.583   3.426
 4429SOL     OW14185   2.814   6.384   3.081
 4429SOL    HW114186   2.836   6.450   3.153
 4429SOL    HW214187   2.893   6.324   3.067
 4430SOL     OW14188   6.215   3.322   4.997
 4430SOL    HW114189   6.144   3.374   5.045
 4430SOL    HW214190   6.181   3.295   4.907
 4431SOL     OW14191   4.519   6.674   4.696
 4431SOL    HW114192   4.467   6.757   4.716
 4431SOL    HW214193   4.467   6.594   4.728
 4432SOL     OW14194   1.172   3.282   6.419
 4432SOL    HW114195   1.079   3.303   6.449
 4432SOL    HW214196   1.179   3.185   6.396
 4433SOL     OW14197   1.014   0.532   4.426
 4433SOL    HW114198   0.940   0.550   4.361
 4433SOL    HW214199   1.095   0.584   4.399
 4434SOL     OW14200   7.000   1.063   2.315
 4434SOL    HW114201   0.052   1.061   2.255
 4434SOL    HW214202   6.941   0.984   2.296
 4435SOL     OW14203   2.470   4.411   0.401
 4435SOL    HW114204   2.569   4.401   0.408
 4435SOL    HW214205   2.446   4.445   0.310
 4436SOL     OW14206   4.754   2.108   1.470
 4436SOL    HW114207   4.686   2.144   1.406
 4436SOL    HW214208   4.708   2.054   1.540
 4437SOL     OW14209   6.311   4.587   7.013
 4437SOL    HW114210   6.389   4.644   6.987
 4437SOL    HW214211   6.317   4.499   6.968
 4438SOL     OW14212   4.207   1.210   4.916
 4438SOL    HW114213   4.237   1.301   4.943
 4438SOL    HW214214   4.260   1.180   4.837
 4439SOL     OW14215   2.405   5.726   2.598
 4439SOL    HW114216   2.449   5.801   2.648
 4439SOL    HW214217   2.308   5.747   2.587
 4440SOL     OW14218   1.823   5.196   5.257
 4440SOL    HW114219   1.869   5.172   5.172
 4440SOL    HW214220   1.810   5.113   5.313
 4441SOL     OW14221   6.741   1.662   1.241
 4441SOL    HW114222   6.812   1.681   1.174
 4441SOL    HW214223   6.651   1.675   1.200
 4442SOL     OW14224   2.031   4.928   1.219
 4442SOL    HW114225   2.081   4.860   1.164
 4442SOL    HW214226   2.096   4.976   1.278
 4443SOL     OW14227   0.768   5.770   5.991
 4443SOL    HW114228   0.814   5.843   6.041
 4443SOL    HW214229   0.788   5.682   6.034
 4444SOL     OW14230   5.636   5.658   0.294
 4444SOL    HW114231   5.642   5.709   0.380
 4444SOL    HW214232   5.550   5.678   0.249
 4445SOL     OW14233   2.299   4.083   0.213
 4445SOL    HW114234   2.235   4.022   0.259
 4445SOL    HW214235   2.329   4.154   0.276
 4446SOL     OW14236   4.598   1.900   2.105
 4446SOL    HW114237   4.513   1.888   2.155
 4446SOL    HW214238   4.616   1.998   2.092
 4447SOL     OW14239   4.632   5.541   4.933
 4447SOL    HW114240   4.618   5.619   4.994
 4447SOL    HW214241   4.720   5.499   4.953
 4448SOL     OW14242   3.233   6.506   2.947
 4448SOL    HW114243   3.196   6.567   3.017
 4448SOL    HW214244   3.325   6.477   2.974
 4449SOL     OW14245   3.934   1.574   5.482
 4449SOL    HW114246   3.983   1.610   5.403
 4449SOL    HW214247   3.981   1.602   5.566
 4450SOL     OW14248   1.814   6.159   0.203
 4450SOL    HW114249   1.786   6.075   0.157
 4450SOL    HW214250   1.871   6.214   0.141
 4451SOL     OW14251   4.593   5.652   3.389
 4451SOL    HW114252   4.613   5.584   3.319
 4451SOL    HW214253   4.495   5.651   3.410
 4452SOL     OW14254   5.083   4.879   3.685
 4452SOL    HW114255   5.005   4.889   3.623
 4452SOL    HW214256   5.050   4.869   3.779
 4453SOL     OW14257   0.358   4.666   1.071
 4453SOL    HW114258   0.405   4.713   1.145
 4453SOL    HW214259   0.414   4.669   0.988
 4454SOL     OW14260   0.587   1.906   0.515
 4454SOL    HW114261   0.626   1.861   0.596
 4454SOL    HW214262   0.657   1.965   0.474
 4455SOL     OW14263   1.469   0.305   4.341
 4455SOL    HW114264   1.385   0.324   4.391
 4455SOL    HW214265   1.465   0.213   4.301
 4456SOL     OW14266   1.650   6.101   4.330
 4456SOL    HW114267   1.735   6.151   4.345
 4456SOL    HW214268   1.608   6.130   4.244
 4457SOL     OW14269   1.323   1.465   4.391
 4457SOL    HW114270   1.229   1.476   4.362
 4457SOL    HW214271   1.353   1.547   4.439
 4458SOL     OW14272   1.451   3.063   6.314
 4458SOL    HW114273   1.351   3.065   6.313
 4458SOL    HW214274   1.483   2.995   6.380
 4459SOL     OW14275   0.482   3.787   3.444
 4459SOL    HW114276   0.581   3.774   3.437
 4459SOL    HW214277   0.462   3.871   3.494
 4460SOL     OW14278   6.816   2.806   5.307
 4460SOL    HW114279   6.912   2.802   5.279
 4460SOL    HW214280   6.758   2.795   5.226
 4461SOL     OW14281   1.822   0.901   0.762
 4461SOL    HW114282   1.863   0.992   0.760
 4461SOL    HW214283   1.847   0.854   0.847
 4462SOL     OW14284   6.607   4.231   1.954
 4462SOL    HW114285   6.538   4.170   1.994
 4462SOL    HW214286   6.698   4.203   1.985
 4463SOL     OW14287   5.663   1.813   0.050
 4463SOL    HW114288   5.680   1.825   0.148
 4463SOL    HW214289   5.696   1.894   0.001
 4464SOL     OW14290   0.511   3.624   1.151
 4464SOL    HW114291   0.605   3.606   1.179
 4464SOL    HW214292   0.458   3.655   1.229
 4465SOL     OW14293   4.343   5.164   2.081
 4465SOL    HW114294   4.412   5.214   2.030
 4465SOL    HW214295   4.284   5.114   2.017
 4466SOL     OW14296   0.626   3.278   2.743
 4466SOL    HW114297   0.682   3.214   2.797
 4466SOL    HW214298   0.538   3.291   2.788
 4467SOL     OW14299   5.293   4.681   1.691
 4467SOL    HW114300   5.313   4.669   1.594
 4467SOL    HW214301   5.304   4.778   1.716
 4468SOL     OW14302   1.942   3.312   1.006
 4468SOL    HW114303   1.975   3.254   0.931
 4468SOL    HW214304   1.971   3.273   1.093
 4469SOL     OW14305   1.820   6.227   1.317
 4469SOL    HW114306   1.880   6.307   1.320
 4469SOL    HW214307   1.748   6.237   1.386
 4470SOL     OW14308   1.044   6.914   2.296
 4470SOL    HW114309   0.983   6.964   2.358
 4470SOL    HW214310   1.015   6.929   2.202
 4471SOL     OW14311   1.036   0.653   6.930
 4471SOL    HW114312   1.126   0.613   6.910
 4471SOL    HW214313   0.983   0.658   6.845
 4472SOL     OW14314   1.511   2.685   1.005
 4472SOL    HW114315   1.575   2.696   0.929
 4472SOL    HW214316   1.510   2.588   1.033
 4473SOL     OW14317   0.524   2.699   4.998
 4473SOL    HW114318   0.622   2.711   5.015
 4473SOL    HW214319   0.472   2.726   5.080
 4474SOL     OW14320   2.425   6.165   0.751
 4474SOL    HW114321   2.327   6.177   0.736
 4474SOL    HW214322   2.441   6.097   0.822
 4475SOL     OW14323   0.798   3.634   0.008
 4475SOL    HW114324   0.892   3.600   7.027
 4475SOL    HW214325   0.784   3.711   6.973
 4476SOL     OW14326   5.403   0.698   3.708
 4476SOL    HW114327   5.466   0.628   3.741
 4476SOL    HW214328   5.410   0.705   3.608
 4477SOL     OW14329   6.973   1.108   4.309
 4477SOL    HW114330   7.006   1.168   4.381
 4477SOL    HW214331   0.015   1.041   4.286
 4478SOL     OW14332   1.766   0.909   2.305
 4478SOL    HW114333   1.817   0.885   2.223
 4478SOL    HW214334   1.758   0.828   2.364
 4479SOL     OW14335   2.186   2.663   6.511
 4479SOL    HW114336   2.212   2.741   6.568
 4479SOL    HW214337   2.090   2.642   6.526
 4480SOL     OW14338   0.191   6.787   3.340
 4480SOL    HW114339   0.229   6.874   3.371
 4480SOL    HW214340   0.127   6.802   3.265
 4481SOL     OW14341   2.022   3.922   6.147
 4481SOL    HW114342   2.035   3.856   6.221
 4481SOL    HW214343   2.086   3.901   6.072
 4482SOL     OW14344   2.799   0.165   1.175
 4482SOL    HW114345   2.842   0.168   1.085
 4482SOL    HW214346   2.861   0.119   1.239
 4483SOL     OW14347   0.937   3.351   0.809
 4483SOL    HW114348   0.933   3.318   0.715
 4483SOL    HW214349   0.857   3.408   0.828
 4484SOL     OW14350   3.593   0.919   0.389
 4484SOL    HW114351   3.581   0.826   0.426
 4484SOL    HW214352   3.510   0.945   0.338
 4485SOL     OW14353   0.155   3.094   5.134
 4485SOL    HW114354   0.246   3.100   5.092
 4485SOL    HW214355   0.155   3.145   5.220
 4486SOL     OW14356   4.885   4.543   3.544
 4486SOL    HW114357   4.800   4.494   3.525
 4486SOL    HW214358   4.868   4.641   3.548
 4487SOL     OW14359   0.301   2.998   6.598
 4487SOL    HW114360   0.364   3.071   6.625
 4487SOL    HW214361   0.340   2.946   6.523
 4488SOL     OW14362   6.275   4.782   3.497
 4488SOL    HW114363   6.215   4.860   3.515
 4488SOL    HW214364   6.220   4.701   3.477
 4489SOL     OW14365   3.659   6.157   6.543
 4489SOL    HW114366   3.746   6.160   6.493
 4489SOL    HW214367   3.675   6.127   6.637
 4490SOL     OW14368   5.453   1.734   1.978
 4490SOL    HW114369   5.481   1.815   2.029
 4490SOL    HW214370   5.395   1.677   2.036
 4491SOL     OW14371   0.401   4.005   3.123
 4491SOL    HW114372   0.339   3.965   3.056
 4491SOL    HW214373   0.449   4.082   3.082
 4492SOL     OW14374   6.001   1.517   2.641
 4492SOL    HW114375   5.940   1.581   2.593
 4492SOL    HW214376   5.955   1.482   2.722
 4493SOL     OW14377   5.279   1.476   6.038
 4493SOL    HW114378   5.270   1.389   6.087
 4493SOL    HW214379   5.291   1.457   5.941
 4494SOL     OW14380   1.892   1.144   2.783
 4494SOL    HW114381   1.865   1.241   2.780
 4494SOL    HW214382   1.911   1.112   2.691
 4495SOL     OW14383   4.417   6.143   0.799
 4495SOL    HW114384   4.401   6.214   0.867
 4495SOL    HW214385   4.493   6.169   0.739
 4496SOL     OW14386   2.406   5.786   6.178
 4496SOL    HW114387   2.438   5.865   6.126
 4496SOL    HW214388   2.335   5.738   6.127
 4497SOL     OW14389   4.152   0.114   5.730
 4497SOL    HW114390   4.069   0.079   5.775
 4497SOL    HW214391   4.226   0.121   5.798
 4498SOL     OW14392   1.588   4.817   4.426
 4498SOL    HW114393   1.567   4.911   4.452
 4498SOL    HW214394   1.594   4.761   4.509
 4499SOL     OW14395   5.799   1.517   2.151
 4499SOL    HW114396   5.830   1.605   2.187
 4499SOL    HW214397   5.729   1.478   2.212
 4500SOL     OW14398   3.516   6.897   0.010
 4500SOL    HW114399   3.462   6.827   0.056
 4500SOL    HW214400   3.562   6.857   6.959
 4501SOL     OW14401   6.497   0.125   2.771
 4501SOL    HW114402   6.551   0.126   2.687
 4501SOL    HW214403   6.420   0.063   2.761
 4502SOL     OW14404   1.689   3.980   6.525
 4502SOL    HW114405   1.635   3.969   6.442
 4502SOL    HW214406   1.783   4.004   6.500
 4503SOL     OW14407   3.823   1.586   2.399
 4503SOL    HW114408   3.738   1.633   2.376
 4503SOL    HW214409   3.883   1.586   2.318
 4504SOL     OW14410   1.414   2.228   3.990
 4504SOL    HW114411   1.329   2.222   3.939
 4504SOL    HW214412   1.473   2.150   3.966
 4505SOL     OW14413   6.295   3.047   3.209
 4505SOL    HW114414   6.238   3.032   3.128
 4505SOL    HW214415   6.249   3.109   3.272
 4506SOL     OW14416   3.947   4.078   0.133
 4506SOL    HW114417   3.860   4.051   0.173
 4506SOL    HW214418   4.017   4.083   0.204
 4507SOL     OW14419   5.992   2.669   2.763
 4507SOL    HW114420   5.939   2.631   2.839
 4507SOL    HW214421   5.991   2.769   2.768
 4508SOL     OW14422   6.235   5.219   0.394
 4508SOL    HW114423   6.320   5.167   0.399
 4508SOL    HW214424   6.211   5.255   0.484
 4509SOL     OW14425   5.127   2.151   2.220
 4509SOL    HW114426   5.122   2.250   2.235
 4509SOL    HW214427   5.051   2.106   2.267
 4510SOL     OW14428   4.745   1.429   4.096
 4510SOL    HW114429   4.699   1.411   4.009
 4510SOL    HW214430   4.736   1.348   4.155
 4511SOL     OW14431   0.167   4.498   6.842
 4511SOL    HW114432   0.111   4.539   6.770
 4511SOL    HW214433   0.159   4.398   6.838
 4512SOL     OW14434   3.019   3.320   6.009
 4512SOL    HW114435   3.091   3.264   5.968
 4512SOL    HW214436   2.946   3.260   6.043
 4513SOL     OW14437   0.322   0.603   1.139
 4513SOL    HW114438   0.356   0.558   1.222
 4513SOL    HW214439   0.369   0.565   1.059
 4514SOL     OW14440   4.616   4.578   6.475
 4514SOL    HW114441   4.655   4.491   6.445
 4514SOL    HW214442   4.538   4.601   6.418
 4515SOL     OW14443   4.756   0.045   6.112
 4515SOL    HW114444   4.785   7.008   6.042
 4515SOL    HW214445   4.673   0.092   6.082
 4516SOL     OW14446   3.723   2.192   5.189
 4516SOL    HW114447   3.628   2.189   5.158
 4516SOL    HW214448   3.784   2.160   5.117
 4517SOL     OW14449   3.718   0.398   4.705
 4517SOL    HW114450   3.627   0.433   4.683
 4517SOL    HW214451   3.739   0.319   4.648
 4518SOL     OW14452   6.716   0.305   0.869
 4518SOL    HW114453   6.687   0.385   0.921
 4518SOL    HW214454   6.636   0.251   0.843
 4519SOL     OW14455   5.281   6.979   6.287
 4519SOL    HW114456   5.236   6.891   6.270
 4519SOL    HW214457   5.219   0.025   6.263
 4520SOL     OW14458   4.493   5.070   5.561
 4520SOL    HW114459   4.517   5.088   5.656
 4520SOL    HW214460   4.494   5.155   5.509
 4521SOL     OW14461   4.621   2.674   4.329
 4521SOL    HW114462   4.587   2.585   4.362
 4521SOL    HW214463   4.657   2.663   4.237
 4522SOL     OW14464   5.661   3.688   3.116
 4522SOL    HW114465   5.716   3.680   3.199
 4522SOL    HW214466   5.608   3.772   3.119
 4523SOL     OW14467   0.029   3.050   6.566
 4523SOL    HW114468   0.125   3.022   6.561
 4523SOL    HW214469   0.023   3.147   6.588
 4524SOL     OW14470   2.173   3.844   1.826
 4524SOL    HW114471   2.216   3.934   1.831
 4524SOL    HW214472   2.152   3.813   1.919
 4525SOL     OW14473   3.589   1.886   5.866
 4525SOL    HW114474   3.646   1.938   5.929
 4525SOL    HW214475   3.626   1.794   5.855
 4526SOL     OW14476   2.070   0.517   5.502
 4526SOL    HW114477   1.997   0.579   5.471
 4526SOL    HW214478   2.156   0.543   5.458
 4527SOL     OW14479   0.758   2.238   2.403
 4527SOL    HW114480   0.793   2.174   2.471
 4527SOL    HW214481   0.682   2.197   2.353
 4528SOL     OW14482   5.298   1.325   4.688
 4528SOL    HW114483   5.348   1.336   4.603
 4528SOL    HW214484   5.333   1.245   4.737
 4529SOL     OW14485   2.022   1.847   3.877
 4529SOL    HW114486   1.947   1.838   3.812
 4529SOL    HW214487   2.053   1.942   3.878
 4530SOL     OW14488   4.455   4.370   6.117
 4530SOL    HW114489   4.386   4.302   6.144
 4530SOL    HW214490   4.436   4.401   6.024
 4531SOL     OW14491   1.944   0.385   5.138
 4531SOL    HW114492   1.895   0.348   5.217
 4531SOL    HW214493   2.041   0.392   5.159
 4532SOL     OW14494   5.592   1.147   2.054
 4532SOL    HW114495   5.591   1.228   1.996
 4532SOL    HW214496   5.685   1.112   2.062
 4533SOL     OW14497   2.969   6.541   1.330
 4533SOL    HW114498   2.958   6.447   1.361
 4533SOL    HW214499   2.978   6.601   1.410
 4534SOL     OW14500   5.674   0.858   4.188
 4534SOL    HW114501   5.601   0.823   4.129
 4534SOL    HW214502   5.640   0.936   4.241
 4535SOL     OW14503   1.374   0.903   0.024
 4535SOL    HW114504   1.353   0.879   6.957
 4535SOL    HW214505   1.473   0.909   0.036
 4536SOL     OW14506   3.832   0.790   5.612
 4536SOL    HW114507   3.738   0.815   5.591
 4536SOL    HW214508   3.882   0.776   5.527
 4537SOL     OW14509   3.028   3.270   3.313
 4537SOL    HW114510   3.004   3.275   3.410
 4537SOL    HW214511   3.039   3.363   3.277
 4538SOL     OW14512   1.215   2.733   0.083
 4538SOL    HW114513   1.197   2.634   0.089
 4538SOL    HW214514   1.276   2.760   0.157
 4539SOL     OW14515   1.010   4.987   4.430
 4539SOL    HW114516   0.934   5.049   4.451
 4539SOL    HW214517   0.981   4.920   4.362
 4540SOL     OW14518   1.823   1.986   0.837
 4540SOL    HW114519   1.771   2.072   0.832
 4540SOL    HW214520   1.808   1.934   0.753
 4541SOL     OW14521   4.124   2.967   6.960
 4541SOL    HW114522   4.188   2.942   6.887
 4541SOL    HW214523   4.175   2.994   0.014
 4542SOL     OW14524   0.146   1.256   0.705
 4542SOL    HW114525   0.056   1.272   0.745
 4542SOL    HW214526   0.142   1.273   0.606
 4543SOL     OW14527   4.515   1.491   1.113
 4543SOL    HW114528   4.467   1.532   1.191
 4543SOL    HW214529   4.468   1.515   1.029
 4544SOL     OW14530   4.882   6.333   0.785
 4544SOL    HW114531   4.963   6.276   0.772
 4544SOL    HW214532   4.826   6.295   0.858
 4545SOL     OW14533   2.838   2.824   5.401
 4545SOL    HW114534   2.867   2.843   5.494
 4545SOL    HW214535   2.828   2.910   5.350
 4546SOL     OW14536   4.966   6.943   6.360
 4546SOL    HW114537   5.022   6.892   6.426
 4546SOL    HW214538   4.967   6.896   6.272
 4547SOL     OW14539   6.656   1.410   0.248
 4547SOL    HW114540   6.736   1.461   0.279
 4547SOL    HW214541   6.659   1.401   0.148
 4548SOL     OW14542   2.975   1.404   2.017
 4548SOL    HW114543   3.034   1.475   2.053
 4548SOL    HW214544   2.938   1.349   2.092
 4549SOL     OW14545   6.142   4.372   3.626
 4549SOL    HW114546   6.178   4.362   3.719
 4549SOL    HW214547   6.218   4.383   3.562
 4550SOL     OW14548   2.415   5.538   6.639
 4550SOL    HW114549   2.316   5.525   6.649
 4550SOL    HW214550   2.438   5.551   6.542
 4551SOL     OW14551   3.319   2.873   6.357
 4551SOL    HW114552   3.365   2.806   6.298
 4551SOL    HW214553   3.248   2.919   6.304
 4552SOL     OW14554   4.845   0.897   6.957
 4552SOL    HW114555   4.883   0.989   6.954
 4552SOL    HW214556   4.913   0.831   6.925
 4553SOL     OW14557   0.152   6.978   0.126
 4553SOL    HW114558   0.151   7.001   0.029
 4553SOL    HW214559   0.075   6.917   0.146
 4554SOL     OW14560   5.587   6.336   3.069
 4554SOL    HW114561   5.560   6.287   2.986
 4554SOL    HW214562   5.569   6.434   3.057
 4555SOL     OW14563   0.901   0.018   2.490
 4555SOL    HW114564   0.817   0.061   2.457
 4555SOL    HW214565   0.888   7.014   2.584
 4556SOL     OW14566   5.092   4.713   4.473
 4556SOL    HW114567   5.123   4.756   4.557
 4556SOL    HW214568   5.160   4.725   4.401
 4557SOL     OW14569   6.914   5.399   4.815
 4557SOL    HW114570   6.818   5.405   4.844
 4557SOL    HW214571   6.961   5.329   4.868
 4558SOL     OW14572   0.837   4.336   4.556
 4558SOL    HW114573   0.923   4.339   4.606
 4558SOL    HW214574   0.762   4.358   4.618
 4559SOL     OW14575   0.416   2.843   4.158
 4559SOL    HW114576   0.427   2.744   4.167
 4559SOL    HW214577   0.414   2.867   4.061
 4560SOL     OW14578   6.327   4.521   3.147
 4560SOL    HW114579   6.335   4.532   3.048
 4560SOL    HW214580   6.279   4.600   3.185
 4561SOL     OW14581   4.739   2.902   4.032
 4561SOL    HW114582   4.751   2.803   4.029
 4561SOL    HW214583   4.729   2.932   4.127
 4562SOL     OW14584   4.665   1.087   0.598
 4562SOL    HW114585   4.587   1.147   0.614
 4562SOL    HW214586   4.731   1.099   0.672
 4563SOL     OW14587   1.152   4.108   1.677
 4563SOL    HW114588   1.207   4.183   1.714
 4563SOL    HW214589   1.194   4.021   1.700
 4564SOL     OW14590   1.941   4.073   2.303
 4564SOL    HW114591   1.878   4.148   2.322
 4564SOL    HW214592   2.013   4.071   2.372
 4565SOL     OW14593   2.475   0.313   5.676
 4565SOL    HW114594   2.575   0.305   5.679
 4565SOL    HW214595   2.438   0.302   5.768
 4566SOL     OW14596   6.909   4.997   3.156
 4566SOL    HW114597   6.827   5.019   3.103
 4566SOL    HW214598   6.955   4.918   3.114
 4567SOL     OW14599   0.473   0.216   0.231
 4567SOL    HW114600   0.468   0.267   0.317
 4567SOL    HW214601   0.445   0.121   0.247
 4568SOL     OW14602   0.882   4.150   3.701
 4568SOL    HW114603   0.923   4.114   3.617
 4568SOL    HW214604   0.879   4.250   3.697
 4569SOL     OW14605   0.926   2.919   3.427
 4569SOL    HW114606   0.860   2.987   3.395
 4569SOL    HW214607   0.878   2.838   3.460
 4570SOL     OW14608   5.196   5.908   1.153
 4570SOL    HW114609   5.119   5.954   1.110
 4570SOL    HW214610   5.274   5.909   1.091
 4571SOL     OW14611   1.903   3.146   5.562
 4571SOL    HW114612   1.906   3.175   5.658
 4571SOL    HW214613   1.980   3.188   5.513
 4572SOL     OW14614   4.446   3.174   1.691
 4572SOL    HW114615   4.461   3.136   1.599
 4572SOL    HW214616   4.508   3.131   1.756
 4573SOL     OW14617   2.184   4.658   0.666
 4573SOL    HW114618   2.186   4.585   0.597
 4573SOL    HW214619   2.111   4.723   0.643
 4574SOL     OW14620   5.417   0.440   1.518
 4574SOL    HW114621   5.333   0.405   1.560
 4574SOL    HW214622   5.423   0.408   1.423
 4575SOL     OW14623   0.124   1.167   5.225
 4575SOL    HW114624   0.110   1.263   5.199
 4575SOL    HW214625   0.215   1.157   5.266
 4576SOL     OW14626   3.276   3.518   0.105
 4576SOL    HW114627   3.329   3.488   0.185
 4576SOL    HW214628   3.182   3.485   0.114
 4577SOL     OW14629   0.821   1.690   1.598
 4577SOL    HW114630   0.809   1.660   1.693
 4577SOL    HW214631   0.887   1.630   1.553
 4578SOL     OW14632   1.593   0.975   3.200
 4578SOL    HW114633   1.556   1.068   3.196
 4578SOL    HW214634   1.660   0.962   3.126
 4579SOL     OW14635   4.464   0.904   3.149
 4579SOL    HW114636   4.562   0.919   3.132
 4579SOL    HW214637   4.428   0.979   3.205
 4580SOL     OW14638   0.621   0.516   1.866
 4580SOL    HW114639   0.675   0.454   1.809
 4580SOL    HW214640   0.584   0.590   1.810
 4581SOL     OW14641   3.134   0.259   1.275
 4581SOL    HW114642   3.076   0.338   1.254
 4581SOL    HW214643   3.076   0.181   1.302
 4582SOL     OW14644   6.236   0.475   4.084
 4582SOL    HW114645   6.196   0.565   4.067
 4582SOL    HW214646   6.163   0.412   4.111
 4583SOL     OW14647   1.771   6.869   0.126
 4583SOL    HW114648   1.845   6.855   0.193
 4583SOL    HW214649   1.717   6.949   0.152
 4584SOL     OW14650   0.287   1.239   4.152
 4584SOL    HW114651   0.224   1.277   4.220
 4584SOL    HW214652   0.238   1.175   4.093
 4585SOL     OW14653   1.093   3.056   3.214
 4585SOL    HW114654   1.109   3.148   3.251
 4585SOL    HW214655   1.042   3.001   3.280
 4586SOL     OW14656   6.847   4.941   5.616
 4586SOL    HW114657   6.829   5.022   5.671
 4586SOL    HW214658   6.773   4.928   5.550
 4587SOL     OW14659   4.526   3.440   6.222
 4587SOL    HW114660   4.563   3.348   6.208
 4587SOL    HW214661   4.521   3.488   6.135
 4588SOL     OW14662   3.002   4.241   6.556
 4588SOL    HW114663   3.012   4.215   6.460
 4588SOL    HW214664   3.008   4.341   6.564
 4589SOL     OW14665   5.522   5.860   2.132
 4589SOL    HW114666   5.504   5.865   2.230
 4589SOL    HW214667   5.620   5.868   2.116
 4590SOL     OW14668   2.439   5.305   1.978
 4590SOL    HW114669   2.414   5.401   1.978
 4590SOL    HW214670   2.488   5.283   2.062
 4591SOL     OW14671   2.113   0.925   4.751
 4591SOL    HW114672   2.090   0.972   4.666
 4591SOL    HW214673   2.081   0.979   4.829
 4592SOL     OW14674   3.066   2.151   3.674
 4592SOL    HW114675   3.080   2.067   3.621
 4592SOL    HW214676   3.135   2.155   3.747
 4593SOL     OW14677   1.538   5.820   4.667
 4593SOL    HW114678   1.483   5.890   4.712
 4593SOL    HW214679   1.516   5.730   4.706
 4594SOL     OW14680   1.460   5.981   3.917
 4594SOL    HW114681   1.377   5.994   3.863
 4594SOL    HW214682   1.532   5.942   3.859
 4595SOL     OW14683   5.910   2.134   6.709
 4595SOL    HW114684   5.958   2.192   6.644
 4595SOL    HW214685   5.975   2.073   6.754
 4596SOL     OW14686   1.089   1.603   2.198
 4596SOL    HW114687   1.161   1.545   2.236
 4596SOL    HW214688   1.130   1.679   2.148
 4597SOL     OW14689   2.192   5.884   0.838
 4597SOL    HW114690   2.270   5.876   0.776
 4597SOL    HW214691   2.143   5.969   0.818
 4598SOL     OW14692   0.537   2.760   0.083
 4598SOL    HW114693   0.541   2.666   0.052
 4598SOL    HW214694   0.452   2.775   0.134
 4599SOL     OW14695   3.192   6.251   2.915
 4599SOL    HW114696   3.211   6.349   2.912
 4599SOL    HW214697   3.206   6.211   2.824
 4600SOL     OW14698   0.935   6.345   6.220
 4600SOL    HW114699   1.022   6.348   6.269
 4600SOL    HW214700   0.869   6.293   6.274
 4601SOL     OW14701   1.405   1.098   5.458
 4601SOL    HW114702   1.485   1.107   5.399
 4601SOL    HW214703   1.433   1.075   5.551
 4602SOL     OW14704   4.138   1.011   6.531
 4602SOL    HW114705   4.214   1.009   6.597
 4602SOL    HW214706   4.070   1.078   6.562
 4603SOL     OW14707   3.747   6.914   0.691
 4603SOL    HW114708   3.842   6.913   0.661
 4603SOL    HW214709   3.710   6.821   0.689
 4604SOL     OW14710   0.736   6.539   3.235
 4604SOL    HW114711   0.771   6.531   3.141
 4604SOL    HW214712   0.721   6.449   3.273
 4605SOL     OW14713   4.398   1.107   1.852
 4605SOL    HW114714   4.397   1.015   1.890
 4605SOL    HW214715   4.336   1.111   1.773
 4606SOL     OW14716   6.983   6.892   4.496
 4606SOL    HW114717   7.020   6.984   4.515
 4606SOL    HW214718   6.884   6.899   4.482
 4607SOL     OW14719   3.257   1.874   1.261
 4607SOL    HW114720   3.214   1.964   1.254
 4607SOL    HW214721   3.338   1.872   1.201
 4608SOL     OW14722   0.317   2.618   5.479
 4608SOL    HW114723   0.288   2.558   5.553
 4608SOL    HW214724   0.417   2.621   5.476
 4609SOL     OW14725   5.942   5.235   6.269
 4609SOL    HW114726   5.855   5.201   6.305
 4609SOL    HW214727   6.017   5.203   6.327
 4610SOL     OW14728   5.056   4.962   6.670
 4610SOL    HW114729   5.119   5.040   6.672
 4610SOL    HW214730   5.061   4.913   6.757
 4611SOL     OW14731   0.105   0.896   6.825
 4611SOL    HW114732   0.070   0.907   6.733
 4611SOL    HW214733   0.035   0.854   6.883
 4612SOL     OW14734   2.791   1.216   2.977
 4612SOL    HW114735   2.693   1.200   2.990
 4612SOL    HW214736   2.839   1.200   3.063
 4613SOL     OW14737   1.406   5.125   3.108
 4613SOL    HW114738   1.394   5.082   3.019
 4613SOL    HW214739   1.395   5.224   3.099
 4614SOL     OW14740   0.529   4.406   3.018
 4614SOL    HW114741   0.545   4.390   3.115
 4614SOL    HW214742   0.432   4.425   3.003
 4615SOL     OW14743   1.211   4.378   0.004
 4615SOL    HW114744   1.216   4.300   6.969
 4615SOL    HW214745   1.303   4.403   0.033
 4616SOL     OW14746   1.094   4.069   6.516
 4616SOL    HW114747   1.182   4.085   6.471
 4616SOL    HW214748   1.019   4.094   6.454
 4617SOL     OW14749   0.133   4.231   3.921
 4617SOL    HW114750   0.109   4.168   3.995
 4617SOL    HW214751   0.060   4.231   3.852
 4618SOL     OW14752   2.301   4.120   5.654
 4618SOL    HW114753   2.323   4.164   5.741
 4618SOL    HW214754   2.371   4.144   5.586
 4619SOL     OW14755   4.355   5.568   6.799
 4619SOL    HW114756   4.306   5.603   6.878
 4619SOL    HW214757   4.453   5.567   6.819
 4620SOL     OW14758   1.376   4.571   1.220
 4620SOL    HW114759   1.321   4.642   1.177
 4620SOL    HW214760   1.331   4.482   1.208
 4621SOL     OW14761   2.896   0.174   2.552
 4621SOL    HW114762   2.928   0.083   2.578
 4621SOL    HW214763   2.796   0.173   2.543
 4622SOL     OW14764   5.756   0.018   0.312
 4622SOL    HW114765   5.659   0.016   0.333
 4622SOL    HW214766   5.808   7.012   0.390
 4623SOL     OW14767   3.112   4.904   3.134
 4623SOL    HW114768   3.026   4.859   3.158
 4623SOL    HW214769   3.172   4.905   3.214
 4624SOL     OW14770   5.206   1.956   0.935
 4624SOL    HW114771   5.282   1.894   0.951
 4624SOL    HW214772   5.222   2.042   0.983
 4625SOL     OW14773   1.117   6.627   2.111
 4625SOL    HW114774   1.136   6.696   2.041
 4625SOL    HW214775   1.187   6.632   2.182
 4626SOL     OW14776   4.146   3.386   1.997
 4626SOL    HW114777   4.198   3.304   1.972
 4626SOL    HW214778   4.180   3.464   1.945
 4627SOL     OW14779   5.963   6.193   4.856
 4627SOL    HW114780   6.059   6.184   4.828
 4627SOL    HW214781   5.915   6.254   4.793
 4628SOL     OW14782   6.697   4.738   2.737
 4628SOL    HW114783   6.637   4.798   2.790
 4628SOL    HW214784   6.789   4.778   2.731
 4629SOL     OW14785   1.344   5.325   0.975
 4629SOL    HW114786   1.301   5.239   0.947
 4629SOL    HW214787   1.297   5.361   1.056
 4630SOL     OW14788   1.852   3.842   1.308
 4630SOL    HW114789   1.819   3.910   1.243
 4630SOL    HW214790   1.775   3.800   1.355
 4631SOL     OW14791   6.463   1.579   2.850
 4631SOL    HW114792   6.416   1.542   2.770
 4631SOL    HW214793   6.523   1.509   2.889
 4632SOL     OW14794   3.173   4.958   3.793
 4632SOL    HW114795   3.165   4.951   3.893
 4632SOL    HW214796   3.269   4.950   3.767
 4633SOL     OW14797   5.459   3.072   3.911
 4633SOL    HW114798   5.474   3.171   3.907
 4633SOL    HW214799   5.379   3.049   3.856
 4634SOL     OW14800   3.699   3.084   5.051
 4634SOL    HW114801   3.691   3.049   4.958
 4634SOL    HW214802   3.794   3.075   5.082
 4635SOL     OW14803   4.098   6.599   1.977
 4635SOL    HW114804   4.030   6.662   1.939
 4635SOL    HW214805   4.173   6.651   2.016
 4636SOL     OW14806   1.440   5.534   6.465
 4636SOL    HW114807   1.397   5.512   6.552
 4636SOL    HW214808   1.371   5.531   6.392
 4637SOL     OW14809   2.004   2.295   3.418
 4637SOL    HW114810   2.089   2.291   3.471
 4637SOL    HW214811   1.973   2.389   3.412
 4638SOL     OW14812   3.861   4.897   0.492
 4638SOL    HW114813   3.908   4.968   0.543
 4638SOL    HW214814   3.927   4.843   0.440
 4639SOL     OW14815   4.234   2.145   1.961
 4639SOL    HW114816   4.140   2.113   1.953
 4639SOL    HW214817   4.294   2.068   1.981
 4640SOL     OW14818   6.781   3.006   1.165
 4640SOL    HW114819   6.740   3.094   1.189
 4640SOL    HW214820   6.851   3.020   1.095
 4641SOL     OW14821   0.875   6.016   5.112
 4641SOL    HW114822   0.866   5.917   5.096
 4641SOL    HW214823   0.929   6.032   5.194
 4642SOL     OW14824   6.016   1.368   5.851
 4642SOL    HW114825   6.077   1.308   5.903
 4642SOL    HW214826   5.945   1.313   5.808
 4643SOL     OW14827   0.599   1.901   6.847
 4643SOL    HW114828   0.511   1.856   6.838
 4643SOL    HW214829   0.592   1.995   6.813
 4644SOL     OW14830   1.296   1.528   1.185
 4644SOL    HW114831   1.206   1.486   1.192
 4644SOL    HW214832   1.308   1.594   1.260
 4645SOL     OW14833   5.986   2.633   5.031
 4645SOL    HW114834   5.965   2.677   4.944
 4645SOL    HW214835   5.911   2.650   5.096
 4646SOL     OW14836   1.306   3.985   2.668
 4646SOL    HW114837   1.396   3.969   2.626
 4646SOL    HW214838   1.315   4.050   2.744
 4647SOL     OW14839   2.089   6.305   2.589
 4647SOL    HW114840   2.172   6.251   2.578
 4647SOL    HW214841   2.034   6.267   2.664
 4648SOL     OW14842   2.633   1.226   4.744
 4648SOL    HW114843   2.716   1.269   4.780
 4648SOL    HW214844   2.651   1.188   4.654
 4649SOL     OW14845   5.347   2.462   0.752
 4649SOL    HW114846   5.294   2.542   0.780
 4649SOL    HW214847   5.380   2.475   0.658
 4650SOL     OW14848   3.931   5.417   0.828
 4650SOL    HW114849   3.935   5.366   0.914
 4650SOL    HW214850   4.021   5.456   0.809
 4651SOL     OW14851   1.093   3.872   6.952
 4651SOL    HW114852   1.167   3.807   6.937
 4651SOL    HW214853   1.100   3.948   6.887
 4652SOL     OW14854   6.941   0.218   5.501
 4652SOL    HW114855   6.846   0.220   5.471
 4652SOL    HW214856   6.981   0.128   5.481
 4653SOL     OW14857   6.993   6.180   0.799
 4653SOL    HW114858   0.018   6.127   0.865
 4653SOL    HW214859   7.003   6.278   0.819
 4654SOL     OW14860   0.558   0.939   5.188
 4654SOL    HW114861   0.557   1.021   5.246
 4654SOL    HW214862   0.617   0.869   5.230
 4655SOL     OW14863   5.015   4.492   2.942
 4655SOL    HW114864   5.043   4.534   2.855
 4655SOL    HW214865   5.080   4.518   3.014
 4656SOL     OW14866   5.817   0.495   1.535
 4656SOL    HW114867   5.728   0.491   1.492
 4656SOL    HW214868   5.881   0.436   1.487
 4657SOL     OW14869   3.907   1.627   2.647
 4657SOL    HW114870   3.879   1.584   2.561
 4657SOL    HW214871   3.924   1.724   2.632
 4658SOL     OW14872   1.037   1.958   7.002
 4658SOL    HW114873   1.026   2.037   6.942
 4658SOL    HW214874   0.985   1.972   0.058
 4659SOL     OW14875   2.419   4.806   0.243
 4659SOL    HW114876   2.339   4.750   0.264
 4659SOL    HW214877   2.391   4.882   0.184
 4660SOL     OW14878   0.431   4.820   4.520
 4660SOL    HW114879   0.365   4.877   4.570
 4660SOL    HW214880   0.429   4.845   4.423
 4661SOL     OW14881   1.094   1.231   5.908
 4661SOL    HW114882   1.014   1.174   5.887
 4661SOL    HW214883   1.143   1.191   5.985
 4662SOL     OW14884   3.004   0.581   5.689
 4662SOL    HW114885   3.036   0.609   5.598
 4662SOL    HW214886   3.032   0.649   5.757
 4663SOL     OW14887   0.890   0.834   1.164
 4663SOL    HW114888   0.935   0.874   1.244
 4663SOL    HW214889   0.945   0.758   1.130
 4664SOL     OW14890   5.975   5.982   5.283
 4664SOL    HW114891   5.988   6.017   5.376
 4664SOL    HW214892   6.043   5.911   5.265
 4665SOL     OW14893   6.839   0.855   2.307
 4665SOL    HW114894   6.863   0.761   2.327
 4665SOL    HW214895   6.796   0.897   2.387
 4666SOL     OW14896   1.590   2.709   5.946
 4666SOL    HW114897   1.581   2.688   6.044
 4666SOL    HW214898   1.672   2.664   5.910
 4667SOL     OW14899   5.981   2.894   1.576
 4667SOL    HW114900   6.062   2.863   1.527
 4667SOL    HW214901   6.003   2.907   1.672
 4668SOL     OW14902   4.836   1.665   5.616
 4668SOL    HW114903   4.852   1.758   5.585
 4668SOL    HW214904   4.849   1.601   5.540
 4669SOL     OW14905   5.574   0.007   5.903
 4669SOL    HW114906   5.498   0.068   5.927
 4669SOL    HW214907   5.565   6.949   5.953
 4670SOL     OW14908   0.248   3.586   6.636
 4670SOL    HW114909   0.224   3.647   6.712
 4670SOL    HW214910   0.196   3.613   6.555
 4671SOL     OW14911   6.654   2.630   1.811
 4671SOL    HW114912   6.590   2.600   1.881
 4671SOL    HW214913   6.745   2.593   1.830
 4672SOL     OW14914   3.398   3.374   0.334
 4672SOL    HW114915   3.336   3.310   0.381
 4672SOL    HW214916   3.466   3.322   0.283
 4673SOL     OW14917   5.480   1.010   0.807
 4673SOL    HW114918   5.424   0.964   0.875
 4673SOL    HW214919   5.480   0.957   0.722
 4674SOL     OW14920   1.350   2.826   0.649
 4674SOL    HW114921   1.286   2.828   0.572
 4674SOL    HW214922   1.368   2.731   0.675
 4675SOL     OW14923   1.725   6.024   7.006
 4675SOL    HW114924   1.782   5.996   6.928
 4675SOL    HW214925   1.671   6.104   6.981
 4676SOL     OW14926   0.981   5.637   4.681
 4676SOL    HW114927   0.983   5.666   4.777
 4676SOL    HW214928   0.960   5.715   4.623
 4677SOL     OW14929   3.961   7.000   6.778
 4677SOL    HW114930   4.060   7.006   6.794
 4677SOL    HW214931   3.929   6.907   6.796
 4678SOL     OW14932   2.348   4.672   7.002
 4678SOL    HW114933   2.417   4.734   0.011
 4678SOL    HW214934   2.338   4.688   6.903
 4679SOL     OW14935   2.155   6.923   5.298
 4679SOL    HW114936   2.211   6.851   5.259
 4679SOL    HW214937   2.084   6.949   5.233
 4680SOL     OW14938   0.704   4.997   6.669
 4680SOL    HW114939   0.695   4.899   6.653
 4680SOL    HW214940   0.760   5.038   6.597
 4681SOL     OW14941   6.783   5.673   4.944
 4681SOL    HW114942   6.815   5.631   5.029
 4681SOL    HW214943   6.845   5.649   4.870
 4682SOL     OW14944   2.966   0.464   0.987
 4682SOL    HW114945   2.993   0.549   0.941
 4682SOL    HW214946   2.973   0.475   1.086
 4683SOL     OW14947   0.207   4.763   3.691
 4683SOL    HW114948   0.188   4.748   3.594
 4683SOL    HW214949   0.196   4.860   3.712
 4684SOL     OW14950   1.826   1.272   4.900
 4684SOL    HW114951   1.738   1.233   4.873
 4684SOL    HW214952   1.850   1.241   4.991
 4685SOL     OW14953   5.331   4.442   4.497
 4685SOL    HW114954   5.360   4.513   4.434
 4685SOL    HW214955   5.288   4.483   4.577
 4686SOL     OW14956   4.929   5.645   6.909
 4686SOL    HW114957   4.952   5.713   6.978
 4686SOL    HW214958   5.003   5.578   6.903
 4687SOL     OW14959   5.053   7.013   4.370
 4687SOL    HW114960   5.146   7.021   4.406
 4687SOL    HW214961   4.999   6.953   4.428
 4688SOL     OW14962   6.827   1.614   0.712
 4688SOL    HW114963   6.924   1.593   0.707
 4688SOL    HW214964   6.794   1.595   0.805
 4689SOL     OW14965   1.917   5.700   4.360
 4689SOL    HW114966   1.893   5.616   4.311
 4689SOL    HW214967   1.867   5.703   4.447
 4690SOL     OW14968   2.089   1.851   1.214
 4690SOL    HW114969   2.106   1.755   1.193
 4690SOL    HW214970   2.007   1.882   1.165
 4691SOL     OW14971   3.452   4.605   0.555
 4691SOL    HW114972   3.424   4.515   0.586
 4691SOL    HW214973   3.374   4.667   0.558
 4692SOL     OW14974   1.127   5.666   3.628
 4692SOL    HW114975   1.206   5.605   3.635
 4692SOL    HW214976   1.140   5.729   3.552
 4693SOL     OW14977   0.985   0.740   1.977
 4693SOL    HW114978   1.020   0.724   1.885
 4693SOL    HW214979   1.041   0.810   2.022
 4694SOL     OW14980   1.131   1.098   5.409
 4694SOL    HW114981   1.119   1.189   5.368
 4694SOL    HW214982   1.228   1.079   5.422
 4695SOL     OW14983   3.063   3.352   2.948
 4695SOL    HW114984   3.103   3.439   2.919
 4695SOL    HW214985   3.135   3.294   2.987
 4696SOL     OW14986   6.672   3.567   0.797
 4696SOL    HW114987   6.586   3.573   0.847
 4696SOL    HW214988   6.742   3.527   0.858
 4697SOL     OW14989   1.091   5.915   6.745
 4697SOL    HW114990   1.084   5.892   6.842
 4697SOL    HW214991   1.151   5.849   6.700
 4698SOL     OW14992   6.225   3.548   1.653
 4698SOL    HW114993   6.192   3.455   1.670
 4698SOL    HW214994   6.180   3.611   1.715
 4699SOL     OW14995   6.684   6.715   3.272
 4699SOL    HW114996   6.622   6.643   3.301
 4699SOL    HW214997   6.741   6.743   3.350
 4700SOL     OW14998   5.067   6.681   6.507
 4700SOL    HW114999   5.057   6.736   6.590
 4700SOL    HW215000   5.160   6.689   6.472
 4701SOL     OW15001   1.746   0.466   6.901
 4701SOL    HW115002   1.770   0.373   6.928
 4701SOL    HW215003   1.672   0.500   6.959
 4702SOL     OW15004   2.413   3.083   0.710
 4702SOL    HW115005   2.477   3.023   0.758
 4702SOL    HW215006   2.400   3.167   0.763
 4703SOL     OW15007   0.855   6.971   2.058
 4703SOL    HW115008   0.758   6.991   2.071
 4703SOL    HW215009   0.865   6.881   2.015
 4704SOL     OW15010   4.862   6.600   6.299
 4704SOL    HW115011   4.896   6.658   6.225
 4704SOL    HW215012   4.926   6.604   6.376
 4705SOL     OW15013   4.084   3.276   4.724
 4705SOL    HW115014   4.088   3.314   4.631
 4705SOL    HW215015   4.106   3.179   4.721
 4706SOL     OW15016   5.554   4.162   6.799
 4706SOL    HW115017   5.603   4.169   6.887
 4706SOL    HW215018   5.530   4.067   6.782
 4707SOL     OW15019   2.774   5.451   1.313
 4707SOL    HW115020   2.828   5.416   1.236
 4707SOL    HW215021   2.805   5.544   1.336
 4708SOL     OW15022   1.598   3.520   2.539
 4708SOL    HW115023   1.625   3.523   2.443
 4708SOL    HW215024   1.498   3.510   2.546
 4709SOL     OW15025   2.699   4.535   0.540
 4709SOL    HW115026   2.667   4.628   0.558
 4709SOL    HW215027   2.692   4.480   0.624
 4710SOL     OW15028   4.930   3.207   1.161
 4710SOL    HW115029   4.939   3.296   1.207
 4710SOL    HW215030   4.965   3.135   1.221
 4711SOL     OW15031   2.744   6.872   3.314
 4711SOL    HW115032   2.674   6.944   3.317
 4711SOL    HW215033   2.711   6.791   3.360
 4712SOL     OW15034   1.582   3.786   6.729
 4712SOL    HW115035   1.531   3.707   6.696
 4712SOL    HW215036   1.625   3.833   6.652
 4713SOL     OW15037   1.011   5.264   0.682
 4713SOL    HW115038   1.061   5.184   0.650
 4713SOL    HW215039   0.913   5.248   0.672
 4714SOL     OW15040   3.929   2.431   1.156
 4714SOL    HW115041   3.837   2.411   1.121
 4714SOL    HW215042   3.926   2.514   1.211
 4715SOL     OW15043   4.915   3.910   4.967
 4715SOL    HW115044   4.972   3.964   5.027
 4715SOL    HW215045   4.856   3.850   5.021
 4716SOL     OW15046   2.648   5.278   6.618
 4716SOL    HW115047   2.710   5.355   6.608
 4716SOL    HW215048   2.569   5.305   6.673
 4717SOL     OW15049   2.127   5.163   4.643
 4717SOL    HW115050   2.169   5.184   4.555
 4717SOL    HW215051   2.152   5.233   4.710
 4718SOL     OW15052   4.862   0.587   0.297
 4718SOL    HW115053   4.920   0.632   0.229
 4718SOL    HW215054   4.767   0.609   0.279
 4719SOL     OW15055   4.229   3.161   1.869
 4719SOL    HW115056   4.150   3.138   1.812
 4719SOL    HW215057   4.312   3.158   1.813
 4720SOL     OW15058   3.198   1.435   3.367
 4720SOL    HW115059   3.166   1.461   3.458
 4720SOL    HW215060   3.282   1.381   3.375
 4721SOL     OW15061   1.799   1.387   1.697
 4721SOL    HW115062   1.894   1.398   1.668
 4721SOL    HW215063   1.785   1.296   1.735
 4722SOL     OW15064   3.021   0.166   2.288
 4722SOL    HW115065   3.048   0.258   2.317
 4722SOL    HW215066   3.062   0.098   2.348
 4723SOL     OW15067   2.970   6.891   5.218
 4723SOL    HW115068   2.937   6.802   5.249
 4723SOL    HW215069   3.070   6.891   5.216
 4724SOL     OW15070   4.471   4.998   0.544
 4724SOL    HW115071   4.544   4.931   0.531
 4724SOL    HW215072   4.478   5.036   0.636
 4725SOL     OW15073   6.064   5.499   2.377
 4725SOL    HW115074   6.045   5.442   2.457
 4725SOL    HW215075   6.010   5.467   2.299
 4726SOL     OW15076   0.404   6.551   4.701
 4726SOL    HW115077   0.433   6.631   4.754
 4726SOL    HW215078   0.394   6.577   4.605
 4727SOL     OW15079   6.112   6.717   2.008
 4727SOL    HW115080   6.148   6.810   2.010
 4727SOL    HW215081   6.157   6.662   2.079
 4728SOL     OW15082   6.268   0.787   7.012
 4728SOL    HW115083   6.329   0.710   6.994
 4728SOL    HW215084   6.173   0.757   7.005
 4729SOL     OW15085   3.247   0.771   0.968
 4729SOL    HW115086   3.181   0.720   0.914
 4729SOL    HW215087   3.330   0.785   0.914
 4730SOL     OW15088   2.200   0.665   6.204
 4730SOL    HW115089   2.162   0.735   6.143
 4730SOL    HW215090   2.190   0.575   6.162
 4731SOL     OW15091   4.669   2.075   6.106
 4731SOL    HW115092   4.657   2.026   6.020
 4731SOL    HW215093   4.710   2.013   6.174
 4732SOL     OW15094   0.621   0.387   0.045
 4732SOL    HW115095   0.562   0.338   0.109
 4732SOL    HW215096   0.712   0.398   0.085
 4733SOL     OW15097   6.378   3.458   3.416
 4733SOL    HW115098   6.421   3.402   3.487
 4733SOL    HW215099   6.319   3.401   3.359
 4734SOL     OW15100   6.095   4.576   5.694
 4734SOL    HW115101   6.038   4.601   5.616
 4734SOL    HW215102   6.069   4.630   5.774
 4735SOL     OW15103   0.411   4.212   3.803
 4735SOL    HW115104   0.456   4.133   3.847
 4735SOL    HW215105   0.312   4.206   3.818
 4736SOL     OW15106   1.672   0.119   2.230
 4736SOL    HW115107   1.678   0.219   2.224
 4736SOL    HW215108   1.673   0.080   2.138
 4737SOL     OW15109   3.439   5.197   1.813
 4737SOL    HW115110   3.360   5.214   1.754
 4737SOL    HW215111   3.422   5.118   1.871
 4738SOL     OW15112   0.687   6.673   2.450
 4738SOL    HW115113   0.644   6.705   2.535
 4738SOL    HW215114   0.641   6.589   2.420
 4739SOL     OW15115   3.890   0.119   1.770
 4739SOL    HW115116   3.946   0.190   1.727
 4739SOL    HW215117   3.943   0.073   1.841
 4740SOL     OW15118   0.586   1.972   4.232
 4740SOL    HW115119   0.670   1.962   4.180
 4740SOL    HW215120   0.587   2.059   4.281
 4741SOL     OW15121   4.130   3.720   2.322
 4741SOL    HW115122   4.154   3.650   2.389
 4741SOL    HW215123   4.146   3.684   2.230
 4742SOL     OW15124   4.946   0.743   1.613
 4742SOL    HW115125   4.920   0.840   1.617
 4742SOL    HW215126   5.022   0.726   1.676
 4743SOL     OW15127   1.677   5.444   0.911
 4743SOL    HW115128   1.645   5.389   0.989
 4743SOL    HW215129   1.608   5.442   0.839
 4744SOL     OW15130   1.640   5.772   1.230
 4744SOL    HW115131   1.658   5.693   1.288
 4744SOL    HW215132   1.723   5.827   1.222
 4745SOL     OW15133   1.778   3.179   0.592
 4745SOL    HW115134   1.728   3.107   0.543
 4745SOL    HW215135   1.718   3.221   0.660
 4746SOL     OW15136   5.260   5.590   4.145
 4746SOL    HW115137   5.184   5.551   4.196
 4746SOL    HW215138   5.346   5.547   4.175
 4747SOL     OW15139   3.618   0.549   0.103
 4747SOL    HW115140   3.538   0.574   0.157
 4747SOL    HW215141   3.626   0.611   0.025
 4748SOL     OW15142   1.800   0.139   2.595
 4748SOL    HW115143   1.892   0.113   2.623
 4748SOL    HW215144   1.794   0.239   2.591
 4749SOL     OW15145   2.643   1.598   1.128
 4749SOL    HW115146   2.715   1.660   1.095
 4749SOL    HW215147   2.570   1.652   1.170
 4750SOL     OW15148   4.699   3.229   6.249
 4750SOL    HW115149   4.691   3.130   6.237
 4750SOL    HW215150   4.795   3.254   6.259
 4751SOL     OW15151   4.844   1.065   2.207
 4751SOL    HW115152   4.942   1.073   2.229
 4751SOL    HW215153   4.792   1.052   2.291
 4752SOL     OW15154   5.375   1.409   6.655
 4752SOL    HW115155   5.363   1.337   6.587
 4752SOL    HW215156   5.399   1.368   6.743
 4753SOL     OW15157   2.803   6.120   5.536
 4753SOL    HW115158   2.848   6.088   5.619
 4753SOL    HW215159   2.736   6.191   5.559
 4754SOL     OW15160   5.229   4.249   6.635
 4754SOL    HW115161   5.262   4.199   6.555
 4754SOL    HW215162   5.252   4.346   6.626
 4755SOL     OW15163   0.985   1.287   1.512
 4755SOL    HW115164   0.904   1.256   1.462
 4755SOL    HW215165   0.979   1.258   1.607
 4756SOL     OW15166   0.248   3.782   5.832
 4756SOL    HW115167   0.336   3.812   5.794
 4756SOL    HW215168   0.188   3.755   5.757
 4757SOL     OW15169   1.967   3.215   0.377
 4757SOL    HW115170   1.922   3.179   0.459
 4757SOL    HW215171   1.918   3.185   0.296
 4758SOL     OW15172   1.951   4.875   2.551
 4758SOL    HW115173   1.861   4.910   2.575
 4758SOL    HW215174   2.011   4.952   2.526
 4759SOL     OW15175   0.606   6.415   2.421
 4759SOL    HW115176   0.507   6.397   2.418
 4759SOL    HW215177   0.642   6.415   2.328
 4760SOL     OW15178   1.649   6.449   1.767
 4760SOL    HW115179   1.684   6.416   1.679
 4760SOL    HW215180   1.561   6.495   1.753
 4761SOL     OW15181   5.184   6.528   1.857
 4761SOL    HW115182   5.258   6.498   1.797
 4761SOL    HW215183   5.218   6.600   1.918
 4762SOL     OW15184   1.310   1.021   2.907
 4762SOL    HW115185   1.357   1.109   2.908
 4762SOL    HW215186   1.233   1.024   2.972
 4763SOL     OW15187   5.629   5.258   1.736
 4763SOL    HW115188   5.626   5.208   1.649
 4763SOL    HW215189   5.655   5.353   1.719
 4764SOL     OW15190   4.742   2.999   6.740
 4764SOL    HW115191   4.662   3.021   6.684
 4764SOL    HW215192   4.795   2.927   6.695
 4765SOL     OW15193   3.942   1.594   5.755
 4765SOL    HW115194   4.026   1.621   5.804
 4765SOL    HW215195   3.926   1.496   5.770
 4766SOL     OW15196   0.886   1.095   4.556
 4766SOL    HW115197   0.886   1.187   4.594
 4766SOL    HW215198   0.832   1.094   4.472
 4767SOL     OW15199   2.259   4.818   3.760
 4767SOL    HW115200   2.269   4.812   3.660
 4767SOL    HW215201   2.185   4.881   3.782
 4768SOL     OW15202   4.541   1.756   6.080
 4768SOL    HW115203   4.468   1.824   6.085
 4768SOL    HW215204   4.598   1.774   5.999
 4769SOL     OW15205   2.568   3.296   0.945
 4769SOL    HW115206   2.521   3.229   1.002
 4769SOL    HW215207   2.509   3.323   0.868
 4770SOL     OW15208   0.100   1.566   3.362
 4770SOL    HW115209   0.085   1.543   3.266
 4770SOL    HW215210   0.030   1.632   3.392
 4771SOL     OW15211   2.659   0.332   4.014
 4771SOL    HW115212   2.599   0.379   4.080
 4771SOL    HW215213   2.722   0.273   4.064
 4772SOL     OW15214   2.586   4.667   3.059
 4772SOL    HW115215   2.499   4.717   3.068
 4772SOL    HW215216   2.611   4.661   2.962
 4773SOL     OW15217   2.950   5.063   4.647
 4773SOL    HW115218   3.041   5.025   4.635
 4773SOL    HW215219   2.883   4.989   4.654
 4774SOL     OW15220   0.998   4.590   0.990
 4774SOL    HW115221   0.939   4.663   1.025
 4774SOL    HW215222   0.942   4.511   0.966
 4775SOL     OW15223   6.062   5.105   4.473
 4775SOL    HW115224   5.966   5.130   4.485
 4775SOL    HW215225   6.105   5.092   4.563
 4776SOL     OW15226   6.382   1.703   5.068
 4776SOL    HW115227   6.391   1.613   5.025
 4776SOL    HW215228   6.464   1.757   5.049
 4777SOL     OW15229   1.384   6.918   3.546
 4777SOL    HW115230   1.480   6.897   3.568
 4777SOL    HW215231   1.374   6.925   3.447
 4778SOL     OW15232   1.962   0.085   0.151
 4778SOL    HW115233   1.982   7.019   0.178
 4778SOL    HW215234   2.012   0.148   0.210
 4779SOL     OW15235   4.958   1.272   4.580
 4779SOL    HW115236   5.042   1.249   4.532
 4779SOL    HW215237   4.910   1.188   4.606
 4780SOL     OW15238   4.929   3.018   4.950
 4780SOL    HW115239   4.920   2.977   4.859
 4780SOL    HW215240   4.931   3.118   4.940
 4781SOL     OW15241   1.923   5.588   2.147
 4781SOL    HW115242   1.898   5.670   2.198
 4781SOL    HW215243   1.911   5.508   2.206
 4782SOL     OW15244   1.228   5.909   3.237
 4782SOL    HW115245   1.322   5.883   3.258
 4782SOL    HW215246   1.227   5.979   3.166
 4783SOL     OW15247   0.494   3.504   6.591
 4783SOL    HW115248   0.538   3.512   6.681
 4783SOL    HW215249   0.402   3.542   6.597
 4784SOL     OW15250   5.806   3.279   7.023
 4784SOL    HW115251   5.763   3.319   6.941
 4784SOL    HW215252   5.743   3.214   0.037
 4785SOL     OW15253   7.009   0.184   3.880
 4785SOL    HW115254   6.946   0.261   3.883
 4785SOL    HW215255   6.968   0.105   3.926
 4786SOL     OW15256   0.690   5.576   0.389
 4786SOL    HW115257   0.679   5.574   0.488
 4786SOL    HW215258   0.700   5.482   0.355
 4787SOL     OW15259   4.650   0.886   4.911
 4787SOL    HW115260   4.635   0.792   4.939
 4787SOL    HW215261   4.684   0.939   4.988
 4788SOL     OW15262   0.051   5.619   0.835
 4788SOL    HW115263   0.146   5.643   0.854
 4788SOL    HW215264   0.015   5.563   0.910
 4789SOL     OW15265   5.908   0.990   2.852
 4789SOL    HW115266   5.895   1.074   2.904
 4789SOL    HW215267   5.978   1.005   2.782
 4790SOL     OW15268   6.700   2.191   5.027
 4790SOL    HW115269   6.658   2.132   5.096
 4790SOL    HW215270   6.645   2.190   4.944
 4791SOL     OW15271   0.502   0.840   6.832
 4791SOL    HW115272   0.556   0.910   6.879
 4791SOL    HW215273   0.531   0.750   6.863
 4792SOL     OW15274   0.488   3.790   1.581
 4792SOL    HW115275   0.448   3.767   1.492
 4792SOL    HW215276   0.513   3.887   1.582
 4793SOL     OW15277   1.048   3.646   5.385
 4793SOL    HW115278   1.123   3.712   5.391
 4793SOL    HW215279   0.998   3.644   5.472
 4794SOL     OW15280   5.448   1.527   6.249
 4794SOL    HW115281   5.453   1.618   6.290
 4794SOL    HW215282   5.384   1.528   6.172
 4795SOL     OW15283   6.930   0.696   6.918
 4795SOL    HW115284   6.961   0.654   7.003
 4795SOL    HW215285   6.856   0.761   6.938
 4796SOL     OW15286   5.704   0.834   5.876
 4796SOL    HW115287   5.786   0.869   5.830
 4796SOL    HW215288   5.682   0.743   5.841
 4797SOL     OW15289   2.432   5.002   5.606
 4797SOL    HW115290   2.431   5.057   5.522
 4797SOL    HW215291   2.512   4.941   5.604
 4798SOL     OW15292   2.919   6.247   0.171
 4798SOL    HW115293   2.929   6.335   0.217
 4798SOL    HW215294   2.879   6.261   0.080
 4799SOL     OW15295   3.696   3.194   0.615
 4799SOL    HW115296   3.784   3.215   0.658
 4799SOL    HW215297   3.665   3.104   0.645
 4800SOL     OW15298   1.052   4.553   0.358
 4800SOL    HW115299   0.996   4.511   0.287
 4800SOL    HW215300   1.149   4.541   0.335
 4801SOL     OW15301   4.875   2.811   3.269
 4801SOL    HW115302   4.962   2.773   3.302
 4801SOL    HW215303   4.801   2.747   3.288
 4802SOL     OW15304   0.026   0.414   5.146
 4802SOL    HW115305   0.102   0.397   5.208
 4802SOL    HW215306   6.983   0.467   5.193
 4803SOL     OW15307   4.935   3.557   5.627
 4803SOL    HW115308   4.873   3.634   5.612
 4803SOL    HW215309   5.030   3.589   5.623
 4804SOL     OW15310   5.387   2.725   0.368
 4804SOL    HW115311   5.400   2.656   0.439
 4804SOL    HW215312   5.456   2.713   0.296
 4805SOL     OW15313   5.681   1.154   6.529
 4805SOL    HW115314   5.723   1.114   6.447
 4805SOL    HW215315   5.692   1.253   6.526
 4806SOL     OW15316   0.832   2.360   3.269
 4806SOL    HW115317   0.821   2.282   3.331
 4806SOL    HW215318   0.907   2.342   3.206
 4807SOL     OW15319   0.592   4.031   0.206
 4807SOL    HW115320   0.519   3.964   0.219
 4807SOL    HW215321   0.681   3.987   0.221
 4808SOL     OW15322   3.594   6.200   2.415
 4808SOL    HW115323   3.591   6.109   2.376
 4808SOL    HW215324   3.503   6.224   2.449
 4809SOL     OW15325   2.875   3.625   0.477
 4809SOL    HW115326   2.967   3.612   0.516
 4809SOL    HW215327   2.873   3.709   0.423
 4810SOL     OW15328   1.984   5.430   4.625
 4810SOL    HW115329   1.938   5.405   4.710
 4810SOL    HW215330   2.076   5.463   4.645
 4811SOL     OW15331   3.260   3.533   4.474
 4811SOL    HW115332   3.324   3.561   4.402
 4811SOL    HW215333   3.254   3.605   4.543
 4812SOL     OW15334   2.634   6.516   1.958
 4812SOL    HW115335   2.659   6.608   1.988
 4812SOL    HW215336   2.600   6.464   2.036
 4813SOL     OW15337   0.795   2.735   4.669
 4813SOL    HW115338   0.753   2.815   4.712
 4813SOL    HW215339   0.889   2.756   4.644
 4814SOL     OW15340   6.288   2.326   0.782
 4814SOL    HW115341   6.252   2.341   0.690
 4814SOL    HW215342   6.246   2.244   0.820
 4815SOL     OW15343   6.610   4.393   2.325
 4815SOL    HW115344   6.607   4.481   2.373
 4815SOL    HW215345   6.705   4.369   2.305
 4816SOL     OW15346   2.483   0.356   2.648
 4816SOL    HW115347   2.446   0.352   2.741
 4816SOL    HW215348   2.419   0.404   2.589
 4817SOL     OW15349   3.803   2.430   0.157
 4817SOL    HW115350   3.814   2.372   0.076
 4817SOL    HW215351   3.722   2.402   0.207
 4818SOL     OW15352   4.988   6.532   4.524
 4818SOL    HW115353   4.995   6.446   4.473
 4818SOL    HW215354   4.892   6.551   4.545
 4819SOL     OW15355   3.268   0.984   7.021
 4819SOL    HW115356   3.327   0.990   6.940
 4819SOL    HW215357   3.313   1.028   0.071
 4820SOL     OW15358   6.507   4.853   1.550
 4820SOL    HW115359   6.430   4.806   1.508
 4820SOL    HW215360   6.585   4.791   1.556
 4821SOL     OW15361   7.023   6.525   1.446
 4821SOL    HW115362   7.014   6.453   1.514
 4821SOL    HW215363   7.021   6.485   1.354
 4822SOL     OW15364   0.603   4.055   1.644
 4822SOL    HW115365   0.551   4.131   1.682
 4822SOL    HW215366   0.695   4.086   1.621
 4823SOL     OW15367   0.411   1.962   3.055
 4823SOL    HW115368   0.320   1.932   3.085
 4823SOL    HW215369   0.448   2.027   3.122
 4824SOL     OW15370   5.503   1.938   2.123
 4824SOL    HW115371   5.539   1.877   2.194
 4824SOL    HW215372   5.447   2.009   2.166
 4825SOL     OW15373   1.093   3.528   4.452
 4825SOL    HW115374   1.120   3.580   4.533
 4825SOL    HW215375   1.169   3.523   4.388
 4826SOL     OW15376   6.735   6.951   0.523
 4826SOL    HW115377   6.757   6.937   0.619
 4826SOL    HW215378   6.815   6.930   0.467
 4827SOL     OW15379   4.912   2.213   0.047
 4827SOL    HW115380   4.896   2.198   6.977
 4827SOL    HW215381   5.004   2.182   0.071
 4828SOL     OW15382   5.773   3.102   6.579
 4828SOL    HW115383   5.723   3.025   6.618
 4828SOL    HW215384   5.854   3.121   6.634
 4829SOL     OW15385   3.165   0.412   5.366
 4829SOL    HW115386   3.113   0.327   5.374
 4829SOL    HW215387   3.255   0.401   5.408
 4830SOL     OW15388   5.143   4.872   4.936
 4830SOL    HW115389   5.130   4.969   4.916
 4830SOL    HW215390   5.182   4.862   5.027
 4831SOL     OW15391   6.123   1.992   6.780
 4831SOL    HW115392   6.131   2.008   6.681
 4831SOL    HW215393   6.112   1.894   6.797
 4832SOL     OW15394   1.148   2.785   6.552
 4832SOL    HW115395   1.087   2.717   6.512
 4832SOL    HW215396   1.139   2.783   6.652
 4833SOL     OW15397   6.427   2.398   3.682
 4833SOL    HW115398   6.478   2.312   3.685
 4833SOL    HW215399   6.377   2.404   3.596
 4834SOL     OW15400   5.906   0.104   3.443
 4834SOL    HW115401   5.844   0.037   3.402
 4834SOL    HW215402   5.941   0.069   3.529
 4835SOL     OW15403   1.916   1.697   6.685
 4835SOL    HW115404   2.012   1.671   6.697
 4835SOL    HW215405   1.904   1.739   6.595
 4836SOL     OW15406   5.729   3.432   2.495
 4836SOL    HW115407   5.820   3.401   2.522
 4836SOL    HW215408   5.667   3.426   2.573
 4837SOL     OW15409   0.404   5.098   1.274
 4837SOL    HW115410   0.310   5.093   1.241
 4837SOL    HW215411   0.445   5.184   1.243
 4838SOL     OW15412   2.565   5.806   2.389
 4838SOL    HW115413   2.525   5.896   2.372
 4838SOL    HW215414   2.518   5.763   2.466
 4839SOL     OW15415   0.952   0.305   6.099
 4839SOL    HW115416   1.027   0.331   6.160
 4839SOL    HW215417   0.989   0.271   6.013
 4840SOL     OW15418   6.681   5.941   6.303
 4840SOL    HW115419   6.724   5.960   6.391
 4840SOL    HW215420   6.604   6.004   6.289
 4841SOL     OW15421   1.541   5.905   0.821
 4841SOL    HW115422   1.489   5.889   0.905
 4841SOL    HW215423   1.518   5.835   0.754
 4842SOL     OW15424   3.073   6.592   1.087
 4842SOL    HW115425   3.032   6.677   1.055
 4842SOL    HW215426   3.033   6.568   1.176
 4843SOL     OW15427   1.824   3.658   6.863
 4843SOL    HW115428   1.843   3.710   6.946
 4843SOL    HW215429   1.739   3.692   6.821
 4844SOL     OW15430   1.044   1.724   5.423
 4844SOL    HW115431   1.052   1.819   5.454
 4844SOL    HW215432   0.958   1.711   5.374
 4845SOL     OW15433   5.434   6.150   3.202
 4845SOL    HW115434   5.335   6.141   3.196
 4845SOL    HW215435   5.460   6.245   3.185
 4846SOL     OW15436   6.895   5.271   6.208
 4846SOL    HW115437   6.987   5.306   6.226
 4846SOL    HW215438   6.828   5.340   6.234
 4847SOL     OW15439   4.728   2.869   4.482
 4847SOL    HW115440   4.766   2.942   4.425
 4847SOL    HW215441   4.664   2.814   4.427
 4848SOL     OW15442   2.789   3.308   1.612
 4848SOL    HW115443   2.875   3.354   1.588
 4848SOL    HW215444   2.810   3.220   1.655
 4849SOL     OW15445   2.225   6.391   5.964
 4849SOL    HW115446   2.283   6.309   5.966
 4849SOL    HW215447   2.145   6.374   5.906
 4850SOL     OW15448   3.602   6.735   2.940
 4850SOL    HW115449   3.674   6.803   2.929
 4850SOL    HW215450   3.568   6.737   3.033
 4851SOL     OW15451   4.898   1.204   5.773
 4851SOL    HW115452   4.950   1.142   5.832
 4851SOL    HW215453   4.939   1.205   5.682
 4852SOL     OW15454   1.898   1.773   1.843
 4852SOL    HW115455   1.897   1.780   1.743
 4852SOL    HW215456   1.955   1.846   1.880
 4853SOL     OW15457   4.004   1.647   2.204
 4853SOL    HW115458   4.021   1.590   2.124
 4853SOL    HW215459   3.997   1.743   2.177
 4854SOL     OW15460   3.770   0.158   6.081
 4854SOL    HW115461   3.747   0.062   6.064
 4854SOL    HW215462   3.751   0.181   6.176
 4855SOL     OW15463   6.806   2.576   2.332
 4855SOL    HW115464   6.800   2.490   2.384
 4855SOL    HW215465   6.732   2.637   2.360
 4856SOL     OW15466   0.329   4.461   2.312
 4856SOL    HW115467   0.402   4.429   2.251
 4856SOL    HW215468   0.249   4.402   2.302
 4857SOL     OW15469   0.241   0.942   5.505
 4857SOL    HW115470   0.279   1.033   5.519
 4857SOL    HW215471   0.286   0.899   5.426
 4858SOL     OW15472   1.817   0.802   3.851
 4858SOL    HW115473   1.828   0.816   3.949
 4858SOL    HW215474   1.833   0.887   3.802
 4859SOL     OW15475   3.797   6.163   6.065
 4859SOL    HW115476   3.879   6.156   6.009
 4859SOL    HW215477   3.821   6.198   6.156
 4860SOL     OW15478   3.736   4.698   0.626
 4860SOL    HW115479   3.639   4.695   0.603
 4860SOL    HW215480   3.779   4.774   0.577
 4861SOL     OW15481   4.053   4.196   6.434
 4861SOL    HW115482   3.981   4.140   6.476
 4861SOL    HW215483   4.139   4.144   6.433
 4862SOL     OW15484   1.366   0.095   0.361
 4862SOL    HW115485   1.433   0.138   0.421
 4862SOL    HW215486   1.405   0.012   0.322
 4863SOL     OW15487   5.161   3.694   6.058
 4863SOL    HW115488   5.068   3.671   6.087
 4863SOL    HW215489   5.162   3.786   6.020
 4864SOL     OW15490   3.325   1.474   4.250
 4864SOL    HW115491   3.255   1.448   4.184
 4864SOL    HW215492   3.291   1.460   4.342
 4865SOL     OW15493   1.558   6.404   5.279
 4865SOL    HW115494   1.475   6.363   5.317
 4865SOL    HW215495   1.552   6.406   5.179
 4866SOL     OW15496   6.993   4.561   5.787
 4866SOL    HW115497   0.009   4.591   5.702
 4866SOL    HW215498   6.962   4.641   5.838
 4867SOL     OW15499   4.404   0.987   2.894
 4867SOL    HW115500   4.421   0.949   2.985
 4867SOL    HW215501   4.418   1.086   2.897
 4868SOL     OW15502   6.805   4.885   0.304
 4868SOL    HW115503   6.894   4.898   0.347
 4868SOL    HW215504   6.740   4.952   0.341
 4869SOL     OW15505   0.216   1.618   0.848
 4869SOL    HW115506   0.255   1.593   0.937
 4869SOL    HW215507   0.286   1.606   0.777
 4870SOL     OW15508   0.464   0.234   1.158
 4870SOL    HW115509   0.510   0.158   1.112
 4870SOL    HW215510   0.371   0.207   1.181
 4871SOL     OW15511   0.758   1.814   3.093
 4871SOL    HW115512   0.738   1.912   3.099
 4871SOL    HW215513   0.854   1.797   3.116
 4872SOL     OW15514   5.434   0.233   3.234
 4872SOL    HW115515   5.495   0.310   3.213
 4872SOL    HW215516   5.406   0.188   3.150
 4873SOL     OW15517   6.927   5.441   3.977
 4873SOL    HW115518   7.012   5.436   4.028
 4873SOL    HW215519   6.923   5.366   3.911
 4874SOL     OW15520   5.545   3.899   2.019
 4874SOL    HW115521   5.555   3.980   1.962
 4874SOL    HW215522   5.447   3.880   2.034
 4875SOL     OW15523   6.418   6.081   5.059
 4875SOL    HW115524   6.504   6.116   5.022
 4875SOL    HW215525   6.437   6.009   5.126
 4876SOL     OW15526   6.797   1.339   2.369
 4876SOL    HW115527   6.843   1.275   2.431
 4876SOL    HW215528   6.858   1.415   2.348
 4877SOL     OW15529   0.261   1.359   6.912
 4877SOL    HW115530   0.278   1.269   6.951
 4877SOL    HW215531   0.175   1.395   6.949
 4878SOL     OW15532   6.229   4.091   3.214
 4878SOL    HW115533   6.182   4.178   3.195
 4878SOL    HW215534   6.328   4.105   3.206
 4879SOL     OW15535   5.171   0.351   3.008
 4879SOL    HW115536   5.115   0.396   3.078
 4879SOL    HW215537   5.226   0.419   2.960
 4880SOL     OW15538   0.021   3.182   6.071
 4880SOL    HW115539   6.970   3.145   6.023
 4880SOL    HW215540   0.105   3.148   6.029
 4881SOL     OW15541   0.481   3.724   1.997
 4881SOL    HW115542   0.453   3.782   2.074
 4881SOL    HW215543   0.407   3.721   1.929
 4882SOL     OW15544   5.314   1.615   4.172
 4882SOL    HW115545   5.287   1.534   4.224
 4882SOL    HW215546   5.277   1.609   4.079
 4883SOL     OW15547   5.883   4.323   6.778
 4883SOL    HW115548   5.950   4.324   6.852
 4883SOL    HW215549   5.791   4.335   6.816
 4884SOL     OW15550   2.241   1.801   1.944
 4884SOL    HW115551   2.333   1.838   1.932
 4884SOL    HW215552   2.211   1.817   2.038
 4885SOL     OW15553   0.767   5.239   0.094
 4885SOL    HW115554   0.676   5.280   0.105
 4885SOL    HW215555   0.762   5.165   0.027
 4886SOL     OW15556   2.823   0.728   2.152
 4886SOL    HW115557   2.882   0.655   2.186
 4886SOL    HW215558   2.727   0.703   2.169
 4887SOL     OW15559   4.481   5.524   0.625
 4887SOL    HW115560   4.426   5.488   0.551
 4887SOL    HW215561   4.484   5.624   0.620
 4888SOL     OW15562   4.626   0.465   2.674
 4888SOL    HW115563   4.688   0.457   2.596
 4888SOL    HW215564   4.635   0.556   2.714
 4889SOL     OW15565   5.848   3.622   3.949
 4889SOL    HW115566   5.943   3.653   3.954
 4889SOL    HW215567   5.845   3.530   3.909
 4890SOL     OW15568   6.526   1.787   4.735
 4890SOL    HW115569   6.554   1.776   4.830
 4890SOL    HW215570   6.606   1.801   4.677
 4891SOL     OW15571   2.112   6.092   0.468
 4891SOL    HW115572   2.203   6.097   0.509
 4891SOL    HW215573   2.045   6.071   0.539
 4892SOL     OW15574   5.589   5.007   2.141
 4892SOL    HW115575   5.646   5.049   2.070
 4892SOL    HW215576   5.602   5.056   2.227
 4893SOL     OW15577   1.169   3.003   1.411
 4893SOL    HW115578   1.214   3.065   1.346
 4893SOL    HW215579   1.238   2.944   1.453
 4894SOL     OW15580   5.149   6.087   0.839
 4894SOL    HW115581   5.096   6.079   0.923
 4894SOL    HW215582   5.232   6.141   0.857
 4895SOL     OW15583   6.776   3.977   5.278
 4895SOL    HW115584   6.722   3.923   5.343
 4895SOL    HW215585   6.861   3.928   5.257
 4896SOL     OW15586   2.958   5.342   4.980
 4896SOL    HW115587   2.868   5.314   4.947
 4896SOL    HW215588   3.016   5.262   4.989
 4897SOL     OW15589   2.196   1.597   5.068
 4897SOL    HW115590   2.223   1.650   5.148
 4897SOL    HW215591   2.277   1.579   5.011
 4898SOL     OW15592   4.463   1.956   4.161
 4898SOL    HW115593   4.435   2.013   4.085
 4898SOL    HW215594   4.423   1.990   4.246
 4899SOL     OW15595   6.455   6.476   1.588
 4899SOL    HW115596   6.555   6.471   1.588
 4899SOL    HW215597   6.419   6.421   1.663
 4900SOL     OW15598   3.543   6.004   6.016
 4900SOL    HW115599   3.478   5.995   6.091
 4900SOL    HW215600   3.626   6.049   6.048
 4901SOL     OW15601   2.078   1.072   6.753
 4901SOL    HW115602   2.096   1.156   6.805
 4901SOL    HW215603   1.979   1.061   6.742
 4902SOL     OW15604   2.935   0.252   5.369
 4902SOL    HW115605   2.903   0.158   5.379
 4902SOL    HW215606   2.910   0.286   5.279
 4903SOL     OW15607   4.880   3.929   2.442
 4903SOL    HW115608   4.804   3.916   2.506
 4903SOL    HW215609   4.940   4.002   2.476
 4904SOL     OW15610   1.682   0.376   2.155
 4904SOL    HW115611   1.598   0.428   2.139
 4904SOL    HW215612   1.753   0.437   2.188
 4905SOL     OW15613   2.465   1.016   2.393
 4905SOL    HW115614   2.458   1.028   2.492
 4905SOL    HW215615   2.526   1.086   2.356
 4906SOL     OW15616   5.218   3.323   5.084
 4906SOL    HW115617   5.135   3.378   5.073
 4906SOL    HW215618   5.259   3.306   4.994
 4907SOL     OW15619   3.304   2.235   0.383
 4907SOL    HW115620   3.251   2.298   0.439
 4907SOL    HW215621   3.273   2.242   0.288
 4908SOL     OW15622   3.593   6.694   6.268
 4908SOL    HW115623   3.582   6.789   6.240
 4908SOL    HW215624   3.585   6.634   6.188
 4909SOL     OW15625   5.014   5.247   4.179
 4909SOL    HW115626   5.037   5.339   4.211
 4909SOL    HW215627   5.084   5.183   4.209
 4910SOL     OW15628   3.888   1.663   0.100
 4910SOL    HW115629   3.982   1.639   0.123
 4910SOL    HW215630   3.863   1.748   0.147
 4911SOL     OW15631   6.566   4.754   3.164
 4911SOL    HW115632   6.555   4.766   3.263
 4911SOL    HW215633   6.554   4.657   3.141
 4912SOL     OW15634   5.870   2.719   3.973
 4912SOL    HW115635   5.899   2.792   3.911
 4912SOL    HW215636   5.937   2.644   3.970
 4913SOL     OW15637   0.612   3.967   5.141
 4913SOL    HW115638   0.532   3.958   5.082
 4913SOL    HW215639   0.669   3.885   5.132
 4914SOL     OW15640   3.952   6.508   3.704
 4914SOL    HW115641   3.910   6.514   3.794
 4914SOL    HW215642   4.037   6.456   3.710
 4915SOL     OW15643   3.841   6.149   5.688
 4915SOL    HW115644   3.882   6.146   5.596
 4915SOL    HW215645   3.828   6.245   5.715
 4916SOL     OW15646   5.468   2.575   3.698
 4916SOL    HW115647   5.474   2.637   3.776
 4916SOL    HW215648   5.374   2.573   3.665
 4917SOL     OW15649   4.173   6.732   6.390
 4917SOL    HW115650   4.080   6.705   6.415
 4917SOL    HW215651   4.207   6.799   6.455
 4918SOL     OW15652   5.513   5.708   3.780
 4918SOL    HW115653   5.478   5.617   3.801
 4918SOL    HW215654   5.522   5.718   3.681
 4919SOL     OW15655   3.959   3.897   2.105
 4919SOL    HW115656   3.918   3.918   2.194
 4919SOL    HW215657   3.997   3.804   2.107
 4920SOL     OW15658   5.999   0.730   6.110
 4920SOL    HW115659   5.983   0.637   6.077
 4920SOL    HW215660   5.911   0.774   6.132
 4921SOL     OW15661   0.295   6.912   2.638
 4921SOL    HW115662   0.214   6.966   2.615
 4921SOL    HW215663   0.269   6.840   2.703
 4922SOL     OW15664   4.057   1.050   6.003
 4922SOL    HW115665   3.988   0.978   5.990
 4922SOL    HW215666   4.090   1.048   6.097
 4923SOL     OW15667   3.949   1.653   1.719
 4923SOL    HW115668   3.992   1.678   1.633
 4923SOL    HW215669   3.903   1.565   1.710
 4924SOL     OW15670   2.628   1.359   5.040
 4924SOL    HW115671   2.559   1.335   5.109
 4924SOL    HW215672   2.719   1.361   5.083
 4925SOL     OW15673   4.571   6.028   3.661
 4925SOL    HW115674   4.576   6.004   3.564
 4925SOL    HW215675   4.629   5.965   3.714
 4926SOL     OW15676   5.129   2.674   1.683
 4926SOL    HW115677   5.171   2.750   1.634
 4926SOL    HW215678   5.060   2.709   1.746
 4927SOL     OW15679   2.271   1.353   0.348
 4927SOL    HW115680   2.290   1.349   0.250
 4927SOL    HW215681   2.315   1.434   0.387
 4928SOL     OW15682   0.376   0.874   1.066
 4928SOL    HW115683   0.340   0.782   1.084
 4928SOL    HW215684   0.358   0.933   1.145
 4929SOL     OW15685   6.919   6.749   5.079
 4929SOL    HW115686   6.969   6.833   5.058
 4929SOL    HW215687   6.923   6.687   5.001
 4930SOL     OW15688   4.154   5.694   2.649
 4930SOL    HW115689   4.193   5.603   2.660
 4930SOL    HW215690   4.085   5.709   2.720
 4931SOL     OW15691   5.964   0.318   1.324
 4931SOL    HW115692   6.057   0.308   1.287
 4931SOL    HW215693   5.898   0.294   1.253
 4932SOL     OW15694   3.611   3.684   3.160
 4932SOL    HW115695   3.708   3.672   3.182
 4932SOL    HW215696   3.592   3.645   3.069
 4933SOL     OW15697   1.775   6.840   5.117
 4933SOL    HW115698   1.852   6.817   5.059
 4933SOL    HW215699   1.690   6.810   5.074
 4934SOL     OW15700   3.111   6.978   2.873
 4934SOL    HW115701   3.187   6.916   2.893
 4934SOL    HW215702   3.032   6.952   2.929
 4935SOL     OW15703   6.430   0.469   5.164
 4935SOL    HW115704   6.404   0.463   5.261
 4935SOL    HW215705   6.350   0.495   5.110
 4936SOL     OW15706   4.222   2.846   0.591
 4936SOL    HW115707   4.275   2.777   0.641
 4936SOL    HW215708   4.191   2.808   0.504
 4937SOL     OW15709   3.804   2.682   5.326
 4937SOL    HW115710   3.709   2.695   5.298
 4937SOL    HW215711   3.864   2.696   5.247
 4938SOL     OW15712   3.354   4.385   6.939
 4938SOL    HW115713   3.434   4.438   6.966
 4938SOL    HW215714   3.277   4.447   6.921
 4939SOL     OW15715   4.444   3.659   6.399
 4939SOL    HW115716   4.433   3.565   6.365
 4939SOL    HW215717   4.429   3.724   6.324
 4940SOL     OW15718   1.868   6.109   3.920
 4940SOL    HW115719   1.836   6.027   3.872
 4940SOL    HW215720   1.792   6.174   3.931
 4941SOL     OW15721   5.885   1.015   1.540
 4941SOL    HW115722   5.984   1.006   1.552
 4941SOL    HW215723   5.850   1.081   1.606
 4942SOL     OW15724   5.428   2.212   5.766
 4942SOL    HW115725   5.380   2.136   5.721
 4942SOL    HW215726   5.457   2.279   5.698
 4943SOL     OW15727   5.657   2.977   1.144
 4943SOL    HW115728   5.733   2.929   1.102
 4943SOL    HW215729   5.636   2.936   1.233
 4944SOL     OW15730   2.138   3.754   2.123
 4944SOL    HW115731   2.175   3.668   2.088
 4944SOL    HW215732   2.162   3.764   2.219
 4945SOL     OW15733   0.040   5.856   4.381
 4945SOL    HW115734   0.059   5.951   4.359
 4945SOL    HW215735   0.080   5.796   4.311
 4946SOL     OW15736   6.869   4.567   2.144
 4946SOL    HW115737   6.867   4.470   2.170
 4946SOL    HW215738   6.826   4.579   2.055
 4947SOL     OW15739   5.855   0.680   0.592
 4947SOL    HW115740   5.955   0.674   0.587
 4947SOL    HW215741   5.821   0.732   0.514
 4948SOL     OW15742   2.245   1.841   2.602
 4948SOL    HW115743   2.256   1.821   2.505
 4948SOL    HW215744   2.335   1.840   2.647
 4949SOL     OW15745   5.469   2.197   5.193
 4949SOL    HW115746   5.478   2.229   5.099
 4949SOL    HW215747   5.431   2.104   5.193
 4950SOL     OW15748   3.076   5.796   4.602
 4950SOL    HW115749   3.018   5.865   4.558
 4950SOL    HW215750   3.019   5.720   4.633
 4951SOL     OW15751   4.145   2.226   4.012
 4951SOL    HW115752   4.158   2.315   4.056
 4951SOL    HW215753   4.053   2.221   3.974
 4952SOL     OW15754   6.485   4.429   4.096
 4952SOL    HW115755   6.461   4.345   4.146
 4952SOL    HW215756   6.467   4.415   3.999
 4953SOL     OW15757   0.935   4.520   2.003
 4953SOL    HW115758   1.028   4.546   1.979
 4953SOL    HW215759   0.872   4.550   1.931
 4954SOL     OW15760   6.479   6.469   6.459
 4954SOL    HW115761   6.393   6.422   6.475
 4954SOL    HW215762   6.530   6.476   6.545
 4955SOL     OW15763   1.645   0.368   1.650
 4955SOL    HW115764   1.714   0.384   1.721
 4955SOL    HW215765   1.689   0.330   1.568
 4956SOL     OW15766   6.117   6.369   3.538
 4956SOL    HW115767   6.127   6.468   3.526
 4956SOL    HW215768   6.022   6.344   3.524
 4957SOL     OW15769   1.443   5.783   4.120
 4957SOL    HW115770   1.440   5.840   4.203
 4957SOL    HW215771   1.442   5.842   4.039
 4958SOL     OW15772   6.759   6.705   6.762
 4958SOL    HW115773   6.825   6.706   6.688
 4958SOL    HW215774   6.710   6.793   6.764
 4959SOL     OW15775   0.697   2.052   0.051
 4959SOL    HW115776   0.689   2.149   0.030
 4959SOL    HW215777   0.694   1.999   6.995
 4960SOL     OW15778   3.563   0.053   5.408
 4960SOL    HW115779   3.610   0.014   5.329
 4960SOL    HW215780   3.539   7.007   5.472
 4961SOL     OW15781   5.212   0.416   5.217
 4961SOL    HW115782   5.145   0.473   5.264
 4961SOL    HW215783   5.294   0.406   5.273
 4962SOL     OW15784   6.318   2.528   2.125
 4962SOL    HW115785   6.377   2.577   2.061
 4962SOL    HW215786   6.274   2.452   2.078
 4963SOL     OW15787   0.239   4.179   1.224
 4963SOL    HW115788   0.336   4.198   1.242
 4963SOL    HW215789   0.183   4.227   1.291
 4964SOL     OW15790   2.939   6.841   3.058
 4964SOL    HW115791   2.842   6.840   3.084
 4964SOL    HW215792   2.989   6.773   3.111
 4965SOL     OW15793   0.056   5.936   4.879
 4965SOL    HW115794   0.054   5.837   4.861
 4965SOL    HW215795   0.133   5.957   4.939
 4966SOL     OW15796   5.009   5.600   4.937
 4966SOL    HW115797   4.976   5.689   4.969
 4966SOL    HW215798   5.091   5.574   4.987
 4967SOL     OW15799   5.802   1.767   6.585
 4967SOL    HW115800   5.846   1.828   6.518
 4967SOL    HW215801   5.763   1.822   6.658
 4968SOL     OW15802   5.265   4.085   6.408
 4968SOL    HW115803   5.306   3.998   6.380
 4968SOL    HW215804   5.255   4.144   6.328
 4969SOL     OW15805   1.590   1.693   1.469
 4969SOL    HW115806   1.594   1.674   1.567
 4969SOL    HW215807   1.680   1.723   1.437
 4970SOL     OW15808   1.812   2.578   5.838
 4970SOL    HW115809   1.907   2.552   5.856
 4970SOL    HW215810   1.802   2.603   5.741
 4971SOL     OW15811   6.275   5.389   3.660
 4971SOL    HW115812   6.310   5.473   3.620
 4971SOL    HW215813   6.350   5.325   3.674
 4972SOL     OW15814   1.814   1.861   4.515
 4972SOL    HW115815   1.832   1.957   4.538
 4972SOL    HW215816   1.887   1.804   4.553
 4973SOL     OW15817   4.940   5.719   2.684
 4973SOL    HW115818   4.887   5.635   2.686
 4973SOL    HW215819   4.885   5.794   2.720
 4974SOL     OW15820   3.911   6.732   6.525
 4974SOL    HW115821   3.889   6.759   6.619
 4974SOL    HW215822   3.841   6.669   6.492
 4975SOL     OW15823   3.943   6.097   0.639
 4975SOL    HW115824   3.932   6.183   0.589
 4975SOL    HW215825   4.026   6.051   0.607
 4976SOL     OW15826   2.155   0.743   4.484
 4976SOL    HW115827   2.139   0.794   4.569
 4976SOL    HW215828   2.078   0.757   4.422
 4977SOL     OW15829   3.619   3.182   0.969
 4977SOL    HW115830   3.619   3.273   0.927
 4977SOL    HW215831   3.612   3.112   0.898
 4978SOL     OW15832   6.359   4.227   6.333
 4978SOL    HW115833   6.283   4.207   6.395
 4978SOL    HW215834   6.410   4.143   6.314
 4979SOL     OW15835   2.252   2.473   3.774
 4979SOL    HW115836   2.310   2.503   3.699
 4979SOL    HW215837   2.158   2.465   3.742
 4980SOL     OW15838   2.464   4.713   3.527
 4980SOL    HW115839   2.485   4.810   3.539
 4980SOL    HW215840   2.400   4.703   3.450
 4981SOL     OW15841   5.355   5.580   5.316
 4981SOL    HW115842   5.375   5.588   5.414
 4981SOL    HW215843   5.422   5.633   5.264
 4982SOL     OW15844   2.156   1.579   6.694
 4982SOL    HW115845   2.252   1.605   6.682
 4982SOL    HW215846   2.120   1.547   6.607
 4983SOL     OW15847   6.634   2.416   4.674
 4983SOL    HW115848   6.563   2.457   4.731
 4983SOL    HW215849   6.616   2.436   4.578
 4984SOL     OW15850   5.055   5.092   3.452
 4984SOL    HW115851   5.050   5.135   3.542
 4984SOL    HW215852   4.963   5.071   3.420
 4985SOL     OW15853   5.864   3.826   2.366
 4985SOL    HW115854   5.787   3.764   2.347
 4985SOL    HW215855   5.897   3.864   2.280
 4986SOL     OW15856   4.441   5.112   2.906
 4986SOL    HW115857   4.349   5.078   2.922
 4986SOL    HW215858   4.507   5.040   2.926
 4987SOL     OW15859   0.903   3.154   0.287
 4987SOL    HW115860   0.810   3.140   0.254
 4987SOL    HW215861   0.966   3.098   0.234
 4988SOL     OW15862   2.104   2.674   5.456
 4988SOL    HW115863   2.065   2.636   5.540
 4988SOL    HW215864   2.072   2.768   5.445
 4989SOL     OW15865   0.394   1.095   1.258
 4989SOL    HW115866   0.323   1.106   1.328
 4989SOL    HW215867   0.381   1.163   1.187
 4990SOL     OW15868   1.427   2.197   6.760
 4990SOL    HW115869   1.330   2.210   6.739
 4990SOL    HW215870   1.477   2.178   6.676
 4991SOL     OW15871   2.866   1.681   5.408
 4991SOL    HW115872   2.963   1.662   5.425
 4991SOL    HW215873   2.858   1.735   5.324
 4992SOL     OW15874   4.114   6.770   4.849
 4992SOL    HW115875   4.027   6.727   4.877
 4992SOL    HW215876   4.143   6.732   4.762
 4993SOL     OW15877   1.465   6.498   4.206
 4993SOL    HW115878   1.532   6.492   4.280
 4993SOL    HW215879   1.442   6.594   4.190
 4994SOL     OW15880   0.230   6.611   3.128
 4994SOL    HW115881   0.318   6.564   3.120
 4994SOL    HW215882   0.231   6.672   3.206
 4995SOL     OW15883   5.878   3.356   5.542
 4995SOL    HW115884   5.898   3.260   5.520
 4995SOL    HW215885   5.797   3.361   5.600
 4996SOL     OW15886   0.817   1.767   3.692
 4996SOL    HW115887   0.735   1.751   3.747
 4996SOL    HW215888   0.809   1.720   3.605
 4997SOL     OW15889   0.042   2.587   3.934
 4997SOL    HW115890   0.137   2.582   3.965
 4997SOL    HW215891   0.033   2.536   3.849
 4998SOL     OW15892   1.123   5.773   5.723
 4998SOL    HW115893   1.090   5.867   5.724
 4998SOL    HW215894   1.050   5.713   5.690
 4999SOL     OW15895   5.957   4.843   0.882
 4999SOL    HW115896   6.025   4.911   0.908
 4999SOL    HW215897   5.884   4.888   0.830
 5000SOL     OW15898   6.475   5.301   4.263
 5000SOL    HW115899   6.409   5.239   4.305
 5000SOL    HW215900   6.434   5.345   4.183
 5001SOL     OW15901   4.851   3.475   5.392
 5001SOL    HW115902   4.758   3.440   5.396
 5001SOL    HW215903   4.887   3.486   5.484
 5002SOL     OW15904   1.521   2.272   1.784
 5002SOL    HW115905   1.446   2.222   1.739
 5002SOL    HW215906   1.595   2.208   1.804
 5003SOL     OW15907   6.729   5.317   4.102
 5003SOL    HW115908   6.789   5.365   4.038
 5003SOL    HW215909   6.749   5.346   4.196
 5004SOL     OW15910   1.875   4.363   6.184
 5004SOL    HW115911   1.942   4.374   6.112
 5004SOL    HW215912   1.841   4.269   6.185
 5005SOL     OW15913   4.988   2.269   0.529
 5005SOL    HW115914   5.045   2.264   0.611
 5005SOL    HW215915   4.898   2.305   0.553
 5006SOL     OW15916   5.111   4.839   2.242
 5006SOL    HW115917   5.162   4.778   2.181
 5006SOL    HW215918   5.013   4.831   2.222
 5007SOL     OW15919   4.248   0.318   4.762
 5007SOL    HW115920   4.234   0.410   4.727
 5007SOL    HW215921   4.237   0.318   4.862
 5008SOL     OW15922   6.365   1.610   3.803
 5008SOL    HW115923   6.306   1.666   3.745
 5008SOL    HW215924   6.442   1.575   3.750
 5009SOL     OW15925   2.418   6.517   1.736
 5009SOL    HW115926   2.452   6.529   1.643
 5009SOL    HW215927   2.484   6.555   1.801
 5010SOL     OW15928   3.039   3.711   5.850
 5010SOL    HW115929   2.966   3.646   5.873
 5010SOL    HW215930   3.119   3.693   5.907
 5011SOL     OW15931   1.408   1.559   3.494
 5011SOL    HW115932   1.379   1.499   3.568
 5011SOL    HW215933   1.463   1.634   3.531
 5012SOL     OW15934   6.062   3.117   0.027
 5012SOL    HW115935   5.992   3.160   6.998
 5012SOL    HW215936   6.017   3.060   0.096
 5013SOL     OW15937   4.843   1.911   5.443
 5013SOL    HW115938   4.902   1.984   5.480
 5013SOL    HW215939   4.867   1.894   5.348
 5014SOL     OW15940   6.902   5.102   6.794
 5014SOL    HW115941   6.871   5.090   6.699
 5014SOL    HW215942   6.823   5.114   6.854
 5015SOL     OW15943   4.789   2.025   3.790
 5015SOL    HW115944   4.858   2.092   3.814
 5015SOL    HW215945   4.787   1.952   3.858
 5016SOL     OW15946   2.983   6.087   1.641
 5016SOL    HW115947   2.951   6.116   1.731
 5016SOL    HW215948   2.931   6.006   1.612
 5017SOL     OW15949   1.308   1.915   1.808
 5017SOL    HW115950   1.394   1.908   1.860
 5017SOL    HW215951   1.259   1.998   1.836
 5018SOL     OW15952   6.147   5.179   4.006
 5018SOL    HW115953   6.177   5.085   3.988
 5018SOL    HW215954   6.071   5.202   3.946
 5019SOL     OW15955   3.358   5.677   5.308
 5019SOL    HW115956   3.304   5.594   5.297
 5019SOL    HW215957   3.451   5.652   5.337
 5020SOL     OW15958   4.456   4.816   6.941
 5020SOL    HW115959   4.518   4.865   6.880
 5020SOL    HW215960   4.491   4.724   6.958
 5021SOL     OW15961   1.805   4.626   5.581
 5021SOL    HW115962   1.847   4.640   5.671
 5021SOL    HW215963   1.863   4.564   5.527
 5022SOL     OW15964   1.898   4.002   0.130
 5022SOL    HW115965   1.925   4.052   0.213
 5022SOL    HW215966   1.979   3.961   0.089
 5023SOL     OW15967   0.224   2.875   4.838
 5023SOL    HW115968   0.312   2.917   4.863
 5023SOL    HW215969   0.230   2.776   4.851
 5024SOL     OW15970   4.771   3.760   5.526
 5024SOL    HW115971   4.795   3.857   5.521
 5024SOL    HW215972   4.681   3.746   5.484
 5025SOL     OW15973   5.807   0.613   4.266
 5025SOL    HW115974   5.752   0.559   4.330
 5025SOL    HW215975   5.765   0.703   4.255
 5026SOL     OW15976   0.870   5.575   3.190
 5026SOL    HW115977   0.919   5.549   3.274
 5026SOL    HW215978   0.772   5.582   3.210
 5027SOL     OW15979   1.203   5.600   3.297
 5027SOL    HW115980   1.187   5.621   3.200
 5027SOL    HW215981   1.287   5.645   3.328
 5028SOL     OW15982   1.021   6.424   3.378
 5028SOL    HW115983   1.019   6.473   3.291
 5028SOL    HW215984   1.064   6.482   3.448
 5029SOL     OW15985   6.163   0.747   4.074
 5029SOL    HW115986   6.073   0.783   4.052
 5029SOL    HW215987   6.171   0.734   4.173
 5030SOL     OW15988   1.311   6.571   0.141
 5030SOL    HW115989   1.278   6.483   0.175
 5030SOL    HW215990   1.302   6.574   0.042
 5031SOL     OW15991   5.471   0.349   6.725
 5031SOL    HW115992   5.508   0.364   6.816
 5031SOL    HW215993   5.445   0.437   6.684
 5032SOL     OW15994   1.357   5.126   2.665
 5032SOL    HW115995   1.257   5.119   2.667
 5032SOL    HW215996   1.384   5.200   2.604
 5033SOL     OW15997   0.432   4.596   4.679
 5033SOL    HW115998   0.407   4.662   4.609
 5033SOL    HW215999   0.419   4.636   4.769
 5034SOL     OW16000   0.462   3.384   6.315
 5034SOL    HW116001   0.433   3.291   6.336
 5034SOL    HW216002   0.487   3.431   6.400
 5035SOL     OW16003   0.008   3.987   1.533
 5035SOL    HW116004   6.958   3.988   1.596
 5035SOL    HW216005   7.015   4.046   1.455
 5036SOL     OW16006   1.011   1.816   2.754
 5036SOL    HW116007   0.918   1.838   2.727
 5036SOL    HW216008   1.012   1.790   2.851
 5037SOL     OW16009   5.173   4.320   1.869
 5037SOL    HW116010   5.086   4.297   1.913
 5037SOL    HW216011   5.165   4.409   1.825
 5038SOL     OW16012   3.269   5.701   5.573
 5038SOL    HW116013   3.352   5.743   5.611
 5038SOL    HW216014   3.286   5.672   5.479
 5039SOL     OW16015   1.163   2.248   3.550
 5039SOL    HW116016   1.079   2.207   3.514
 5039SOL    HW216017   1.148   2.345   3.567
 5040SOL     OW16018   2.835   3.505   5.860
 5040SOL    HW116019   2.911   3.452   5.898
 5040SOL    HW216020   2.831   3.492   5.761
 5041SOL     OW16021   6.919   5.616   0.343
 5041SOL    HW116022   6.859   5.582   0.415
 5041SOL    HW216023   6.980   5.543   0.314
 5042SOL     OW16024   5.709   1.926   5.974
 5042SOL    HW116025   5.792   1.920   6.029
 5042SOL    HW216026   5.656   2.006   6.001
 5043SOL     OW16027   5.245   5.935   3.541
 5043SOL    HW116028   5.189   5.865   3.586
 5043SOL    HW216029   5.286   5.897   3.458
 5044SOL     OW16030   5.837   4.295   1.838
 5044SOL    HW116031   5.854   4.319   1.933
 5044SOL    HW216032   5.747   4.252   1.829
 5045SOL     OW16033   5.604   2.721   5.399
 5045SOL    HW116034   5.582   2.632   5.360
 5045SOL    HW216035   5.527   2.754   5.454
 5046SOL     OW16036   4.181   3.148   5.854
 5046SOL    HW116037   4.132   3.211   5.914
 5046SOL    HW216038   4.157   3.054   5.878
 5047SOL     OW16039   0.465   1.566   2.435
 5047SOL    HW116040   0.408   1.548   2.355
 5047SOL    HW216041   0.558   1.535   2.416
 5048SOL     OW16042   6.181   3.289   1.090
 5048SOL    HW116043   6.152   3.265   1.182
 5048SOL    HW216044   6.114   3.256   1.024
 5049SOL     OW16045   0.804   1.338   1.763
 5049SOL    HW116046   0.870   1.270   1.795
 5049SOL    HW216047   0.817   1.423   1.814
 5050SOL     OW16048   1.930   4.626   0.398
 5050SOL    HW116049   1.840   4.607   0.358
 5050SOL    HW216050   1.920   4.636   0.497
 5051SOL     OW16051   2.350   4.199   6.434
 5051SOL    HW116052   2.284   4.205   6.360
 5051SOL    HW216053   2.361   4.104   6.462
 5052SOL     OW16054   6.307   2.899   0.908
 5052SOL    HW116055   6.299   2.814   0.857
 5052SOL    HW216056   6.396   2.901   0.955
 5053SOL     OW16057   1.272   4.058   1.400
 5053SOL    HW116058   1.222   4.119   1.462
 5053SOL    HW216059   1.251   3.963   1.422
 5054SOL     OW16060   4.173   5.801   5.311
 5054SOL    HW116061   4.117   5.741   5.255
 5054SOL    HW216062   4.156   5.896   5.286
 5055SOL     OW16063   0.781   0.297   3.563
 5055SOL    HW116064   0.800   0.384   3.609
 5055SOL    HW216065   0.707   0.249   3.610
 5056SOL     OW16066   3.289   2.391   6.163
 5056SOL    HW116067   3.385   2.364   6.172
 5056SOL    HW216068   3.230   2.318   6.200
 5057SOL     OW16069   0.383   4.205   2.505
 5057SOL    HW116070   0.337   4.293   2.519
 5057SOL    HW216071   0.480   4.222   2.485
 5058SOL     OW16072   3.734   1.768   0.368
 5058SOL    HW116073   3.644   1.735   0.398
 5058SOL    HW216074   3.726   1.862   0.334
 5059SOL     OW16075   5.658   2.189   2.489
 5059SOL    HW116076   5.708   2.276   2.485
 5059SOL    HW216077   5.603   2.186   2.572
 5060SOL     OW16078   6.198   3.078   5.553
 5060SOL    HW116079   6.250   3.163   5.564
 5060SOL    HW216080   6.198   3.050   5.457
 5061SOL     OW16081   3.927   2.730   5.583
 5061SOL    HW116082   3.869   2.776   5.516
 5061SOL    HW216083   3.929   2.632   5.563
 5062SOL     OW16084   5.509   1.433   3.168
 5062SOL    HW116085   5.494   1.516   3.222
 5062SOL    HW216086   5.579   1.377   3.212
 5063SOL     OW16087   0.577   1.811   1.479
 5063SOL    HW116088   0.518   1.745   1.433
 5063SOL    HW216089   0.665   1.768   1.500
 5064SOL     OW16090   6.157   5.020   1.184
 5064SOL    HW116091   6.129   5.008   1.088
 5064SOL    HW216092   6.253   5.045   1.187
 5065SOL     OW16093   2.093   2.097   2.698
 5065SOL    HW116094   2.141   2.014   2.672
 5065SOL    HW216095   2.136   2.176   2.655
 5066SOL     OW16096   1.375   5.279   3.441
 5066SOL    HW116097   1.372   5.188   3.484
 5066SOL    HW216098   1.314   5.281   3.362
 5067SOL     OW16099   5.138   2.652   0.752
 5067SOL    HW116100   5.136   2.737   0.804
 5067SOL    HW216101   5.090   2.664   0.665
 5068SOL     OW16102   1.492   6.991   1.072
 5068SOL    HW116103   1.479   7.003   1.170
 5068SOL    HW216104   1.585   6.958   1.054
 5069SOL     OW16105   4.612   4.164   5.928
 5069SOL    HW116106   4.672   4.235   5.966
 5069SOL    HW216107   4.516   4.189   5.944
 5070SOL     OW16108   6.858   3.721   6.003
 5070SOL    HW116109   6.941   3.771   6.029
 5070SOL    HW216110   6.780   3.758   6.054
 5071SOL     OW16111   2.501   6.480   2.527
 5071SOL    HW116112   2.489   6.409   2.596
 5071SOL    HW216113   2.478   6.569   2.567
 5072SOL     OW16114   0.855   1.708   2.277
 5072SOL    HW116115   0.795   1.636   2.311
 5072SOL    HW216116   0.933   1.667   2.230
 5073SOL     OW16117   1.857   1.534   3.420
 5073SOL    HW116118   1.761   1.507   3.410
 5073SOL    HW216119   1.915   1.452   3.419
 5074SOL     OW16120   3.855   1.976   0.918
 5074SOL    HW116121   3.782   1.911   0.942
 5074SOL    HW216122   3.815   2.057   0.875
 5075SOL     OW16123   6.065   2.233   0.360
 5075SOL    HW116124   6.159   2.214   0.331
 5075SOL    HW216125   6.066   2.283   0.446
 5076SOL     OW16126   6.953   1.082   5.781
 5076SOL    HW116127   0.015   1.116   5.809
 5076SOL    HW216128   6.882   1.143   5.815
 5077SOL     OW16129   0.063   4.656   4.086
 5077SOL    HW116130   0.141   4.719   4.096
 5077SOL    HW216131   0.075   4.602   4.003
 5078SOL     OW16132   6.259   2.418   3.172
 5078SOL    HW116133   6.254   2.365   3.087
 5078SOL    HW216134   6.278   2.513   3.150
 5079SOL     OW16135   2.000   4.143   5.207
 5079SOL    HW116136   1.946   4.139   5.123
 5079SOL    HW216137   1.940   4.166   5.283
 5080SOL     OW16138   6.636   5.302   6.936
 5080SOL    HW116139   6.555   5.322   6.990
 5080SOL    HW216140   6.640   5.363   6.857
 5081SOL     OW16141   2.736   4.653   5.604
 5081SOL    HW116142   2.649   4.603   5.607
 5081SOL    HW216143   2.764   4.665   5.508
 5082SOL     OW16144   6.188   0.148   2.525
 5082SOL    HW116145   6.110   0.093   2.495
 5082SOL    HW216146   6.159   0.210   2.597
 5083SOL     OW16147   0.865   6.860   3.587
 5083SOL    HW116148   0.935   6.897   3.526
 5083SOL    HW216149   0.908   6.829   3.672
 5084SOL     OW16150   3.395   5.134   5.772
 5084SOL    HW116151   3.353   5.215   5.731
 5084SOL    HW216152   3.415   5.068   5.700
 5085SOL     OW16153   7.017   4.237   5.308
 5085SOL    HW116154   0.085   4.265   5.308
 5085SOL    HW216155   7.008   4.150   5.357
 5086SOL     OW16156   1.284   4.788   2.249
 5086SOL    HW116157   1.318   4.713   2.306
 5086SOL    HW216158   1.322   4.779   2.157
 5087SOL     OW16159   0.008   5.885   1.616
 5087SOL    HW116160   0.016   5.790   1.646
 5087SOL    HW216161   6.948   5.898   1.570
 5088SOL     OW16162   4.537   4.867   2.022
 5088SOL    HW116163   4.460   4.812   2.055
 5088SOL    HW216164   4.573   4.923   2.096
 5089SOL     OW16165   5.110   6.425   5.343
 5089SOL    HW116166   5.186   6.473   5.386
 5089SOL    HW216167   5.078   6.477   5.264
 5090SOL     OW16168   2.357   6.736   4.281
 5090SOL    HW116169   2.315   6.786   4.205
 5090SOL    HW216170   2.286   6.708   4.346
 5091SOL     OW16171   6.221   5.959   5.744
 5091SOL    HW116172   6.251   5.868   5.774
 5091SOL    HW216173   6.299   6.022   5.747
 5092SOL     OW16174   3.613   2.858   4.281
 5092SOL    HW116175   3.540   2.922   4.254
 5092SOL    HW216176   3.608   2.776   4.225
 5093SOL     OW16177   3.612   2.156   3.841
 5093SOL    HW116178   3.624   2.204   3.754
 5093SOL    HW216179   3.700   2.150   3.888
 5094SOL     OW16180   2.127   5.799   5.154
 5094SOL    HW116181   2.111   5.812   5.252
 5094SOL    HW216182   2.048   5.753   5.113
 5095SOL     OW16183   6.088   1.559   3.378
 5095SOL    HW116184   6.128   1.479   3.422
 5095SOL    HW216185   6.009   1.531   3.324
 5096SOL     OW16186   5.958   2.798   5.979
 5096SOL    HW116187   6.015   2.744   6.040
 5096SOL    HW216188   6.016   2.851   5.917
 5097SOL     OW16189   1.213   1.512   5.515
 5097SOL    HW116190   1.160   1.597   5.505
 5097SOL    HW216191   1.186   1.467   5.600
 5098SOL     OW16192   3.103   2.102   1.251
 5098SOL    HW116193   3.080   2.059   1.338
 5098SOL    HW216194   3.020   2.138   1.208
 5099SOL     OW16195   2.152   5.420   2.663
 5099SOL    HW116196   2.127   5.485   2.592
 5099SOL    HW216197   2.249   5.431   2.686
 5100SOL     OW16198   5.641   3.641   1.704
 5100SOL    HW116199   5.680   3.733   1.706
 5100SOL    HW216200   5.650   3.599   1.794
 5101SOL     OW16201   3.221   1.328   4.950
 5101SOL    HW116202   3.211   1.274   5.034
 5101SOL    HW216203   3.278   1.408   4.968
 5102SOL     OW16204   5.730   4.474   5.495
 5102SOL    HW116205   5.745   4.375   5.485
 5102SOL    HW216206   5.761   4.521   5.412
 5103SOL     OW16207   0.840   0.387   5.675
 5103SOL    HW116208   0.775   0.413   5.747
 5103SOL    HW216209   0.831   0.290   5.656
 5104SOL     OW16210   3.911   3.777   3.698
 5104SOL    HW116211   3.999   3.734   3.720
 5104SOL    HW216212   3.852   3.710   3.654
 5105SOL     OW16213   4.331   3.254   6.778
 5105SOL    HW116214   4.430   3.263   6.795
 5105SOL    HW216215   4.307   3.157   6.772
 5106SOL     OW16216   3.529   1.288   1.474
 5106SOL    HW116217   3.538   1.266   1.377
 5106SOL    HW216218   3.474   1.371   1.484
 5107SOL     OW16219   6.035   5.245   6.682
 5107SOL    HW116220   6.106   5.182   6.650
 5107SOL    HW216221   6.078   5.321   6.730
 5108SOL     OW16222   4.155   3.979   1.432
 5108SOL    HW116223   4.224   4.051   1.427
 5108SOL    HW216224   4.064   4.020   1.427
 5109SOL     OW16225   2.168   2.586   2.846
 5109SOL    HW116226   2.184   2.506   2.787
 5109SOL    HW216227   2.238   2.590   2.917
 5110SOL     OW16228   3.783   6.140   4.715
 5110SOL    HW116229   3.876   6.172   4.733
 5110SOL    HW216230   3.720   6.217   4.722
 5111SOL     OW16231   2.230   5.242   5.702
 5111SOL    HW116232   2.283   5.188   5.768
 5111SOL    HW216233   2.143   5.196   5.684
 5112SOL     OW16234   0.848   4.506   2.594
 5112SOL    HW116235   0.877   4.436   2.529
 5112SOL    HW216236   0.786   4.465   2.661
 5113SOL     OW16237   2.428   4.062   0.830
 5113SOL    HW116238   2.425   4.136   0.762
 5113SOL    HW216239   2.377   3.983   0.794
 5114SOL     OW16240   4.581   4.687   1.767
 5114SOL    HW116241   4.636   4.619   1.815
 5114SOL    HW216242   4.617   4.779   1.787
 5115SOL     OW16243   1.191   4.734   0.701
 5115SOL    HW116244   1.227   4.657   0.755
 5115SOL    HW216245   1.114   4.703   0.646
 5116SOL     OW16246   0.290   6.325   5.795
 5116SOL    HW116247   0.253   6.415   5.820
 5116SOL    HW216248   0.215   6.264   5.770
 5117SOL     OW16249   0.136   3.331   3.504
 5117SOL    HW116250   0.069   3.257   3.504
 5117SOL    HW216251   0.109   3.401   3.437
 5118SOL     OW16252   4.077   5.183   6.919
 5118SOL    HW116253   4.007   5.115   6.942
 5118SOL    HW216254   4.038   5.275   6.929
 5119SOL     OW16255   5.409   1.749   0.884
 5119SOL    HW116256   5.408   1.649   0.883
 5119SOL    HW216257   5.438   1.780   0.975
 5120SOL     OW16258   5.849   6.524   6.153
 5120SOL    HW116259   5.881   6.433   6.177
 5120SOL    HW216260   5.835   6.578   6.236
 5121SOL     OW16261   1.265   3.485   0.271
 5121SOL    HW116262   1.271   3.555   0.342
 5121SOL    HW216263   1.197   3.416   0.299
 5122SOL     OW16264   4.523   4.779   3.388
 5122SOL    HW116265   4.497   4.682   3.397
 5122SOL    HW216266   4.468   4.833   3.452
 5123SOL     OW16267   5.200   2.448   1.282
 5123SOL    HW116268   5.269   2.377   1.299
 5123SOL    HW216269   5.245   2.532   1.252
 5124SOL     OW16270   0.408   5.758   4.336
 5124SOL    HW116271   0.391   5.815   4.255
 5124SOL    HW216272   0.433   5.817   4.413
 5125SOL     OW16273   5.832   2.269   3.814
 5125SOL    HW116274   5.802   2.364   3.804
 5125SOL    HW216275   5.769   2.222   3.876
 5126SOL     OW16276   2.153   1.414   1.893
 5126SOL    HW116277   2.123   1.330   1.846
 5126SOL    HW216278   2.117   1.414   1.986
 5127SOL     OW16279   1.968   6.898   6.945
 5127SOL    HW116280   1.892   6.871   7.004
 5127SOL    HW216281   2.049   6.845   6.968
 5128SOL     OW16282   4.063   6.731   1.162
 5128SOL    HW116283   4.125   6.750   1.238
 5128SOL    HW216284   4.058   6.811   1.102
 5129SOL     OW16285   6.154   5.799   0.360
 5129SOL    HW116286   6.076   5.856   0.336
 5129SOL    HW216287   6.124   5.726   0.422
 5130SOL     OW16288   6.369   5.070   2.470
 5130SOL    HW116289   6.360   5.159   2.424
 5130SOL    HW216290   6.305   5.005   2.428
 5131SOL     OW16291   2.628   2.371   2.590
 5131SOL    HW116292   2.590   2.365   2.498
 5131SOL    HW216293   2.572   2.434   2.645
 5132SOL     OW16294   2.614   5.718   5.399
 5132SOL    HW116295   2.643   5.734   5.305
 5132SOL    HW216296   2.635   5.799   5.454
 5133SOL     OW16297   3.638   6.628   4.642
 5133SOL    HW116298   3.698   6.642   4.720
 5133SOL    HW216299   3.555   6.684   4.651
 5134SOL     OW16300   6.854   3.329   6.454
 5134SOL    HW116301   6.899   3.244   6.427
 5134SOL    HW216302   6.832   3.326   6.551
 5135SOL     OW16303   6.817   1.734   4.224
 5135SOL    HW116304   6.729   1.720   4.269
 5135SOL    HW216305   6.827   1.831   4.199
 5136SOL     OW16306   3.175   2.006   6.782
 5136SOL    HW116307   3.188   1.909   6.759
 5136SOL    HW216308   3.122   2.050   6.710
 5137SOL     OW16309   3.880   3.424   6.859
 5137SOL    HW116310   3.809   3.400   6.926
 5137SOL    HW216311   3.837   3.466   6.779
 5138SOL     OW16312   2.217   3.370   5.701
 5138SOL    HW116313   2.157   3.395   5.777
 5138SOL    HW216314   2.307   3.410   5.716
 5139SOL     OW16315   1.108   6.606   3.842
 5139SOL    HW116316   1.041   6.673   3.873
 5139SOL    HW216317   1.089   6.518   3.886
 5140SOL     OW16318   3.247   3.220   1.677
 5140SOL    HW116319   3.259   3.280   1.756
 5140SOL    HW216320   3.286   3.130   1.697
 5141SOL     OW16321   1.141   3.939   5.747
 5141SOL    HW116322   1.047   3.972   5.755
 5141SOL    HW216323   1.192   3.999   5.686
 5142SOL     OW16324   5.626   3.175   1.925
 5142SOL    HW116325   5.580   3.256   1.962
 5142SOL    HW216326   5.567   3.132   1.857
 5143SOL     OW16327   0.055   4.777   5.610
 5143SOL    HW116328   0.083   4.750   5.518
 5143SOL    HW216329   7.003   4.837   5.605
 5144SOL     OW16330   2.027   1.851   4.929
 5144SOL    HW116331   2.050   1.805   4.843
 5144SOL    HW216332   2.002   1.946   4.910
 5145SOL     OW16333   3.426   5.801   5.807
 5145SOL    HW116334   3.478   5.885   5.796
 5145SOL    HW216335   3.364   5.810   5.886
 5146SOL     OW16336   3.262   4.519   0.980
 5146SOL    HW116337   3.253   4.477   0.890
 5146SOL    HW216338   3.171   4.535   1.018
 5147SOL     OW16339   6.899   5.089   6.535
 5147SOL    HW116340   6.983   5.039   6.514
 5147SOL    HW216341   6.823   5.048   6.485
 5148SOL     OW16342   0.197   0.730   1.450
 5148SOL    HW116343   0.267   0.753   1.383
 5148SOL    HW216344   0.183   0.631   1.452
 5149SOL     OW16345   6.630   0.380   6.000
 5149SOL    HW116346   6.675   0.408   6.085
 5149SOL    HW216347   6.699   0.358   5.931
 5150SOL     OW16348   2.347   5.275   5.460
 5150SOL    HW116349   2.293   5.282   5.543
 5150SOL    HW216350   2.421   5.343   5.462
 5151SOL     OW16351   3.894   0.529   5.449
 5151SOL    HW116352   3.834   0.521   5.528
 5151SOL    HW216353   3.942   0.442   5.435
 5152SOL     OW16354   0.005   4.796   6.731
 5152SOL    HW116355   0.055   4.760   6.810
 5152SOL    HW216356   6.963   4.861   6.763
 5153SOL     OW16357   1.852   2.389   1.057
 5153SOL    HW116358   1.776   2.396   1.121
 5153SOL    HW216359   1.926   2.336   1.099
 5154SOL     OW16360   1.794   4.665   4.852
 5154SOL    HW116361   1.778   4.627   4.761
 5154SOL    HW216362   1.721   4.729   4.875
 5155SOL     OW16363   4.110   0.137   2.444
 5155SOL    HW116364   4.208   0.127   2.429
 5155SOL    HW216365   4.093   0.154   2.542
 5156SOL     OW16366   5.209   3.292   6.144
 5156SOL    HW116367   5.247   3.211   6.190
 5156SOL    HW216368   5.254   3.374   6.177
 5157SOL     OW16369   6.434   1.923   4.028
 5157SOL    HW116370   6.415   1.904   4.124
 5157SOL    HW216371   6.416   1.841   3.974
 5158SOL     OW16372   3.714   0.671   1.412
 5158SOL    HW116373   3.740   0.691   1.507
 5158SOL    HW216374   3.642   0.735   1.384
 5159SOL     OW16375   2.090   3.519   4.569
 5159SOL    HW116376   2.131   3.610   4.568
 5159SOL    HW216377   2.131   3.464   4.642
 5160SOL     OW16378   2.653   2.381   3.680
 5160SOL    HW116379   2.670   2.412   3.773
 5160SOL    HW216380   2.642   2.282   3.679
 5161SOL     OW16381   1.839   3.210   6.647
 5161SOL    HW116382   1.822   3.156   6.729
 5161SOL    HW216383   1.767   3.192   6.580
 5162SOL     OW16384   6.870   5.478   4.556
 5162SOL    HW116385   6.811   5.406   4.519
 5162SOL    HW216386   6.919   5.443   4.636
 5163SOL     OW16387   5.294   3.723   0.806
 5163SOL    HW116388   5.358   3.734   0.729
 5163SOL    HW216389   5.242   3.807   0.818
 5164SOL     OW16390   6.633   6.147   4.614
 5164SOL    HW116391   6.538   6.157   4.646
 5164SOL    HW216392   6.684   6.230   4.637
 5165SOL     OW16393   5.659   3.643   5.010
 5165SOL    HW116394   5.656   3.742   4.995
 5165SOL    HW216395   5.579   3.615   5.064
 5166SOL     OW16396   1.377   6.901   2.683
 5166SOL    HW116397   1.322   6.904   2.599
 5166SOL    HW216398   1.444   6.975   2.681
 5167SOL     OW16399   2.206   0.436   5.791
 5167SOL    HW116400   2.172   0.376   5.719
 5167SOL    HW216401   2.254   0.382   5.859
 5168SOL     OW16402   3.551   1.992   2.673
 5168SOL    HW116403   3.487   1.949   2.609
 5168SOL    HW216404   3.566   1.931   2.751
 5169SOL     OW16405   4.370   4.559   6.317
 5169SOL    HW116406   4.421   4.499   6.255
 5169SOL    HW216407   4.279   4.521   6.333
 5170SOL     OW16408   4.138   5.485   4.111
 5170SOL    HW116409   4.143   5.420   4.187
 5170SOL    HW216410   4.176   5.442   4.028
 5171SOL     OW16411   2.751   4.775   5.267
 5171SOL    HW116412   2.657   4.754   5.295
 5171SOL    HW216413   2.780   4.713   5.195
 5172SOL     OW16414   1.767   4.402   6.644
 5172SOL    HW116415   1.707   4.326   6.670
 5172SOL    HW216416   1.862   4.371   6.648
 5173SOL     OW16417   0.078   2.601   5.008
 5173SOL    HW116418   0.109   2.621   4.915
 5173SOL    HW216419   0.045   2.686   5.050
 5174SOL     OW16420   2.432   5.011   6.723
 5174SOL    HW116421   2.361   5.079   6.707
 5174SOL    HW216422   2.515   5.056   6.757
 5175SOL     OW16423   0.105   5.464   6.565
 5175SOL    HW116424   0.104   5.550   6.616
 5175SOL    HW216425   0.116   5.387   6.629
 5176SOL     OW16426   5.742   3.872   6.342
 5176SOL    HW116427   5.758   3.968   6.319
 5176SOL    HW216428   5.645   3.859   6.362
 5177SOL     OW16429   5.436   5.331   5.470
 5177SOL    HW116430   5.447   5.419   5.514
 5177SOL    HW216431   5.474   5.259   5.528
 5178SOL     OW16432   3.170   4.380   0.718
 5178SOL    HW116433   3.131   4.294   0.752
 5178SOL    HW216434   3.113   4.415   0.644
 5179SOL     OW16435   3.439   6.307   5.299
 5179SOL    HW116436   3.504   6.365   5.250
 5179SOL    HW216437   3.416   6.228   5.242
 5180SOL     OW16438   4.602   1.686   0.253
 5180SOL    HW116439   4.510   1.705   0.219
 5180SOL    HW216440   4.656   1.642   0.182
 5181SOL     OW16441   3.263   5.992   2.302
 5181SOL    HW116442   3.264   5.978   2.203
 5181SOL    HW216443   3.323   5.925   2.346
 5182SOL     OW16444   4.891   4.209   1.243
 5182SOL    HW116445   4.803   4.232   1.284
 5182SOL    HW216446   4.882   4.209   1.143
 5183SOL     OW16447   3.667   0.523   3.812
 5183SOL    HW116448   3.694   0.535   3.907
 5183SOL    HW216449   3.594   0.588   3.790
 5184SOL     OW16450   0.769   2.615   3.411
 5184SOL    HW116451   0.782   2.523   3.373
 5184SOL    HW216452   0.675   2.645   3.393
 5185SOL     OW16453   3.950   7.014   1.415
 5185SOL    HW116454   3.919   7.027   1.321
 5185SOL    HW216455   4.050   7.015   1.418
 5186SOL     OW16456   5.222   4.517   6.899
 5186SOL    HW116457   5.226   4.614   6.871
 5186SOL    HW216458   5.302   4.469   6.864
 5187SOL     OW16459   4.824   3.088   4.303
 5187SOL    HW116460   4.920   3.086   4.331
 5187SOL    HW216461   4.813   3.150   4.225
 5188SOL     OW16462   0.464   0.932   3.806
 5188SOL    HW116463   0.399   0.856   3.795
 5188SOL    HW216464   0.504   0.929   3.898
 5189SOL     OW16465   4.479   6.033   5.747
 5189SOL    HW116466   4.465   5.946   5.700
 5189SOL    HW216467   4.398   6.091   5.735
 5190SOL     OW16468   2.336   2.760   2.091
 5190SOL    HW116469   2.307   2.825   2.161
 5190SOL    HW216470   2.267   2.756   2.018
 5191SOL     OW16471   4.801   0.448   2.473
 5191SOL    HW116472   4.813   0.424   2.376
 5191SOL    HW216473   4.882   0.422   2.524
 5192SOL     OW16474   6.287   4.093   1.290
 5192SOL    HW116475   6.192   4.064   1.303
 5192SOL    HW216476   6.300   4.183   1.331
 5193SOL     OW16477   3.522   4.966   2.271
 5193SOL    HW116478   3.503   5.053   2.225
 5193SOL    HW216479   3.553   4.900   2.203
 5194SOL     OW16480   5.211   0.767   0.522
 5194SOL    HW116481   5.237   0.699   0.453
 5194SOL    HW216482   5.119   0.748   0.556
 5195SOL     OW16483   0.710   6.477   5.140
 5195SOL    HW116484   0.735   6.516   5.229
 5195SOL    HW216485   0.611   6.483   5.127
 5196SOL     OW16486   7.002   4.081   3.720
 5196SOL    HW116487   7.023   4.039   3.808
 5196SOL    HW216488   6.903   4.081   3.706
 5197SOL     OW16489   4.007   5.626   5.185
 5197SOL    HW116490   4.012   5.562   5.261
 5197SOL    HW216491   3.999   5.575   5.099
 5198SOL     OW16492   4.499   1.128   5.578
 5198SOL    HW116493   4.407   1.168   5.575
 5198SOL    HW216494   4.492   1.029   5.575
 5199SOL     OW16495   0.507   5.759   1.136
 5199SOL    HW116496   0.531   5.709   1.220
 5199SOL    HW216497   0.566   5.839   1.127
 5200SOL     OW16498   6.411   6.935   4.864
 5200SOL    HW116499   6.469   6.958   4.942
 5200SOL    HW216500   6.316   6.956   4.886
 5201SOL     OW16501   6.545   4.329   5.536
 5201SOL    HW116502   6.448   4.337   5.562
 5201SOL    HW216503   6.596   4.289   5.612
 5202SOL     OW16504   3.638   2.268   5.847
 5202SOL    HW116505   3.597   2.352   5.813
 5202SOL    HW216506   3.583   2.231   5.922
 5203SOL     OW16507   0.888   0.528   6.382
 5203SOL    HW116508   0.971   0.503   6.333
 5203SOL    HW216509   0.836   0.594   6.329
 5204SOL     OW16510   1.595   0.613   1.952
 5204SOL    HW116511   1.691   0.613   1.925
 5204SOL    HW216512   1.566   0.519   1.972
 5205SOL     OW16513   6.923   6.941   2.071
 5205SOL    HW116514   6.952   6.869   2.134
 5205SOL    HW216515   6.844   6.909   2.019
 5206SOL     OW16516   1.086   5.153   4.993
 5206SOL    HW116517   1.005   5.111   4.951
 5206SOL    HW216518   1.153   5.082   5.014
 5207SOL     OW16519   4.812   0.499   4.924
 5207SOL    HW116520   4.727   0.548   4.942
 5207SOL    HW216521   4.792   0.418   4.869
 5208SOL     OW16522   6.654   1.699   0.026
 5208SOL    HW116523   6.732   1.663   0.078
 5208SOL    HW216524   6.598   1.756   0.086
 5209SOL     OW16525   5.153   6.130   2.297
 5209SOL    HW116526   5.094   6.152   2.219
 5209SOL    HW216527   5.139   6.035   2.323
 5210SOL     OW16528   5.652   4.469   0.958
 5210SOL    HW116529   5.736   4.521   0.974
 5210SOL    HW216530   5.603   4.458   1.045
 5211SOL     OW16531   5.583   3.039   5.308
 5211SOL    HW116532   5.584   2.939   5.312
 5211SOL    HW216533   5.544   3.069   5.221
 5212SOL     OW16534   6.561   3.670   6.534
 5212SOL    HW116535   6.644   3.635   6.491
 5212SOL    HW216536   6.481   3.644   6.479
 5213SOL     OW16537   3.444   3.030   3.368
 5213SOL    HW116538   3.373   3.099   3.378
 5213SOL    HW216539   3.458   2.982   3.454
 5214SOL     OW16540   5.282   3.086   6.309
 5214SOL    HW116541   5.209   3.021   6.332
 5214SOL    HW216542   5.365   3.035   6.287
 5215SOL     OW16543   0.073   5.242   4.964
 5215SOL    HW116544   0.161   5.274   4.930
 5215SOL    HW216545   0.050   5.290   5.049
 5216SOL     OW16546   6.281   4.343   0.874
 5216SOL    HW116547   6.183   4.345   0.853
 5216SOL    HW216548   6.309   4.433   0.907
 5217SOL     OW16549   3.621   6.906   2.545
 5217SOL    HW116550   3.592   6.956   2.463
 5217SOL    HW216551   3.565   6.935   2.623
 5218SOL     OW16552   6.023   0.085   0.638
 5218SOL    HW116553   5.949   0.025   0.606
 5218SOL    HW216554   6.044   0.153   0.568
 5219SOL     OW16555   4.052   1.679   4.950
 5219SOL    HW116556   4.139   1.632   4.964
 5219SOL    HW216557   4.039   1.697   4.852
 5220SOL     OW16558   1.876   4.829   4.447
 5220SOL    HW116559   1.778   4.845   4.438
 5220SOL    HW216560   1.926   4.904   4.405
 5221SOL     OW16561   5.000   6.086   1.089
 5221SOL    HW116562   4.971   6.152   1.158
 5221SOL    HW216563   4.931   6.013   1.082
 5222SOL     OW16564   6.642   3.530   2.434
 5222SOL    HW116565   6.638   3.485   2.524
 5222SOL    HW216566   6.632   3.461   2.362
 5223SOL     OW16567   0.195   2.532   0.973
 5223SOL    HW116568   0.141   2.493   0.899
 5223SOL    HW216569   0.286   2.491   0.974
 5224SOL     OW16570   1.742   1.079   4.471
 5224SOL    HW116571   1.729   1.175   4.447
 5224SOL    HW216572   1.837   1.064   4.499
 5225SOL     OW16573   6.741   2.122   6.098
 5225SOL    HW116574   6.794   2.067   6.034
 5225SOL    HW216575   6.656   2.152   6.055
 5226SOL     OW16576   0.173   6.823   4.052
 5226SOL    HW116577   0.162   6.728   4.024
 5226SOL    HW216578   0.214   6.876   3.978
 5227SOL     OW16579   1.325   2.813   5.943
 5227SOL    HW116580   1.405   2.754   5.932
 5227SOL    HW216581   1.352   2.898   5.988
 5228SOL     OW16582   1.164   2.482   5.164
 5228SOL    HW116583   1.259   2.508   5.183
 5228SOL    HW216584   1.160   2.435   5.076
 5229SOL     OW16585   3.644   1.529   6.778
 5229SOL    HW116586   3.646   1.595   6.703
 5229SOL    HW216587   3.617   1.576   6.862
 5230SOL     OW16588   6.896   0.369   2.167
 5230SOL    HW116589   6.897   0.269   2.177
 5230SOL    HW216590   6.952   0.395   2.089
 5231SOL     OW16591   6.106   3.283   1.686
 5231SOL    HW116592   6.174   3.230   1.736
 5231SOL    HW216593   6.024   3.292   1.742
 5232SOL     OW16594   1.788   1.623   5.636
 5232SOL    HW116595   1.869   1.620   5.694
 5232SOL    HW216596   1.710   1.583   5.684
 5233SOL     OW16597   2.875   0.026   3.591
 5233SOL    HW116598   2.851   0.041   3.496
 5233SOL    HW216599   2.845   6.963   3.620
 5234SOL     OW16600   2.846   2.458   6.753
 5234SOL    HW116601   2.891   2.499   6.673
 5234SOL    HW216602   2.751   2.487   6.756
 5235SOL     OW16603   2.314   2.776   1.517
 5235SOL    HW116604   2.316   2.681   1.486
 5235SOL    HW216605   2.374   2.832   1.458
 5236SOL     OW16606   2.855   4.793   2.441
 5236SOL    HW116607   2.870   4.891   2.428
 5236SOL    HW216608   2.942   4.749   2.465
 5237SOL     OW16609   1.614   1.784   2.213
 5237SOL    HW116610   1.681   1.814   2.281
 5237SOL    HW216611   1.527   1.764   2.259
 5238SOL     OW16612   6.033   0.712   2.799
 5238SOL    HW116613   6.125   0.752   2.807
 5238SOL    HW216614   5.965   0.783   2.818
 5239SOL     OW16615   2.754   4.384   0.338
 5239SOL    HW116616   2.811   4.422   0.266
 5239SOL    HW216617   2.743   4.452   0.411
 5240SOL     OW16618   2.069   4.438   5.914
 5240SOL    HW116619   2.004   4.372   5.876
 5240SOL    HW216620   2.128   4.472   5.842
 5241SOL     OW16621   1.980   6.060   3.543
 5241SOL    HW116622   2.063   6.027   3.587
 5241SOL    HW216623   1.902   6.044   3.603
 5242SOL     OW16624   4.440   6.101   5.438
 5242SOL    HW116625   4.505   6.105   5.513
 5242SOL    HW216626   4.388   6.186   5.433
 5243SOL     OW16627   2.193   5.966   3.751
 5243SOL    HW116628   2.165   5.998   3.842
 5243SOL    HW216629   2.287   5.994   3.733
 5244SOL     OW16630   4.956   1.337   6.324
 5244SOL    HW116631   4.909   1.251   6.341
 5244SOL    HW216632   4.890   1.409   6.301
 5245SOL     OW16633   3.212   4.047   2.279
 5245SOL    HW116634   3.198   3.948   2.274
 5245SOL    HW216635   3.167   4.091   2.201
 5246SOL     OW16636   6.588   3.049   5.955
 5246SOL    HW116637   6.494   3.038   5.921
 5246SOL    HW216638   6.587   3.053   6.055
 5247SOL     OW16639   4.585   1.111   5.856
 5247SOL    HW116640   4.559   1.132   5.762
 5247SOL    HW216641   4.623   1.194   5.898
 5248SOL     OW16642   4.778   0.928   2.989
 5248SOL    HW116643   4.741   0.896   2.901
 5248SOL    HW216644   4.814   1.020   2.978
 5249SOL     OW16645   7.021   5.608   1.668
 5249SOL    HW116646   6.968   5.537   1.713
 5249SOL    HW216647   0.012   5.581   1.573
 5250SOL     OW16648   2.182   5.183   0.620
 5250SOL    HW116649   2.160   5.158   0.715
 5250SOL    HW216650   2.220   5.104   0.573
 5251SOL     OW16651   0.810   5.066   6.924
 5251SOL    HW116652   0.861   5.130   6.865
 5251SOL    HW216653   0.770   4.994   6.867
 5252SOL     OW16654   3.786   5.530   3.136
 5252SOL    HW116655   3.853   5.599   3.161
 5252SOL    HW216656   3.812   5.487   3.050
 5253SOL     OW16657   0.394   5.978   4.975
 5253SOL    HW116658   0.432   6.065   5.007
 5253SOL    HW216659   0.463   5.906   4.985
 5254SOL     OW16660   4.548   6.455   2.135
 5254SOL    HW116661   4.514   6.486   2.224
 5254SOL    HW216662   4.584   6.362   2.145
 5255SOL     OW16663   0.318   1.219   6.671
 5255SOL    HW116664   0.415   1.223   6.651
 5255SOL    HW216665   0.304   1.223   6.770
 5256SOL     OW16666   4.193   2.184   2.630
 5256SOL    HW116667   4.272   2.244   2.643
 5256SOL    HW216668   4.139   2.181   2.714
 5257SOL     OW16669   5.136   1.342   6.844
 5257SOL    HW116670   5.212   1.308   6.790
 5257SOL    HW216671   5.135   1.442   6.842
 5258SOL     OW16672   5.433   1.644   5.271
 5258SOL    HW116673   5.524   1.684   5.264
 5258SOL    HW216674   5.389   1.647   5.181
 5259SOL     OW16675   4.860   5.828   3.995
 5259SOL    HW116676   4.780   5.782   4.034
 5259SOL    HW216677   4.940   5.810   4.052
 5260SOL     OW16678   1.622   6.421   1.441
 5260SOL    HW116679   1.555   6.347   1.445
 5260SOL    HW216680   1.577   6.508   1.461
 5261SOL     OW16681   5.986   4.959   7.020
 5261SOL    HW116682   5.977   5.021   0.069
 5261SOL    HW216683   6.008   4.867   0.025
 5262SOL     OW16684   2.003   2.370   1.603
 5262SOL    HW116685   1.950   2.370   1.688
 5262SOL    HW216686   2.000   2.279   1.562
 5263SOL     OW16687   0.803   5.902   3.227
 5263SOL    HW116688   0.847   5.991   3.218
 5263SOL    HW216689   0.845   5.852   3.304
 5264SOL     OW16690   6.716   2.483   2.070
 5264SOL    HW116691   6.785   2.505   2.001
 5264SOL    HW216692   6.749   2.512   2.160
 5265SOL     OW16693   0.413   5.863   6.179
 5265SOL    HW116694   0.498   5.916   6.175
 5265SOL    HW216695   0.367   5.867   6.091
 5266SOL     OW16696   1.643   6.905   6.372
 5266SOL    HW116697   1.705   6.853   6.313
 5266SOL    HW216698   1.598   6.976   6.318
 5267SOL     OW16699   6.158   1.225   4.790
 5267SOL    HW116700   6.210   1.286   4.849
 5267SOL    HW216701   6.159   1.133   4.828
 5268SOL     OW16702   5.827   6.802   5.923
 5268SOL    HW116703   5.750   6.784   5.862
 5268SOL    HW216704   5.910   6.761   5.885
 5269SOL     OW16705   1.194   0.722   4.373
 5269SOL    HW116706   1.287   0.730   4.337
 5269SOL    HW216707   1.184   0.781   4.453
 5270SOL     OW16708   0.995   1.725   6.891
 5270SOL    HW116709   1.029   1.810   6.932
 5270SOL    HW216710   1.071   1.661   6.881
 5271SOL     OW16711   1.439   5.460   5.984
 5271SOL    HW116712   1.366   5.406   6.025
 5271SOL    HW216713   1.472   5.528   6.050
 5272SOL     OW16714   4.288   0.553   6.179
 5272SOL    HW116715   4.236   0.620   6.126
 5272SOL    HW216716   4.241   0.535   6.265
 5273SOL     OW16717   2.374   1.419   3.428
 5273SOL    HW116718   2.377   1.503   3.482
 5273SOL    HW216719   2.289   1.370   3.448
 5274SOL     OW16720   5.230   4.312   1.065
 5274SOL    HW116721   5.230   4.295   0.966
 5274SOL    HW216722   5.177   4.394   1.085
 5275SOL     OW16723   5.425   1.085   6.281
 5275SOL    HW116724   5.521   1.098   6.257
 5275SOL    HW216725   5.409   1.115   6.375
 5276SOL     OW16726   3.725   6.542   1.591
 5276SOL    HW116727   3.772   6.603   1.528
 5276SOL    HW216728   3.629   6.569   1.599
 5277SOL     OW16729   2.021   3.685   1.668
 5277SOL    HW116730   2.069   3.772   1.665
 5277SOL    HW216731   1.923   3.702   1.677
 5278SOL     OW16732   3.731   3.678   2.592
 5278SOL    HW116733   3.655   3.742   2.600
 5278SOL    HW216734   3.786   3.702   2.512
 5279SOL     OW16735   1.448   6.567   2.999
 5279SOL    HW116736   1.394   6.502   2.946
 5279SOL    HW216737   1.410   6.659   2.986
 5280SOL     OW16738   3.742   0.490   4.074
 5280SOL    HW116739   3.693   0.482   4.160
 5280SOL    HW216740   3.800   0.409   4.061
 5281SOL     OW16741   6.539   2.914   3.867
 5281SOL    HW116742   6.507   2.824   3.896
 5281SOL    HW216743   6.600   2.952   3.936
 5282SOL     OW16744   4.796   2.464   1.335
 5282SOL    HW116745   4.782   2.365   1.325
 5282SOL    HW216746   4.871   2.481   1.398
 5283SOL     OW16747   5.159   4.610   5.504
 5283SOL    HW116748   5.148   4.544   5.430
 5283SOL    HW216749   5.080   4.673   5.505
 5284SOL     OW16750   5.137   2.868   4.195
 5284SOL    HW116751   5.096   2.896   4.109
 5284SOL    HW216752   5.118   2.936   4.266
 5285SOL     OW16753   4.277   6.304   2.293
 5285SOL    HW116754   4.240   6.218   2.330
 5285SOL    HW216755   4.215   6.340   2.224
 5286SOL     OW16756   1.768   5.120   2.230
 5286SOL    HW116757   1.863   5.117   2.200
 5286SOL    HW216758   1.763   5.108   2.329
 5287SOL     OW16759   1.236   0.633   2.643
 5287SOL    HW116760   1.213   0.726   2.672
 5287SOL    HW216761   1.292   0.636   2.561
 5288SOL     OW16762   3.820   0.175   0.885
 5288SOL    HW116763   3.782   0.125   0.963
 5288SOL    HW216764   3.814   0.120   0.803
 5289SOL     OW16765   1.977   6.659   1.554
 5289SOL    HW116766   1.933   6.692   1.471
 5289SOL    HW216767   1.929   6.696   1.634
 5290SOL     OW16768   5.897   6.150   6.642
 5290SOL    HW116769   5.931   6.155   6.736
 5290SOL    HW216770   5.845   6.233   6.621
 5291SOL     OW16771   1.072   5.601   0.167
 5291SOL    HW116772   1.113   5.693   0.163
 5291SOL    HW216773   0.992   5.598   0.107
 5292SOL     OW16774   5.759   1.616   1.149
 5292SOL    HW116775   5.738   1.611   1.051
 5292SOL    HW216776   5.680   1.583   1.202
 5293SOL     OW16777   1.735   0.980   4.100
 5293SOL    HW116778   1.700   1.036   4.025
 5293SOL    HW216779   1.720   1.027   4.187
 5294SOL     OW16780   3.611   2.056   6.582
 5294SOL    HW116781   3.611   2.001   6.665
 5294SOL    HW216782   3.554   2.137   6.595
 5295SOL     OW16783   6.955   1.779   3.326
 5295SOL    HW116784   0.013   1.830   3.325
 5295SOL    HW216785   6.893   1.819   3.394
 5296SOL     OW16786   0.008   2.646   6.839
 5296SOL    HW116787   0.094   2.645   6.891
 5296SOL    HW216788   0.019   2.701   6.757
 5297SOL     OW16789   1.201   2.270   2.047
 5297SOL    HW116790   1.186   2.368   2.037
 5297SOL    HW216791   1.116   2.220   2.028
 5298SOL     OW16792   1.217   4.574   1.947
 5298SOL    HW116793   1.288   4.573   2.018
 5298SOL    HW216794   1.258   4.595   1.859
 5299SOL     OW16795   3.902   0.223   0.282
 5299SOL    HW116796   3.860   0.313   0.278
 5299SOL    HW216797   3.976   0.218   0.215
 5300SOL     OW16798   6.363   4.960   3.911
 5300SOL    HW116799   6.357   4.878   3.853
 5300SOL    HW216800   6.455   4.998   3.906
 5301SOL     OW16801   5.734   0.457   6.818
 5301SOL    HW116802   5.693   0.515   6.748
 5301SOL    HW216803   5.752   0.511   6.900
 5302SOL     OW16804   6.745   4.457   3.534
 5302SOL    HW116805   6.714   4.362   3.533
 5302SOL    HW216806   6.711   4.502   3.617
 5303SOL     OW16807   1.967   4.544   3.311
 5303SOL    HW116808   1.892   4.525   3.248
 5303SOL    HW216809   2.047   4.491   3.285
 5304SOL     OW16810   4.471   1.871   5.782
 5304SOL    HW116811   4.489   1.778   5.750
 5304SOL    HW216812   4.373   1.888   5.780
 5305SOL     OW16813   3.673   2.038   4.891
 5305SOL    HW116814   3.574   2.043   4.881
 5305SOL    HW216815   3.702   1.942   4.890
 5306SOL     OW16816   2.721   6.666   3.065
 5306SOL    HW116817   2.713   6.609   3.147
 5306SOL    HW216818   2.710   6.609   2.984
 5307SOL     OW16819   5.205   6.444   6.810
 5307SOL    HW116820   5.119   6.406   6.776
 5307SOL    HW216821   5.189   6.534   6.850
 5308SOL     OW16822   0.072   1.544   1.808
 5308SOL    HW116823   0.006   1.512   1.740
 5308SOL    HW216824   0.089   1.642   1.794
 5309SOL     OW16825   3.982   3.441   5.158
 5309SOL    HW116826   3.897   3.484   5.128
 5309SOL    HW216827   4.053   3.458   5.090
 5310SOL     OW16828   4.914   2.791   0.081
 5310SOL    HW116829   4.837   2.820   0.138
 5310SOL    HW216830   4.983   2.748   0.139
 5311SOL     OW16831   6.843   6.269   0.367
 5311SOL    HW116832   6.877   6.205   0.436
 5311SOL    HW216833   6.822   6.218   0.283
 5312SOL     OW16834   0.457   3.470   1.782
 5312SOL    HW116835   0.465   3.383   1.734
 5312SOL    HW216836   0.532   3.479   1.848
 5313SOL     OW16837   6.976   6.802   6.935
 5313SOL    HW116838   6.894   6.784   6.881
 5313SOL    HW216839   7.017   6.888   6.905
 5314SOL     OW16840   3.683   5.154   1.293
 5314SOL    HW116841   3.615   5.177   1.362
 5314SOL    HW216842   3.722   5.064   1.313
 5315SOL     OW16843   5.361   1.208   2.264
 5315SOL    HW116844   5.410   1.248   2.341
 5315SOL    HW216845   5.427   1.165   2.202
 5316SOL     OW16846   5.258   5.305   4.524
 5316SOL    HW116847   5.267   5.382   4.588
 5316SOL    HW216848   5.335   5.242   4.537
 5317SOL     OW16849   6.390   5.107   1.622
 5317SOL    HW116850   6.444   5.027   1.597
 5317SOL    HW216851   6.303   5.106   1.573
 5318SOL     OW16852   6.950   2.484   3.719
 5318SOL    HW116853   6.964   2.443   3.629
 5318SOL    HW216854   6.853   2.503   3.732
 5319SOL     OW16855   3.188   6.202   2.649
 5319SOL    HW116856   3.096   6.216   2.613
 5319SOL    HW216857   3.255   6.238   2.584
 5320SOL     OW16858   6.278   2.146   0.191
 5320SOL    HW116859   6.351   2.171   0.127
 5320SOL    HW216860   6.194   2.128   0.140
 5321SOL     OW16861   2.612   4.482   6.936
 5321SOL    HW116862   2.584   4.419   7.009
 5321SOL    HW216863   2.651   4.565   6.977
 5322SOL     OW16864   2.418   6.555   0.165
 5322SOL    HW116865   2.459   6.589   0.249
 5322SOL    HW216866   2.356   6.480   0.186
 5323SOL     OW16867   6.349   3.285   0.430
 5323SOL    HW116868   6.302   3.372   0.445
 5323SOL    HW216869   6.359   3.237   0.517
 5324SOL     OW16870   3.889   3.400   1.809
 5324SOL    HW116871   3.852   3.483   1.851
 5324SOL    HW216872   3.988   3.396   1.825
 5325SOL     OW16873   3.339   6.215   5.616
 5325SOL    HW116874   3.295   6.293   5.572
 5325SOL    HW216875   3.349   6.233   5.714
 5326SOL     OW16876   6.179   0.958   3.042
 5326SOL    HW116877   6.223   0.919   2.962
 5326SOL    HW216878   6.193   0.898   3.121
 5327SOL     OW16879   6.287   6.676   4.355
 5327SOL    HW116880   6.202   6.634   4.388
 5327SOL    HW216881   6.308   6.756   4.410
 5328SOL     OW16882   2.778   5.062   6.477
 5328SOL    HW116883   2.714   4.988   6.459
 5328SOL    HW216884   2.730   5.137   6.523
 5329SOL     OW16885   6.893   6.948   6.596
 5329SOL    HW116886   6.885   0.010   6.638
 5329SOL    HW216887   6.971   6.948   6.533
 5330SOL     OW16888   4.551   4.488   1.175
 5330SOL    HW116889   4.579   4.442   1.091
 5330SOL    HW216890   4.462   4.452   1.205
 5331SOL     OW16891   5.699   1.163   6.804
 5331SOL    HW116892   5.797   1.152   6.820
 5331SOL    HW216893   5.678   1.143   6.708
 5332SOL     OW16894   6.290   2.708   6.917
 5332SOL    HW116895   6.357   2.782   6.925
 5332SOL    HW216896   6.319   2.631   6.975
 5333SOL     OW16897   0.721   6.859   4.257
 5333SOL    HW116898   0.655   6.829   4.187
 5333SOL    HW216899   0.803   6.894   4.212
 5334SOL     OW16900   3.561   6.058   1.406
 5334SOL    HW116901   3.585   5.985   1.341
 5334SOL    HW216902   3.591   6.146   1.369
 5335SOL     OW16903   0.400   4.982   1.512
 5335SOL    HW116904   0.424   5.025   1.425
 5335SOL    HW216905   0.301   4.975   1.520
 5336SOL     OW16906   1.160   3.343   5.624
 5336SOL    HW116907   1.229   3.363   5.554
 5336SOL    HW216908   1.203   3.346   5.714
 5337SOL     OW16909   6.725   1.492   0.949
 5337SOL    HW116910   6.751   1.419   1.012
 5337SOL    HW216911   6.655   1.550   0.992
 5338SOL     OW16912   0.150   3.451   1.500
 5338SOL    HW116913   0.121   3.547   1.496
 5338SOL    HW216914   0.123   3.413   1.589
 5339SOL     OW16915   4.915   3.508   3.125
 5339SOL    HW116916   5.011   3.532   3.126
 5339SOL    HW216917   4.899   3.432   3.189
 5340SOL     OW16918   4.798   3.642   0.932
 5340SOL    HW116919   4.897   3.627   0.942
 5340SOL    HW216920   4.763   3.583   0.860
 5341SOL     OW16921   4.773   5.075   3.300
 5341SOL    HW116922   4.674   5.067   3.291
 5341SOL    HW216923   4.801   5.170   3.284
 5342SOL     OW16924   6.133   5.331   5.160
 5342SOL    HW116925   6.170   5.356   5.249
 5342SOL    HW216926   6.056   5.391   5.138
 5343SOL     OW16927   3.420   3.429   6.883
 5343SOL    HW116928   3.426   3.500   6.813
 5343SOL    HW216929   3.349   3.454   6.950
 5344SOL     OW16930   5.874   1.547   0.066
 5344SOL    HW116931   5.862   1.447   0.071
 5344SOL    HW216932   5.832   1.581   7.010
 5345SOL     OW16933   3.680   1.373   0.284
 5345SOL    HW116934   3.764   1.407   0.326
 5345SOL    HW216935   3.701   1.296   0.224
 5346SOL     OW16936   2.066   5.895   2.929
 5346SOL    HW116937   2.073   5.799   2.957
 5346SOL    HW216938   2.095   5.954   3.005
 5347SOL     OW16939   6.073   1.626   5.290
 5347SOL    HW116940   6.124   1.570   5.355
 5347SOL    HW216941   5.975   1.617   5.308
 5348SOL     OW16942   4.897   2.606   5.196
 5348SOL    HW116943   4.864   2.525   5.245
 5348SOL    HW216944   4.930   2.673   5.263
 5349SOL     OW16945   0.969   4.245   0.393
 5349SOL    HW116946   0.956   4.341   0.416
 5349SOL    HW216947   1.050   4.234   0.336
 5350SOL     OW16948   1.040   6.745   6.676
 5350SOL    HW116949   1.119   6.791   6.635
 5350SOL    HW216950   0.963   6.750   6.613
 5351SOL     OW16951   0.765   5.857   3.766
 5351SOL    HW116952   0.805   5.948   3.754
 5351SOL    HW216953   0.831   5.798   3.813
 5352SOL     OW16954   0.261   2.403   5.661
 5352SOL    HW116955   0.193   2.421   5.732
 5352SOL    HW216956   0.352   2.397   5.702
 5353SOL     OW16957   2.560   6.896   3.043
 5353SOL    HW116958   2.532   6.948   3.124
 5353SOL    HW216959   2.595   6.806   3.071
 5354SOL     OW16960   3.492   5.855   2.040
 5354SOL    HW116961   3.531   5.764   2.022
 5354SOL    HW216962   3.417   5.873   1.977
 5355SOL     OW16963   5.502   4.717   5.195
 5355SOL    HW116964   5.531   4.760   5.280
 5355SOL    HW216965   5.574   4.727   5.126
 5356SOL     OW16966   0.512   6.569   1.543
 5356SOL    HW116967   0.572   6.604   1.471
 5356SOL    HW216968   0.551   6.590   1.632
 5357SOL     OW16969   6.428   3.233   2.676
 5357SOL    HW116970   6.461   3.148   2.634
 5357SOL    HW216971   6.421   3.221   2.775
 5358SOL     OW16972   6.101   0.608   6.702
 5358SOL    HW116973   6.148   0.536   6.650
 5358SOL    HW216974   6.141   0.697   6.679
 5359SOL     OW16975   3.038   2.361   0.334
 5359SOL    HW116976   3.098   2.440   0.349
 5359SOL    HW216977   2.949   2.379   0.375
 5360SOL     OW16978   5.521   5.180   2.803
 5360SOL    HW116979   5.618   5.201   2.797
 5360SOL    HW216980   5.498   5.152   2.897
 5361SOL     OW16981   1.661   3.852   2.838
 5361SOL    HW116982   1.605   3.771   2.858
 5361SOL    HW216983   1.733   3.827   2.773
 5362SOL     OW16984   5.895   1.819   3.830
 5362SOL    HW116985   5.803   1.851   3.852
 5362SOL    HW216986   5.897   1.786   3.735
 5363SOL     OW16987   6.131   4.977   5.032
 5363SOL    HW116988   6.196   5.043   5.070
 5363SOL    HW216989   6.181   4.909   4.979
 5364SOL     OW16990   4.699   2.423   1.638
 5364SOL    HW116991   4.630   2.351   1.638
 5364SOL    HW216992   4.659   2.507   1.602
 5365SOL     OW16993   3.542   3.288   6.174
 5365SOL    HW116994   3.510   3.318   6.264
 5365SOL    HW216995   3.505   3.197   6.154
 5366SOL     OW16996   0.563   4.411   3.675
 5366SOL    HW116997   0.533   4.318   3.698
 5366SOL    HW216998   0.489   4.476   3.696
 5367SOL     OW16999   6.481   6.025   1.372
 5367SOL    HW117000   6.395   5.994   1.414
 5367SOL    HW217001   6.483   6.125   1.372
 5368SOL     OW17002   6.734   6.004   5.478
 5368SOL    HW117003   6.736   6.103   5.465
 5368SOL    HW217004   6.736   5.958   5.390
 5369SOL     OW17005   3.752   7.001   2.913
 5369SOL    HW117006   3.726   0.043   2.847
 5369SOL    HW217007   3.849   7.010   2.935
 5370SOL     OW17008   2.858   2.454   0.629
 5370SOL    HW117009   2.877   2.534   0.572
 5370SOL    HW217010   2.775   2.409   0.597
 5371SOL     OW17011   6.120   5.216   3.287
 5371SOL    HW117012   6.086   5.246   3.376
 5371SOL    HW217013   6.120   5.116   3.284
 5372SOL     OW17014   0.483   0.190   4.098
 5372SOL    HW117015   0.527   0.132   4.166
 5372SOL    HW217016   0.479   0.141   4.011
 5373SOL     OW17017   4.222   6.756   0.730
 5373SOL    HW117018   4.266   6.841   0.757
 5373SOL    HW217019   4.143   6.777   0.671
 5374SOL     OW17020   1.416   3.800   1.174
 5374SOL    HW117021   1.370   3.766   1.256
 5374SOL    HW217022   1.388   3.894   1.156
 5375SOL     OW17023   2.949   4.903   5.381
 5375SOL    HW117024   2.869   4.862   5.337
 5375SOL    HW217025   2.982   4.980   5.326
 5376SOL     OW17026   0.328   6.910   2.065
 5376SOL    HW117027   0.363   6.825   2.026
 5376SOL    HW217028   0.317   6.978   1.992
 5377SOL     OW17029   0.996   2.619   2.296
 5377SOL    HW117030   0.987   2.701   2.241
 5377SOL    HW217031   1.012   2.644   2.392
 5378SOL     OW17032   5.140   0.030   3.334
 5378SOL    HW117033   5.158   0.126   3.310
 5378SOL    HW217034   5.175   6.999   3.262
 5379SOL     OW17035   3.146   2.188   4.444
 5379SOL    HW117036   3.129   2.201   4.541
 5379SOL    HW217037   3.244   2.194   4.425
 5380SOL     OW17038   4.659   6.675   1.583
 5380SOL    HW117039   4.622   6.676   1.490
 5380SOL    HW217040   4.585   6.680   1.649
 5381SOL     OW17041   3.310   1.934   2.500
 5381SOL    HW117042   3.275   1.877   2.574
 5381SOL    HW217043   3.320   1.880   2.417
 5382SOL     OW17044   4.825   0.926   2.585
 5382SOL    HW117045   4.779   1.011   2.561
 5382SOL    HW217046   4.839   0.871   2.502
 5383SOL     OW17047   2.516   4.071   5.452
 5383SOL    HW117048   2.493   4.031   5.363
 5383SOL    HW217049   2.594   4.132   5.442
 5384SOL     OW17050   5.122   6.380   6.035
 5384SOL    HW117051   5.119   6.469   6.080
 5384SOL    HW217052   5.114   6.307   6.103
 5385SOL     OW17053   3.762   4.148   0.633
 5385SOL    HW117054   3.768   4.247   0.650
 5385SOL    HW217055   3.830   4.101   0.690
 5386SOL     OW17056   4.425   4.545   3.472
 5386SOL    HW117057   4.487   4.496   3.532
 5386SOL    HW217058   4.343   4.572   3.523
 5387SOL     OW17059   1.059   2.694   4.680
 5387SOL    HW117060   1.031   2.736   4.767
 5387SOL    HW217061   1.032   2.598   4.679
 5388SOL     OW17062   6.506   6.540   3.383
 5388SOL    HW117063   6.425   6.544   3.324
 5388SOL    HW217064   6.478   6.511   3.475
 5389SOL     OW17065   5.901   1.535   4.894
 5389SOL    HW117066   5.881   1.481   4.813
 5389SOL    HW217067   5.829   1.521   4.962
 5390SOL     OW17068   5.672   3.270   3.127
 5390SOL    HW117069   5.619   3.189   3.104
 5390SOL    HW217070   5.747   3.245   3.188
 5391SOL     OW17071   4.425   3.056   0.688
 5391SOL    HW117072   4.463   3.149   0.691
 5391SOL    HW217073   4.361   3.050   0.611
 5392SOL     OW17074   5.067   1.019   4.170
 5392SOL    HW117075   5.143   0.988   4.113
 5392SOL    HW217076   5.017   1.091   4.122
 5393SOL     OW17077   4.754   2.565   3.179
 5393SOL    HW117078   4.838   2.531   3.223
 5393SOL    HW217079   4.697   2.487   3.153
 5394SOL     OW17080   0.138   3.179   3.086
 5394SOL    HW117081   0.161   3.127   3.004
 5394SOL    HW217082   0.191   3.146   3.164
 5395SOL     OW17083   6.978   0.556   1.757
 5395SOL    HW117084   0.018   0.629   1.760
 5395SOL    HW217085   6.888   0.594   1.735
 5396SOL     OW17086   4.217   2.591   0.016
 5396SOL    HW117087   4.133   2.613   0.066
 5396SOL    HW217088   4.216   2.494   7.018
 5397SOL     OW17089   0.967   6.655   2.440
 5397SOL    HW117090   0.998   6.700   2.356
 5397SOL    HW217091   0.868   6.649   2.440
 5398SOL     OW17092   5.954   2.606   3.283
 5398SOL    HW117093   5.907   2.686   3.318
 5398SOL    HW217094   6.015   2.569   3.353
 5399SOL     OW17095   2.631   3.055   0.327
 5399SOL    HW117096   2.673   3.143   0.348
 5399SOL    HW217097   2.537   3.053   0.362
 5400SOL     OW17098   5.485   2.924   0.569
 5400SOL    HW117099   5.445   2.856   0.508
 5400SOL    HW217100   5.428   3.006   0.569
 5401SOL     OW17101   5.170   3.986   0.794
 5401SOL    HW117102   5.086   3.969   0.743
 5401SOL    HW217103   5.180   4.085   0.809
 5402SOL     OW17104   2.020   6.188   1.731
 5402SOL    HW117105   1.958   6.120   1.692
 5402SOL    HW217106   2.018   6.271   1.676
 5403SOL     OW17107   6.193   2.749   5.224
 5403SOL    HW117108   6.239   2.672   5.266
 5403SOL    HW217109   6.131   2.716   5.152
 5404SOL     OW17110   4.757   6.572   0.800
 5404SOL    HW117111   4.803   6.486   0.781
 5404SOL    HW217112   4.666   6.554   0.837
 5405SOL     OW17113   6.543   4.785   6.170
 5405SOL    HW117114   6.549   4.850   6.246
 5405SOL    HW217115   6.495   4.827   6.093
 5406SOL     OW17116   1.951   1.013   5.016
 5406SOL    HW117117   1.944   0.939   5.082
 5406SOL    HW217118   1.997   1.091   5.059
 5407SOL     OW17119   2.188   1.396   2.740
 5407SOL    HW117120   2.210   1.440   2.653
 5407SOL    HW217121   2.127   1.455   2.793
 5408SOL     OW17122   1.945   2.408   4.438
 5408SOL    HW117123   2.013   2.421   4.366
 5408SOL    HW217124   1.940   2.490   4.495
 5409SOL     OW17125   6.971   4.702   3.211
 5409SOL    HW117126   7.008   4.622   3.258
 5409SOL    HW217127   6.921   4.759   3.277
 5410SOL     OW17128   5.707   2.386   0.496
 5410SOL    HW117129   5.734   2.375   0.592
 5410SOL    HW217130   5.728   2.479   0.465
 5411SOL     OW17131   3.206   5.806   1.715
 5411SOL    HW117132   3.176   5.724   1.665
 5411SOL    HW217133   3.265   5.861   1.656
 5412SOL     OW17134   1.694   1.856   6.131
 5412SOL    HW117135   1.647   1.890   6.049
 5412SOL    HW217136   1.748   1.931   6.171
 5413SOL     OW17137   0.000   5.736   5.742
 5413SOL    HW117138   6.998   5.831   5.742
 5413SOL    HW217139   0.020   5.707   5.648
 5414SOL     OW17140   5.651   6.020   5.998
 5414SOL    HW117141   5.564   6.067   6.012
 5414SOL    HW217142   5.713   6.079   5.946
 5415SOL     OW17143   2.047   1.088   0.110
 5415SOL    HW117144   2.096   1.003   0.092
 5415SOL    HW217145   2.080   1.159   0.047
 5416SOL     OW17146   3.620   5.483   6.529
 5416SOL    HW117147   3.613   5.429   6.445
 5416SOL    HW217148   3.598   5.425   6.608
 5417SOL     OW17149   5.684   0.003   2.127
 5417SOL    HW117150   5.594   0.022   2.168
 5417SOL    HW217151   5.676   6.954   2.063
 5418SOL     OW17152   0.492   3.252   5.283
 5418SOL    HW117153   0.478   3.314   5.207
 5418SOL    HW217154   0.404   3.222   5.320
 5419SOL     OW17155   3.766   2.177   6.289
 5419SOL    HW117156   3.857   2.187   6.329
 5419SOL    HW217157   3.702   2.239   6.335
 5420SOL     OW17158   2.205   1.605   1.134
 5420SOL    HW117159   2.132   1.576   1.072
 5420SOL    HW217160   2.247   1.525   1.176
 5421SOL     OW17161   4.173   5.225   1.450
 5421SOL    HW117162   4.074   5.212   1.451
 5421SOL    HW217163   4.194   5.322   1.459
 5422SOL     OW17164   2.231   6.693   2.681
 5422SOL    HW117165   2.259   6.716   2.775
 5422SOL    HW217166   2.143   6.646   2.683
 5423SOL     OW17167   4.365   6.713   2.035
 5423SOL    HW117168   4.424   6.638   2.064
 5423SOL    HW217169   4.390   6.797   2.082
 5424SOL     OW17170   3.586   3.358   5.046
 5424SOL    HW117171   3.637   3.273   5.058
 5424SOL    HW217172   3.498   3.351   5.093
 5425SOL     OW17173   1.026   5.365   5.360
 5425SOL    HW117174   1.026   5.273   5.322
 5425SOL    HW217175   0.959   5.370   5.435
 5426SOL     OW17176   1.372   4.587   0.171
 5426SOL    HW117177   1.376   4.568   0.269
 5426SOL    HW217178   1.437   4.659   0.148
 5427SOL     OW17179   5.114   2.257   0.782
 5427SOL    HW117180   5.030   2.230   0.830
 5427SOL    HW217181   5.153   2.338   0.826
 5428SOL     OW17182   4.436   5.308   2.701
 5428SOL    HW117183   4.452   5.221   2.749
 5428SOL    HW217184   4.486   5.381   2.748
 5429SOL     OW17185   2.286   6.679   3.255
 5429SOL    HW117186   2.251   6.710   3.343
 5429SOL    HW217187   2.270   6.581   3.245
 5430SOL     OW17188   0.979   4.619   5.319
 5430SOL    HW117189   1.041   4.674   5.375
 5430SOL    HW217190   1.029   4.582   5.241
 5431SOL     OW17191   5.301   4.353   1.326
 5431SOL    HW117192   5.229   4.310   1.379
 5431SOL    HW217193   5.296   4.323   1.231
 5432SOL     OW17194   1.079   5.045   5.748
 5432SOL    HW117195   1.159   4.996   5.713
 5432SOL    HW217196   1.108   5.118   5.809
 5433SOL     OW17197   2.588   0.004   1.582
 5433SOL    HW117198   2.623   0.097   1.565
 5433SOL    HW217199   2.665   6.969   1.591
 5434SOL     OW17200   5.032   5.764   4.222
 5434SOL    HW117201   5.128   5.736   4.222
 5434SOL    HW217202   4.980   5.705   4.284
 5435SOL     OW17203   6.803   3.374   6.958
 5435SOL    HW117204   6.802   3.395   0.027
 5435SOL    HW217205   6.799   3.459   6.905
 5436SOL     OW17206   1.222   4.767   1.036
 5436SOL    HW117207   1.276   4.794   0.957
 5436SOL    HW217208   1.142   4.714   1.005
 5437SOL     OW17209   3.697   6.548   6.474
 5437SOL    HW117210   3.660   6.613   6.407
 5437SOL    HW217211   3.626   6.484   6.502
 5438SOL     OW17212   5.053   6.566   2.689
 5438SOL    HW117213   5.079   6.478   2.727
 5438SOL    HW217214   5.118   6.593   2.618
 5439SOL     OW17215   1.226   3.861   1.750
 5439SOL    HW117216   1.219   3.777   1.696
 5439SOL    HW217217   1.317   3.866   1.791
 5440SOL     OW17218   6.383   6.433   3.622
 5440SOL    HW117219   6.388   6.447   3.721
 5440SOL    HW217220   6.294   6.395   3.598
 5441SOL     OW17221   5.421   0.874   4.942
 5441SOL    HW117222   5.474   0.835   5.017
 5441SOL    HW217223   5.360   0.945   4.978
 5442SOL     OW17224   2.972   0.128   6.859
 5442SOL    HW117225   2.896   0.086   6.810
 5442SOL    HW217226   3.058   0.091   6.824
 5443SOL     OW17227   5.512   1.261   3.478
 5443SOL    HW117228   5.415   1.238   3.476
 5443SOL    HW217229   5.565   1.185   3.442
 5444SOL     OW17230   1.627   1.523   6.416
 5444SOL    HW117231   1.647   1.488   6.507
 5444SOL    HW217232   1.646   1.453   6.347
 5445SOL     OW17233   5.765   6.497   4.887
 5445SOL    HW117234   5.776   6.477   4.984
 5445SOL    HW217235   5.670   6.521   4.868
 5446SOL     OW17236   2.311   4.555   6.351
 5446SOL    HW117237   2.341   4.650   6.360
 5446SOL    HW217238   2.307   4.513   6.442
 5447SOL     OW17239   6.311   2.177   1.556
 5447SOL    HW117240   6.398   2.132   1.574
 5447SOL    HW217241   6.301   2.255   1.617
 5448SOL     OW17242   6.087   4.764   1.295
 5448SOL    HW117243   6.079   4.862   1.277
 5448SOL    HW217244   6.181   4.743   1.325
 5449SOL     OW17245   2.453   0.021   2.402
 5449SOL    HW117246   2.366   7.009   2.431
 5449SOL    HW217247   2.500   6.985   2.341
 5450SOL     OW17248   4.556   5.279   1.923
 5450SOL    HW117249   4.537   5.192   1.878
 5450SOL    HW217250   4.602   5.341   1.858
 5451SOL     OW17251   0.646   5.596   4.031
 5451SOL    HW117252   0.638   5.694   4.047
 5451SOL    HW217253   0.709   5.580   3.954
 5452SOL     OW17254   2.180   4.164   2.915
 5452SOL    HW117255   2.228   4.160   2.828
 5452SOL    HW217256   2.111   4.091   2.918
 5453SOL     OW17257   5.769   5.071   4.064
 5453SOL    HW117258   5.734   5.017   3.988
 5453SOL    HW217259   5.841   5.020   4.111
 5454SOL     OW17260   6.180   3.913   1.830
 5454SOL    HW117261   6.172   3.911   1.731
 5454SOL    HW217262   6.152   3.825   1.868
 5455SOL     OW17263   2.490   2.606   3.219
 5455SOL    HW117264   2.556   2.539   3.254
 5455SOL    HW217265   2.470   2.672   3.291
 5456SOL     OW17266   5.192   2.955   0.367
 5456SOL    HW117267   5.218   2.864   0.399
 5456SOL    HW217268   5.248   2.979   0.288
 5457SOL     OW17269   6.522   1.514   0.500
 5457SOL    HW117270   6.477   1.456   0.569
 5457SOL    HW217271   6.541   1.461   0.418
 5458SOL     OW17272   6.133   5.037   5.742
 5458SOL    HW117273   6.168   4.960   5.689
 5458SOL    HW217274   6.148   5.019   5.840
 5459SOL     OW17275   2.518   3.665   5.389
 5459SOL    HW117276   2.516   3.721   5.306
 5459SOL    HW217277   2.496   3.722   5.468
 5460SOL     OW17278   0.139   0.782   1.753
 5460SOL    HW117279   0.221   0.802   1.807
 5460SOL    HW217280   0.158   0.798   1.656
 5461SOL     OW17281   5.412   1.165   6.536
 5461SOL    HW117282   5.383   1.115   6.618
 5461SOL    HW217283   5.512   1.175   6.537
 5462SOL     OW17284   4.855   5.204   6.229
 5462SOL    HW117285   4.890   5.210   6.136
 5462SOL    HW217286   4.800   5.285   6.249
 5463SOL     OW17287   2.186   5.254   0.068
 5463SOL    HW117288   2.087   5.245   0.061
 5463SOL    HW217289   2.227   5.257   7.005
 5464SOL     OW17290   1.972   5.967   4.212
 5464SOL    HW117291   1.995   5.871   4.228
 5464SOL    HW217292   2.047   6.026   4.242
 5465SOL     OW17293   0.836   1.041   4.871
 5465SOL    HW117294   0.932   1.068   4.860
 5465SOL    HW217295   0.793   1.102   4.938
 5466SOL     OW17296   5.170   2.488   4.834
 5466SOL    HW117297   5.196   2.471   4.929
 5466SOL    HW217298   5.084   2.442   4.814
 5467SOL     OW17299   5.745   3.971   3.846
 5467SOL    HW117300   5.697   4.058   3.859
 5467SOL    HW217301   5.777   3.964   3.752
 5468SOL     OW17302   0.444   2.772   1.450
 5468SOL    HW117303   0.497   2.784   1.534
 5468SOL    HW217304   0.496   2.714   1.386
 5469SOL     OW17305   4.449   1.363   3.455
 5469SOL    HW117306   4.494   1.413   3.382
 5469SOL    HW217307   4.498   1.378   3.541
 5470SOL     OW17308   2.899   4.786   4.041
 5470SOL    HW117309   2.845   4.740   3.971
 5470SOL    HW217310   2.988   4.811   4.004
 5471SOL     OW17311   5.480   0.433   3.825
 5471SOL    HW117312   5.486   0.339   3.792
 5471SOL    HW217313   5.560   0.454   3.882
 5472SOL     OW17314   2.596   3.871   6.788
 5472SOL    HW117315   2.649   3.816   6.852
 5472SOL    HW217316   2.624   3.850   6.695
 5473SOL     OW17317   2.704   4.777   2.210
 5473SOL    HW117318   2.749   4.788   2.299
 5473SOL    HW217319   2.753   4.708   2.156
 5474SOL     OW17320   1.064   5.102   1.958
 5474SOL    HW117321   1.094   5.192   1.987
 5474SOL    HW217322   0.990   5.070   2.017
 5475SOL     OW17323   0.720   0.767   5.348
 5475SOL    HW117324   0.750   0.709   5.272
 5475SOL    HW217325   0.724   0.714   5.433
 5476SOL     OW17326   2.371   0.968   5.187
 5476SOL    HW117327   2.336   0.912   5.112
 5476SOL    HW217328   2.452   1.019   5.156
 5477SOL     OW17329   2.149   3.875   3.297
 5477SOL    HW117330   2.050   3.881   3.296
 5477SOL    HW217331   2.188   3.960   3.259
 5478SOL     OW17332   6.659   3.502   5.367
 5478SOL    HW117333   6.621   3.465   5.452
 5478SOL    HW217334   6.608   3.465   5.289
 5479SOL     OW17335   5.135   3.995   4.342
 5479SOL    HW117336   5.135   3.903   4.303
 5479SOL    HW217337   5.054   4.006   4.400
 5480SOL     OW17338   1.653   3.300   5.603
 5480SOL    HW117339   1.630   3.348   5.518
 5480SOL    HW217340   1.740   3.252   5.592
 5481SOL     OW17341   4.482   1.351   0.419
 5481SOL    HW117342   4.419   1.414   0.464
 5481SOL    HW217343   4.432   1.297   0.351
 5482SOL     OW17344   5.178   4.429   2.421
 5482SOL    HW117345   5.097   4.474   2.385
 5482SOL    HW217346   5.253   4.436   2.356
 5483SOL     OW17347   5.874   2.173   0.794
 5483SOL    HW117348   5.865   2.256   0.738
 5483SOL    HW217349   5.938   2.111   0.749
 5484SOL     OW17350   6.244   0.514   5.384
 5484SOL    HW117351   6.282   0.434   5.432
 5484SOL    HW217352   6.172   0.554   5.441
 5485SOL     OW17353   2.694   0.963   3.916
 5485SOL    HW117354   2.597   0.942   3.908
 5485SOL    HW217355   2.721   1.024   3.841
 5486SOL     OW17356   0.199   0.123   3.723
 5486SOL    HW117357   0.258   0.201   3.702
 5486SOL    HW217358   0.119   0.155   3.774
 5487SOL     OW17359   4.546   5.269   1.024
 5487SOL    HW117360   4.629   5.325   1.025
 5487SOL    HW217361   4.500   5.276   1.113
 5488SOL     OW17362   5.267   0.846   6.271
 5488SOL    HW117363   5.333   0.920   6.281
 5488SOL    HW217364   5.181   0.882   6.236
 5489SOL     OW17365   6.665   3.941   2.577
 5489SOL    HW117366   6.763   3.945   2.600
 5489SOL    HW217367   6.630   4.034   2.566
 5490SOL     OW17368   3.020   1.448   6.601
 5490SOL    HW117369   3.035   1.464   6.699
 5490SOL    HW217370   2.927   1.475   6.577
 5491SOL     OW17371   6.946   6.020   2.492
 5491SOL    HW117372   6.909   6.040   2.401
 5491SOL    HW217373   6.904   5.936   2.527
 5492SOL     OW17374   1.130   1.117   4.897
 5492SOL    HW117375   1.224   1.120   4.862
 5492SOL    HW217376   1.091   1.210   4.894
 5493SOL     OW17377   4.283   1.557   0.490
 5493SOL    HW117378   4.364   1.612   0.508
 5493SOL    HW217379   4.206   1.617   0.468
 5494SOL     OW17380   5.169   3.328   2.523
 5494SOL    HW117381   5.219   3.298   2.442
 5494SOL    HW217382   5.073   3.343   2.499
 5495SOL     OW17383   3.553   2.997   3.913
 5495SOL    HW117384   3.493   2.974   3.989
 5495SOL    HW217385   3.512   3.071   3.859
 5496SOL     OW17386   4.636   5.582   2.016
 5496SOL    HW117387   4.708   5.525   1.978
 5496SOL    HW217388   4.630   5.668   1.965
 5497SOL     OW17389   5.404   0.530   7.010
 5497SOL    HW117390   5.330   0.464   7.027
 5497SOL    HW217391   5.482   0.507   0.041
 5498SOL     OW17392   3.953   1.783   4.215
 5498SOL    HW117393   3.917   1.791   4.308
 5498SOL    HW217394   4.016   1.858   4.197
 5499SOL     OW17395   0.326   0.584   5.116
 5499SOL    HW117396   0.293   0.595   5.022
 5499SOL    HW217397   0.392   0.509   5.120
 5500SOL     OW17398   2.036   6.599   0.873
 5500SOL    HW117399   1.976   6.592   0.793
 5500SOL    HW217400   2.126   6.631   0.845
 5501SOL     OW17401   2.972   0.516   2.184
 5501SOL    HW117402   3.056   0.499   2.133
 5501SOL    HW217403   2.898   0.460   2.147
 5502SOL     OW17404   4.777   3.724   0.626
 5502SOL    HW117405   4.774   3.638   0.677
 5502SOL    HW217406   4.836   3.713   0.546
 5503SOL     OW17407   6.953   0.364   3.522
 5503SOL    HW117408   6.951   0.282   3.580
 5503SOL    HW217409   0.006   0.361   3.464
 5504SOL     OW17410   3.154   2.163   4.715
 5504SOL    HW117411   3.190   2.185   4.806
 5504SOL    HW217412   3.056   2.144   4.721
 5505SOL     OW17413   3.271   4.925   0.894
 5505SOL    HW117414   3.319   4.953   0.811
 5505SOL    HW217415   3.185   4.881   0.869
 5506SOL     OW17416   0.537   6.967   5.969
 5506SOL    HW117417   0.613   7.007   6.021
 5506SOL    HW217418   0.460   6.949   6.031
 5507SOL     OW17419   2.856   5.302   5.375
 5507SOL    HW117420   2.886   5.323   5.282
 5507SOL    HW217421   2.928   5.253   5.423
 5508SOL     OW17422   1.433   0.970   5.015
 5508SOL    HW117423   1.360   0.978   5.083
 5508SOL    HW217424   1.507   0.913   5.051
 5509SOL     OW17425   6.360   0.230   6.093
 5509SOL    HW117426   6.432   0.253   6.028
 5509SOL    HW217427   6.400   0.206   6.181
 5510SOL     OW17428   6.992   0.041   5.946
 5510SOL    HW117429   0.034   6.997   5.950
 5510SOL    HW217430   6.921   0.015   5.881
 5511SOL     OW17431   0.479   2.351   1.264
 5511SOL    HW117432   0.537   2.416   1.314
 5511SOL    HW217433   0.383   2.374   1.277
 5512SOL     OW17434   6.128   0.673   0.484
 5512SOL    HW117435   6.168   0.764   0.476
 5512SOL    HW217436   6.123   0.631   0.394
 5513SOL     OW17437   3.091   6.033   4.808
 5513SOL    HW117438   3.067   5.943   4.844
 5513SOL    HW217439   3.162   6.074   4.865
 5514SOL     OW17440   6.178   6.122   3.616
 5514SOL    HW117441   6.176   6.215   3.578
 5514SOL    HW217442   6.194   6.127   3.715
 5515SOL     OW17443   0.081   3.999   3.430
 5515SOL    HW117444   0.034   4.050   3.502
 5515SOL    HW217445   0.029   4.006   3.345
 5516SOL     OW17446   1.101   2.495   0.147
 5516SOL    HW117447   1.026   2.552   0.114
 5516SOL    HW217448   1.068   2.437   0.222
 5517SOL     OW17449   2.909   1.170   2.178
 5517SOL    HW117450   2.908   1.084   2.127
 5517SOL    HW217451   2.985   1.170   2.243
 5518SOL     OW17452   5.581   4.031   5.469
 5518SOL    HW117453   5.522   4.105   5.437
 5518SOL    HW217454   5.589   3.961   5.399
 5519SOL     OW17455   5.472   4.548   2.310
 5519SOL    HW117456   5.485   4.466   2.365
 5519SOL    HW217457   5.421   4.525   2.227
 5520SOL     OW17458   1.490   2.432   1.099
 5520SOL    HW117459   1.567   2.369   1.112
 5520SOL    HW217460   1.455   2.462   1.187
 5521SOL     OW17461   5.093   5.266   6.400
 5521SOL    HW117462   5.133   5.276   6.309
 5521SOL    HW217463   5.029   5.189   6.399
 5522SOL     OW17464   1.792   2.361   2.301
 5522SOL    HW117465   1.696   2.374   2.278
 5522SOL    HW217466   1.801   2.352   2.400
 5523SOL     OW17467   3.457   6.602   1.666
 5523SOL    HW117468   3.421   6.692   1.691
 5523SOL    HW217469   3.428   6.534   1.733
 5524SOL     OW17470   6.055   6.569   5.684
 5524SOL    HW117471   6.044   6.593   5.781
 5524SOL    HW217472   6.001   6.631   5.628
 5525SOL     OW17473   6.570   5.841   3.358
 5525SOL    HW117474   6.632   5.907   3.317
 5525SOL    HW217475   6.536   5.876   3.446
 5526SOL     OW17476   5.114   3.067   4.631
 5526SOL    HW117477   5.155   2.980   4.656
 5526SOL    HW217478   5.134   3.135   4.702
 5527SOL     OW17479   2.155   3.160   0.095
 5527SOL    HW117480   2.197   3.243   0.058
 5527SOL    HW217481   2.159   3.162   0.195
 5528SOL     OW17482   6.526   2.648   2.269
 5528SOL    HW117483   6.429   2.650   2.246
 5528SOL    HW217484   6.580   2.666   2.186
 5529SOL     OW17485   0.947   0.926   3.745
 5529SOL    HW117486   0.849   0.938   3.757
 5529SOL    HW217487   0.990   0.914   3.834
 5530SOL     OW17488   6.531   2.890   6.946
 5530SOL    HW117489   6.546   2.875   0.015
 5530SOL    HW217490   6.479   2.974   6.932
 5531SOL     OW17491   1.797   3.066   0.192
 5531SOL    HW117492   1.698   3.057   0.202
 5531SOL    HW217493   1.839   2.975   0.193
 5532SOL     OW17494   2.581   2.619   1.262
 5532SOL    HW117495   2.662   2.660   1.220
 5532SOL    HW217496   2.509   2.689   1.270
 5533SOL     OW17497   4.032   0.492   1.364
 5533SOL    HW117498   3.984   0.578   1.383
 5533SOL    HW217499   4.003   0.456   1.275
 5534SOL     OW17500   0.743   3.721   5.147
 5534SOL    HW117501   0.713   3.701   5.240
 5534SOL    HW217502   0.716   3.646   5.086
 5535SOL     OW17503   5.312   4.147   3.559
 5535SOL    HW117504   5.365   4.167   3.477
 5535SOL    HW217505   5.303   4.231   3.614
 5536SOL     OW17506   2.601   1.073   4.180
 5536SOL    HW117507   2.547   0.989   4.176
 5536SOL    HW217508   2.610   1.111   4.088
 5537SOL     OW17509   3.835   0.459   4.421
 5537SOL    HW117510   3.852   0.370   4.380
 5537SOL    HW217511   3.911   0.521   4.398
 5538SOL     OW17512   5.396   2.169   2.251
 5538SOL    HW117513   5.409   2.178   2.350
 5538SOL    HW217514   5.299   2.169   2.230
 5539SOL     OW17515   2.229   0.227   6.528
 5539SOL    HW117516   2.137   0.252   6.496
 5539SOL    HW217517   2.275   0.174   6.457
 5540SOL     OW17518   5.315   6.956   5.057
 5540SOL    HW117519   5.228   6.977   5.102
 5540SOL    HW217520   5.312   6.861   5.023
 5541SOL     OW17521   4.651   2.321   6.885
 5541SOL    HW117522   4.750   2.332   6.891
 5541SOL    HW217523   4.608   2.362   6.965
 5542SOL     OW17524   4.878   4.502   6.660
 5542SOL    HW117525   4.839   4.535   6.745
 5542SOL    HW217526   4.946   4.567   6.626
 5543SOL     OW17527   0.586   0.429   6.562
 5543SOL    HW117528   0.679   0.393   6.552
 5543SOL    HW217529   0.525   0.380   6.500
 5544SOL     OW17530   3.739   5.273   0.413
 5544SOL    HW117531   3.673   5.199   0.429
 5544SOL    HW217532   3.828   5.234   0.391
 5545SOL     OW17533   5.809   1.673   2.513
 5545SOL    HW117534   5.809   1.702   2.417
 5545SOL    HW217535   5.732   1.715   2.561
 5546SOL     OW17536   0.363   5.517   4.237
 5546SOL    HW117537   0.387   5.614   4.242
 5546SOL    HW217538   0.430   5.464   4.289
 5547SOL     OW17539   5.266   1.747   5.035
 5547SOL    HW117540   5.283   1.762   4.938
 5547SOL    HW217541   5.167   1.754   5.053
 5548SOL     OW17542   0.258   3.540   5.016
 5548SOL    HW117543   0.300   3.627   5.043
 5548SOL    HW217544   0.193   3.556   4.941
 5549SOL     OW17545   3.646   2.751   0.528
 5549SOL    HW117546   3.622   2.693   0.606
 5549SOL    HW217547   3.628   2.846   0.551
 5550SOL     OW17548   2.638   4.202   1.575
 5550SOL    HW117549   2.562   4.149   1.540
 5550SOL    HW217550   2.721   4.146   1.575
 5551SOL     OW17551   1.496   4.550   2.782
 5551SOL    HW117552   1.589   4.587   2.791
 5551SOL    HW217553   1.445   4.605   2.716
 5552SOL     OW17554   0.966   0.288   0.315
 5552SOL    HW117555   1.056   0.272   0.274
 5552SOL    HW217556   0.908   0.208   0.299
 5553SOL     OW17557   5.293   0.234   6.946
 5553SOL    HW117558   5.305   0.150   6.999
 5553SOL    HW217559   5.347   0.228   6.862
 5554SOL     OW17560   6.860   2.436   1.423
 5554SOL    HW117561   6.909   2.517   1.391
 5554SOL    HW217562   6.764   2.458   1.438
 5555SOL     OW17563   1.465   5.237   2.414
 5555SOL    HW117564   1.479   5.331   2.385
 5555SOL    HW217565   1.394   5.194   2.358
 5556SOL     OW17566   0.118   1.349   4.844
 5556SOL    HW117567   0.136   1.422   4.909
 5556SOL    HW217568   0.084   1.388   4.758
 5557SOL     OW17569   3.781   6.083   2.640
 5557SOL    HW117570   3.755   6.010   2.576
 5557SOL    HW217571   3.827   6.156   2.590
 5558SOL     OW17572   4.762   3.536   6.355
 5558SOL    HW117573   4.736   3.631   6.372
 5558SOL    HW217574   4.683   3.487   6.318
 5559SOL     OW17575   3.733   0.821   2.397
 5559SOL    HW117576   3.803   0.845   2.330
 5559SOL    HW217577   3.701   0.728   2.381
 5560SOL     OW17578   0.256   5.472   3.704
 5560SOL    HW117579   0.178   5.522   3.742
 5560SOL    HW217580   0.332   5.475   3.769
 5561SOL     OW17581   3.528   0.428   3.426
 5561SOL    HW117582   3.613   0.425   3.479
 5561SOL    HW217583   3.473   0.347   3.446
 5562SOL     OW17584   3.949   3.237   0.667
 5562SOL    HW117585   4.021   3.304   0.651
 5562SOL    HW217586   3.991   3.147   0.685
 5563SOL     OW17587   2.332   4.772   2.512
 5563SOL    HW117588   2.284   4.684   2.515
 5563SOL    HW217589   2.350   4.796   2.417
 5564SOL     OW17590   5.063   0.139   6.254
 5564SOL    HW117591   4.997   0.204   6.216
 5564SOL    HW217592   5.015   0.073   6.313
 5565SOL     OW17593   3.871   1.338   5.764
 5565SOL    HW117594   3.846   1.302   5.854
 5565SOL    HW217595   3.956   1.295   5.733
 5566SOL     OW17596   1.338   5.114   5.952
 5566SOL    HW117597   1.324   5.177   5.876
 5566SOL    HW217598   1.353   5.166   6.036
 5567SOL     OW17599   0.559   4.793   0.195
 5567SOL    HW117600   0.607   4.706   0.185
 5567SOL    HW217601   0.499   4.788   0.274
 5568SOL     OW17602   4.846   4.898   1.436
 5568SOL    HW117603   4.767   4.866   1.385
 5568SOL    HW217604   4.830   4.888   1.534
 5569SOL     OW17605   2.436   2.671   2.964
 5569SOL    HW117606   2.454   2.656   3.061
 5569SOL    HW217607   2.520   2.659   2.912
 5570SOL     OW17608   6.734   3.872   1.384
 5570SOL    HW117609   6.648   3.843   1.341
 5570SOL    HW217610   6.763   3.802   1.450
 5571SOL     OW17611   6.660   4.237   0.858
 5571SOL    HW117612   6.596   4.292   0.910
 5571SOL    HW217613   6.646   4.140   0.879
 5572SOL     OW17614   1.732   4.189   5.110
 5572SOL    HW117615   1.654   4.145   5.155
 5572SOL    HW217616   1.706   4.217   5.018
 5573SOL     OW17617   3.337   5.485   4.009
 5573SOL    HW117618   3.421   5.433   3.996
 5573SOL    HW217619   3.354   5.582   3.987
 5574SOL     OW17620   0.759   1.820   5.785
 5574SOL    HW117621   0.771   1.802   5.882
 5574SOL    HW217622   0.713   1.742   5.742
 5575SOL     OW17623   0.118   0.045   1.688
 5575SOL    HW117624   0.136   0.107   1.612
 5575SOL    HW217625   0.062   0.091   1.757
 5576SOL     OW17626   1.585   5.034   3.546
 5576SOL    HW117627   1.618   4.993   3.631
 5576SOL    HW217628   1.654   5.096   3.510
 5577SOL     OW17629   2.293   2.667   6.252
 5577SOL    HW117630   2.287   2.676   6.351
 5577SOL    HW217631   2.348   2.742   6.214
 5578SOL     OW17632   3.786   4.039   4.131
 5578SOL    HW117633   3.854   3.992   4.189
 5578SOL    HW217634   3.818   4.039   4.036
 5579SOL     OW17635   6.292   3.132   1.790
 5579SOL    HW117636   6.374   3.107   1.739
 5579SOL    HW217637   6.292   3.084   1.878
 5580SOL     OW17638   5.503   1.925   5.444
 5580SOL    HW117639   5.593   1.949   5.408
 5580SOL    HW217640   5.474   1.994   5.511
 5581SOL     OW17641   1.065   1.968   6.256
 5581SOL    HW117642   1.118   2.049   6.229
 5581SOL    HW217643   1.120   1.886   6.244
 5582SOL     OW17644   2.932   2.435   6.054
 5582SOL    HW117645   2.993   2.512   6.035
 5582SOL    HW217646   2.856   2.467   6.111
 5583SOL     OW17647   5.769   6.909   1.026
 5583SOL    HW117648   5.862   6.928   1.059
 5583SOL    HW217649   5.716   6.993   1.024
 5584SOL     OW17650   2.099   3.211   4.564
 5584SOL    HW117651   2.144   3.122   4.573
 5584SOL    HW217652   2.110   3.263   4.648
 5585SOL     OW17653   5.457   4.900   1.402
 5585SOL    HW117654   5.549   4.860   1.396
 5585SOL    HW217655   5.465   4.996   1.431
 5586SOL     OW17656   0.769   5.200   0.921
 5586SOL    HW117657   0.833   5.256   0.973
 5586SOL    HW217658   0.772   5.226   0.824
 5587SOL     OW17659   6.284   0.803   5.804
 5587SOL    HW117660   6.225   0.877   5.773
 5587SOL    HW217661   6.366   0.800   5.747
 5588SOL     OW17662   3.176   6.568   0.841
 5588SOL    HW117663   3.131   6.552   0.929
 5588SOL    HW217664   3.114   6.541   0.767
 5589SOL     OW17665   6.754   4.610   6.035
 5589SOL    HW117666   6.799   4.684   5.985
 5589SOL    HW217667   6.668   4.644   6.074
 5590SOL     OW17668   6.142   5.553   3.278
 5590SOL    HW117669   6.194   5.568   3.194
 5590SOL    HW217670   6.050   5.521   3.255
 5591SOL     OW17671   5.194   1.256   1.757
 5591SOL    HW117672   5.277   1.277   1.705
 5591SOL    HW217673   5.206   1.283   1.852
 5592SOL     OW17674   0.186   4.755   3.425
 5592SOL    HW117675   0.281   4.752   3.393
 5592SOL    HW217676   0.131   4.693   3.369
 5593SOL     OW17677   1.061   4.074   0.650
 5593SOL    HW117678   0.989   4.042   0.588
 5593SOL    HW217679   1.057   4.174   0.657
 5594SOL     OW17680   5.930   1.659   5.931
 5594SOL    HW117681   5.862   1.598   5.972
 5594SOL    HW217682   5.995   1.605   5.877
 5595SOL     OW17683   0.619   2.380   0.506
 5595SOL    HW117684   0.649   2.328   0.586
 5595SOL    HW217685   0.548   2.328   0.458
 5596SOL     OW17686   3.026   6.069   3.462
 5596SOL    HW117687   3.000   6.043   3.556
 5596SOL    HW217688   3.023   6.168   3.453
 5597SOL     OW17689   4.905   3.197   1.879
 5597SOL    HW117690   4.990   3.146   1.862
 5597SOL    HW217691   4.845   3.142   1.937
 5598SOL     OW17692   4.567   0.951   4.553
 5598SOL    HW117693   4.531   0.900   4.631
 5598SOL    HW217694   4.610   0.888   4.489
 5599SOL     OW17695   0.871   1.428   3.536
 5599SOL    HW117696   0.787   1.393   3.578
 5599SOL    HW217697   0.847   1.504   3.474
 5600SOL     OW17698   2.381   2.745   5.520
 5600SOL    HW117699   2.300   2.713   5.472
 5600SOL    HW217700   2.459   2.744   5.458
 5601SOL     OW17701   2.739   0.964   6.232
 5601SOL    HW117702   2.667   1.009   6.286
 5601SOL    HW217703   2.699   0.928   6.147
 5602SOL     OW17704   1.755   0.814   6.906
 5602SOL    HW117705   1.844   0.772   6.925
 5602SOL    HW217706   1.728   0.871   6.983
 5603SOL     OW17707   6.275   4.352   5.638
 5603SOL    HW117708   6.209   4.424   5.657
 5603SOL    HW217709   6.300   4.307   5.723
 5604SOL     OW17710   5.705   1.456   5.885
 5604SOL    HW117711   5.712   1.449   5.984
 5604SOL    HW217712   5.616   1.494   5.860
 5605SOL     OW17713   0.330   1.836   6.568
 5605SOL    HW117714   0.380   1.888   6.499
 5605SOL    HW217715   0.348   1.738   6.556
 5606SOL     OW17716   5.642   6.857   3.136
 5606SOL    HW117717   5.661   6.879   3.041
 5606SOL    HW217718   5.545   6.871   3.155
 5607SOL     OW17719   5.544   0.606   1.063
 5607SOL    HW117720   5.522   0.558   0.978
 5607SOL    HW217721   5.632   0.574   1.098
 5608SOL     OW17722   4.099   6.084   5.314
 5608SOL    HW117723   4.032   6.129   5.255
 5608SOL    HW217724   4.139   6.152   5.376
 5609SOL     OW17725   0.991   5.507   5.822
 5609SOL    HW117726   0.983   5.408   5.835
 5609SOL    HW217727   0.967   5.530   5.727
 5610SOL     OW17728   4.532   0.293   6.399
 5610SOL    HW117729   4.628   0.271   6.385
 5610SOL    HW217730   4.484   0.293   6.311
 5611SOL     OW17731   2.321   4.272   3.905
 5611SOL    HW117732   2.310   4.369   3.884
 5611SOL    HW217733   2.268   4.249   3.987
 5612SOL     OW17734   3.425   6.806   4.695
 5612SOL    HW117735   3.366   6.817   4.775
 5612SOL    HW217736   3.419   6.888   4.638
 5613SOL     OW17737   3.394   5.503   1.530
 5613SOL    HW117738   3.311   5.549   1.497
 5613SOL    HW217739   3.416   5.536   1.622
 5614SOL     OW17740   5.421   1.731   4.402
 5614SOL    HW117741   5.387   1.706   4.311
 5614SOL    HW217742   5.429   1.830   4.407
 5615SOL     OW17743   1.512   1.225   1.995
 5615SOL    HW117744   1.552   1.213   1.904
 5615SOL    HW217745   1.427   1.277   1.987
 5616SOL     OW17746   2.095   6.911   4.861
 5616SOL    HW117747   2.184   6.887   4.898
 5616SOL    HW217748   2.029   6.838   4.881
 5617SOL     OW17749   0.563   0.925   5.544
 5617SOL    HW117750   0.493   0.879   5.598
 5617SOL    HW217751   0.623   0.856   5.503
 5618SOL     OW17752   6.058   5.041   2.751
 5618SOL    HW117753   5.989   5.051   2.823
 5618SOL    HW217754   6.018   4.994   2.673
 5619SOL     OW17755   2.170   3.952   5.229
 5619SOL    HW117756   2.270   3.961   5.228
 5619SOL    HW217757   2.129   4.041   5.208
 5620SOL     OW17758   4.732   1.545   0.044
 5620SOL    HW117759   4.802   1.502   0.102
 5620SOL    HW217760   4.776   1.602   7.003
 5621SOL     OW17761   2.676   1.909   6.518
 5621SOL    HW117762   2.587   1.870   6.495
 5621SOL    HW217763   2.716   1.950   6.436
 5622SOL     OW17764   5.513   0.752   5.188
 5622SOL    HW117765   5.536   0.658   5.213
 5622SOL    HW217766   5.439   0.785   5.247
 5623SOL     OW17767   0.135   6.414   7.019
 5623SOL    HW117768   0.221   6.465   7.024
 5623SOL    HW217769   0.094   6.408   0.082
 5624SOL     OW17770   0.389   4.052   1.860
 5624SOL    HW117771   0.447   4.046   1.941
 5624SOL    HW217772   0.359   3.960   1.833
 5625SOL     OW17773   6.417   2.129   5.529
 5625SOL    HW117774   6.383   2.050   5.580
 5625SOL    HW217775   6.346   2.165   5.469
 5626SOL     OW17776   5.449   6.763   4.317
 5626SOL    HW117777   5.417   6.678   4.359
 5626SOL    HW217778   5.422   6.764   4.221
 5627SOL     OW17779   0.787   0.006   1.119
 5627SOL    HW117780   0.882   0.009   1.088
 5627SOL    HW217781   0.782   0.040   1.213
 5628SOL     OW17782   1.732   1.538   4.218
 5628SOL    HW117783   1.748   1.462   4.281
 5628SOL    HW217784   1.704   1.619   4.270
 5629SOL     OW17785   3.458   2.908   3.650
 5629SOL    HW117786   3.497   2.936   3.738
 5629SOL    HW217787   3.500   2.822   3.622
 5630SOL     OW17788   6.462   4.141   1.091
 5630SOL    HW117789   6.401   4.116   1.166
 5630SOL    HW217790   6.483   4.238   1.097
 5631SOL     OW17791   5.679   1.432   6.150
 5631SOL    HW117792   5.584   1.451   6.176
 5631SOL    HW217793   5.741   1.475   6.217
 5632SOL     OW17794   2.853   2.070   0.693
 5632SOL    HW117795   2.853   2.156   0.744
 5632SOL    HW217796   2.763   2.029   0.698
 5633SOL     OW17797   0.137   3.010   5.554
 5633SOL    HW117798   0.174   2.977   5.641
 5633SOL    HW217799   0.039   2.990   5.550
 5634SOL     OW17800   5.051   6.318   4.384
 5634SOL    HW117801   4.994   6.237   4.395
 5634SOL    HW217802   5.079   6.326   4.288
 5635SOL     OW17803   3.359   1.751   5.770
 5635SOL    HW117804   3.367   1.753   5.670
 5635SOL    HW217805   3.440   1.793   5.811
 5636SOL     OW17806   4.245   6.473   4.469
 5636SOL    HW117807   4.292   6.464   4.557
 5636SOL    HW217808   4.201   6.386   4.447
 5637SOL     OW17809   6.206   0.179   3.451
 5637SOL    HW117810   6.124   0.121   3.453
 5637SOL    HW217811   6.262   0.154   3.372
 5638SOL     OW17812   6.824   3.461   0.192
 5638SOL    HW117813   6.846   3.547   0.239
 5638SOL    HW217814   6.761   3.408   0.248
 5639SOL     OW17815   4.276   0.225   6.882
 5639SOL    HW117816   4.288   0.314   6.838
 5639SOL    HW217817   4.294   0.234   6.980
 5640SOL     OW17818   1.511   0.364   3.200
 5640SOL    HW117819   1.581   0.295   3.182
 5640SOL    HW217820   1.553   0.446   3.237
 5641SOL     OW17821   6.706   5.310   4.399
 5641SOL    HW117822   6.730   5.214   4.411
 5641SOL    HW217823   6.624   5.317   4.341
 5642SOL     OW17824   1.626   1.524   7.012
 5642SOL    HW117825   1.639   1.585   6.935
 5642SOL    HW217826   1.559   1.454   6.988
 5643SOL     OW17827   5.269   1.986   6.269
 5643SOL    HW117828   5.256   1.948   6.178
 5643SOL    HW217829   5.304   2.079   6.261
 5644SOL     OW17830   2.521   1.157   6.046
 5644SOL    HW117831   2.589   1.084   6.044
 5644SOL    HW217832   2.568   1.246   6.047
 5645SOL     OW17833   5.620   3.816   4.652
 5645SOL    HW117834   5.670   3.871   4.585
 5645SOL    HW217835   5.523   3.818   4.630
 5646SOL     OW17836   1.071   3.770   2.724
 5646SOL    HW117837   1.021   3.696   2.770
 5646SOL    HW217838   1.049   3.770   2.627
 5647SOL     OW17839   5.415   5.895   2.684
 5647SOL    HW117840   5.438   5.821   2.620
 5647SOL    HW217841   5.459   5.877   2.772
 5648SOL     OW17842   4.860   5.958   3.117
 5648SOL    HW117843   4.760   5.954   3.122
 5648SOL    HW217844   4.900   5.886   3.175
 5649SOL     OW17845   0.812   7.024   4.696
 5649SOL    HW117846   0.771   6.966   4.766
 5649SOL    HW217847   0.867   6.967   4.634
 5650SOL     OW17848   0.012   3.921   6.043
 5650SOL    HW117849   0.104   3.882   6.048
 5650SOL    HW217850   0.018   4.020   6.038
 5651SOL     OW17851   2.542   1.036   0.617
 5651SOL    HW117852   2.613   1.096   0.653
 5651SOL    HW217853   2.455   1.058   0.661
 5652SOL     OW17854   0.493   5.988   3.114
 5652SOL    HW117855   0.482   5.929   3.194
 5652SOL    HW217856   0.472   5.937   3.031
 5653SOL     OW17857   0.038   0.420   3.048
 5653SOL    HW117858   0.018   0.460   3.137
 5653SOL    HW217859   0.128   0.377   3.051
 5654SOL     OW17860   3.269   5.985   5.465
 5654SOL    HW117861   3.313   6.058   5.518
 5654SOL    HW217862   3.327   5.904   5.466
 5655SOL     OW17863   5.162   2.898   5.034
 5655SOL    HW117864   5.080   2.953   5.014
 5655SOL    HW217865   5.174   2.829   4.963
 5656SOL     OW17866   0.172   3.698   0.531
 5656SOL    HW117867   0.124   3.676   0.616
 5656SOL    HW217868   0.127   3.775   0.486
 5657SOL     OW17869   5.284   5.959   4.837
 5657SOL    HW117870   5.376   5.973   4.799
 5657SOL    HW217871   5.287   5.886   4.905
 5658SOL     OW17872   2.361   2.961   6.179
 5658SOL    HW117873   2.395   2.882   6.126
 5658SOL    HW217874   2.391   2.953   6.274
 5659SOL     OW17875   2.560   4.049   0.141
 5659SOL    HW117876   2.475   4.017   0.185
 5659SOL    HW217877   2.609   3.971   0.104
 5660SOL     OW17878   3.992   0.138   4.823
 5660SOL    HW117879   4.045   0.098   4.748
 5660SOL    HW217880   4.054   0.174   4.892
 5661SOL     OW17881   1.055   5.623   6.096
 5661SOL    HW117882   1.093   5.612   6.004
 5661SOL    HW217883   0.970   5.570   6.104
 5662SOL     OW17884   3.072   6.453   0.577
 5662SOL    HW117885   2.996   6.389   0.592
 5662SOL    HW217886   3.155   6.414   0.616
 5663SOL     OW17887   1.929   2.768   6.232
 5663SOL    HW117888   1.858   2.826   6.191
 5663SOL    HW217889   2.007   2.761   6.170
 5664SOL     OW17890   4.781   5.109   4.194
 5664SOL    HW117891   4.788   5.044   4.269
 5664SOL    HW217892   4.865   5.162   4.189
 5665SOL     OW17893   1.809   1.622   0.830
 5665SOL    HW117894   1.777   1.708   0.869
 5665SOL    HW217895   1.857   1.640   0.745
 5666SOL     OW17896   5.865   2.890   4.910
 5666SOL    HW117897   5.812   2.875   4.827
 5666SOL    HW217898   5.816   2.853   4.989
 5667SOL     OW17899   2.958   4.797   4.333
 5667SOL    HW117900   2.980   4.745   4.250
 5667SOL    HW217901   2.887   4.749   4.384
 5668SOL     OW17902   4.708   4.299   3.813
 5668SOL    HW117903   4.772   4.367   3.850
 5668SOL    HW217904   4.759   4.221   3.776
 5669SOL     OW17905   5.620   4.189   5.918
 5669SOL    HW117906   5.659   4.261   5.977
 5669SOL    HW217907   5.544   4.226   5.866
 5670SOL     OW17908   1.306   2.704   3.954
 5670SOL    HW117909   1.320   2.803   3.956
 5670SOL    HW217910   1.333   2.666   4.043
 5671SOL     OW17911   6.704   5.420   3.030
 5671SOL    HW117912   6.677   5.482   3.105
 5671SOL    HW217913   6.624   5.395   2.977
 5672SOL     OW17914   5.185   3.449   4.690
 5672SOL    HW117915   5.091   3.454   4.723
 5672SOL    HW217916   5.186   3.457   4.590
 5673SOL     OW17917   0.266   2.457   0.284
 5673SOL    HW117918   0.242   2.402   0.364
 5673SOL    HW217919   0.196   2.444   0.213
 5674SOL     OW17920   2.632   5.155   5.265
 5674SOL    HW117921   2.720   5.181   5.305
 5674SOL    HW217922   2.578   5.237   5.247
 5675SOL     OW17923   3.048   1.901   0.798
 5675SOL    HW117924   3.039   1.904   0.898
 5675SOL    HW217925   3.036   1.994   0.761
 5676SOL     OW17926   3.626   1.434   1.787
 5676SOL    HW117927   3.692   1.443   1.712
 5676SOL    HW217928   3.589   1.341   1.788
 5677SOL     OW17929   0.597   1.410   6.049
 5677SOL    HW117930   0.560   1.499   6.022
 5677SOL    HW217931   0.574   1.342   5.980
 5678SOL     OW17932   3.828   2.077   2.248
 5678SOL    HW117933   3.744   2.078   2.301
 5678SOL    HW217934   3.817   2.132   2.165
 5679SOL     OW17935   7.007   3.815   5.318
 5679SOL    HW117936   0.076   3.810   5.344
 5679SOL    HW217937   6.980   3.729   5.274
 5680SOL     OW17938   0.512   5.661   5.047
 5680SOL    HW117939   0.486   5.672   4.951
 5680SOL    HW217940   0.582   5.590   5.055
 5681SOL     OW17941   1.395   3.480   3.446
 5681SOL    HW117942   1.442   3.448   3.364
 5681SOL    HW217943   1.355   3.570   3.429
 5682SOL     OW17944   1.900   4.608   1.107
 5682SOL    HW117945   1.834   4.637   1.177
 5682SOL    HW217946   1.991   4.641   1.131
 5683SOL     OW17947   6.993   0.263   6.126
 5683SOL    HW117948   6.959   0.176   6.090
 5683SOL    HW217949   6.976   0.336   6.059
 5684SOL     OW17950   2.218   2.994   4.652
 5684SOL    HW117951   2.199   2.971   4.747
 5684SOL    HW217952   2.277   2.925   4.612
 5685SOL     OW17953   2.367   1.518   2.289
 5685SOL    HW117954   2.355   1.615   2.311
 5685SOL    HW217955   2.435   1.509   2.216
 5686SOL     OW17956   5.256   5.774   5.671
 5686SOL    HW117957   5.169   5.763   5.719
 5686SOL    HW217958   5.301   5.857   5.702
 5687SOL     OW17959   2.012   6.871   5.990
 5687SOL    HW117960   2.091   6.930   6.009
 5687SOL    HW217961   2.039   6.797   5.930
 5688SOL     OW17962   1.759   1.781   3.324
 5688SOL    HW117963   1.782   1.705   3.385
 5688SOL    HW217964   1.706   1.849   3.374
 5689SOL     OW17965   0.204   2.411   1.236
 5689SOL    HW117966   0.181   2.455   1.149
 5689SOL    HW217967   0.146   2.330   1.247
 5690SOL     OW17968   3.323   5.290   0.209
 5690SOL    HW117969   3.228   5.314   0.230
 5690SOL    HW217970   3.380   5.310   0.288
 5691SOL     OW17971   4.617   2.720   3.768
 5691SOL    HW117972   4.643   2.746   3.861
 5691SOL    HW217973   4.536   2.771   3.740
 5692SOL     OW17974   6.159   5.092   1.481
 5692SOL    HW117975   6.190   5.010   1.434
 5692SOL    HW217976   6.073   5.123   1.442
 5693SOL     OW17977   3.739   0.343   2.130
 5693SOL    HW117978   3.751   0.394   2.044
 5693SOL    HW217979   3.825   0.300   2.155
 5694SOL     OW17980   0.549   0.294   1.399
 5694SOL    HW117981   0.530   0.300   1.301
 5694SOL    HW217982   0.499   0.216   1.438
 5695SOL     OW17983   2.182   1.189   2.434
 5695SOL    HW117984   2.255   1.186   2.502
 5695SOL    HW217985   2.176   1.281   2.396
 5696SOL     OW17986   0.518   6.705   4.115
 5696SOL    HW117987   0.476   6.737   4.030
 5696SOL    HW217988   0.586   6.634   4.095
 5697SOL     OW17989   6.303   1.824   0.046
 5697SOL    HW117990   6.251   1.883   7.012
 5697SOL    HW217991   6.240   1.781   0.111
 5698SOL     OW17992   3.558   2.147   4.106
 5698SOL    HW117993   3.641   2.109   4.148
 5698SOL    HW217994   3.571   2.155   4.007
 5699SOL     OW17995   1.977   3.181   2.807
 5699SOL    HW117996   1.998   3.213   2.715
 5699SOL    HW217997   1.935   3.256   2.859
 5700SOL     OW17998   6.154   0.297   2.741
 5700SOL    HW117999   6.222   0.302   2.813
 5700SOL    HW218000   6.078   0.360   2.761
 5701SOL     OW18001   1.202   0.773   0.723
 5701SOL    HW118002   1.124   0.808   0.774
 5701SOL    HW218003   1.225   0.836   0.649
 5702SOL     OW18004   1.523   6.324   4.980
 5702SOL    HW118005   1.520   6.384   4.900
 5702SOL    HW218006   1.618   6.311   5.007
 5703SOL     OW18007   0.502   2.821   6.032
 5703SOL    HW118008   0.475   2.768   5.951
 5703SOL    HW218009   0.593   2.861   6.016
 5704SOL     OW18010   3.929   5.603   4.254
 5704SOL    HW118011   3.989   5.655   4.315
 5704SOL    HW218012   3.984   5.562   4.181
 5705SOL     OW18013   5.726   0.417   5.396
 5705SOL    HW118014   5.806   0.377   5.442
 5705SOL    HW218015   5.752   0.503   5.352
 5706SOL     OW18016   5.345   2.135   1.081
 5706SOL    HW118017   5.271   2.164   1.141
 5706SOL    HW218018   5.375   2.213   1.025
 5707SOL     OW18019   6.051   5.560   1.214
 5707SOL    HW118020   6.016   5.653   1.226
 5707SOL    HW218021   5.976   5.498   1.192
 5708SOL     OW18022   5.505   6.194   2.033
 5708SOL    HW118023   5.413   6.164   2.005
 5708SOL    HW218024   5.518   6.174   2.130
 5709SOL     OW18025   0.236   2.712   2.280
 5709SOL    HW118026   0.230   2.737   2.184
 5709SOL    HW218027   0.184   2.628   2.296
 5710SOL     OW18028   4.902   1.413   0.827
 5710SOL    HW118029   4.869   1.465   0.905
 5710SOL    HW218030   4.939   1.475   0.758
 5711SOL     OW18031   4.688   2.153   2.165
 5711SOL    HW118032   4.618   2.159   2.237
 5711SOL    HW218033   4.773   2.119   2.205
 5712SOL     OW18034   6.293   5.899   6.985
 5712SOL    HW118035   6.309   5.926   0.052
 5712SOL    HW218036   6.197   5.873   6.973
 5713SOL     OW18037   1.245   1.510   0.714
 5713SOL    HW118038   1.219   1.548   0.803
 5713SOL    HW218039   1.190   1.429   0.694
 5714SOL     OW18040   6.017   0.237   0.868
 5714SOL    HW118041   6.014   0.335   0.847
 5714SOL    HW218042   6.009   0.184   0.783
 5715SOL     OW18043   0.030   6.666   1.104
 5715SOL    HW118044   0.048   6.740   1.169
 5715SOL    HW218045   0.054   6.696   1.012
 5716SOL     OW18046   0.660   4.699   5.232
 5716SOL    HW118047   0.741   4.748   5.266
 5716SOL    HW218048   0.585   4.764   5.219
 5717SOL     OW18049   0.594   5.196   3.782
 5717SOL    HW118050   0.667   5.261   3.802
 5717SOL    HW218051   0.532   5.235   3.714
 5718SOL     OW18052   0.864   3.998   0.162
 5718SOL    HW118053   0.859   4.067   0.089
 5718SOL    HW218054   0.918   3.920   0.132
 5719SOL     OW18055   2.789   3.248   0.422
 5719SOL    HW118056   2.762   3.310   0.495
 5719SOL    HW218057   2.879   3.274   0.388
 5720SOL     OW18058   3.042   5.090   6.351
 5720SOL    HW118059   3.064   5.147   6.430
 5720SOL    HW218060   2.948   5.058   6.357
 5721SOL     OW18061   1.131   3.056   0.591
 5721SOL    HW118062   1.154   3.013   0.503
 5721SOL    HW218063   1.130   3.155   0.579
 5722SOL     OW18064   1.679   0.474   6.044
 5722SOL    HW118065   1.610   0.475   5.971
 5722SOL    HW218066   1.693   0.567   6.078
 5723SOL     OW18067   4.203   3.123   0.455
 5723SOL    HW118068   4.145   3.180   0.398
 5723SOL    HW218069   4.148   3.052   0.499
 5724SOL     OW18070   5.871   2.163   5.699
 5724SOL    HW118071   5.850   2.252   5.738
 5724SOL    HW218072   5.789   2.106   5.698
 5725SOL     OW18073   0.086   4.355   4.975
 5725SOL    HW118074   0.043   4.281   5.028
 5725SOL    HW218075   0.078   4.335   4.878
 5726SOL     OW18076   4.891   4.497   1.999
 5726SOL    HW118077   4.798   4.479   1.966
 5726SOL    HW218078   4.899   4.593   2.027
 5727SOL     OW18079   0.934   2.964   5.295
 5727SOL    HW118080   0.978   3.053   5.293
 5727SOL    HW218081   0.964   2.913   5.376
 5728SOL     OW18082   2.982   6.800   5.526
 5728SOL    HW118083   3.009   6.743   5.603
 5728SOL    HW218084   3.064   6.839   5.483
 5729SOL     OW18085   2.514   1.964   4.817
 5729SOL    HW118086   2.521   2.040   4.882
 5729SOL    HW218087   2.591   1.902   4.831
 5730SOL     OW18088   6.393   4.280   5.057
 5730SOL    HW118089   6.376   4.378   5.062
 5730SOL    HW218090   6.460   4.254   5.127
 5731SOL     OW18091   1.059   6.264   2.704
 5731SOL    HW118092   1.147   6.303   2.676
 5731SOL    HW218093   0.985   6.310   2.655
 5732SOL     OW18094   5.664   0.368   3.471
 5732SOL    HW118095   5.602   0.322   3.535
 5732SOL    HW218096   5.624   0.366   3.379
 5733SOL     OW18097   2.591   1.070   5.065
 5733SOL    HW118098   2.619   0.994   5.007
 5733SOL    HW218099   2.598   1.156   5.014
 5734SOL     OW18100   1.744   6.555   3.656
 5734SOL    HW118101   1.803   6.494   3.603
 5734SOL    HW218102   1.653   6.514   3.663
 5735SOL     OW18103   3.097   0.664   1.422
 5735SOL    HW118104   3.128   0.656   1.517
 5735SOL    HW218105   3.008   0.710   1.419
 5736SOL     OW18106   1.775   5.040   0.790
 5736SOL    HW118107   1.700   5.105   0.796
 5736SOL    HW218108   1.826   5.040   0.876
 5737SOL     OW18109   5.877   3.804   0.073
 5737SOL    HW118110   5.856   3.827   7.006
 5737SOL    HW218111   5.912   3.710   0.077
 5738SOL     OW18112   0.544   5.119   4.820
 5738SOL    HW118113   0.612   5.064   4.869
 5738SOL    HW218114   0.568   5.216   4.826
 5739SOL     OW18115   0.683   2.945   0.804
 5739SOL    HW118116   0.744   2.968   0.880
 5739SOL    HW218117   0.735   2.897   0.733
 5740SOL     OW18118   4.254   4.813   6.711
 5740SOL    HW118119   4.337   4.775   6.751
 5740SOL    HW218120   4.254   4.912   6.723
 5741SOL     OW18121   0.128   3.188   2.061
 5741SOL    HW118122   0.194   3.126   2.019
 5741SOL    HW218123   0.150   3.282   2.035
 5742SOL     OW18124   0.457   5.422   3.895
 5742SOL    HW118125   0.511   5.488   3.947
 5742SOL    HW218126   0.499   5.331   3.903
 5743SOL     OW18127   1.467   6.440   5.743
 5743SOL    HW118128   1.487   6.344   5.761
 5743SOL    HW218129   1.391   6.447   5.678
 5744SOL     OW18130   6.373   0.615   1.841
 5744SOL    HW118131   6.427   0.552   1.897
 5744SOL    HW218132   6.293   0.645   1.894
 5745SOL     OW18133   0.232   3.536   3.133
 5745SOL    HW118134   0.312   3.514   3.188
 5745SOL    HW218135   0.169   3.458   3.133
 5746SOL     OW18136   6.328   4.409   6.705
 5746SOL    HW118137   6.388   4.330   6.699
 5746SOL    HW218138   6.268   4.411   6.625
 5747SOL     OW18139   0.530   5.952   3.913
 5747SOL    HW118140   0.604   5.908   3.861
 5747SOL    HW218141   0.550   6.050   3.921
 5748SOL     OW18142   1.735   0.289   3.791
 5748SOL    HW118143   1.804   0.357   3.768
 5748SOL    HW218144   1.648   0.334   3.809
 5749SOL     OW18145   1.026   1.030   2.993
 5749SOL    HW118146   0.981   0.943   2.971
 5749SOL    HW218147   1.063   1.026   3.086
 5750SOL     OW18148   5.745   6.532   2.332
 5750SOL    HW118149   5.769   6.435   2.335
 5750SOL    HW218150   5.807   6.580   2.270
 5751SOL     OW18151   0.442   2.303   6.075
 5751SOL    HW118152   0.345   2.325   6.087
 5751SOL    HW218153   0.486   2.301   6.165
 5752SOL     OW18154   1.194   1.561   6.876
 5752SOL    HW118155   1.232   1.477   6.914
 5752SOL    HW218156   1.268   1.627   6.860
 5753SOL     OW18157   4.699   1.825   0.457
 5753SOL    HW118158   4.675   1.770   0.378
 5753SOL    HW218159   4.772   1.889   0.432
 5754SOL     OW18160   6.203   5.971   0.878
 5754SOL    HW118161   6.289   6.001   0.837
 5754SOL    HW218162   6.135   6.043   0.871
 5755SOL     OW18163   3.337   3.598   1.546
 5755SOL    HW118164   3.376   3.514   1.508
 5755SOL    HW218165   3.244   3.609   1.511
 5756SOL     OW18166   6.869   6.456   4.189
 5756SOL    HW118167   6.900   6.480   4.097
 5756SOL    HW218168   6.817   6.371   4.185
 5757SOL     OW18169   6.636   6.456   2.269
 5757SOL    HW118170   6.584   6.540   2.283
 5757SOL    HW218171   6.728   6.479   2.237
 5758SOL     OW18172   2.740   1.290   5.572
 5758SOL    HW118173   2.644   1.317   5.573
 5758SOL    HW218174   2.761   1.244   5.486
 5759SOL     OW18175   0.970   1.114   6.229
 5759SOL    HW118176   0.878   1.143   6.202
 5759SOL    HW218177   0.993   1.029   6.181
 5760SOL     OW18178   6.817   5.830   0.941
 5760SOL    HW118179   6.902   5.847   0.992
 5760SOL    HW218180   6.765   5.915   0.935
 5761SOL     OW18181   4.373   0.713   4.246
 5761SOL    HW118182   4.464   0.692   4.210
 5761SOL    HW218183   4.307   0.709   4.171
 5762SOL     OW18184   5.184   6.135   1.541
 5762SOL    HW118185   5.147   6.207   1.600
 5762SOL    HW218186   5.276   6.160   1.512
 5763SOL     OW18187   3.051   0.657   0.824
 5763SOL    HW118188   3.054   0.619   0.732
 5763SOL    HW218189   2.965   0.707   0.836
 5764SOL     OW18190   3.781   3.134   6.054
 5764SOL    HW118191   3.719   3.175   6.122
 5764SOL    HW218192   3.730   3.073   5.995
 5765SOL     OW18193   6.394   5.555   6.740
 5765SOL    HW118194   6.299   5.526   6.739
 5765SOL    HW218195   6.400   5.655   6.740
 5766SOL     OW18196   2.874   1.219   3.273
 5766SOL    HW118197   2.836   1.164   3.347
 5766SOL    HW218198   2.956   1.175   3.237
 5767SOL     OW18199   5.364   6.577   0.187
 5767SOL    HW118200   5.296   6.645   0.161
 5767SOL    HW218201   5.364   6.502   0.121
 5768SOL     OW18202   6.685   6.792   2.407
 5768SOL    HW118203   6.709   6.886   2.433
 5768SOL    HW218204   6.748   6.759   2.337
 5769SOL     OW18205   0.975   4.449   3.259
 5769SOL    HW118206   0.895   4.439   3.317
 5769SOL    HW218207   1.058   4.448   3.315
 5770SOL     OW18208   5.059   1.959   1.882
 5770SOL    HW118209   5.062   1.968   1.981
 5770SOL    HW218210   5.013   2.038   1.842
 5771SOL     OW18211   1.072   0.673   1.705
 5771SOL    HW118212   1.088   0.583   1.666
 5771SOL    HW218213   1.148   0.734   1.683
 5772SOL     OW18214   6.570   5.173   5.611
 5772SOL    HW118215   6.586   5.195   5.707
 5772SOL    HW218216   6.473   5.184   5.590
 5773SOL     OW18217   5.539   5.432   4.563
 5773SOL    HW118218   5.621   5.378   4.581
 5773SOL    HW218219   5.498   5.460   4.650
 5774SOL     OW18220   2.047   5.327   2.229
 5774SOL    HW118221   2.035   5.259   2.157
 5774SOL    HW218222   2.117   5.295   2.293
 5775SOL     OW18223   0.843   0.692   0.629
 5775SOL    HW118224   0.744   0.710   0.623
 5775SOL    HW218225   0.866   0.613   0.574
 5776SOL     OW18226   5.089   1.048   5.940
 5776SOL    HW118227   5.073   1.044   6.039
 5776SOL    HW218228   5.184   1.076   5.923
 5777SOL     OW18229   5.566   5.941   4.732
 5777SOL    HW118230   5.608   6.031   4.720
 5777SOL    HW218231   5.637   5.874   4.754
 5778SOL     OW18232   2.809   7.007   3.971
 5778SOL    HW118233   2.761   7.009   4.059
 5778SOL    HW218234   2.840   0.071   3.948
 5779SOL     OW18235   4.170   0.300   1.723
 5779SOL    HW118236   4.125   0.265   1.641
 5779SOL    HW218237   4.267   0.317   1.703
 5780SOL     OW18238   6.221   4.374   0.308
 5780SOL    HW118239   6.218   4.274   0.306
 5780SOL    HW218240   6.315   4.404   0.289
 5781SOL     OW18241   3.857   4.236   5.135
 5781SOL    HW118242   3.789   4.283   5.079
 5781SOL    HW218243   3.904   4.167   5.081
 5782SOL     OW18244   4.582   1.746   3.048
 5782SOL    HW118245   4.501   1.773   3.101
 5782SOL    HW218246   4.579   1.791   2.958
 5783SOL     OW18247   3.302   5.613   3.168
 5783SOL    HW118248   3.246   5.615   3.085
 5783SOL    HW218249   3.387   5.663   3.152
 5784SOL     OW18250   1.239   6.256   0.558
 5784SOL    HW118251   1.156   6.312   0.548
 5784SOL    HW218252   1.315   6.315   0.583
 5785SOL     OW18253   2.472   2.338   6.527
 5785SOL    HW118254   2.464   2.371   6.433
 5785SOL    HW218255   2.387   2.357   6.577
 5786SOL     OW18256   1.284   1.819   6.289
 5786SOL    HW118257   1.315   1.734   6.246
 5786SOL    HW218258   1.257   1.800   6.383
 5787SOL     OW18259   0.894   2.522   5.046
 5787SOL    HW118260   0.842   2.437   5.038
 5787SOL    HW218261   0.914   2.540   5.142
 5788SOL     OW18262   0.577   2.122   1.953
 5788SOL    HW118263   0.567   2.098   1.857
 5788SOL    HW218264   0.557   2.041   2.009
 5789SOL     OW18265   2.375   6.795   0.035
 5789SOL    HW118266   2.412   6.877   0.080
 5789SOL    HW218267   2.392   6.715   0.092
 5790SOL     OW18268   7.007   6.523   2.540
 5790SOL    HW118269   7.016   6.427   2.567
 5790SOL    HW218270   6.922   6.560   2.577
 5791SOL     OW18271   4.338   0.673   1.300
 5791SOL    HW118272   4.392   0.734   1.358
 5791SOL    HW218273   4.248   0.713   1.285
 5792SOL     OW18274   4.540   2.602   2.887
 5792SOL    HW118275   4.506   2.540   2.958
 5792SOL    HW218276   4.601   2.669   2.928
 5793SOL     OW18277   4.119   1.919   0.297
 5793SOL    HW118278   4.074   2.001   0.335
 5793SOL    HW218279   4.088   1.838   0.347
 5794SOL     OW18280   2.878   6.320   6.925
 5794SOL    HW118281   2.841   6.410   6.901
 5794SOL    HW218282   2.808   6.250   6.910
 5795SOL     OW18283   1.209   1.008   1.441
 5795SOL    HW118284   1.261   1.020   1.526
 5795SOL    HW218285   1.191   1.097   1.400
 5796SOL     OW18286   4.751   0.396   5.565
 5796SOL    HW118287   4.707   0.343   5.493
 5796SOL    HW218288   4.724   0.360   5.655
 5797SOL     OW18289   6.070   1.597   0.442
 5797SOL    HW118290   5.991   1.542   0.412
 5797SOL    HW218291   6.101   1.654   0.366
 5798SOL     OW18292   2.308   2.408   4.610
 5798SOL    HW118293   2.366   2.363   4.542
 5798SOL    HW218294   2.297   2.505   4.586
 5799SOL     OW18295   3.045   0.202   3.724
 5799SOL    HW118296   3.101   0.221   3.643
 5799SOL    HW218297   2.969   0.142   3.698
 5800SOL     OW18298   1.389   6.301   1.557
 5800SOL    HW118299   1.410   6.203   1.556
 5800SOL    HW218300   1.364   6.329   1.650
 5801SOL     OW18301   1.400   2.128   3.045
 5801SOL    HW118302   1.477   2.193   3.045
 5801SOL    HW218303   1.345   2.141   2.963
 5802SOL     OW18304   7.025   0.105   3.082
 5802SOL    HW118305   0.046   0.096   2.995
 5802SOL    HW218306   6.996   0.015   3.113
 5803SOL     OW18307   0.861   6.805   4.482
 5803SOL    HW118308   0.804   6.742   4.537
 5803SOL    HW218309   0.812   6.827   4.398
 5804SOL     OW18310   6.211   2.091   3.515
 5804SOL    HW118311   6.149   2.162   3.551
 5804SOL    HW218312   6.226   2.106   3.418
 5805SOL     OW18313   1.084   2.594   1.632
 5805SOL    HW118314   1.096   2.511   1.576
 5805SOL    HW218315   1.006   2.645   1.598
 5806SOL     OW18316   6.834   4.607   1.834
 5806SOL    HW118317   6.739   4.594   1.862
 5806SOL    HW218318   6.868   4.523   1.791
 5807SOL     OW18319   1.013   0.974   2.116
 5807SOL    HW118320   0.971   1.053   2.160
 5807SOL    HW218321   1.068   1.005   2.038
 5808SOL     OW18322   6.387   6.482   5.956
 5808SOL    HW118323   6.432   6.538   5.887
 5808SOL    HW218324   6.288   6.499   5.953
 5809SOL     OW18325   6.994   3.449   4.454
 5809SOL    HW118326   7.026   3.427   4.546
 5809SOL    HW218327   6.908   3.498   4.459
 5810SOL     OW18328   1.257   6.516   5.591
 5810SOL    HW118329   1.305   6.601   5.571
 5810SOL    HW218330   1.158   6.532   5.589
 5811SOL     OW18331   3.148   5.050   7.011
 5811SOL    HW118332   3.134   5.085   6.919
 5811SOL    HW218333   3.105   4.960   7.020
 5812SOL     OW18334   6.658   2.817   6.145
 5812SOL    HW118335   6.579   2.827   6.084
 5812SOL    HW218336   6.654   2.728   6.190
 5813SOL     OW18337   6.316   5.560   1.300
 5813SOL    HW118338   6.229   5.564   1.252
 5813SOL    HW218339   6.300   5.566   1.399
 5814SOL     OW18340   5.316   1.879   2.672
 5814SOL    HW118341   5.357   1.850   2.758
 5814SOL    HW218342   5.326   1.807   2.604
 5815SOL     OW18343   6.451   3.496   4.618
 5815SOL    HW118344   6.525   3.429   4.623
 5815SOL    HW218345   6.389   3.473   4.543
 5816SOL     OW18346   6.950   4.512   0.952
 5816SOL    HW118347   6.873   4.490   1.012
 5816SOL    HW218348   6.978   4.429   0.903
 5817SOL     OW18349   6.205   2.785   4.253
 5817SOL    HW118350   6.200   2.687   4.232
 5817SOL    HW218351   6.293   2.806   4.295
 5818SOL     OW18352   2.667   7.002   4.205
 5818SOL    HW118353   2.732   7.004   4.281
 5818SOL    HW218354   2.601   6.928   4.220
 5819SOL     OW18355   4.359   4.220   1.402
 5819SOL    HW118356   4.387   4.277   1.479
 5819SOL    HW218357   4.340   4.277   1.322
 5820SOL     OW18358   1.059   6.394   2.441
 5820SOL    HW118359   1.016   6.485   2.446
 5820SOL    HW218360   1.005   6.335   2.381
 5821SOL     OW18361   5.996   6.524   2.521
 5821SOL    HW118362   6.032   6.433   2.541
 5821SOL    HW218363   5.936   6.553   2.595
 5822SOL     OW18364   0.919   4.167   3.167
 5822SOL    HW118365   0.964   4.256   3.178
 5822SOL    HW218366   0.974   4.108   3.109
 5823SOL     OW18367   2.711   6.387   5.046
 5823SOL    HW118368   2.660   6.447   5.109
 5823SOL    HW218369   2.780   6.336   5.098
 5824SOL     OW18370   2.705   5.480   2.796
 5824SOL    HW118371   2.725   5.393   2.842
 5824SOL    HW218372   2.760   5.486   2.712
 5825SOL     OW18373   3.891   2.042   4.686
 5825SOL    HW118374   3.825   2.045   4.761
 5825SOL    HW218375   3.965   2.107   4.704
 5826SOL     OW18376   1.281   6.206   5.068
 5826SOL    HW118377   1.349   6.265   5.024
 5826SOL    HW218378   1.194   6.213   5.020
 5827SOL     OW18379   2.281   4.043   3.756
 5827SOL    HW118380   2.339   4.104   3.811
 5827SOL    HW218381   2.213   4.000   3.814
 5828SOL     OW18382   4.589   0.028   4.778
 5828SOL    HW118383   4.543   0.106   4.736
 5828SOL    HW218384   4.522   6.983   4.796
 5829SOL     OW18385   2.401   1.318   3.172
 5829SOL    HW118386   2.398   1.382   3.096
 5829SOL    HW218387   2.418   1.368   3.257
 5830SOL     OW18388   4.629   5.014   4.598
 5830SOL    HW118389   4.620   4.939   4.663
 5830SOL    HW218390   4.549   5.073   4.604
 5831SOL     OW18391   2.366   1.698   4.661
 5831SOL    HW118392   2.298   1.724   4.592
 5831SOL    HW218393   2.424   1.776   4.682
 5832SOL     OW18394   2.512   4.991   3.525
 5832SOL    HW118395   2.562   5.044   3.457
 5832SOL    HW218396   2.444   5.049   3.569
 5833SOL     OW18397   2.656   4.656   1.233
 5833SOL    HW118398   2.676   4.620   1.324
 5833SOL    HW218399   2.626   4.581   1.173
 5834SOL     OW18400   5.675   1.935   5.714
 5834SOL    HW118401   5.580   1.909   5.703
 5834SOL    HW218402   5.703   1.922   5.809
 5835SOL     OW18403   3.758   1.101   3.833
 5835SOL    HW118404   3.832   1.110   3.899
 5835SOL    HW218405   3.789   1.134   3.743
 5836SOL     OW18406   5.054   5.153   1.010
 5836SOL    HW118407   5.140   5.120   0.970
 5836SOL    HW218408   4.994   5.076   1.029
 5837SOL     OW18409   2.099   4.832   0.013
 5837SOL    HW118410   2.185   4.881   0.028
 5837SOL    HW218411   2.118   4.743   7.001
 5838SOL     OW18412   2.979   3.455   0.058
 5838SOL    HW118413   2.965   3.554   0.061
 5838SOL    HW218414   3.031   3.431   7.004
 5839SOL     OW18415   2.602   1.308   1.272
 5839SOL    HW118416   2.630   1.350   1.358
 5839SOL    HW218417   2.616   1.371   1.196
 5840SOL     OW18418   6.447   3.735   2.669
 5840SOL    HW118419   6.535   3.780   2.650
 5840SOL    HW218420   6.448   3.642   2.633
 5841SOL     OW18421   5.588   2.767   0.784
 5841SOL    HW118422   5.528   2.738   0.859
 5841SOL    HW218423   5.539   2.830   0.724
 5842SOL     OW18424   3.970   2.088   2.479
 5842SOL    HW118425   3.916   2.111   2.398
 5842SOL    HW218426   4.043   2.155   2.491
 5843SOL     OW18427   3.263   2.638   0.892
 5843SOL    HW118428   3.320   2.557   0.911
 5843SOL    HW218429   3.196   2.615   0.822
 5844SOL     OW18430   6.985   5.348   5.288
 5844SOL    HW118431   0.037   5.405   5.271
 5844SOL    HW218432   6.909   5.379   5.229
 5845SOL     OW18433   1.957   6.190   2.794
 5845SOL    HW118434   1.927   6.231   2.880
 5845SOL    HW218435   1.919   6.098   2.786
 5846SOL     OW18436   0.788   4.558   5.030
 5846SOL    HW118437   0.736   4.580   5.113
 5846SOL    HW218438   0.874   4.513   5.056
 5847SOL     OW18439   2.157   4.167   6.204
 5847SOL    HW118440   2.080   4.105   6.189
 5847SOL    HW218441   2.225   4.154   6.132
 5848SOL     OW18442   3.344   6.424   1.853
 5848SOL    HW118443   3.335   6.331   1.889
 5848SOL    HW218444   3.271   6.441   1.787
 5849SOL     OW18445   3.194   5.370   6.804
 5849SOL    HW118446   3.212   5.442   6.737
 5849SOL    HW218447   3.275   5.357   6.862
 5850SOL     OW18448   5.240   2.117   1.593
 5850SOL    HW118449   5.212   2.037   1.541
 5850SOL    HW218450   5.161   2.174   1.613
 5851SOL     OW18451   1.043   3.220   5.344
 5851SOL    HW118452   1.095   3.277   5.408
 5851SOL    HW218453   0.959   3.268   5.318
 5852SOL     OW18454   4.537   4.855   2.964
 5852SOL    HW118455   4.598   4.839   3.042
 5852SOL    HW218456   4.478   4.775   2.952
 5853SOL     OW18457   4.050   4.810   0.336
 5853SOL    HW118458   4.149   4.821   0.336
 5853SOL    HW218459   4.020   4.775   0.247
 5854SOL     OW18460   2.675   4.486   5.359
 5854SOL    HW118461   2.598   4.503   5.298
 5854SOL    HW218462   2.760   4.500   5.310
 5855SOL     OW18463   1.679   1.802   4.757
 5855SOL    HW118464   1.738   1.827   4.680
 5855SOL    HW218465   1.733   1.756   4.826
 5856SOL     OW18466   0.507   0.751   2.473
 5856SOL    HW118467   0.486   0.660   2.436
 5856SOL    HW218468   0.484   0.754   2.570
 5857SOL     OW18469   6.113   5.526   6.718
 5857SOL    HW118470   6.062   5.497   6.799
 5857SOL    HW218471   6.049   5.545   6.643
 5858SOL     OW18472   3.158   1.626   2.157
 5858SOL    HW118473   3.218   1.549   2.135
 5858SOL    HW218474   3.212   1.708   2.173
 5859SOL     OW18475   5.708   4.812   1.422
 5859SOL    HW118476   5.713   4.719   1.459
 5859SOL    HW218477   5.767   4.873   1.476
 5860SOL     OW18478   1.664   3.685   1.925
 5860SOL    HW118479   1.740   3.720   1.981
 5860SOL    HW218480   1.587   3.748   1.930
 5861SOL     OW18481   5.638   0.137   4.639
 5861SOL    HW118482   5.582   0.059   4.666
 5861SOL    HW218483   5.728   0.106   4.610
 5862SOL     OW18484   0.004   4.802   1.952
 5862SOL    HW118485   0.079   4.759   2.003
 5862SOL    HW218486   6.989   4.734   1.893
 5863SOL     OW18487   4.078   0.023   6.025
 5863SOL    HW118488   4.133   6.968   6.020
 5863SOL    HW218489   4.063   0.047   6.120
 5864SOL     OW18490   3.832   2.952   3.590
 5864SOL    HW118491   3.882   2.942   3.504
 5864SOL    HW218492   3.808   3.048   3.602
 5865SOL     OW18493   6.331   6.726   1.569
 5865SOL    HW118494   6.357   6.745   1.474
 5865SOL    HW218495   6.366   6.636   1.595
 5866SOL     OW18496   3.482   3.521   3.959
 5866SOL    HW118497   3.426   3.475   3.891
 5866SOL    HW218498   3.533   3.596   3.916
 5867SOL     OW18499   5.033   1.361   1.153
 5867SOL    HW118500   5.118   1.407   1.128
 5867SOL    HW218501   5.047   1.262   1.148
 5868SOL     OW18502   1.062   1.175   1.037
 5868SOL    HW118503   1.128   1.180   0.962
 5868SOL    HW218504   1.106   1.205   1.122
 5869SOL     OW18505   1.971   5.512   3.725
 5869SOL    HW118506   2.057   5.561   3.732
 5869SOL    HW218507   1.941   5.509   3.629
 5870SOL     OW18508   4.502   6.583   3.955
 5870SOL    HW118509   4.529   6.604   3.861
 5870SOL    HW218510   4.498   6.484   3.967
 5871SOL     OW18511   4.056   3.353   3.680
 5871SOL    HW118512   4.018   3.316   3.764
 5871SOL    HW218513   4.009   3.314   3.601
 5872SOL     OW18514   3.213   5.753   1.268
 5872SOL    HW118515   3.184   5.657   1.276
 5872SOL    HW218516   3.261   5.766   1.182
 5873SOL     OW18517   4.362   0.028   1.988
 5873SOL    HW118518   4.405   6.998   2.057
 5873SOL    HW218519   4.427   0.096   1.957
 5874SOL     OW18520   7.022   4.145   4.473
 5874SOL    HW118521   6.997   4.234   4.435
 5874SOL    HW218522   6.944   4.083   4.470
 5875SOL     OW18523   4.058   2.351   0.865
 5875SOL    HW118524   4.029   2.445   0.887
 5875SOL    HW218525   4.097   2.308   0.947
 5876SOL     OW18526   3.004   3.153   2.737
 5876SOL    HW118527   3.017   3.174   2.834
 5876SOL    HW218528   2.931   3.211   2.700
 5877SOL     OW18529   4.899   4.096   1.766
 5877SOL    HW118530   4.895   4.110   1.865
 5877SOL    HW218531   4.960   4.020   1.746
 5878SOL     OW18532   0.683   3.716   1.798
 5878SOL    HW118533   0.638   3.753   1.717
 5878SOL    HW218534   0.617   3.713   1.874
 5879SOL     OW18535   2.065   4.639   4.712
 5879SOL    HW118536   2.110   4.726   4.731
 5879SOL    HW218537   1.989   4.626   4.777
 5880SOL     OW18538   2.874   5.088   6.812
 5880SOL    HW118539   2.889   5.143   6.894
 5880SOL    HW218540   2.885   5.145   6.731
 5881SOL     OW18541   1.772   6.363   3.966
 5881SOL    HW118542   1.679   6.396   3.946
 5881SOL    HW218543   1.778   6.338   4.062
 5882SOL     OW18544   4.659   0.406   2.998
 5882SOL    HW118545   4.724   0.442   2.932
 5882SOL    HW218546   4.569   0.445   2.981
 5883SOL     OW18547   1.443   3.167   5.399
 5883SOL    HW118548   1.485   3.160   5.309
 5883SOL    HW218549   1.478   3.094   5.458
 5884SOL     OW18550   6.880   0.750   3.119
 5884SOL    HW118551   6.818   0.760   3.041
 5884SOL    HW218552   6.911   0.841   3.149
 5885SOL     OW18553   5.483   6.488   0.448
 5885SOL    HW118554   5.432   6.431   0.512
 5885SOL    HW218555   5.423   6.512   0.370
 5886SOL     OW18556   5.864   1.557   6.323
 5886SOL    HW118557   5.920   1.476   6.304
 5886SOL    HW218558   5.800   1.536   6.398
 5887SOL     OW18559   3.699   6.465   2.854
 5887SOL    HW118560   3.717   6.448   2.757
 5887SOL    HW218561   3.676   6.561   2.867
 5888SOL     OW18562   6.697   6.304   1.977
 5888SOL    HW118563   6.785   6.272   2.012
 5888SOL    HW218564   6.682   6.398   2.006
 5889SOL     OW18565   2.653   6.851   0.197
 5889SOL    HW118566   2.647   6.889   0.105
 5889SOL    HW218567   2.601   6.908   0.260
 5890SOL     OW18568   3.821   5.597   5.920
 5890SOL    HW118569   3.870   5.513   5.942
 5890SOL    HW218570   3.761   5.621   5.996
 5891SOL     OW18571   1.697   3.421   6.158
 5891SOL    HW118572   1.774   3.478   6.131
 5891SOL    HW218573   1.623   3.480   6.191
 5892SOL     OW18574   2.572   5.691   2.045
 5892SOL    HW118575   2.622   5.703   1.959
 5892SOL    HW218576   2.506   5.617   2.034
 5893SOL     OW18577   1.385   2.606   2.854
 5893SOL    HW118578   1.421   2.699   2.851
 5893SOL    HW218579   1.373   2.572   2.761
 5894SOL     OW18580   1.285   3.592   3.868
 5894SOL    HW118581   1.236   3.662   3.815
 5894SOL    HW218582   1.344   3.636   3.936
 5895SOL     OW18583   5.589   4.545   2.665
 5895SOL    HW118584   5.572   4.483   2.588
 5895SOL    HW218585   5.502   4.571   2.706
 5896SOL     OW18586   5.015   2.113   5.534
 5896SOL    HW118587   4.962   2.188   5.572
 5896SOL    HW218588   5.058   2.142   5.448
 5897SOL     OW18589   4.307   4.402   1.195
 5897SOL    HW118590   4.222   4.451   1.215
 5897SOL    HW218591   4.306   4.373   1.099
 5898SOL     OW18592   1.855   6.284   3.044
 5898SOL    HW118593   1.786   6.353   3.064
 5898SOL    HW218594   1.861   6.219   3.121
 5899SOL     OW18595   5.134   0.518   3.224
 5899SOL    HW118596   5.210   0.568   3.182
 5899SOL    HW218597   5.096   0.572   3.299
 5900SOL     OW18598   3.733   4.938   1.830
 5900SOL    HW118599   3.656   4.884   1.864
 5900SOL    HW218600   3.789   4.967   1.907
 5901SOL     OW18601   3.027   5.984   4.294
 5901SOL    HW118602   3.070   5.906   4.248
 5901SOL    HW218603   3.093   6.060   4.299
 5902SOL     OW18604   6.084   2.690   0.649
 5902SOL    HW118605   6.057   2.770   0.702
 5902SOL    HW218606   6.166   2.711   0.596
 5903SOL     OW18607   0.521   1.979   6.412
 5903SOL    HW118608   0.500   1.973   6.315
 5903SOL    HW218609   0.605   2.032   6.425
 5904SOL     OW18610   1.448   3.482   2.102
 5904SOL    HW118611   1.467   3.456   2.008
 5904SOL    HW218612   1.451   3.401   2.160
 5905SOL     OW18613   6.828   3.646   1.973
 5905SOL    HW118614   6.894   3.655   1.898
 5905SOL    HW218615   6.752   3.589   1.944
 5906SOL     OW18616   7.004   1.007   3.179
 5906SOL    HW118617   0.013   1.041   3.265
 5906SOL    HW218618   0.045   1.017   3.107
 5907SOL     OW18619   2.196   1.157   3.212
 5907SOL    HW118620   2.211   1.097   3.290
 5907SOL    HW218621   2.273   1.220   3.203
 5908SOL     OW18622   0.664   2.756   5.695
 5908SOL    HW118623   0.575   2.727   5.731
 5908SOL    HW218624   0.737   2.717   5.751
 5909SOL     OW18625   6.587   4.742   6.704
 5909SOL    HW118626   6.662   4.690   6.662
 5909SOL    HW218627   6.588   4.836   6.668
 5910SOL     OW18628   1.221   1.267   3.342
 5910SOL    HW118629   1.283   1.328   3.294
 5910SOL    HW218630   1.261   1.242   3.431
 5911SOL     OW18631   6.809   6.129   0.145
 5911SOL    HW118632   6.877   6.139   0.072
 5911SOL    HW218633   6.809   6.034   0.178
 5912SOL     OW18634   0.691   0.738   3.082
 5912SOL    HW118635   0.763   0.686   3.127
 5912SOL    HW218636   0.727   0.782   3.000
 5913SOL     OW18637   6.743   2.793   1.324
 5913SOL    HW118638   6.823   2.734   1.328
 5913SOL    HW218639   6.765   2.876   1.272
 5914SOL     OW18640   1.066   0.238   0.783
 5914SOL    HW118641   1.071   0.331   0.747
 5914SOL    HW218642   1.159   0.202   0.794
 5915SOL     OW18643   3.792   0.286   5.164
 5915SOL    HW118644   3.730   0.249   5.095
 5915SOL    HW218645   3.739   0.308   5.247
 5916SOL     OW18646   1.374   0.284   2.653
 5916SOL    HW118647   1.359   0.366   2.708
 5916SOL    HW218648   1.286   0.239   2.635
 5917SOL     OW18649   3.233   3.116   0.745
 5917SOL    HW118650   3.215   3.108   0.843
 5917SOL    HW218651   3.147   3.117   0.695
 5918SOL     OW18652   3.514   6.812   4.073
 5918SOL    HW118653   3.497   6.800   4.171
 5918SOL    HW218654   3.449   6.757   4.021
 5919SOL     OW18655   3.102   4.079   4.855
 5919SOL    HW118656   3.052   4.158   4.820
 5919SOL    HW218657   3.168   4.048   4.786
 5920SOL     OW18658   1.112   0.751   5.682
 5920SOL    HW118659   1.042   0.793   5.625
 5920SOL    HW218660   1.162   0.683   5.628
 5921SOL     OW18661   2.640   5.503   0.571
 5921SOL    HW118662   2.667   5.423   0.518
 5921SOL    HW218663   2.669   5.491   0.666
 5922SOL     OW18664   5.182   2.425   2.287
 5922SOL    HW118665   5.182   2.524   2.274
 5922SOL    HW218666   5.229   2.402   2.372
 5923SOL     OW18667   5.814   0.728   3.020
 5923SOL    HW118668   5.833   0.630   3.006
 5923SOL    HW218669   5.898   0.780   3.007
 5924SOL     OW18670   6.844   6.874   3.483
 5924SOL    HW118671   6.877   6.866   3.577
 5924SOL    HW218672   6.843   6.970   3.455
 5925SOL     OW18673   4.828   1.164   0.833
 5925SOL    HW118674   4.855   1.258   0.814
 5925SOL    HW218675   4.902   1.102   0.806
 5926SOL     OW18676   5.188   3.397   3.003
 5926SOL    HW118677   5.210   3.382   2.907
 5926SOL    HW218678   5.204   3.313   3.055
 5927SOL     OW18679   0.658   6.362   1.208
 5927SOL    HW118680   0.690   6.422   1.282
 5927SOL    HW218681   0.601   6.290   1.247
 5928SOL     OW18682   3.062   0.303   0.229
 5928SOL    HW118683   3.101   0.214   0.253
 5928SOL    HW218684   2.970   0.311   0.268
 5929SOL     OW18685   1.117   0.452   1.486
 5929SOL    HW118686   1.176   0.375   1.508
 5929SOL    HW218687   1.168   0.520   1.434
 5930SOL     OW18688   0.907   4.127   1.581
 5930SOL    HW118689   0.995   4.096   1.617
 5930SOL    HW218690   0.880   4.212   1.627
 5931SOL     OW18691   4.620   5.730   4.089
 5931SOL    HW118692   4.557   5.808   4.086
 5931SOL    HW218693   4.599   5.668   4.013
 5932SOL     OW18694   3.946   5.944   0.201
 5932SOL    HW118695   3.855   5.911   0.179
 5932SOL    HW218696   3.942   6.042   0.220
 5933SOL     OW18697   6.816   5.731   4.140
 5933SOL    HW118698   6.884   5.658   4.149
 5933SOL    HW218699   6.830   5.799   4.212
 5934SOL     OW18700   3.297   4.247   0.184
 5934SOL    HW118701   3.260   4.313   0.249
 5934SOL    HW218702   3.359   4.293   0.121
 5935SOL     OW18703   1.470   0.494   5.854
 5935SOL    HW118704   1.506   0.457   5.769
 5935SOL    HW218705   1.385   0.446   5.878
 5936SOL     OW18706   3.694   2.876   2.063
 5936SOL    HW118707   3.690   2.804   1.994
 5936SOL    HW218708   3.780   2.927   2.053
 5937SOL     OW18709   0.590   3.080   0.361
 5937SOL    HW118710   0.570   3.000   0.417
 5937SOL    HW218711   0.521   3.151   0.377
 5938SOL     OW18712   1.049   3.290   4.570
 5938SOL    HW118713   1.079   3.383   4.549
 5938SOL    HW218714   1.088   3.262   4.657
 5939SOL     OW18715   4.722   0.891   5.797
 5939SOL    HW118716   4.658   0.826   5.757
 5939SOL    HW218717   4.672   0.970   5.832
 5940SOL     OW18718   5.142   5.263   1.281
 5940SOL    HW118719   5.140   5.212   1.195
 5940SOL    HW218720   5.060   5.242   1.334
 5941SOL     OW18721   0.766   1.649   3.437
 5941SOL    HW118722   0.676   1.692   3.446
 5941SOL    HW218723   0.799   1.660   3.344
 5942SOL     OW18724   4.808   2.313   6.409
 5942SOL    HW118725   4.836   2.394   6.461
 5942SOL    HW218726   4.813   2.232   6.468
 5943SOL     OW18727   2.083   4.912   1.686
 5943SOL    HW118728   2.026   4.862   1.621
 5943SOL    HW218729   2.179   4.886   1.674
 5944SOL     OW18730   6.611   3.846   6.015
 5944SOL    HW118731   6.529   3.840   6.072
 5944SOL    HW218732   6.630   3.942   5.994
 5945SOL     OW18733   0.148   6.441   4.299
 5945SOL    HW118734   0.238   6.475   4.271
 5945SOL    HW218735   0.077   6.495   4.254
 5946SOL     OW18736   2.787   2.892   0.124
 5946SOL    HW118737   2.687   2.898   0.132
 5946SOL    HW218738   2.827   2.884   0.215
 5947SOL     OW18739   3.465   3.278   4.728
 5947SOL    HW118740   3.444   3.213   4.801
 5947SOL    HW218741   3.389   3.343   4.719
 5948SOL     OW18742   4.739   4.266   1.634
 5948SOL    HW118743   4.818   4.212   1.663
 5948SOL    HW218744   4.656   4.211   1.646
 5949SOL     OW18745   0.908   4.250   4.200
 5949SOL    HW118746   0.931   4.178   4.134
 5949SOL    HW218747   0.838   4.217   4.263
 5950SOL     OW18748   2.605   6.574   4.870
 5950SOL    HW118749   2.597   6.654   4.929
 5950SOL    HW218750   2.668   6.508   4.911
 5951SOL     OW18751   6.918   2.906   6.165
 5951SOL    HW118752   6.957   2.924   6.075
 5951SOL    HW218753   6.820   2.891   6.157
 5952SOL     OW18754   3.715   4.148   1.654
 5952SOL    HW118755   3.775   4.144   1.734
 5952SOL    HW218756   3.666   4.235   1.654
 5953SOL     OW18757   6.805   2.691   0.006
 5953SOL    HW118758   6.885   2.710   6.977
 5953SOL    HW218759   6.779   2.774   0.055
 5954SOL     OW18760   1.904   4.954   3.835
 5954SOL    HW118761   1.927   5.040   3.880
 5954SOL    HW218762   1.943   4.953   3.743
 5955SOL     OW18763   3.992   2.755   0.405
 5955SOL    HW118764   4.002   2.716   0.313
 5955SOL    HW218765   3.979   2.854   0.397
 5956SOL     OW18766   4.276   2.602   6.316
 5956SOL    HW118767   4.259   2.669   6.388
 5956SOL    HW218768   4.340   2.640   6.249
 5957SOL     OW18769   6.487   2.121   3.581
 5957SOL    HW118770   6.397   2.087   3.556
 5957SOL    HW218771   6.524   2.066   3.656
 5958SOL     OW18772   2.313   6.086   2.595
 5958SOL    HW118773   2.252   6.017   2.633
 5958SOL    HW218774   2.366   6.047   2.520
 5959SOL     OW18775   5.201   3.975   3.142
 5959SOL    HW118776   5.283   4.022   3.109
 5959SOL    HW218777   5.142   4.039   3.190
 5960SOL     OW18778   5.820   0.244   6.406
 5960SOL    HW118779   5.722   0.243   6.426
 5960SOL    HW218780   5.871   0.260   6.491
 5961SOL     OW18781   3.014   1.638   4.159
 5961SOL    HW118782   3.011   1.660   4.256
 5961SOL    HW218783   3.012   1.723   4.105
 5962SOL     OW18784   4.883   4.233   0.450
 5962SOL    HW118785   4.957   4.261   0.389
 5962SOL    HW218786   4.798   4.226   0.398
 5963SOL     OW18787   1.694   4.272   0.353
 5963SOL    HW118788   1.648   4.193   0.313
 5963SOL    HW218789   1.791   4.252   0.364
 5964SOL     OW18790   1.876   0.004   3.054
 5964SOL    HW118791   1.850   6.938   3.029
 5964SOL    HW218792   1.975   0.007   3.071
 5965SOL     OW18793   2.468   0.450   1.341
 5965SOL    HW118794   2.431   0.357   1.336
 5965SOL    HW218795   2.446   0.499   1.257
 5966SOL     OW18796   3.002   1.718   4.855
 5966SOL    HW118797   2.983   1.626   4.820
 5966SOL    HW218798   3.023   1.713   4.952
 5967SOL     OW18799   4.566   2.356   5.391
 5967SOL    HW118800   4.511   2.360   5.307
 5967SOL    HW218801   4.522   2.294   5.456
 5968SOL     OW18802   6.365   2.081   3.167
 5968SOL    HW118803   6.356   2.157   3.102
 5968SOL    HW218804   6.276   2.060   3.206
 5969SOL     OW18805   5.107   6.848   1.296
 5969SOL    HW118806   5.201   6.821   1.320
 5969SOL    HW218807   5.066   6.896   1.373
 5970SOL     OW18808   6.250   2.838   0.280
 5970SOL    HW118809   6.330   2.897   0.280
 5970SOL    HW218810   6.268   2.756   0.334
 5971SOL     OW18811   6.476   5.209   3.661
 5971SOL    HW118812   6.516   5.149   3.730
 5971SOL    HW218813   6.550   5.256   3.611
 5972SOL     OW18814   5.499   5.118   0.708
 5972SOL    HW118815   5.433   5.043   0.704
 5972SOL    HW218816   5.464   5.196   0.655
 5973SOL     OW18817   3.572   1.051   2.302
 5973SOL    HW118818   3.512   1.117   2.348
 5973SOL    HW218819   3.586   0.972   2.362
 5974SOL     OW18820   5.673   1.127   4.458
 5974SOL    HW118821   5.770   1.108   4.443
 5974SOL    HW218822   5.664   1.205   4.520
 5975SOL     OW18823   4.123   4.976   0.927
 5975SOL    HW118824   4.036   4.978   0.977
 5975SOL    HW218825   4.110   5.011   0.835
 5976SOL     OW18826   1.562   3.397   5.835
 5976SOL    HW118827   1.580   3.345   5.751
 5976SOL    HW218828   1.649   3.427   5.875
 5977SOL     OW18829   0.507   5.529   1.321
 5977SOL    HW118830   0.444   5.464   1.277
 5977SOL    HW218831   0.537   5.491   1.409
 5978SOL     OW18832   2.765   3.773   5.922
 5978SOL    HW118833   2.752   3.707   5.848
 5978SOL    HW218834   2.859   3.805   5.921
 5979SOL     OW18835   5.815   0.284   1.088
 5979SOL    HW118836   5.744   0.220   1.059
 5979SOL    HW218837   5.891   0.280   1.023
 5980SOL     OW18838   3.370   2.731   1.128
 5980SOL    HW118839   3.322   2.714   1.042
 5980SOL    HW218840   3.305   2.728   1.204
 5981SOL     OW18841   3.062   2.946   1.182
 5981SOL    HW118842   2.988   2.879   1.190
 5981SOL    HW218843   3.148   2.904   1.213
 5982SOL     OW18844   5.510   2.610   1.060
 5982SOL    HW118845   5.606   2.605   1.088
 5982SOL    HW218846   5.471   2.518   1.057
 5983SOL     OW18847   6.918   1.358   3.742
 5983SOL    HW118848   6.911   1.457   3.746
 5983SOL    HW218849   6.827   1.318   3.728
 5984SOL     OW18850   6.244   6.250   2.815
 5984SOL    HW118851   6.216   6.163   2.857
 5984SOL    HW218852   6.265   6.316   2.887
 5985SOL     OW18853   6.387   4.507   2.836
 5985SOL    HW118854   6.362   4.412   2.817
 5985SOL    HW218855   6.357   4.565   2.760
 5986SOL     OW18856   4.080   3.287   3.329
 5986SOL    HW118857   4.075   3.335   3.242
 5986SOL    HW218858   4.121   3.197   3.315
 5987SOL     OW18859   0.095   6.141   4.362
 5987SOL    HW118860   0.170   6.177   4.418
 5987SOL    HW218861   0.122   6.141   4.266
 5988SOL     OW18862   1.178   2.216   0.121
 5988SOL    HW118863   1.249   2.178   0.180
 5988SOL    HW218864   1.215   2.293   0.069
 5989SOL     OW18865   2.250   6.430   5.656
 5989SOL    HW118866   2.245   6.530   5.658
 5989SOL    HW218867   2.161   6.393   5.626
 5990SOL     OW18868   2.520   3.919   1.709
 5990SOL    HW118869   2.486   3.956   1.795
 5990SOL    HW218870   2.478   3.968   1.632
 5991SOL     OW18871   5.519   1.252   0.665
 5991SOL    HW118872   5.547   1.163   0.703
 5991SOL    HW218873   5.509   1.318   0.740
 5992SOL     OW18874   2.716   4.616   3.620
 5992SOL    HW118875   2.617   4.629   3.615
 5992SOL    HW218876   2.746   4.624   3.715
 5993SOL     OW18877   5.620   2.658   0.223
 5993SOL    HW118878   5.667   2.721   0.162
 5993SOL    HW218879   5.671   2.651   0.309
 5994SOL     OW18880   6.979   4.514   0.564
 5994SOL    HW118881   6.949   4.457   0.640
 5994SOL    HW218882   6.900   4.542   0.509
 5995SOL     OW18883   5.417   3.411   1.062
 5995SOL    HW118884   5.433   3.354   0.981
 5995SOL    HW218885   5.501   3.416   1.116
 5996SOL     OW18886   2.784   0.576   1.776
 5996SOL    HW118887   2.858   0.513   1.753
 5996SOL    HW218888   2.747   0.553   1.866
 5997SOL     OW18889   6.323   0.156   4.489
 5997SOL    HW118890   6.293   0.113   4.404
 5997SOL    HW218891   6.411   0.201   4.474
 5998SOL     OW18892   5.939   6.131   5.769
 5998SOL    HW118893   6.010   6.196   5.742
 5998SOL    HW218894   5.982   6.050   5.810
 5999SOL     OW18895   5.239   3.572   1.178
 5999SOL    HW118896   5.309   3.636   1.210
 5999SOL    HW218897   5.280   3.504   1.119
 6000SOL     OW18898   1.188   4.710   1.591
 6000SOL    HW118899   1.273   4.680   1.635
 6000SOL    HW218900   1.151   4.789   1.640
 6001SOL     OW18901   6.935   5.991   5.671
 6001SOL    HW118902   6.865   6.011   5.602
 6001SOL    HW218903   6.902   6.018   5.761
 6002SOL     OW18904   5.599   4.418   5.107
 6002SOL    HW118905   5.686   4.439   5.063
 6002SOL    HW218906   5.605   4.441   5.204
 6003SOL     OW18907   2.557   1.565   5.338
 6003SOL    HW118908   2.576   1.623   5.417
 6003SOL    HW218909   2.597   1.606   5.256
 6004SOL     OW18910   5.618   3.345   5.147
 6004SOL    HW118911   5.696   3.330   5.086
 6004SOL    HW218912   5.647   3.398   5.227
 6005SOL     OW18913   4.061   4.205   0.541
 6005SOL    HW118914   3.964   4.185   0.526
 6005SOL    HW218915   4.072   4.304   0.555
 6006SOL     OW18916   3.330   6.204   6.774
 6006SOL    HW118917   3.236   6.237   6.767
 6006SOL    HW218918   3.335   6.110   6.741
 6007SOL     OW18919   2.908   6.510   4.927
 6007SOL    HW118920   2.839   6.452   4.970
 6007SOL    HW218921   2.994   6.460   4.921
 6008SOL     OW18922   2.351   3.809   6.919
 6008SOL    HW118923   2.299   3.761   6.848
 6008SOL    HW218924   2.412   3.876   6.877
 6009SOL     OW18925   2.842   5.615   3.012
 6009SOL    HW118926   2.910   5.547   3.040
 6009SOL    HW218927   2.791   5.580   2.933
 6010SOL     OW18928   6.998   5.109   5.406
 6010SOL    HW118929   6.913   5.082   5.452
 6010SOL    HW218930   6.992   5.204   5.377
 6011SOL     OW18931   5.562   1.568   2.838
 6011SOL    HW118932   5.579   1.473   2.814
 6011SOL    HW218933   5.619   1.627   2.781
 6012SOL     OW18934   6.617   1.076   6.032
 6012SOL    HW118935   6.694   1.077   6.095
 6012SOL    HW218936   6.593   0.982   6.009
 6013SOL     OW18937   5.503   1.267   2.476
 6013SOL    HW118938   5.497   1.301   2.570
 6013SOL    HW218939   5.572   1.195   2.471
 6014SOL     OW18940   3.694   3.353   4.073
 6014SOL    HW118941   3.713   3.318   4.165
 6014SOL    HW218942   3.599   3.384   4.068
 6015SOL     OW18943   6.278   0.007   3.855
 6015SOL    HW118944   6.266   0.101   3.822
 6015SOL    HW218945   6.368   7.027   3.899
 6016SOL     OW18946   4.194   2.273   4.916
 6016SOL    HW118947   4.186   2.353   4.975
 6016SOL    HW218948   4.233   2.197   4.969
 6017SOL     OW18949   1.621   1.867   5.180
 6017SOL    HW118950   1.584   1.955   5.150
 6017SOL    HW218951   1.654   1.816   5.100
 6018SOL     OW18952   2.796   1.598   3.634
 6018SOL    HW118953   2.799   1.545   3.718
 6018SOL    HW218954   2.704   1.597   3.596
 6019SOL     OW18955   6.667   4.123   5.929
 6019SOL    HW118956   6.741   4.078   5.879
 6019SOL    HW218957   6.702   4.207   5.972
 6020SOL     OW18958   0.468   5.549   5.322
 6020SOL    HW118959   0.507   5.611   5.390
 6020SOL    HW218960   0.454   5.598   5.236
 6021SOL     OW18961   5.012   0.298   3.342
 6021SOL    HW118962   4.942   0.288   3.272
 6021SOL    HW218963   5.073   0.373   3.317
 6022SOL     OW18964   6.612   2.981   1.489
 6022SOL    HW118965   6.627   2.910   1.420
 6022SOL    HW218966   6.587   2.939   1.576
 6023SOL     OW18967   4.406   6.577   2.333
 6023SOL    HW118968   4.376   6.671   2.351
 6023SOL    HW218969   4.353   6.514   2.391
 6024SOL     OW18970   0.641   6.261   0.275
 6024SOL    HW118971   0.720   6.317   0.251
 6024SOL    HW218972   0.582   6.250   0.195
 6025SOL     OW18973   3.364   0.364   5.512
 6025SOL    HW118974   3.413   0.431   5.567
 6025SOL    HW218975   3.312   0.304   5.572
 6026SOL     OW18976   5.678   5.752   3.519
 6026SOL    HW118977   5.654   5.750   3.422
 6026SOL    HW218978   5.748   5.822   3.534
 6027SOL     OW18979   5.928   4.699   5.898
 6027SOL    HW118980   5.853   4.643   5.863
 6027SOL    HW218981   5.891   4.776   5.950
 6028SOL     OW18982   6.076   5.907   5.952
 6028SOL    HW118983   6.128   5.931   5.870
 6028SOL    HW218984   6.111   5.821   5.990
 6029SOL     OW18985   3.080   1.954   2.923
 6029SOL    HW118986   3.127   2.034   2.960
 6029SOL    HW218987   3.074   1.961   2.824
 6030SOL     OW18988   5.690   3.118   4.479
 6030SOL    HW118989   5.773   3.091   4.527
 6030SOL    HW218990   5.668   3.051   4.408
 6031SOL     OW18991   6.966   6.926   3.738
 6031SOL    HW118992   0.007   6.860   3.707
 6031SOL    HW218993   7.006   7.017   3.739
 6032SOL     OW18994   3.142   6.797   3.597
 6032SOL    HW118995   3.099   6.857   3.530
 6032SOL    HW218996   3.240   6.788   3.576
 6033SOL     OW18997   0.987   1.563   2.573
 6033SOL    HW118998   0.966   1.640   2.633
 6033SOL    HW218999   1.086   1.561   2.555
 6034SOL     OW19000   0.587   0.782   0.608
 6034SOL    HW119001   0.531   0.771   0.691
 6034SOL    HW219002   0.576   0.875   0.573
 6035SOL     OW19003   2.248   0.736   2.819
 6035SOL    HW119004   2.223   0.773   2.730
 6035SOL    HW219005   2.178   0.672   2.850
 6036SOL     OW19006   6.738   3.492   0.543
 6036SOL    HW119007   6.726   3.569   0.480
 6036SOL    HW219008   6.702   3.517   0.633
 6037SOL     OW19009   4.607   0.894   6.193
 6037SOL    HW119010   4.695   0.911   6.148
 6037SOL    HW219011   4.616   0.818   6.257
 6038SOL     OW19012   1.672   1.361   6.658
 6038SOL    HW119013   1.744   1.294   6.648
 6038SOL    HW219014   1.583   1.316   6.654
 6039SOL     OW19015   3.409   3.035   4.175
 6039SOL    HW119016   3.376   3.115   4.124
 6039SOL    HW219017   3.348   3.018   4.252
 6040SOL     OW19018   0.475   1.825   0.245
 6040SOL    HW119019   0.537   1.807   0.321
 6040SOL    HW219020   0.518   1.794   0.160
 6041SOL     OW19021   0.800   3.207   4.944
 6041SOL    HW119022   0.806   3.108   4.956
 6041SOL    HW219023   0.779   3.228   4.849
 6042SOL     OW19024   2.135   6.116   4.002
 6042SOL    HW119025   2.037   6.101   4.001
 6042SOL    HW219026   2.167   6.123   4.097
 6043SOL     OW19027   2.518   6.068   2.343
 6043SOL    HW119028   2.578   6.090   2.267
 6043SOL    HW219029   2.441   6.131   2.345
 6044SOL     OW19030   6.912   3.276   0.608
 6044SOL    HW119031   6.848   3.345   0.573
 6044SOL    HW219032   6.995   3.321   0.641
 6045SOL     OW19033   5.208   1.370   4.268
 6045SOL    HW119034   5.265   1.324   4.201
 6045SOL    HW219035   5.151   1.302   4.315
 6046SOL     OW19036   3.619   3.554   2.923
 6046SOL    HW119037   3.675   3.498   2.861
 6046SOL    HW219038   3.580   3.631   2.872
 6047SOL     OW19039   0.362   1.152   0.266
 6047SOL    HW119040   0.265   1.138   0.244
 6047SOL    HW219041   0.415   1.075   0.230
 6048SOL     OW19042   5.910   5.453   3.142
 6048SOL    HW119043   5.881   5.396   3.219
 6048SOL    HW219044   5.870   5.419   3.057
 6049SOL     OW19045   4.748   5.264   5.956
 6049SOL    HW119046   4.736   5.174   5.998
 6049SOL    HW219047   4.778   5.253   5.861
 6050SOL     OW19048   2.520   5.176   3.141
 6050SOL    HW119049   2.610   5.134   3.126
 6050SOL    HW219050   2.511   5.259   3.086
 6051SOL     OW19051   0.863   1.199   2.043
 6051SOL    HW119052   0.831   1.124   1.985
 6051SOL    HW219053   0.789   1.266   2.053
 6052SOL     OW19054   5.765   5.876   6.966
 6052SOL    HW119055   5.702   5.812   6.923
 6052SOL    HW219056   5.715   5.953   7.004
 6053SOL     OW19057   3.876   2.178   5.751
 6053SOL    HW119058   3.781   2.202   5.771
 6053SOL    HW219059   3.882   2.134   5.662
 6054SOL     OW19060   4.133   3.587   0.199
 6054SOL    HW119061   4.180   3.500   0.213
 6054SOL    HW219062   4.100   3.622   0.287
 6055SOL     OW19063   3.156   4.532   1.610
 6055SOL    HW119064   3.158   4.566   1.516
 6055SOL    HW219065   3.106   4.597   1.667
 6056SOL     OW19066   5.008   6.099   2.927
 6056SOL    HW119067   5.062   6.024   2.889
 6056SOL    HW219068   4.951   6.065   3.001
 6057SOL     OW19069   5.721   1.347   3.839
 6057SOL    HW119070   5.696   1.402   3.760
 6057SOL    HW219071   5.709   1.401   3.923
 6058SOL     OW19072   0.043   2.350   5.853
 6058SOL    HW119073   7.015   2.382   5.929
 6058SOL    HW219074   0.010   2.262   5.821
 6059SOL     OW19075   3.813   1.847   6.918
 6059SOL    HW119076   3.876   1.872   6.844
 6059SOL    HW219077   3.847   1.765   6.964
 6060SOL     OW19078   1.762   2.518   0.785
 6060SOL    HW119079   1.746   2.482   0.877
 6060SOL    HW219080   1.742   2.616   0.784
 6061SOL     OW19081   2.594   4.540   6.661
 6061SOL    HW119082   2.545   4.486   6.593
 6061SOL    HW219083   2.597   4.489   6.747
 6062SOL     OW19084   2.353   2.095   5.890
 6062SOL    HW119085   2.292   2.015   5.893
 6062SOL    HW219086   2.444   2.069   5.924
 6063SOL     OW19087   5.068   4.105   6.198
 6063SOL    HW119088   5.000   4.074   6.264
 6063SOL    HW219089   5.079   4.036   6.127
 6064SOL     OW19090   5.790   6.346   0.703
 6064SOL    HW119091   5.761   6.326   0.609
 6064SOL    HW219092   5.711   6.379   0.756
 6065SOL     OW19093   2.242   6.026   1.569
 6065SOL    HW119094   2.209   6.000   1.479
 6065SOL    HW219095   2.202   6.114   1.596
 6066SOL     OW19096   6.033   5.983   2.121
 6066SOL    HW119097   6.058   6.080   2.122
 6066SOL    HW219098   6.056   5.943   2.033
 6067SOL     OW19099   0.227   5.325   5.597
 6067SOL    HW119100   0.201   5.231   5.618
 6067SOL    HW219101   0.253   5.332   5.501
 6068SOL     OW19102   4.472   1.680   4.425
 6068SOL    HW119103   4.507   1.678   4.331
 6068SOL    HW219104   4.415   1.762   4.437
 6069SOL     OW19105   0.306   4.846   5.357
 6069SOL    HW119106   0.260   4.918   5.408
 6069SOL    HW219107   0.400   4.875   5.336
 6070SOL     OW19108   2.811   0.796   0.897
 6070SOL    HW119109   2.742   0.785   0.826
 6070SOL    HW219110   2.775   0.761   0.984
 6071SOL     OW19111   5.457   0.406   6.248
 6071SOL    HW119112   5.496   0.351   6.322
 6071SOL    HW219113   5.525   0.474   6.219
 6072SOL     OW19114   0.034   2.992   0.433
 6072SOL    HW119115   6.995   3.029   0.498
 6072SOL    HW219116   0.012   2.897   0.412
 6073SOL     OW19117   4.844   3.979   0.767
 6073SOL    HW119118   4.803   4.052   0.713
 6073SOL    HW219119   4.819   3.890   0.728
 6074SOL     OW19120   1.230   6.086   2.988
 6074SOL    HW119121   1.171   6.165   3.010
 6074SOL    HW219122   1.304   6.115   2.928
 6075SOL     OW19123   6.328   6.854   6.771
 6075SOL    HW119124   6.374   6.860   6.859
 6075SOL    HW219125   6.393   6.823   6.701
 6076SOL     OW19126   0.317   6.664   3.798
 6076SOL    HW119127   0.405   6.638   3.757
 6076SOL    HW219128   0.312   6.764   3.806
 6077SOL     OW19129   4.870   6.264   2.612
 6077SOL    HW119130   4.813   6.345   2.594
 6077SOL    HW219131   4.873   6.246   2.710
 6078SOL     OW19132   5.300   4.495   0.169
 6078SOL    HW119133   5.268   4.588   0.188
 6078SOL    HW219134   5.282   4.473   0.073
 6079SOL     OW19135   3.036   2.041   0.497
 6079SOL    HW119136   3.067   2.126   0.454
 6079SOL    HW219137   2.967   2.062   0.567
 6080SOL     OW19138   0.263   3.238   5.399
 6080SOL    HW119139   0.195   3.174   5.434
 6080SOL    HW219140   0.330   3.259   5.470
 6081SOL     OW19141   2.192   4.189   4.137
 6081SOL    HW119142   2.189   4.184   4.237
 6081SOL    HW219143   2.116   4.137   4.098
 6082SOL     OW19144   5.294   1.127   1.240
 6082SOL    HW119145   5.242   1.096   1.161
 6082SOL    HW219146   5.281   1.063   1.316
 6083SOL     OW19147   5.327   6.670   6.456
 6083SOL    HW119148   5.397   6.704   6.519
 6083SOL    HW219149   5.360   6.676   6.362
 6084SOL     OW19150   6.433   5.394   3.219
 6084SOL    HW119151   6.354   5.355   3.266
 6084SOL    HW219152   6.421   5.382   3.120
 6085SOL     OW19153   0.644   6.685   0.628
 6085SOL    HW119154   0.567   6.650   0.681
 6085SOL    HW219155   0.660   6.626   0.549
 6086SOL     OW19156   3.842   3.388   0.418
 6086SOL    HW119157   3.773   3.338   0.364
 6086SOL    HW219158   3.839   3.357   0.512
 6087SOL     OW19159   4.041   0.329   0.801
 6087SOL    HW119160   3.964   0.282   0.844
 6087SOL    HW219161   4.082   0.392   0.867
 6088SOL     OW19162   4.203   5.953   1.907
 6088SOL    HW119163   4.296   5.977   1.879
 6088SOL    HW219164   4.207   5.885   1.980
 6089SOL     OW19165   6.435   4.405   3.363
 6089SOL    HW119166   6.365   4.461   3.320
 6089SOL    HW219167   6.524   4.426   3.323
 6090SOL     OW19168   3.910   5.894   5.102
 6090SOL    HW119169   3.945   5.803   5.124
 6090SOL    HW219170   3.886   5.898   5.006
 6091SOL     OW19171   0.824   2.683   2.795
 6091SOL    HW119172   0.921   2.665   2.812
 6091SOL    HW219173   0.775   2.686   2.882
 6092SOL     OW19174   2.220   6.928   1.090
 6092SOL    HW119175   2.164   6.851   1.119
 6092SOL    HW219176   2.161   7.006   1.067
 6093SOL     OW19177   2.946   2.849   1.475
 6093SOL    HW119178   2.873   2.912   1.449
 6093SOL    HW219179   2.935   2.822   1.570
 6094SOL     OW19180   1.260   0.217   5.497
 6094SOL    HW119181   1.239   0.284   5.568
 6094SOL    HW219182   1.293   0.133   5.540
 6095SOL     OW19183   5.352   5.150   2.083
 6095SOL    HW119184   5.423   5.081   2.092
 6095SOL    HW219185   5.330   5.164   1.986
 6096SOL     OW19186   4.838   6.017   2.512
 6096SOL    HW119187   4.916   5.986   2.457
 6096SOL    HW219188   4.848   6.115   2.531
 6097SOL     OW19189   2.761   5.306   2.477
 6097SOL    HW119190   2.666   5.291   2.503
 6097SOL    HW219191   2.766   5.384   2.414
 6098SOL     OW19192   5.919   1.017   5.416
 6098SOL    HW119193   5.916   1.055   5.323
 6098SOL    HW219194   5.987   1.066   5.470
 6099SOL     OW19195   3.718   6.749   5.488
 6099SOL    HW119196   3.627   6.790   5.482
 6099SOL    HW219197   3.715   6.654   5.458
 6100SOL     OW19198   0.196   6.009   5.372
 6100SOL    HW119199   0.198   5.997   5.471
 6100SOL    HW219200   0.261   6.080   5.345
 6101SOL     OW19201   0.549   2.818   1.681
 6101SOL    HW119202   0.647   2.811   1.699
 6101SOL    HW219203   0.508   2.727   1.685
 6102SOL     OW19204   3.278   0.155   2.824
 6102SOL    HW119205   3.241   0.247   2.811
 6102SOL    HW219206   3.204   0.091   2.843
 6103SOL     OW19207   5.256   0.916   2.337
 6103SOL    HW119208   5.295   1.000   2.300
 6103SOL    HW219209   5.217   0.935   2.428
 6104SOL     OW19210   6.708   0.637   4.907
 6104SOL    HW119211   6.685   0.636   4.810
 6104SOL    HW219212   6.761   0.719   4.928
 6105SOL     OW19213   3.984   4.392   5.534
 6105SOL    HW119214   4.040   4.312   5.555
 6105SOL    HW219215   3.977   4.404   5.435
 6106SOL     OW19216   6.359   3.795   4.656
 6106SOL    HW119217   6.265   3.760   4.655
 6106SOL    HW219218   6.423   3.718   4.645
 6107SOL     OW19219   5.683   4.778   5.015
 6107SOL    HW119220   5.623   4.831   4.955
 6107SOL    HW219221   5.775   4.778   4.977
 6108SOL     OW19222   3.100   1.100   6.007
 6108SOL    HW119223   3.162   1.105   6.086
 6108SOL    HW219224   3.092   1.190   5.965
 6109SOL     OW19225   0.112   6.580   3.964
 6109SOL    HW119226   0.045   6.512   3.937
 6109SOL    HW219227   0.187   6.581   3.897
 6110SOL     OW19228   1.344   1.746   3.747
 6110SOL    HW119229   1.389   1.673   3.799
 6110SOL    HW219230   1.253   1.716   3.720
 6111SOL     OW19231   2.359   3.362   0.758
 6111SOL    HW119232   2.309   3.438   0.800
 6111SOL    HW219233   2.363   3.376   0.659
 6112SOL     OW19234   4.496   6.568   3.665
 6112SOL    HW119235   4.441   6.526   3.592
 6112SOL    HW219236   4.551   6.642   3.626
 6113SOL     OW19237   2.925   5.618   0.957
 6113SOL    HW119238   2.888   5.684   1.023
 6113SOL    HW219239   3.010   5.655   0.919
 6114SOL     OW19240   4.547   3.510   1.574
 6114SOL    HW119241   4.576   3.418   1.547
 6114SOL    HW219242   4.448   3.510   1.587
 6115SOL     OW19243   6.692   0.472   5.298
 6115SOL    HW119244   6.773   0.531   5.302
 6115SOL    HW219245   6.619   0.519   5.247
 6116SOL     OW19246   6.351   3.444   6.961
 6116SOL    HW119247   6.421   3.484   7.020
 6116SOL    HW219248   6.303   3.372   7.010
 6117SOL     OW19249   2.188   2.520   1.434
 6117SOL    HW119250   2.120   2.455   1.466
 6117SOL    HW219251   2.237   2.481   1.356
 6118SOL     OW19252   5.814   1.009   2.016
 6118SOL    HW119253   5.911   1.015   1.990
 6118SOL    HW219254   5.768   0.941   1.959
 6119SOL     OW19255   0.297   0.994   6.475
 6119SOL    HW119256   0.289   1.067   6.543
 6119SOL    HW219257   0.389   0.954   6.480
 6120SOL     OW19258   3.018   0.609   3.713
 6120SOL    HW119259   3.078   0.564   3.647
 6120SOL    HW219260   3.068   0.627   3.797
 6121SOL     OW19261   2.379   1.533   4.872
 6121SOL    HW119262   2.366   1.582   4.786
 6121SOL    HW219263   2.372   1.435   4.857
 6122SOL     OW19264   4.949   4.640   4.969
 6122SOL    HW119265   4.997   4.728   4.959
 6122SOL    HW219266   4.870   4.653   5.030
 6123SOL     OW19267   6.525   1.214   4.960
 6123SOL    HW119268   6.441   1.247   5.003
 6123SOL    HW219269   6.599   1.214   5.028
 6124SOL     OW19270   2.381   6.495   4.090
 6124SOL    HW119271   2.469   6.449   4.103
 6124SOL    HW219272   2.321   6.474   4.167
 6125SOL     OW19273   3.597   1.222   5.463
 6125SOL    HW119274   3.682   1.180   5.434
 6125SOL    HW219275   3.607   1.258   5.556
 6126SOL     OW19276   6.223   3.046   6.666
 6126SOL    HW119277   6.160   2.971   6.685
 6126SOL    HW219278   6.252   3.042   6.570
 6127SOL     OW19279   5.947   1.973   2.516
 6127SOL    HW119280   5.886   1.966   2.437
 6127SOL    HW219281   5.910   2.040   2.581
 6128SOL     OW19282   5.920   5.822   5.716
 6128SOL    HW119283   5.835   5.769   5.721
 6128SOL    HW219284   5.967   5.818   5.804
 6129SOL     OW19285   2.478   5.667   2.927
 6129SOL    HW119286   2.565   5.618   2.933
 6129SOL    HW219287   2.404   5.601   2.914
 6130SOL     OW19288   5.979   3.261   0.523
 6130SOL    HW119289   5.959   3.294   0.431
 6130SOL    HW219290   6.005   3.165   0.518
 6131SOL     OW19291   6.258   2.602   2.773
 6131SOL    HW119292   6.288   2.563   2.860
 6131SOL    HW219293   6.169   2.647   2.785
 6132SOL     OW19294   4.369   6.304   5.987
 6132SOL    HW119295   4.390   6.224   6.044
 6132SOL    HW219296   4.391   6.284   5.892
 6133SOL     OW19297   0.575   2.294   3.149
 6133SOL    HW119298   0.646   2.357   3.181
 6133SOL    HW219299   0.518   2.340   3.081
 6134SOL     OW19300   0.049   6.476   5.413
 6134SOL    HW119301   7.014   6.407   5.449
 6134SOL    HW219302   7.026   6.542   5.358
 6135SOL     OW19303   6.193   6.493   0.449
 6135SOL    HW119304   6.240   6.444   0.521
 6135SOL    HW219305   6.210   6.449   0.361
 6136SOL     OW19306   1.068   2.002   3.461
 6136SOL    HW119307   1.093   1.970   3.552
 6136SOL    HW219308   1.151   2.012   3.405
 6137SOL     OW19309   6.572   5.177   0.922
 6137SOL    HW119310   6.508   5.163   0.847
 6137SOL    HW219311   6.651   5.116   0.911
 6138SOL     OW19312   5.531   0.839   2.003
 6138SOL    HW119313   5.552   0.916   1.942
 6138SOL    HW219314   5.444   0.855   2.049
 6139SOL     OW19315   2.004   2.106   4.788
 6139SOL    HW119316   1.919   2.104   4.736
 6139SOL    HW219317   2.028   2.200   4.810
 6140SOL     OW19318   2.126   0.136   3.053
 6140SOL    HW119319   2.151   0.212   3.113
 6140SOL    HW219320   2.158   0.050   3.093
 6141SOL     OW19321   1.036   0.672   0.357
 6141SOL    HW119322   1.050   0.662   0.456
 6141SOL    HW219323   0.938   0.673   0.337
 6142SOL     OW19324   0.152   0.423   1.432
 6142SOL    HW119325   0.192   0.354   1.372
 6142SOL    HW219326   0.053   0.425   1.418
 6143SOL     OW19327   0.710   3.446   5.583
 6143SOL    HW119328   0.761   3.456   5.668
 6143SOL    HW219329   0.771   3.417   5.510
 6144SOL     OW19330   3.333   5.336   2.766
 6144SOL    HW119331   3.315   5.421   2.718
 6144SOL    HW219332   3.399   5.352   2.840
 6145SOL     OW19333   4.885   3.279   4.114
 6145SOL    HW119334   4.868   3.239   4.023
 6145SOL    HW219335   4.963   3.341   4.108
 6146SOL     OW19336   5.915   0.270   5.528
 6146SOL    HW119337   5.986   0.272   5.599
 6146SOL    HW219338   5.828   0.244   5.568
 6147SOL     OW19339   1.201   2.001   5.645
 6147SOL    HW119340   1.296   2.008   5.615
 6147SOL    HW219341   1.168   2.091   5.675
 6148SOL     OW19342   3.703   4.957   0.044
 6148SOL    HW119343   3.800   4.932   0.035
 6148SOL    HW219344   3.660   4.897   0.111
 6149SOL     OW19345   3.670   1.826   1.251
 6149SOL    HW119346   3.750   1.878   1.284
 6149SOL    HW219347   3.605   1.889   1.209
 6150SOL     OW19348   0.186   4.540   4.472
 6150SOL    HW119349   0.271   4.540   4.420
 6150SOL    HW219350   0.166   4.633   4.502
 6151SOL     OW19351   3.772   5.152   2.942
 6151SOL    HW119352   3.743   5.057   2.957
 6151SOL    HW219353   3.842   5.154   2.870
 6152SOL     OW19354   0.968   3.500   2.880
 6152SOL    HW119355   0.899   3.504   2.952
 6152SOL    HW219356   1.059   3.510   2.921
 6153SOL     OW19357   4.857   6.277   1.230
 6153SOL    HW119358   4.806   6.328   1.160
 6153SOL    HW219359   4.882   6.338   1.305
 6154SOL     OW19360   4.682   4.439   2.468
 6154SOL    HW119361   4.702   4.385   2.550
 6154SOL    HW219362   4.727   4.398   2.389
 6155SOL     OW19363   1.835   1.281   3.852
 6155SOL    HW119364   1.841   1.252   3.948
 6155SOL    HW219365   1.835   1.201   3.792
 6156SOL     OW19366   4.921   4.226   2.017
 6156SOL    HW119367   4.894   4.165   2.091
 6156SOL    HW219368   4.882   4.317   2.033
 6157SOL     OW19369   0.784   3.045   1.071
 6157SOL    HW119370   0.686   3.026   1.066
 6157SOL    HW219371   0.818   3.018   1.161
 6158SOL     OW19372   3.010   1.274   5.644
 6158SOL    HW119373   3.022   1.310   5.736
 6158SOL    HW219374   2.912   1.262   5.625
 6159SOL     OW19375   5.940   2.598   0.226
 6159SOL    HW119376   5.939   2.504   0.193
 6159SOL    HW219377   5.986   2.656   0.159
 6160SOL     OW19378   0.573   6.830   1.226
 6160SOL    HW119379   0.566   6.757   1.158
 6160SOL    HW219380   0.635   6.901   1.192
 6161SOL     OW19381   4.958   4.246   6.623
 6161SOL    HW119382   4.930   4.336   6.658
 6161SOL    HW219383   5.058   4.243   6.619
 6162SOL     OW19384   6.283   5.896   1.528
 6162SOL    HW119385   6.218   5.822   1.508
 6162SOL    HW219386   6.326   5.878   1.617
 6163SOL     OW19387   6.311   5.922   3.288
 6163SOL    HW119388   6.337   6.015   3.263
 6163SOL    HW219389   6.392   5.873   3.320
 6164SOL     OW19390   3.430   3.818   4.096
 6164SOL    HW119391   3.415   3.719   4.107
 6164SOL    HW219392   3.391   3.847   4.009
 6165SOL     OW19393   3.800   1.038   6.858
 6165SOL    HW119394   3.812   0.971   6.784
 6165SOL    HW219395   3.754   1.119   6.822
 6166SOL     OW19396   3.116   1.729   5.857
 6166SOL    HW119397   3.205   1.744   5.815
 6166SOL    HW219398   3.118   1.647   5.913
 6167SOL     OW19399   1.501   3.402   3.201
 6167SOL    HW119400   1.438   3.352   3.142
 6167SOL    HW219401   1.526   3.489   3.158
 6168SOL     OW19402   0.147   3.781   4.432
 6168SOL    HW119403   0.063   3.765   4.483
 6168SOL    HW219404   0.201   3.851   4.479
 6169SOL     OW19405   2.737   0.559   0.241
 6169SOL    HW119406   2.770   0.465   0.253
 6169SOL    HW219407   2.779   0.598   0.159
 6170SOL     OW19408   3.004   4.547   1.099
 6170SOL    HW119409   2.990   4.611   1.174
 6170SOL    HW219410   2.917   4.527   1.055
 6171SOL     OW19411   2.449   4.339   1.908
 6171SOL    HW119412   2.438   4.431   1.945
 6171SOL    HW219413   2.532   4.336   1.852
 6172SOL     OW19414   3.008   5.365   1.644
 6172SOL    HW119415   3.048   5.358   1.736
 6172SOL    HW219416   2.910   5.346   1.649
 6173SOL     OW19417   1.432   5.526   2.364
 6173SOL    HW119418   1.411   5.563   2.273
 6173SOL    HW219419   1.349   5.530   2.421
 6174SOL     OW19420   5.599   4.412   1.214
 6174SOL    HW119421   5.502   4.420   1.237
 6174SOL    HW219422   5.622   4.316   1.197
 6175SOL     OW19423   5.097   0.247   3.954
 6175SOL    HW119424   5.175   0.197   3.993
 6175SOL    HW219425   5.014   0.192   3.966
 6176SOL     OW19426   4.913   3.192   0.060
 6176SOL    HW119427   4.989   3.154   0.007
 6176SOL    HW219428   4.883   3.278   0.019
 6177SOL     OW19429   6.480   2.966   2.613
 6177SOL    HW119430   6.442   2.874   2.596
 6177SOL    HW219431   6.565   2.958   2.664
 6178SOL     OW19432   5.554   3.583   1.457
 6178SOL    HW119433   5.583   3.605   1.550
 6178SOL    HW219434   5.608   3.507   1.422
 6179SOL     OW19435   0.459   1.797   5.183
 6179SOL    HW119436   0.520   1.737   5.131
 6179SOL    HW219437   0.418   1.745   5.258
 6180SOL     OW19438   3.468   0.377   6.010
 6180SOL    HW119439   3.469   0.390   6.110
 6180SOL    HW219440   3.548   0.323   5.984
 6181SOL     OW19441   4.295   5.986   6.847
 6181SOL    HW119442   4.236   5.985   6.766
 6181SOL    HW219443   4.384   5.946   6.823
 6182SOL     OW19444   5.051   7.023   5.742
 6182SOL    HW119445   5.117   7.019   5.667
 6182SOL    HW219446   4.966   0.036   5.709
 6183SOL     OW19447   3.825   0.544   2.336
 6183SOL    HW119448   3.908   0.525   2.388
 6183SOL    HW219449   3.837   0.514   2.242
 6184SOL     OW19450   5.898   7.017   6.304
 6184SOL    HW119451   5.902   0.001   6.205
 6184SOL    HW219452   5.873   0.075   6.347
 6185SOL     OW19453   1.651   2.974   6.619
 6185SOL    HW119454   1.590   2.927   6.681
 6185SOL    HW219455   1.744   2.937   6.628
 6186SOL     OW19456   5.046   0.581   4.359
 6186SOL    HW119457   5.043   0.481   4.361
 6186SOL    HW219458   5.101   0.613   4.436
 6187SOL     OW19459   3.029   5.094   5.192
 6187SOL    HW119460   3.110   5.140   5.156
 6187SOL    HW219461   3.006   5.016   5.134
 6188SOL     OW19462   3.002   0.017   1.328
 6188SOL    HW119463   3.056   6.967   1.297
 6188SOL    HW219464   2.970   0.002   1.421
 6189SOL     OW19465   4.954   4.903   3.162
 6189SOL    HW119466   4.936   4.995   3.197
 6189SOL    HW219467   4.874   4.845   3.177
 6190SOL     OW19468   4.727   2.662   5.754
 6190SOL    HW119469   4.735   2.577   5.807
 6190SOL    HW219470   4.672   2.645   5.672
 6191SOL     OW19471   6.555   1.659   6.556
 6191SOL    HW119472   6.487   1.628   6.490
 6191SOL    HW219473   6.534   1.621   6.646
 6192SOL     OW19474   3.220   2.195   0.676
 6192SOL    HW119475   3.316   2.220   0.664
 6192SOL    HW219476   3.205   2.103   0.640
 6193SOL     OW19477   6.407   0.089   1.467
 6193SOL    HW119478   6.483   0.145   1.433
 6193SOL    HW219479   6.381   0.122   1.558
 6194SOL     OW19480   2.179   0.620   0.382
 6194SOL    HW119481   2.165   0.588   0.288
 6194SOL    HW219482   2.096   0.665   0.415
 6195SOL     OW19483   2.399   6.761   5.509
 6195SOL    HW119484   2.316   6.735   5.560
 6195SOL    HW219485   2.426   6.853   5.536
 6196SOL     OW19486   0.509   1.239   5.860
 6196SOL    HW119487   0.450   1.283   5.793
 6196SOL    HW219488   0.579   1.186   5.812
 6197SOL     OW19489   2.474   3.069   1.088
 6197SOL    HW119490   2.407   3.055   1.015
 6197SOL    HW219491   2.549   3.004   1.078
 6198SOL     OW19492   3.475   5.167   2.616
 6198SOL    HW119493   3.436   5.226   2.686
 6198SOL    HW219494   3.476   5.072   2.650
 6199SOL     OW19495   0.812   0.684   6.072
 6199SOL    HW119496   0.727   0.631   6.068
 6199SOL    HW219497   0.792   0.776   6.106
 6200SOL     OW19498   3.897   0.828   5.872
 6200SOL    HW119499   3.869   0.741   5.911
 6200SOL    HW219500   3.887   0.825   5.772
 6201SOL     OW19501   2.006   4.486   3.965
 6201SOL    HW119502   1.918   4.522   3.933
 6201SOL    HW219503   2.072   4.561   3.973
 6202SOL     OW19504   2.674   2.516   1.500
 6202SOL    HW119505   2.627   2.551   1.419
 6202SOL    HW219506   2.662   2.580   1.576
 6203SOL     OW19507   5.606   2.111   4.715
 6203SOL    HW119508   5.664   2.108   4.634
 6203SOL    HW219509   5.663   2.106   4.797
 6204SOL     OW19510   1.444   6.687   6.252
 6204SOL    HW119511   1.515   6.656   6.189
 6204SOL    HW219512   1.472   6.773   6.294
 6205SOL     OW19513   5.337   6.199   6.783
 6205SOL    HW119514   5.299   6.290   6.795
 6205SOL    HW219515   5.436   6.205   6.768
 6206SOL     OW19516   5.452   6.650   3.314
 6206SOL    HW119517   5.473   6.597   3.396
 6206SOL    HW219518   5.523   6.635   3.245
 6207SOL     OW19519   2.206   4.225   4.420
 6207SOL    HW119520   2.269   4.290   4.379
 6207SOL    HW219521   2.184   4.253   4.513
 6208SOL     OW19522   5.621   5.657   5.216
 6208SOL    HW119523   5.644   5.589   5.147
 6208SOL    HW219524   5.659   5.630   5.304
 6209SOL     OW19525   2.680   4.827   1.004
 6209SOL    HW119526   2.623   4.805   0.925
 6209SOL    HW219527   2.690   4.746   1.062
 6210SOL     OW19528   6.666   5.012   3.026
 6210SOL    HW119529   6.601   4.938   3.043
 6210SOL    HW219530   6.661   5.038   2.929
 6211SOL     OW19531   2.612   0.689   5.054
 6211SOL    HW119532   2.526   0.650   5.019
 6211SOL    HW219533   2.632   0.774   5.005
 6212SOL     OW19534   6.715   0.469   3.480
 6212SOL    HW119535   6.810   0.437   3.481
 6212SOL    HW219536   6.654   0.392   3.499
 6213SOL     OW19537   6.674   0.377   0.386
 6213SOL    HW119538   6.649   0.332   0.300
 6213SOL    HW219539   6.669   0.476   0.374
 6214SOL     OW19540   5.540   4.803   1.951
 6214SOL    HW119541   5.603   4.729   1.927
 6214SOL    HW219542   5.575   4.851   2.032
 6215SOL     OW19543   2.398   4.792   1.306
 6215SOL    HW119544   2.480   4.759   1.260
 6215SOL    HW219545   2.419   4.876   1.357
 6216SOL     OW19546   6.555   2.159   2.355
 6216SOL    HW119547   6.483   2.214   2.396
 6216SOL    HW219548   6.574   2.193   2.263
 6217SOL     OW19549   5.181   1.813   1.287
 6217SOL    HW119550   5.198   1.834   1.383
 6217SOL    HW219551   5.121   1.884   1.248
 6218SOL     OW19552   4.017   4.909   4.022
 6218SOL    HW119553   3.942   4.877   4.081
 6218SOL    HW219554   4.102   4.866   4.052
 6219SOL     OW19555   0.049   1.221   4.533
 6219SOL    HW119556   7.008   1.290   4.553
 6219SOL    HW219557   0.140   1.263   4.536
 6220SOL     OW19558   1.808   3.570   5.458
 6220SOL    HW119559   1.754   3.502   5.409
 6220SOL    HW219560   1.903   3.564   5.429
 6221SOL     OW19561   4.244   4.899   4.575
 6221SOL    HW119562   4.298   4.978   4.602
 6221SOL    HW219563   4.269   4.871   4.483
 6222SOL     OW19564   0.373   1.632   1.405
 6222SOL    HW119565   0.362   1.574   1.485
 6222SOL    HW219566   0.296   1.696   1.400
 6223SOL     OW19567   4.739   4.154   4.419
 6223SOL    HW119568   4.696   4.194   4.500
 6223SOL    HW219569   4.795   4.076   4.445
 6224SOL     OW19570   2.580   0.229   4.589
 6224SOL    HW119571   2.668   0.200   4.626
 6224SOL    HW219572   2.558   0.321   4.621
 6225SOL     OW19573   4.149   1.831   6.888
 6225SOL    HW119574   4.102   1.810   6.803
 6225SOL    HW219575   4.108   1.912   6.930
 6226SOL     OW19576   6.866   6.674   4.615
 6226SOL    HW119577   6.806   6.627   4.551
 6226SOL    HW219578   6.902   6.757   4.572
 6227SOL     OW19579   2.884   4.462   0.117
 6227SOL    HW119580   2.852   4.541   0.064
 6227SOL    HW219581   2.880   4.380   0.060
 6228SOL     OW19582   6.633   2.060   2.819
 6228SOL    HW119583   6.651   2.046   2.722
 6228SOL    HW219584   6.635   1.973   2.867
 6229SOL     OW19585   1.752   2.479   2.053
 6229SOL    HW119586   1.794   2.436   2.133
 6229SOL    HW219587   1.664   2.436   2.035
 6230SOL     OW19588   2.284   2.123   4.172
 6230SOL    HW119589   2.198   2.107   4.221
 6230SOL    HW219590   2.266   2.175   4.089
 6231SOL     OW19591   6.802   5.592   1.203
 6231SOL    HW119592   6.797   5.679   1.153
 6231SOL    HW219593   6.709   5.557   1.217
 6232SOL     OW19594   0.910   1.517   0.238
 6232SOL    HW119595   0.957   1.600   0.271
 6232SOL    HW219596   0.951   1.437   0.281
 6233SOL     OW19597   4.301   1.359   6.506
 6233SOL    HW119598   4.357   1.315   6.436
 6233SOL    HW219599   4.260   1.289   6.565
 6234SOL     OW19600   1.742   2.655   3.720
 6234SOL    HW119601   1.749   2.729   3.653
 6234SOL    HW219602   1.713   2.692   3.808
 6235SOL     OW19603   1.925   5.958   2.543
 6235SOL    HW119604   1.889   6.023   2.476
 6235SOL    HW219605   1.876   5.968   2.630
 6236SOL     OW19606   6.782   4.076   0.237
 6236SOL    HW119607   6.871   4.073   0.192
 6236SOL    HW219608   6.762   4.170   0.265
 6237SOL     OW19609   3.925   6.120   6.666
 6237SOL    HW119610   3.955   6.072   6.584
 6237SOL    HW219611   3.936   6.061   6.746
 6238SOL     OW19612   5.437   3.748   0.586
 6238SOL    HW119613   5.456   3.835   0.541
 6238SOL    HW219614   5.372   3.695   0.531
 6239SOL     OW19615   2.520   0.011   3.286
 6239SOL    HW119616   2.436   7.015   3.334
 6239SOL    HW219617   2.543   0.107   3.303
 6240SOL     OW19618   1.888   3.694   0.140
 6240SOL    HW119619   1.831   3.760   0.189
 6240SOL    HW219620   1.901   3.613   0.197
 6241SOL     OW19621   4.979   0.243   1.624
 6241SOL    HW119622   4.981   0.220   1.527
 6241SOL    HW219623   4.910   0.313   1.641
 6242SOL     OW19624   4.230   2.211   3.264
 6242SOL    HW119625   4.155   2.253   3.315
 6242SOL    HW219626   4.219   2.111   3.266
 6243SOL     OW19627   5.803   5.362   2.909
 6243SOL    HW119628   5.839   5.269   2.898
 6243SOL    HW219629   5.826   5.416   2.829
 6244SOL     OW19630   1.928   1.868   2.641
 6244SOL    HW119631   2.012   1.814   2.645
 6244SOL    HW219632   1.951   1.965   2.650
 6245SOL     OW19633   2.270   3.834   0.772
 6245SOL    HW119634   2.188   3.855   0.825
 6245SOL    HW219635   2.253   3.755   0.713
 6246SOL     OW19636   4.328   0.261   0.121
 6246SOL    HW119637   4.287   0.200   0.190
 6246SOL    HW219638   4.287   0.352   0.128
 6247SOL     OW19639   6.771   6.427   3.102
 6247SOL    HW119640   6.795   6.524   3.112
 6247SOL    HW219641   6.847   6.370   3.132
 6248SOL     OW19642   1.228   5.860   0.840
 6248SOL    HW119643   1.292   5.823   0.907
 6248SOL    HW219644   1.135   5.829   0.861
 6249SOL     OW19645   6.219   4.005   6.555
 6249SOL    HW119646   6.317   4.002   6.571
 6249SOL    HW219647   6.184   3.912   6.545
 6250SOL     OW19648   6.244   4.835   5.618
 6250SOL    HW119649   6.340   4.809   5.628
 6250SOL    HW219650   6.190   4.755   5.589
 6251SOL     OW19651   4.757   1.575   1.010
 6251SOL    HW119652   4.810   1.606   1.089
 6251SOL    HW219653   4.664   1.552   1.039
 6252SOL     OW19654   2.250   6.073   5.203
 6252SOL    HW119655   2.333   6.017   5.197
 6252SOL    HW219656   2.178   6.031   5.148
 6253SOL     OW19657   2.906   4.070   1.584
 6253SOL    HW119658   2.949   4.158   1.604
 6253SOL    HW219659   2.975   4.005   1.555
 6254SOL     OW19660   5.146   0.392   0.088
 6254SOL    HW119661   5.189   0.335   0.019
 6254SOL    HW219662   5.089   0.336   0.148
 6255SOL     OW19663   6.894   2.864   3.351
 6255SOL    HW119664   6.841   2.841   3.432
 6255SOL    HW219665   6.867   2.955   3.319
 6256SOL     OW19666   3.876   5.371   4.004
 6256SOL    HW119667   3.960   5.423   3.988
 6256SOL    HW219668   3.871   5.295   3.939
 6257SOL     OW19669   4.461   3.054   7.022
 6257SOL    HW119670   4.460   3.007   6.934
 6257SOL    HW219671   4.555   3.057   0.029
 6258SOL     OW19672   4.370   2.374   2.756
 6258SOL    HW119673   4.324   2.399   2.841
 6258SOL    HW219674   4.410   2.456   2.714
 6259SOL     OW19675   3.033   2.045   1.537
 6259SOL    HW119676   3.121   2.072   1.577
 6259SOL    HW219677   2.966   2.118   1.552
 6260SOL     OW19678   3.490   4.217   1.125
 6260SOL    HW119679   3.512   4.127   1.087
 6260SOL    HW219680   3.502   4.287   1.054
 6261SOL     OW19681   4.596   0.093   6.766
 6261SOL    HW119682   4.569   0.186   6.742
 6261SOL    HW219683   4.682   0.070   6.721
 6262SOL     OW19684   0.645   5.989   5.336
 6262SOL    HW119685   0.695   5.992   5.249
 6262SOL    HW219686   0.581   6.066   5.340
 6263SOL     OW19687   6.120   1.140   1.313
 6263SOL    HW119688   6.204   1.107   1.357
 6263SOL    HW219689   6.048   1.148   1.382
 6264SOL     OW19690   2.315   1.614   0.439
 6264SOL    HW119691   2.233   1.640   0.388
 6264SOL    HW219692   2.393   1.667   0.406
 6265SOL     OW19693   5.637   3.578   0.622
 6265SOL    HW119694   5.696   3.603   0.699
 6265SOL    HW219695   5.550   3.626   0.629
 6266SOL     OW19696   2.714   0.409   2.074
 6266SOL    HW119697   2.721   0.335   2.140
 6266SOL    HW219698   2.624   0.451   2.080
 6267SOL     OW19699   2.648   0.266   0.035
 6267SOL    HW119700   2.568   0.320   0.061
 6267SOL    HW219701   2.619   0.175   0.007
 6268SOL     OW19702   2.300   5.804   3.086
 6268SOL    HW119703   2.364   5.749   3.033
 6268SOL    HW219704   2.328   5.804   3.182
 6269SOL     OW19705   5.949   4.443   0.033
 6269SOL    HW119706   5.942   4.406   0.126
 6269SOL    HW219707   6.037   4.416   7.021
 6270SOL     OW19708   0.561   0.969   4.070
 6270SOL    HW119709   0.623   1.048   4.071
 6270SOL    HW219710   0.562   0.925   4.160
 6271SOL     OW19711   6.371   1.591   1.247
 6271SOL    HW119712   6.287   1.567   1.295
 6271SOL    HW219713   6.424   1.508   1.231
 6272SOL     OW19714   1.788   2.209   3.807
 6272SOL    HW119715   1.839   2.294   3.792
 6272SOL    HW219716   1.825   2.137   3.749
 6273SOL     OW19717   4.514   0.813   2.446
 6273SOL    HW119718   4.532   0.908   2.471
 6273SOL    HW219719   4.444   0.775   2.506
 6274SOL     OW19720   2.708   6.526   6.767
 6274SOL    HW119721   2.636   6.502   6.832
 6274SOL    HW219722   2.759   6.605   6.801
 6275SOL     OW19723   2.947   0.638   4.321
 6275SOL    HW119724   2.966   0.718   4.378
 6275SOL    HW219725   2.997   0.645   4.235
 6276SOL     OW19726   1.106   5.419   3.798
 6276SOL    HW119727   1.070   5.331   3.768
 6276SOL    HW219728   1.057   5.449   3.879
 6277SOL     OW19729   5.543   3.415   4.187
 6277SOL    HW119730   5.636   3.453   4.186
 6277SOL    HW219731   5.519   3.389   4.281
 6278SOL     OW19732   4.376   0.673   3.801
 6278SOL    HW119733   4.352   0.578   3.780
 6278SOL    HW219734   4.473   0.687   3.784
 6279SOL     OW19735   4.672   1.978   6.872
 6279SOL    HW119736   4.638   2.057   6.821
 6279SOL    HW219737   4.700   2.006   6.963
 6280SOL     OW19738   1.078   5.220   5.968
 6280SOL    HW119739   0.986   5.208   6.004
 6280SOL    HW219740   1.143   5.228   6.044
 6281SOL     OW19741   3.163   6.626   4.696
 6281SOL    HW119742   3.148   6.531   4.670
 6281SOL    HW219743   3.165   6.683   4.613
 6282SOL     OW19744   0.554   0.049   3.880
 6282SOL    HW119745   0.641   0.003   3.860
 6282SOL    HW219746   0.538   0.120   3.812
 6283SOL     OW19747   1.267   3.438   5.119
 6283SOL    HW119748   1.175   3.476   5.117
 6283SOL    HW219749   1.261   3.339   5.133
 6284SOL     OW19750   2.819   4.671   6.550
 6284SOL    HW119751   2.783   4.692   6.459
 6284SOL    HW219752   2.752   4.617   6.601
 6285SOL     OW19753   1.777   4.610   2.804
 6285SOL    HW119754   1.779   4.644   2.898
 6285SOL    HW219755   1.865   4.629   2.760
 6286SOL     OW19756   6.391   6.174   4.753
 6286SOL    HW119757   6.413   6.093   4.807
 6286SOL    HW219758   6.322   6.228   4.802
 6287SOL     OW19759   3.498   4.909   2.747
 6287SOL    HW119760   3.440   4.883   2.824
 6287SOL    HW219761   3.576   4.846   2.741
 6288SOL     OW19762   5.676   3.260   1.126
 6288SOL    HW119763   5.662   3.162   1.113
 6288SOL    HW219764   5.764   3.286   1.087
 6289SOL     OW19765   1.143   6.695   2.644
 6289SOL    HW119766   1.219   6.760   2.638
 6289SOL    HW219767   1.065   6.730   2.593
 6290SOL     OW19768   6.100   3.966   3.435
 6290SOL    HW119769   6.167   3.893   3.420
 6290SOL    HW219770   6.098   4.026   3.355
 6291SOL     OW19771   3.928   3.734   3.271
 6291SOL    HW119772   3.966   3.669   3.336
 6291SOL    HW219773   3.973   3.723   3.182
 6292SOL     OW19774   0.197   1.136   2.072
 6292SOL    HW119775   0.259   1.190   2.015
 6292SOL    HW219776   0.248   1.066   2.121
 6293SOL     OW19777   5.684   5.125   0.002
 6293SOL    HW119778   5.638   5.166   0.081
 6293SOL    HW219779   5.754   5.187   6.996
 6294SOL     OW19780   3.814   5.756   1.999
 6294SOL    HW119781   3.857   5.843   2.024
 6294SOL    HW219782   3.775   5.713   2.080
 6295SOL     OW19783   0.079   5.971   6.048
 6295SOL    HW119784   0.146   5.912   6.003
 6295SOL    HW219785   0.004   5.915   6.085
 6296SOL     OW19786   6.554   0.894   2.989
 6296SOL    HW119787   6.529   0.988   3.008
 6296SOL    HW219788   6.511   0.833   3.055
 6297SOL     OW19789   5.433   0.856   5.855
 6297SOL    HW119790   5.375   0.918   5.802
 6297SOL    HW219791   5.529   0.875   5.835
 6298SOL     OW19792   6.816   1.997   4.090
 6298SOL    HW119793   6.866   2.083   4.105
 6298SOL    HW219794   6.809   1.979   3.992
 6299SOL     OW19795   6.729   3.137   0.745
 6299SOL    HW119796   6.786   3.181   0.676
 6299SOL    HW219797   6.760   3.044   0.761
 6300SOL     OW19798   5.454   1.620   3.376
 6300SOL    HW119799   5.438   1.719   3.372
 6300SOL    HW219800   5.443   1.588   3.469
 6301SOL     OW19801   3.578   0.696   0.855
 6301SOL    HW119802   3.656   0.682   0.795
 6301SOL    HW219803   3.544   0.607   0.887
 6302SOL     OW19804   6.562   0.777   2.587
 6302SOL    HW119805   6.633   0.847   2.577
 6302SOL    HW219806   6.507   0.774   2.503
 6303SOL     OW19807   2.263   5.851   4.908
 6303SOL    HW119808   2.208   5.771   4.886
 6303SOL    HW219809   2.265   5.863   5.008
 6304SOL     OW19810   4.197   0.888   4.640
 6304SOL    HW119811   4.158   0.977   4.663
 6304SOL    HW219812   4.123   0.823   4.621
 6305SOL     OW19813   5.489   0.741   2.375
 6305SOL    HW119814   5.406   0.797   2.369
 6305SOL    HW219815   5.499   0.707   2.469
 6306SOL     OW19816   5.904   2.766   4.244
 6306SOL    HW119817   5.869   2.740   4.154
 6306SOL    HW219818   6.004   2.771   4.240
 6307SOL     OW19819   2.148   4.725   0.257
 6307SOL    HW119820   2.109   4.773   0.179
 6307SOL    HW219821   2.076   4.675   0.305
 6308SOL     OW19822   3.927   2.516   6.275
 6308SOL    HW119823   3.936   2.482   6.181
 6308SOL    HW219824   3.989   2.465   6.335
 6309SOL     OW19825   5.857   2.216   5.159
 6309SOL    HW119826   5.801   2.295   5.183
 6309SOL    HW219827   5.834   2.185   5.067
 6310SOL     OW19828   0.210   5.253   4.415
 6310SOL    HW119829   0.290   5.278   4.471
 6310SOL    HW219830   0.159   5.335   4.392
 6311SOL     OW19831   6.356   6.806   4.594
 6311SOL    HW119832   6.448   6.766   4.589
 6311SOL    HW219833   6.352   6.869   4.671
 6312SOL     OW19834   5.357   4.313   5.834
 6312SOL    HW119835   5.281   4.343   5.892
 6312SOL    HW219836   5.335   4.225   5.793
 6313SOL     OW19837   2.462   5.179   3.988
 6313SOL    HW119838   2.372   5.145   4.016
 6313SOL    HW219839   2.514   5.206   4.069
 6314SOL     OW19840   1.536   0.467   3.682
 6314SOL    HW119841   1.577   0.558   3.682
 6314SOL    HW219842   1.483   0.455   3.597
 6315SOL     OW19843   1.959   4.164   0.340
 6315SOL    HW119844   2.018   4.231   0.294
 6315SOL    HW219845   2.015   4.093   0.381
 6316SOL     OW19846   4.495   0.861   5.522
 6316SOL    HW119847   4.501   0.877   5.423
 6316SOL    HW219848   4.402   0.836   5.547
 6317SOL     OW19849   6.208   5.106   4.705
 6317SOL    HW119850   6.291   5.071   4.748
 6317SOL    HW219851   6.172   5.182   4.759
 6318SOL     OW19852   2.071   2.172   4.369
 6318SOL    HW119853   2.015   2.254   4.383
 6318SOL    HW219854   2.110   2.143   4.456
 6319SOL     OW19855   0.633   2.088   2.690
 6319SOL    HW119856   0.706   2.109   2.755
 6319SOL    HW219857   0.673   2.071   2.599
 6320SOL     OW19858   0.164   2.202   2.774
 6320SOL    HW119859   0.214   2.257   2.708
 6320SOL    HW219860   0.222   2.127   2.806
 6321SOL     OW19861   2.546   3.783   6.116
 6321SOL    HW119862   2.520   3.690   6.089
 6321SOL    HW219863   2.618   3.816   6.055
 6322SOL     OW19864   2.471   0.509   0.207
 6322SOL    HW119865   2.568   0.512   0.232
 6322SOL    HW219866   2.433   0.601   0.210
 6323SOL     OW19867   4.021   1.722   1.436
 6323SOL    HW119868   4.044   1.710   1.340
 6323SOL    HW219869   4.046   1.814   1.465
 6324SOL     OW19870   3.618   1.741   6.586
 6324SOL    HW119871   3.580   1.829   6.558
 6324SOL    HW219872   3.715   1.737   6.560
 6325SOL     OW19873   1.485   2.945   2.500
 6325SOL    HW119874   1.563   2.886   2.519
 6325SOL    HW219875   1.505   3.038   2.530
 6326SOL     OW19876   4.504   6.663   1.373
 6326SOL    HW119877   4.483   6.572   1.337
 6326SOL    HW219878   4.419   6.712   1.393
 6327SOL     OW19879   3.675   5.641   5.656
 6327SOL    HW119880   3.756   5.667   5.604
 6327SOL    HW219881   3.689   5.663   5.753
 6328SOL     OW19882   2.353   4.754   6.750
 6328SOL    HW119883   2.404   4.688   6.694
 6328SOL    HW219884   2.393   4.845   6.740
 6329SOL     OW19885   0.503   1.711   3.052
 6329SOL    HW119886   0.602   1.729   3.054
 6329SOL    HW219887   0.454   1.797   3.037
 6330SOL     OW19888   3.741   0.460   0.367
 6330SOL    HW119889   3.699   0.447   0.277
 6330SOL    HW219890   3.689   0.410   0.436
 6331SOL     OW19891   5.054   3.323   2.093
 6331SOL    HW119892   5.012   3.266   2.163
 6331SOL    HW219893   5.015   3.300   2.004
 6332SOL     OW19894   5.061   6.461   2.297
 6332SOL    HW119895   5.119   6.382   2.316
 6332SOL    HW219896   5.020   6.451   2.207
 6333SOL     OW19897   2.006   5.123   3.326
 6333SOL    HW119898   2.103   5.109   3.304
 6333SOL    HW219899   1.952   5.047   3.289
 6334SOL     OW19900   2.971   1.714   2.747
 6334SOL    HW119901   2.958   1.722   2.649
 6334SOL    HW219902   2.908   1.645   2.784
 6335SOL     OW19903   0.108   1.640   0.272
 6335SOL    HW119904   0.167   1.688   0.337
 6335SOL    HW219905   0.147   1.648   0.180
 6336SOL     OW19906   0.938   3.842   4.981
 6336SOL    HW119907   0.902   3.924   5.026
 6336SOL    HW219908   1.004   3.797   5.041
 6337SOL     OW19909   0.120   4.858   4.901
 6337SOL    HW119910   0.102   4.761   4.883
 6337SOL    HW219911   0.064   4.888   4.978
 6338SOL     OW19912   3.769   1.162   4.418
 6338SOL    HW119913   3.803   1.101   4.489
 6338SOL    HW219914   3.837   1.233   4.399
 6339SOL     OW19915   0.231   2.614   4.777
 6339SOL    HW119916   0.312   2.566   4.743
 6339SOL    HW219917   0.153   2.597   4.717
 6340SOL     OW19918   2.444   5.832   4.434
 6340SOL    HW119919   2.496   5.748   4.448
 6340SOL    HW219920   2.346   5.811   4.428
 6341SOL     OW19921   6.388   5.324   2.369
 6341SOL    HW119922   6.371   5.375   2.285
 6341SOL    HW219923   6.386   5.386   2.447
 6342SOL     OW19924   1.318   3.682   0.475
 6342SOL    HW119925   1.347   3.682   0.571
 6342SOL    HW219926   1.232   3.732   0.466
 6343SOL     OW19927   4.756   1.320   0.440
 6343SOL    HW119928   4.670   1.364   0.415
 6343SOL    HW219929   4.737   1.238   0.494
 6344SOL     OW19930   6.445   4.632   4.694
 6344SOL    HW119931   6.502   4.593   4.766
 6344SOL    HW219932   6.391   4.559   4.650
 6345SOL     OW19933   2.240   2.312   2.000
 6345SOL    HW119934   2.338   2.319   1.980
 6345SOL    HW219935   2.189   2.363   1.931
 6346SOL     OW19936   0.624   5.195   4.385
 6346SOL    HW119937   0.568   5.146   4.318
 6346SOL    HW219938   0.659   5.279   4.345
 6347SOL     OW19939   3.183   0.308   0.779
 6347SOL    HW119940   3.243   0.239   0.738
 6347SOL    HW219941   3.210   0.323   0.874
 6348SOL     OW19942   0.195   2.311   4.203
 6348SOL    HW119943   0.170   2.364   4.284
 6348SOL    HW219944   0.219   2.374   4.128
 6349SOL     OW19945   1.321   1.104   0.613
 6349SOL    HW119946   1.276   1.032   0.561
 6349SOL    HW219947   1.403   1.134   0.564
 6350SOL     OW19948   0.072   5.710   3.276
 6350SOL    HW119949   7.027   5.726   3.209
 6350SOL    HW219950   0.070   5.614   3.304
 6351SOL     OW19951   0.118   1.749   2.872
 6351SOL    HW119952   0.048   1.681   2.850
 6351SOL    HW219953   0.122   1.817   2.799
 6352SOL     OW19954   0.261   4.831   2.555
 6352SOL    HW119955   0.161   4.833   2.549
 6352SOL    HW219956   0.301   4.838   2.464
 6353SOL     OW19957   0.577   6.353   1.784
 6353SOL    HW119958   0.512   6.294   1.736
 6353SOL    HW219959   0.527   6.425   1.832
 6354SOL     OW19960   0.228   6.865   4.327
 6354SOL    HW119961   0.139   6.884   4.367
 6354SOL    HW219962   0.219   6.857   4.228
 6355SOL     OW19963   1.467   2.462   1.972
 6355SOL    HW119964   1.436   2.546   1.927
 6355SOL    HW219965   1.465   2.387   1.906
 6356SOL     OW19966   3.701   3.511   1.212
 6356SOL    HW119967   3.775   3.508   1.279
 6356SOL    HW219968   3.737   3.490   1.121
 6357SOL     OW19969   5.630   2.296   1.242
 6357SOL    HW119970   5.717   2.301   1.194
 6357SOL    HW219971   5.568   2.235   1.194
 6358SOL     OW19972   1.033   2.995   5.041
 6358SOL    HW119973   1.023   2.909   4.989
 6358SOL    HW219974   0.992   2.984   5.131
 6359SOL     OW19975   6.685   1.380   6.654
 6359SOL    HW119976   6.783   1.398   6.659
 6359SOL    HW219977   6.638   1.428   6.728
 6360SOL     OW19978   2.289   5.734   4.133
 6360SOL    HW119979   2.353   5.661   4.157
 6360SOL    HW219980   2.220   5.699   4.069
 6361SOL     OW19981   3.043   6.689   5.781
 6361SOL    HW119982   2.955   6.736   5.775
 6361SOL    HW219983   3.041   6.624   5.857
 6362SOL     OW19984   6.265   5.155   6.146
 6362SOL    HW119985   6.237   5.158   6.242
 6362SOL    HW219986   6.202   5.096   6.095
 6363SOL     OW19987   0.650   5.467   4.327
 6363SOL    HW119988   0.750   5.473   4.334
 6363SOL    HW219989   0.620   5.506   4.241
 6364SOL     OW19990   2.256   2.436   6.696
 6364SOL    HW119991   2.267   2.500   6.772
 6364SOL    HW219992   2.200   2.479   6.625
 6365SOL     OW19993   4.156   5.379   2.079
 6365SOL    HW119994   4.202   5.291   2.066
 6365SOL    HW219995   4.224   5.449   2.101
 6366SOL     OW19996   0.729   4.628   5.530
 6366SOL    HW119997   0.751   4.714   5.576
 6366SOL    HW219998   0.791   4.615   5.453
 6367SOL     OW19999   5.871   6.285   2.819
 6367SOL    HW120000   5.900   6.207   2.764
 6367SOL    HW220001   5.921   6.366   2.791
 6368SOL     OW20002   3.346   0.894   3.104
 6368SOL    HW120003   3.262   0.900   3.049
 6368SOL    HW220004   3.388   0.805   3.091
 6369SOL     OW20005   2.461   5.396   5.113
 6369SOL    HW120006   2.510   5.404   5.200
 6369SOL    HW220007   2.415   5.483   5.094
 6370SOL     OW20008   5.084   3.022   1.835
 6370SOL    HW120009   5.013   2.956   1.858
 6370SOL    HW220010   5.154   3.022   1.906
 6371SOL     OW20011   4.509   1.236   3.737
 6371SOL    HW120012   4.524   1.139   3.752
 6371SOL    HW220013   4.586   1.274   3.685
 6372SOL     OW20014   2.740   0.192   2.266
 6372SOL    HW120015   2.838   0.172   2.270
 6372SOL    HW220016   2.711   0.230   2.354
 6373SOL     OW20017   3.343   4.918   0.166
 6373SOL    HW120018   3.253   4.950   0.193
 6373SOL    HW220019   3.355   4.930   0.068
 6374SOL     OW20020   3.082   3.058   3.157
 6374SOL    HW120021   3.027   2.983   3.195
 6374SOL    HW220022   3.061   3.142   3.207
 6375SOL     OW20023   1.828   5.924   2.066
 6375SOL    HW120024   1.738   5.899   2.029
 6375SOL    HW220025   1.841   5.881   2.155
 6376SOL     OW20026   1.082   2.060   5.196
 6376SOL    HW120027   1.113   2.103   5.112
 6376SOL    HW220028   1.149   2.075   5.269
 6377SOL     OW20029   1.184   1.965   3.714
 6377SOL    HW120030   1.207   2.060   3.736
 6377SOL    HW220031   1.260   1.905   3.739
 6378SOL     OW20032   4.225   5.471   3.127
 6378SOL    HW120033   4.179   5.497   3.213
 6378SOL    HW220034   4.168   5.406   3.078
 6379SOL     OW20035   2.452   4.866   1.848
 6379SOL    HW120036   2.408   4.889   1.934
 6379SOL    HW220037   2.551   4.877   1.857
 6380SOL     OW20038   1.291   1.167   6.112
 6380SOL    HW120039   1.358   1.238   6.131
 6380SOL    HW220040   1.306   1.131   6.019
 6381SOL     OW20041   3.411   3.532   2.026
 6381SOL    HW120042   3.407   3.600   2.100
 6381SOL    HW220043   3.384   3.575   1.940
 6382SOL     OW20044   1.179   4.879   4.625
 6382SOL    HW120045   1.254   4.919   4.677
 6382SOL    HW220046   1.149   4.944   4.555
 6383SOL     OW20047   3.596   1.559   3.653
 6383SOL    HW120048   3.624   1.487   3.591
 6383SOL    HW220049   3.573   1.520   3.742
 6384SOL     OW20050   0.012   4.640   2.372
 6384SOL    HW120051   6.977   4.627   2.296
 6384SOL    HW220052   7.001   4.705   2.437
 6385SOL     OW20053   1.298   5.620   5.585
 6385SOL    HW120054   1.232   5.639   5.658
 6385SOL    HW220055   1.303   5.699   5.524
 6386SOL     OW20056   2.572   5.226   2.205
 6386SOL    HW120057   2.524   5.239   2.292
 6386SOL    HW220058   2.666   5.257   2.214
 6387SOL     OW20059   6.005   0.775   5.104
 6387SOL    HW120060   5.914   0.812   5.120
 6387SOL    HW220061   6.072   0.827   5.158
 6388SOL     OW20062   1.685   5.132   3.170
 6388SOL    HW120063   1.599   5.127   3.120
 6388SOL    HW220064   1.739   5.050   3.151
 6389SOL     OW20065   1.270   4.335   1.155
 6389SOL    HW120066   1.330   4.371   1.083
 6389SOL    HW220067   1.296   4.241   1.177
 6390SOL     OW20068   0.942   2.867   4.339
 6390SOL    HW120069   0.904   2.921   4.414
 6390SOL    HW220070   1.032   2.832   4.365
 6391SOL     OW20071   3.870   0.698   6.787
 6391SOL    HW120072   3.788   0.652   6.753
 6391SOL    HW220073   3.877   0.686   6.886
 6392SOL     OW20074   1.227   5.936   4.432
 6392SOL    HW120075   1.326   5.924   4.437
 6392SOL    HW220076   1.207   6.028   4.397
 6393SOL     OW20077   5.027   1.753   7.023
 6393SOL    HW120078   5.035   1.773   0.092
 6393SOL    HW220079   4.936   1.779   6.991
 6394SOL     OW20080   3.111   4.789   1.732
 6394SOL    HW120081   3.180   4.851   1.697
 6394SOL    HW220082   3.103   4.800   1.831
 6395SOL     OW20083   5.683   2.191   0.163
 6395SOL    HW120084   5.629   2.269   0.133
 6395SOL    HW220085   5.633   2.140   0.233
 6396SOL     OW20086   6.422   3.352   6.071
 6396SOL    HW120087   6.486   3.348   5.995
 6396SOL    HW220088   6.440   3.433   6.126
 6397SOL     OW20089   5.887   0.978   1.120
 6397SOL    HW120090   5.801   0.988   1.070
 6397SOL    HW220091   5.932   1.068   1.126
 6398SOL     OW20092   3.799   1.415   1.592
 6398SOL    HW120093   3.736   1.360   1.538
 6398SOL    HW220094   3.888   1.417   1.548
 6399SOL     OW20095   1.690   6.596   6.753
 6399SOL    HW120096   1.673   6.634   6.844
 6399SOL    HW220097   1.604   6.566   6.713
 6400SOL     OW20098   2.567   5.031   5.035
 6400SOL    HW120099   2.590   5.074   5.122
 6400SOL    HW220100   2.606   4.939   5.032
 6401SOL     OW20101   0.532   4.867   5.051
 6401SOL    HW120102   0.466   4.804   5.009
 6401SOL    HW220103   0.621   4.855   5.008
 6402SOL     OW20104   1.952   2.869   3.372
 6402SOL    HW120105   2.006   2.942   3.332
 6402SOL    HW220106   1.956   2.788   3.314
 6403SOL     OW20107   1.197   6.671   1.659
 6403SOL    HW120108   1.186   6.760   1.614
 6403SOL    HW220109   1.123   6.610   1.632
 6404SOL     OW20110   5.036   1.112   2.621
 6404SOL    HW120111   5.116   1.052   2.629
 6404SOL    HW220112   4.955   1.056   2.605
 6405SOL     OW20113   3.670   0.754   1.861
 6405SOL    HW120114   3.605   0.712   1.796
 6405SOL    HW220115   3.624   0.827   1.911
 6406SOL     OW20116   2.698   1.854   3.410
 6406SOL    HW120117   2.740   1.832   3.497
 6406SOL    HW220118   2.736   1.940   3.376
 6407SOL     OW20119   4.594   6.091   6.594
 6407SOL    HW120120   4.591   6.191   6.593
 6407SOL    HW220121   4.530   6.055   6.525
 6408SOL     OW20122   5.670   2.509   0.812
 6408SOL    HW120123   5.710   2.521   0.903
 6408SOL    HW220124   5.627   2.595   0.783
 6409SOL     OW20125   0.552   5.166   1.844
 6409SOL    HW120126   0.498   5.206   1.771
 6409SOL    HW220127   0.596   5.082   1.811
 6410SOL     OW20128   0.714   0.910   2.131
 6410SOL    HW120129   0.724   0.948   2.222
 6410SOL    HW220130   0.783   0.839   2.116
 6411SOL     OW20131   1.335   1.323   3.626
 6411SOL    HW120132   1.258   1.295   3.682
 6411SOL    HW220133   1.413   1.263   3.643
 6412SOL     OW20134   5.631   2.523   4.112
 6412SOL    HW120135   5.565   2.485   4.176
 6412SOL    HW220136   5.714   2.468   4.113
 6413SOL     OW20137   0.465   4.659   0.805
 6413SOL    HW120138   0.492   4.579   0.751
 6413SOL    HW220139   0.499   4.742   0.759
 6414SOL     OW20140   6.166   0.594   3.110
 6414SOL    HW120141   6.107   0.514   3.098
 6414SOL    HW220142   6.248   0.582   3.054
 6415SOL     OW20143   1.677   1.371   2.185
 6415SOL    HW120144   1.583   1.342   2.167
 6415SOL    HW220145   1.703   1.343   2.278
 6416SOL     OW20146   2.561   6.570   6.528
 6416SOL    HW120147   2.578   6.546   6.624
 6416SOL    HW220148   2.537   6.487   6.477
 6417SOL     OW20149   0.674   6.120   4.244
 6417SOL    HW120150   0.580   6.091   4.229
 6417SOL    HW220151   0.692   6.202   4.191
 6418SOL     OW20152   6.656   5.241   2.027
 6418SOL    HW120153   6.714   5.242   1.945
 6418SOL    HW220154   6.659   5.150   2.069
 6419SOL     OW20155   2.226   3.641   0.540
 6419SOL    HW120156   2.288   3.568   0.513
 6419SOL    HW220157   2.222   3.710   0.468
 6420SOL     OW20158   0.518   2.741   6.786
 6420SOL    HW120159   0.600   2.794   6.809
 6420SOL    HW220160   0.506   2.742   6.687
 6421SOL     OW20161   5.570   2.179   0.428
 6421SOL    HW120162   5.619   2.263   0.451
 6421SOL    HW220163   5.568   2.119   0.508
 6422SOL     OW20164   6.063   2.559   2.533
 6422SOL    HW120165   6.006   2.477   2.544
 6422SOL    HW220166   6.060   2.612   2.618
 6423SOL     OW20167   5.397   3.908   0.220
 6423SOL    HW120168   5.404   3.933   0.317
 6423SOL    HW220169   5.366   3.987   0.167
 6424SOL     OW20170   6.592   4.613   5.368
 6424SOL    HW120171   6.641   4.531   5.337
 6424SOL    HW220172   6.617   4.633   5.463
 6425SOL     OW20173   0.203   5.097   1.053
 6425SOL    HW120174   0.178   5.123   0.960
 6425SOL    HW220175   0.303   5.097   1.061
 6426SOL     OW20176   6.141   2.878   2.903
 6426SOL    HW120177   6.051   2.909   2.933
 6426SOL    HW220178   6.156   2.907   2.808
 6427SOL     OW20179   0.455   3.311   5.570
 6427SOL    HW120180   0.461   3.273   5.662
 6427SOL    HW220181   0.544   3.348   5.544
 6428SOL     OW20182   6.261   3.308   4.049
 6428SOL    HW120183   6.188   3.242   4.065
 6428SOL    HW220184   6.327   3.304   4.124
 6429SOL     OW20185   1.027   1.362   4.887
 6429SOL    HW120186   0.942   1.404   4.856
 6429SOL    HW220187   1.070   1.421   4.955
 6430SOL     OW20188   6.278   3.281   0.159
 6430SOL    HW120189   6.197   3.229   0.131
 6430SOL    HW220190   6.274   3.298   0.257
 6431SOL     OW20191   6.266   1.449   2.668
 6431SOL    HW120192   6.256   1.352   2.688
 6431SOL    HW220193   6.179   1.486   2.636
 6432SOL     OW20194   6.444   3.742   0.339
 6432SOL    HW120195   6.424   3.820   0.279
 6432SOL    HW220196   6.517   3.766   0.402
 6433SOL     OW20197   2.312   3.661   1.622
 6433SOL    HW120198   2.346   3.717   1.698
 6433SOL    HW220199   2.306   3.718   1.540
 6434SOL     OW20200   1.580   5.285   0.545
 6434SOL    HW120201   1.603   5.209   0.484
 6434SOL    HW220202   1.506   5.258   0.607
 6435SOL     OW20203   5.187   3.413   0.738
 6435SOL    HW120204   5.137   3.396   0.653
 6435SOL    HW220205   5.141   3.484   0.791
 6436SOL     OW20206   2.211   2.523   1.753
 6436SOL    HW120207   2.157   2.463   1.696
 6436SOL    HW220208   2.159   2.607   1.771
 6437SOL     OW20209   6.987   0.578   0.873
 6437SOL    HW120210   0.003   0.638   0.806
 6437SOL    HW220211   6.891   0.568   0.851
 6438SOL     OW20212   0.930   3.565   4.764
 6438SOL    HW120213   1.010   3.529   4.716
 6438SOL    HW220214   0.954   3.650   4.810
 6439SOL     OW20215   0.337   6.366   2.467
 6439SOL    HW120216   0.308   6.272   2.484
 6439SOL    HW220217   0.308   6.423   2.544
 6440SOL     OW20218   0.470   0.756   2.125
 6440SOL    HW120219   0.497   0.661   2.110
 6440SOL    HW220220   0.552   0.814   2.127
 6441SOL     OW20221   4.416   1.303   2.572
 6441SOL    HW120222   4.476   1.378   2.543
 6441SOL    HW220223   4.372   1.328   2.658
 6442SOL     OW20224   3.180   0.647   3.177
 6442SOL    HW120225   3.265   0.684   3.139
 6442SOL    HW220226   3.104   0.707   3.152
 6443SOL     OW20227   2.268   0.700   1.007
 6443SOL    HW120228   2.243   0.744   0.921
 6443SOL    HW220229   2.345   0.639   0.993
 6444SOL     OW20230   0.763   1.593   2.812
 6444SOL    HW120231   0.828   1.639   2.751
 6444SOL    HW220232   0.678   1.645   2.816
 6445SOL     OW20233   3.182   4.031   5.672
 6445SOL    HW120234   3.263   4.077   5.637
 6445SOL    HW220235   3.111   4.098   5.691
 6446SOL     OW20236   0.143   1.358   0.461
 6446SOL    HW120237   0.092   1.406   0.389
 6446SOL    HW220238   0.241   1.368   0.443
 6447SOL     OW20239   1.612   0.732   3.633
 6447SOL    HW120240   1.686   0.740   3.566
 6447SOL    HW220241   1.650   0.742   3.725
 6448SOL     OW20242   6.573   2.354   2.902
 6448SOL    HW120243   6.550   2.285   2.970
 6448SOL    HW220244   6.499   2.362   2.836
 6449SOL     OW20245   3.993   2.556   0.569
 6449SOL    HW120246   3.978   2.635   0.509
 6449SOL    HW220247   4.029   2.588   0.657
 6450SOL     OW20248   6.791   2.887   0.762
 6450SOL    HW120249   6.720   2.853   0.701
 6450SOL    HW220250   6.832   2.811   0.811
 6451SOL     OW20251   2.579   6.753   4.100
 6451SOL    HW120252   2.546   6.838   4.057
 6451SOL    HW220253   2.501   6.698   4.130
 6452SOL     OW20254   3.815   5.895   4.860
 6452SOL    HW120255   3.756   5.824   4.821
 6452SOL    HW220256   3.794   5.983   4.819
 6453SOL     OW20257   1.905   5.276   6.713
 6453SOL    HW120258   1.919   5.195   6.770
 6453SOL    HW220259   1.883   5.354   6.771
 6454SOL     OW20260   3.871   0.609   4.800
 6454SOL    HW120261   3.814   0.532   4.770
 6454SOL    HW220262   3.813   0.687   4.823
 6455SOL     OW20263   6.271   3.586   6.741
 6455SOL    HW120264   6.350   3.541   6.784
 6455SOL    HW220265   6.187   3.553   6.784
 6456SOL     OW20266   6.854   1.565   4.769
 6456SOL    HW120267   6.937   1.616   4.791
 6456SOL    HW220268   6.816   1.526   4.853
 6457SOL     OW20269   6.017   2.735   2.345
 6457SOL    HW120270   6.048   2.657   2.399
 6457SOL    HW220271   5.951   2.704   2.277
 6458SOL     OW20272   0.770   6.285   3.303
 6458SOL    HW120273   0.748   6.282   3.400
 6458SOL    HW220274   0.863   6.252   3.289
 6459SOL     OW20275   5.443   4.040   0.727
 6459SOL    HW120276   5.404   3.990   0.804
 6459SOL    HW220277   5.409   4.134   0.727
 6460SOL     OW20278   3.559   4.802   1.496
 6460SOL    HW120279   3.518   4.880   1.450
 6460SOL    HW220280   3.488   4.738   1.526
 6461SOL     OW20281   3.187   6.272   5.899
 6461SOL    HW120282   3.150   6.181   5.880
 6461SOL    HW220283   3.287   6.270   5.893
 6462SOL     OW20284   2.039   3.665   3.084
 6462SOL    HW120285   2.093   3.746   3.107
 6462SOL    HW220286   1.946   3.677   3.118
 6463SOL     OW20287   1.219   3.703   5.852
 6463SOL    HW120288   1.165   3.782   5.823
 6463SOL    HW220289   1.291   3.685   5.785
 6464SOL     OW20290   1.539   5.017   2.111
 6464SOL    HW120291   1.450   5.056   2.135
 6464SOL    HW220292   1.612   5.066   2.160
 6465SOL     OW20293   6.138   0.683   2.519
 6465SOL    HW120294   6.151   0.687   2.618
 6465SOL    HW220295   6.075   0.608   2.497
 6466SOL     OW20296   6.679   1.830   4.515
 6466SOL    HW120297   6.612   1.770   4.469
 6466SOL    HW220298   6.665   1.924   4.484
 6467SOL     OW20299   3.617   0.757   6.324
 6467SOL    HW120300   3.647   0.838   6.374
 6467SOL    HW220301   3.520   0.739   6.344
 6468SOL     OW20302   5.657   4.104   1.878
 6468SOL    HW120303   5.568   4.149   1.870
 6468SOL    HW220304   5.693   4.116   1.970
 6469SOL     OW20305   5.919   1.363   5.491
 6469SOL    HW120306   5.836   1.328   5.533
 6469SOL    HW220307   5.999   1.326   5.539
 6470SOL     OW20308   6.499   5.828   4.577
 6470SOL    HW120309   6.495   5.805   4.675
 6470SOL    HW220310   6.408   5.821   4.537
 6471SOL     OW20311   6.757   5.887   5.207
 6471SOL    HW120312   6.768   5.956   5.136
 6471SOL    HW220313   6.832   5.820   5.200
 6472SOL     OW20314   1.789   6.730   1.337
 6472SOL    HW120315   1.758   6.777   1.420
 6472SOL    HW220316   1.758   6.635   1.340
 6473SOL     OW20317   2.240   0.631   5.331
 6473SOL    HW120318   2.216   0.594   5.241
 6473SOL    HW220319   2.338   0.653   5.334
 6474SOL     OW20320   2.481   3.274   6.143
 6474SOL    HW120321   2.473   3.303   6.238
 6474SOL    HW220322   2.471   3.175   6.137
 6475SOL     OW20323   4.228   5.362   3.854
 6475SOL    HW120324   4.300   5.387   3.790
 6475SOL    HW220325   4.155   5.313   3.806
 6476SOL     OW20326   5.119   5.109   2.238
 6476SOL    HW120327   5.118   5.009   2.238
 6476SOL    HW220328   5.197   5.142   2.187
 6477SOL     OW20329   6.448   6.407   6.984
 6477SOL    HW120330   6.360   6.445   6.956
 6477SOL    HW220331   6.434   6.323   0.009
 6478SOL     OW20332   4.918   5.791   1.457
 6478SOL    HW120333   4.998   5.851   1.447
 6478SOL    HW220334   4.903   5.741   1.371
 6479SOL     OW20335   3.543   5.778   2.608
 6479SOL    HW120336   3.453   5.822   2.617
 6479SOL    HW220337   3.532   5.690   2.563
 6480SOL     OW20338   2.881   0.847   1.397
 6480SOL    HW120339   2.806   0.898   1.439
 6480SOL    HW220340   2.899   0.885   1.306
 6481SOL     OW20341   4.215   0.865   1.159
 6481SOL    HW120342   4.154   0.915   1.097
 6481SOL    HW220343   4.276   0.806   1.106
 6482SOL     OW20344   6.497   0.034   6.236
 6482SOL    HW120345   6.472   0.046   6.332
 6482SOL    HW220346   6.545   6.975   6.224
 6483SOL     OW20347   2.154   5.613   2.013
 6483SOL    HW120348   2.074   5.597   2.072
 6483SOL    HW220349   2.136   5.691   1.954
 6484SOL     OW20350   4.900   6.693   2.949
 6484SOL    HW120351   4.972   6.738   3.003
 6484SOL    HW220352   4.902   6.727   2.855
 6485SOL     OW20353   0.742   3.082   2.876
 6485SOL    HW120354   0.806   3.034   2.936
 6485SOL    HW220355   0.678   3.017   2.836
 6486SOL     OW20356   1.571   2.751   3.432
 6486SOL    HW120357   1.606   2.823   3.493
 6486SOL    HW220358   1.589   2.776   3.337
 6487SOL     OW20359   5.764   5.028   3.319
 6487SOL    HW120360   5.780   4.971   3.399
 6487SOL    HW220361   5.811   4.988   3.240
 6488SOL     OW20362   3.244   5.306   5.115
 6488SOL    HW120363   3.270   5.378   5.051
 6488SOL    HW220364   3.227   5.347   5.205
 6489SOL     OW20365   2.531   1.796   6.837
 6489SOL    HW120366   2.530   1.720   6.903
 6489SOL    HW220367   2.612   1.852   6.854
 6490SOL     OW20368   5.003   1.956   0.742
 6490SOL    HW120369   5.011   2.041   0.689
 6490SOL    HW220370   5.072   1.955   0.815
 6491SOL     OW20371   5.066   0.599   5.338
 6491SOL    HW120372   5.059   0.595   5.438
 6491SOL    HW220373   5.025   0.684   5.305
 6492SOL     OW20374   6.598   5.853   5.652
 6492SOL    HW120375   6.648   5.921   5.598
 6492SOL    HW220376   6.526   5.812   5.596
 6493SOL     OW20377   1.211   6.807   5.281
 6493SOL    HW120378   1.234   6.824   5.377
 6493SOL    HW220379   1.289   6.763   5.236
 6494SOL     OW20380   0.383   1.331   3.267
 6494SOL    HW120381   0.481   1.318   3.254
 6494SOL    HW220382   0.349   1.400   3.202
 6495SOL     OW20383   5.635   4.442   1.741
 6495SOL    HW120384   5.735   4.438   1.744
 6495SOL    HW220385   5.604   4.413   1.650
 6496SOL     OW20386   0.284   6.205   3.106
 6496SOL    HW120387   0.242   6.216   3.016
 6496SOL    HW220388   0.340   6.122   3.107
 6497SOL     OW20389   0.571   6.144   0.527
 6497SOL    HW120390   0.475   6.118   0.514
 6497SOL    HW220391   0.611   6.171   0.440
 6498SOL     OW20392   1.509   4.429   4.053
 6498SOL    HW120393   1.527   4.496   4.125
 6498SOL    HW220394   1.493   4.339   4.093
 6499SOL     OW20395   6.307   1.359   3.435
 6499SOL    HW120396   6.327   1.378   3.531
 6499SOL    HW220397   6.376   1.297   3.398
 6500SOL     OW20398   6.142   4.907   2.363
 6500SOL    HW120399   6.094   4.950   2.286
 6500SOL    HW220400   6.202   4.835   2.328
 6501SOL     OW20401   6.685   3.935   0.822
 6501SOL    HW120402   6.714   3.972   0.733
 6501SOL    HW220403   6.766   3.920   0.879
 6502SOL     OW20404   0.851   4.973   1.250
 6502SOL    HW120405   0.815   4.965   1.157
 6502SOL    HW220406   0.950   4.984   1.246
 6503SOL     OW20407   4.664   0.019   4.156
 6503SOL    HW120408   4.657   0.107   4.203
 6503SOL    HW220409   4.662   6.973   4.224
 6504SOL     OW20410   1.790   1.573   1.136
 6504SOL    HW120411   1.833   1.564   1.047
 6504SOL    HW220412   1.691   1.574   1.126
 6505SOL     OW20413   5.718   5.842   0.506
 6505SOL    HW120414   5.675   5.926   0.540
 6505SOL    HW220415   5.784   5.809   0.573
 6506SOL     OW20416   2.038   1.469   0.987
 6506SOL    HW120417   2.040   1.391   1.050
 6506SOL    HW220418   2.019   1.436   0.895
 6507SOL     OW20419   2.985   0.907   2.025
 6507SOL    HW120420   3.069   0.856   2.004
 6507SOL    HW220421   2.919   0.844   2.067
 6508SOL     OW20422   1.997   2.139   2.366
 6508SOL    HW120423   2.069   2.180   2.421
 6508SOL    HW220424   1.946   2.210   2.319
 6509SOL     OW20425   1.176   3.069   4.392
 6509SOL    HW120426   1.218   3.115   4.471
 6509SOL    HW220427   1.105   3.006   4.424
 6510SOL     OW20428   6.374   4.706   6.361
 6510SOL    HW120429   6.417   4.694   6.272
 6510SOL    HW220430   6.428   4.659   6.431
 6511SOL     OW20431   6.794   6.606   6.069
 6511SOL    HW120432   6.717   6.588   6.131
 6511SOL    HW220433   6.847   6.683   6.104
 6512SOL     OW20434   5.112   6.221   3.688
 6512SOL    HW120435   5.154   6.131   3.701
 6512SOL    HW220436   5.184   6.289   3.672
 6513SOL     OW20437   1.160   6.787   3.579
 6513SOL    HW120438   1.251   6.827   3.571
 6513SOL    HW220439   1.165   6.688   3.565
 6514SOL     OW20440   3.167   0.275   3.490
 6514SOL    HW120441   3.163   0.374   3.476
 6514SOL    HW220442   3.249   0.238   3.448
 6515SOL     OW20443   0.573   0.564   3.568
 6515SOL    HW120444   0.669   0.587   3.556
 6515SOL    HW220445   0.518   0.616   3.502
 6516SOL     OW20446   1.537   1.290   5.855
 6516SOL    HW120447   1.538   1.373   5.798
 6516SOL    HW220448   1.500   1.313   5.945
 6517SOL     OW20449   2.527   1.947   1.063
 6517SOL    HW120450   2.473   1.904   1.135
 6517SOL    HW220451   2.520   2.046   1.070
 6518SOL     OW20452   5.581   6.468   0.836
 6518SOL    HW120453   5.525   6.551   0.830
 6518SOL    HW220454   5.523   6.391   0.863
 6519SOL     OW20455   1.339   2.106   4.364
 6519SOL    HW120456   1.366   2.152   4.280
 6519SOL    HW220457   1.398   2.135   4.439
 6520SOL     OW20458   5.701   5.503   1.369
 6520SOL    HW120459   5.787   5.476   1.412
 6520SOL    HW220460   5.677   5.438   1.297
 6521SOL     OW20461   1.289   2.193   5.351
 6521SOL    HW120462   1.352   2.161   5.423
 6521SOL    HW220463   1.216   2.247   5.393
 6522SOL     OW20464   2.627   5.363   4.459
 6522SOL    HW120465   2.592   5.314   4.539
 6522SOL    HW220466   2.725   5.383   4.473
 6523SOL     OW20467   1.584   2.632   0.202
 6523SOL    HW120468   1.576   2.676   0.292
 6523SOL    HW220469   1.563   2.535   0.211
 6524SOL     OW20470   4.209   2.903   5.597
 6524SOL    HW120471   4.219   2.811   5.635
 6524SOL    HW220472   4.163   2.961   5.664
 6525SOL     OW20473   0.425   2.578   4.545
 6525SOL    HW120474   0.453   2.486   4.575
 6525SOL    HW220475   0.499   2.621   4.495
 6526SOL     OW20476   1.824   5.492   4.202
 6526SOL    HW120477   1.816   5.477   4.104
 6526SOL    HW220478   1.735   5.522   4.238
 6527SOL     OW20479   2.813   1.380   3.790
 6527SOL    HW120480   2.794   1.291   3.747
 6527SOL    HW220481   2.757   1.389   3.872
 6528SOL     OW20482   0.844   0.235   3.151
 6528SOL    HW120483   0.771   0.290   3.192
 6528SOL    HW220484   0.865   0.270   3.060
 6529SOL     OW20485   6.890   3.144   2.604
 6529SOL    HW120486   6.960   3.117   2.539
 6529SOL    HW220487   6.877   3.071   2.671
 6530SOL     OW20488   0.654   1.596   0.567
 6530SOL    HW120489   0.671   1.500   0.588
 6530SOL    HW220490   0.720   1.628   0.500
 6531SOL     OW20491   5.208   2.501   5.120
 6531SOL    HW120492   5.236   2.429   5.183
 6531SOL    HW220493   5.118   2.537   5.146
 6532SOL     OW20494   0.948   2.225   6.898
 6532SOL    HW120495   0.885   2.202   6.824
 6532SOL    HW220496   0.899   2.278   6.968
 6533SOL     OW20497   4.608   0.592   1.238
 6533SOL    HW120498   4.518   0.635   1.248
 6533SOL    HW220499   4.673   0.638   1.299
 6534SOL     OW20500   2.295   2.864   6.935
 6534SOL    HW120501   2.354   2.941   6.957
 6534SOL    HW220502   2.200   2.888   6.952
 6535SOL     OW20503   2.062   3.522   5.365
 6535SOL    HW120504   2.086   3.429   5.392
 6535SOL    HW220505   2.139   3.563   5.316
 6536SOL     OW20506   6.736   1.997   6.879
 6536SOL    HW120507   6.662   1.973   6.816
 6536SOL    HW220508   6.698   2.015   6.969
 6537SOL     OW20509   0.865   0.571   6.679
 6537SOL    HW120510   0.892   0.564   6.583
 6537SOL    HW220511   0.859   0.479   6.719
 6538SOL     OW20512   2.816   2.656   5.764
 6538SOL    HW120513   2.907   2.617   5.763
 6538SOL    HW220514   2.748   2.584   5.753
 6539SOL     OW20515   3.198   1.641   6.165
 6539SOL    HW120516   3.223   1.618   6.259
 6539SOL    HW220517   3.254   1.588   6.102
 6540SOL     OW20518   3.991   1.817   3.903
 6540SOL    HW120519   4.016   1.731   3.857
 6540SOL    HW220520   3.993   1.802   4.002
 6541SOL     OW20521   2.819   2.548   5.466
 6541SOL    HW120522   2.815   2.503   5.377
 6541SOL    HW220523   2.847   2.644   5.454
 6542SOL     OW20524   5.499   4.218   2.818
 6542SOL    HW120525   5.587   4.225   2.771
 6542SOL    HW220526   5.428   4.258   2.760
 6543SOL     OW20527   1.279   6.127   5.724
 6543SOL    HW120528   1.257   6.123   5.821
 6543SOL    HW220529   1.195   6.145   5.672
 6544SOL     OW20530   0.159   6.260   2.831
 6544SOL    HW120531   0.179   6.357   2.822
 6544SOL    HW220532   0.075   6.238   2.782
 6545SOL     OW20533   6.084   3.206   6.381
 6545SOL    HW120534   6.149   3.130   6.385
 6545SOL    HW220535   5.998   3.175   6.342
 6546SOL     OW20536   3.550   4.385   5.984
 6546SOL    HW120537   3.460   4.396   5.943
 6546SOL    HW220538   3.560   4.290   6.016
 6547SOL     OW20539   4.955   0.412   6.476
 6547SOL    HW120540   5.032   0.404   6.413
 6547SOL    HW220541   4.874   0.368   6.435
 6548SOL     OW20542   5.111   3.809   5.660
 6548SOL    HW120543   5.128   3.871   5.583
 6548SOL    HW220544   5.191   3.810   5.721
 6549SOL     OW20545   2.984   2.253   2.751
 6549SOL    HW120546   2.939   2.248   2.662
 6549SOL    HW220547   3.083   2.249   2.739
 6550SOL     OW20548   0.889   5.343   3.038
 6550SOL    HW120549   0.933   5.263   3.078
 6550SOL    HW220550   0.882   5.415   3.107
 6551SOL     OW20551   3.144   5.088   2.396
 6551SOL    HW120552   3.169   5.133   2.310
 6551SOL    HW220553   3.169   4.991   2.391
 6552SOL     OW20554   4.612   4.933   6.315
 6552SOL    HW120555   4.535   4.886   6.357
 6552SOL    HW220556   4.607   5.031   6.337
 6553SOL     OW20557   6.790   3.405   3.230
 6553SOL    HW120558   6.871   3.452   3.195
 6553SOL    HW220559   6.795   3.307   3.208
 6554SOL     OW20560   6.745   3.553   4.502
 6554SOL    HW120561   6.669   3.562   4.439
 6554SOL    HW220562   6.717   3.497   4.580
 6555SOL     OW20563   0.632   1.351   1.554
 6555SOL    HW120564   0.713   1.356   1.613
 6555SOL    HW220565   0.658   1.320   1.463
 6556SOL     OW20566   3.578   0.029   3.530
 6556SOL    HW120567   3.649   6.987   3.538
 6556SOL    HW220568   3.598   0.104   3.593
 6557SOL     OW20569   5.416   5.966   0.462
 6557SOL    HW120570   5.378   6.029   0.394
 6557SOL    HW220571   5.498   6.007   0.503
 6558SOL     OW20572   6.907   6.108   5.907
 6558SOL    HW120573   6.893   6.204   5.932
 6558SOL    HW220574   6.983   6.071   5.961
 6559SOL     OW20575   3.039   3.332   1.501
 6559SOL    HW120576   2.996   3.292   1.420
 6559SOL    HW220577   3.109   3.270   1.536
 6560SOL     OW20578   4.772   1.816   1.181
 6560SOL    HW120579   4.734   1.843   1.093
 6560SOL    HW220580   4.697   1.788   1.242
 6561SOL     OW20581   4.001   3.954   4.257
 6561SOL    HW120582   4.051   3.868   4.267
 6561SOL    HW220583   4.066   4.030   4.258
 6562SOL     OW20584   6.819   4.399   5.373
 6562SOL    HW120585   6.761   4.351   5.439
 6562SOL    HW220586   6.874   4.332   5.323
 6563SOL     OW20587   0.496   5.364   2.685
 6563SOL    HW120588   0.532   5.371   2.592
 6563SOL    HW220589   0.441   5.445   2.706
 6564SOL     OW20590   1.451   5.398   3.067
 6564SOL    HW120591   1.474   5.401   3.165
 6564SOL    HW220592   1.528   5.433   3.014
 6565SOL     OW20593   6.685   3.139   5.201
 6565SOL    HW120594   6.767   3.196   5.207
 6565SOL    HW220595   6.604   3.197   5.204
 6566SOL     OW20596   4.014   1.342   0.864
 6566SOL    HW120597   4.078   1.346   0.941
 6566SOL    HW220598   3.958   1.260   0.872
 6567SOL     OW20599   6.822   2.484   1.092
 6567SOL    HW120600   6.868   2.505   1.178
 6567SOL    HW220601   6.728   2.455   1.111
 6568SOL     OW20602   4.739   3.887   1.027
 6568SOL    HW120603   4.748   3.957   0.956
 6568SOL    HW220604   4.767   3.798   0.991
 6569SOL     OW20605   1.024   4.740   6.010
 6569SOL    HW120606   1.026   4.667   6.077
 6569SOL    HW220607   1.091   4.810   6.035
 6570SOL     OW20608   6.451   4.002   1.555
 6570SOL    HW120609   6.466   3.942   1.476
 6570SOL    HW220610   6.353   4.015   1.569
 6571SOL     OW20611   2.030   6.349   3.775
 6571SOL    HW120612   2.129   6.360   3.786
 6571SOL    HW220613   1.993   6.302   3.856
 6572SOL     OW20614   1.767   4.080   6.170
 6572SOL    HW120615   1.825   4.065   6.250
 6572SOL    HW220616   1.767   3.998   6.113
 6573SOL     OW20617   1.559   1.926   1.998
 6573SOL    HW120618   1.522   2.008   2.041
 6573SOL    HW220619   1.581   1.858   2.068
 6574SOL     OW20620   1.935   4.552   4.456
 6574SOL    HW120621   1.988   4.544   4.540
 6574SOL    HW220622   1.917   4.648   4.437
 6575SOL     OW20623   1.985   1.548   2.964
 6575SOL    HW120624   1.904   1.603   2.943
 6575SOL    HW220625   2.021   1.573   3.053
 6576SOL     OW20626   0.806   6.432   4.113
 6576SOL    HW120627   0.810   6.448   4.212
 6576SOL    HW220628   0.898   6.413   4.079
 6577SOL     OW20629   0.338   3.612   5.340
 6577SOL    HW120630   0.437   3.623   5.335
 6577SOL    HW220631   0.293   3.688   5.293
 6578SOL     OW20632   6.771   5.451   3.677
 6578SOL    HW120633   6.799   5.545   3.697
 6578SOL    HW220634   6.709   5.451   3.599
 6579SOL     OW20635   6.868   4.330   3.874
 6579SOL    HW120636   6.829   4.326   3.966
 6579SOL    HW220637   6.914   4.418   3.860
 6580SOL     OW20638   5.375   3.050   0.139
 6580SOL    HW120639   5.337   3.107   0.066
 6580SOL    HW220640   5.466   3.083   0.163
 6581SOL     OW20641   2.784   2.263   5.885
 6581SOL    HW120642   2.732   2.348   5.879
 6581SOL    HW220643   2.862   2.276   5.947
 6582SOL     OW20644   6.844   0.091   2.446
 6582SOL    HW120645   6.811   0.175   2.490
 6582SOL    HW220646   6.938   0.105   2.415
 6583SOL     OW20647   6.354   1.191   6.276
 6583SOL    HW120648   6.385   1.118   6.216
 6583SOL    HW220649   6.419   1.266   6.274
 6584SOL     OW20650   5.789   2.629   0.457
 6584SOL    HW120651   5.861   2.604   0.392
 6584SOL    HW220652   5.820   2.708   0.511
 6585SOL     OW20653   2.554   1.224   1.660
 6585SOL    HW120654   2.543   1.314   1.701
 6585SOL    HW220655   2.576   1.157   1.732
 6586SOL     OW20656   6.054   1.727   0.179
 6586SOL    HW120657   5.979   1.703   0.118
 6586SOL    HW220658   6.036   1.816   0.220
 6587SOL     OW20659   2.202   6.221   1.920
 6587SOL    HW120660   2.167   6.155   1.986
 6587SOL    HW220661   2.140   6.226   1.842
 6588SOL     OW20662   2.662   2.241   0.247
 6588SOL    HW120663   2.741   2.273   0.195
 6588SOL    HW220664   2.601   2.190   0.187
 6589SOL     OW20665   4.916   1.808   6.105
 6589SOL    HW120666   4.859   1.842   6.030
 6589SOL    HW220667   5.011   1.802   6.075
 6590SOL     OW20668   6.181   1.214   5.536
 6590SOL    HW120669   6.219   1.179   5.450
 6590SOL    HW220670   6.223   1.303   5.557
 6591SOL     OW20671   5.336   0.077   2.997
 6591SOL    HW120672   5.268   0.151   2.995
 6591SOL    HW220673   5.407   0.096   2.929
 6592SOL     OW20674   6.425   5.731   4.814
 6592SOL    HW120675   6.424   5.719   4.913
 6592SOL    HW220676   6.331   5.734   4.780
 6593SOL     OW20677   5.138   0.720   2.729
 6593SOL    HW120678   5.206   0.793   2.731
 6593SOL    HW220679   5.081   0.730   2.647
 6594SOL     OW20680   5.642   0.988   0.008
 6594SOL    HW120681   5.606   0.927   6.965
 6594SOL    HW220682   5.659   1.078   6.997
 6595SOL     OW20683   2.985   2.938   6.979
 6595SOL    HW120684   2.991   2.881   6.897
 6595SOL    HW220685   2.912   2.905   0.010
 6596SOL     OW20686   3.223   6.423   5.442
 6596SOL    HW120687   3.282   6.385   5.371
 6596SOL    HW220688   3.143   6.364   5.453
 6597SOL     OW20689   6.992   4.095   6.605
 6597SOL    HW120690   0.012   4.009   6.590
 6597SOL    HW220691   6.931   4.086   6.684
 6598SOL     OW20692   2.411   5.995   4.705
 6598SOL    HW120693   2.510   5.992   4.718
 6598SOL    HW220694   2.367   5.932   4.768
 6599SOL     OW20695   4.519   3.251   6.458
 6599SOL    HW120696   4.441   3.314   6.455
 6599SOL    HW220697   4.556   3.240   6.366
 6600SOL     OW20698   4.385   5.128   4.623
 6600SOL    HW120699   4.374   5.195   4.697
 6600SOL    HW220700   4.394   5.176   4.536
 6601SOL     OW20701   0.488   0.648   1.668
 6601SOL    HW120702   0.398   0.603   1.669
 6601SOL    HW220703   0.533   0.629   1.581
 6602SOL     OW20704   6.757   1.340   1.635
 6602SOL    HW120705   6.684   1.390   1.681
 6602SOL    HW220706   6.800   1.277   1.699
 6603SOL     OW20707   2.531   1.920   1.682
 6603SOL    HW120708   2.625   1.954   1.675
 6603SOL    HW220709   2.512   1.858   1.606
 6604SOL     OW20710   4.067   5.980   4.369
 6604SOL    HW120711   4.047   5.888   4.405
 6604SOL    HW220712   4.093   5.973   4.272
 6605SOL     OW20713   4.850   6.431   0.495
 6605SOL    HW120714   4.841   6.340   0.454
 6605SOL    HW220715   4.760   6.464   0.524
 6606SOL     OW20716   0.053   2.334   2.974
 6606SOL    HW120717   0.090   2.296   2.890
 6606SOL    HW220718   7.003   2.279   3.005
 6607SOL     OW20719   1.433   3.133   2.945
 6607SOL    HW120720   1.508   3.167   3.002
 6607SOL    HW220721   1.347   3.176   2.973
 6608SOL     OW20722   5.382   4.528   4.952
 6608SOL    HW120723   5.471   4.508   4.994
 6608SOL    HW220724   5.331   4.591   5.010
 6609SOL     OW20725   5.650   1.911   0.327
 6609SOL    HW120726   5.606   1.838   0.379
 6609SOL    HW220727   5.633   1.999   0.372
 6610SOL     OW20728   3.766   1.102   0.879
 6610SOL    HW120729   3.775   1.103   0.780
 6610SOL    HW220730   3.670   1.088   0.903
 6611SOL     OW20731   5.397   3.381   3.258
 6611SOL    HW120732   5.464   3.338   3.197
 6611SOL    HW220733   5.443   3.446   3.319
 6612SOL     OW20734   1.140   6.066   6.521
 6612SOL    HW120735   1.096   6.007   6.589
 6612SOL    HW220736   1.191   6.139   6.568
 6613SOL     OW20737   5.415   4.856   0.711
 6613SOL    HW120738   5.355   4.817   0.781
 6613SOL    HW220739   5.510   4.840   0.735
 6614SOL     OW20740   5.636   4.730   5.850
 6614SOL    HW120741   5.569   4.710   5.921
 6614SOL    HW220742   5.644   4.652   5.788
 6615SOL     OW20743   0.102   3.416   5.221
 6615SOL    HW120744   0.152   3.393   5.304
 6615SOL    HW220745   0.163   3.462   5.157
 6616SOL     OW20746   4.637   0.679   4.122
 6616SOL    HW120747   4.683   0.757   4.081
 6616SOL    HW220748   4.631   0.605   4.055
 6617SOL     OW20749   4.364   6.901   4.815
 6617SOL    HW120750   4.382   6.921   4.911
 6617SOL    HW220751   4.265   6.897   4.800
 6618SOL     OW20752   6.795   4.970   0.923
 6618SOL    HW120753   6.829   4.977   1.016
 6618SOL    HW220754   6.807   4.877   0.890
 6619SOL     OW20755   0.195   6.304   1.650
 6619SOL    HW120756   0.109   6.348   1.675
 6619SOL    HW220757   0.232   6.255   1.728
 6620SOL     OW20758   4.429   2.994   5.808
 6620SOL    HW120759   4.518   3.040   5.813
 6620SOL    HW220760   4.368   3.046   5.748
 6621SOL     OW20761   2.387   3.431   0.480
 6621SOL    HW120762   2.474   3.459   0.441
 6621SOL    HW220763   2.352   3.351   0.431
 6622SOL     OW20764   6.204   5.474   0.881
 6622SOL    HW120765   6.165   5.564   0.900
 6622SOL    HW220766   6.222   5.426   0.967
 6623SOL     OW20767   3.588   3.997   2.530
 6623SOL    HW120768   3.531   4.033   2.604
 6623SOL    HW220769   3.683   4.022   2.545
 6624SOL     OW20770   4.210   4.691   4.074
 6624SOL    HW120771   4.265   4.613   4.104
 6624SOL    HW220772   4.219   4.703   3.975
 6625SOL     OW20773   5.948   6.779   7.016
 6625SOL    HW120774   6.040   6.766   0.026
 6625SOL    HW220775   5.900   6.848   0.042
 6626SOL     OW20776   3.070   4.849   3.549
 6626SOL    HW120777   3.136   4.875   3.479
 6626SOL    HW220778   3.105   4.875   3.639
 6627SOL     OW20779   1.801   6.813   1.726
 6627SOL    HW120780   1.865   6.889   1.714
 6627SOL    HW220781   1.815   6.772   1.816
 6628SOL     OW20782   4.031   5.743   3.789
 6628SOL    HW120783   4.109   5.709   3.842
 6628SOL    HW220784   4.063   5.773   3.699
 6629SOL     OW20785   3.208   3.788   0.221
 6629SOL    HW120786   3.258   3.704   0.241
 6629SOL    HW220787   3.268   3.867   0.232
 6630SOL     OW20788   3.698   1.241   6.686
 6630SOL    HW120789   3.623   1.235   6.621
 6630SOL    HW220790   3.697   1.331   6.730
 6631SOL     OW20791   4.247   0.216   1.253
 6631SOL    HW120792   4.275   0.254   1.165
 6631SOL    HW220793   4.286   0.272   1.326
 6632SOL     OW20794   6.300   2.461   2.414
 6632SOL    HW120795   6.308   2.455   2.315
 6632SOL    HW220796   6.215   2.508   2.438
 6633SOL     OW20797   1.152   6.185   2.043
 6633SOL    HW120798   1.157   6.172   2.142
 6633SOL    HW220799   1.155   6.096   1.998
 6634SOL     OW20800   6.710   2.541   6.028
 6634SOL    HW120801   6.713   2.615   5.961
 6634SOL    HW220802   6.764   2.567   6.108
 6635SOL     OW20803   4.281   4.965   3.197
 6635SOL    HW120804   4.236   4.883   3.234
 6635SOL    HW220805   4.249   4.980   3.104
 6636SOL     OW20806   1.853   3.630   3.837
 6636SOL    HW120807   1.946   3.658   3.812
 6636SOL    HW220808   1.857   3.552   3.899
 6637SOL     OW20809   6.349   2.681   1.162
 6637SOL    HW120810   6.329   2.591   1.125
 6637SOL    HW220811   6.434   2.716   1.123
 6638SOL     OW20812   1.922   0.425   6.499
 6638SOL    HW120813   1.907   0.327   6.508
 6638SOL    HW220814   1.850   0.475   6.547
 6639SOL     OW20815   4.122   5.829   6.280
 6639SOL    HW120816   4.187   5.807   6.207
 6639SOL    HW220817   4.089   5.744   6.321
 6640SOL     OW20818   5.700   2.828   3.254
 6640SOL    HW120819   5.650   2.906   3.215
 6640SOL    HW220820   5.641   2.780   3.319
 6641SOL     OW20821   2.145   5.525   6.594
 6641SOL    HW120822   2.077   5.581   6.549
 6641SOL    HW220823   2.122   5.428   6.583
 6642SOL     OW20824   6.571   6.111   6.572
 6642SOL    HW120825   6.495   6.105   6.506
 6642SOL    HW220826   6.627   6.028   6.565
 6643SOL     OW20827   3.662   5.630   6.919
 6643SOL    HW120828   3.677   5.624   7.018
 6643SOL    HW220829   3.732   5.688   6.878
 6644SOL     OW20830   0.827   3.870   2.078
 6644SOL    HW120831   0.776   3.841   1.997
 6644SOL    HW220832   0.902   3.929   2.050
 6645SOL     OW20833   6.129   4.682   5.250
 6645SOL    HW120834   6.219   4.723   5.262
 6645SOL    HW220835   6.107   4.627   5.330
 6646SOL     OW20836   1.200   5.840   3.893
 6646SOL    HW120837   1.274   5.805   3.837
 6646SOL    HW220838   1.118   5.785   3.878
 6647SOL     OW20839   4.272   1.870   2.021
 6647SOL    HW120840   4.183   1.867   2.067
 6647SOL    HW220841   4.340   1.823   2.078
 6648SOL     OW20842   4.185   5.514   1.434
 6648SOL    HW120843   4.116   5.540   1.501
 6648SOL    HW220844   4.194   5.587   1.366
 6649SOL     OW20845   4.588   1.576   6.317
 6649SOL    HW120846   4.600   1.629   6.233
 6649SOL    HW220847   4.604   1.635   6.396
 6650SOL     OW20848   3.236   0.813   3.952
 6650SOL    HW120849   3.176   0.755   4.006
 6650SOL    HW220850   3.228   0.908   3.982
 6651SOL     OW20851   0.593   1.728   0.786
 6651SOL    HW120852   0.585   1.660   0.713
 6651SOL    HW220853   0.688   1.758   0.793
 6652SOL     OW20854   0.810   5.248   3.380
 6652SOL    HW120855   0.735   5.191   3.414
 6652SOL    HW220856   0.852   5.297   3.457
 6653SOL     OW20857   3.390   3.531   3.487
 6653SOL    HW120858   3.402   3.469   3.410
 6653SOL    HW220859   3.429   3.620   3.464
 6654SOL     OW20860   1.644   3.513   1.215
 6654SOL    HW120861   1.723   3.513   1.276
 6654SOL    HW220862   1.564   3.477   1.264
 6655SOL     OW20863   1.557   0.740   0.225
 6655SOL    HW120864   1.574   0.776   0.317
 6655SOL    HW220865   1.459   0.726   0.212
 6656SOL     OW20866   0.213   2.792   2.011
 6656SOL    HW120867   0.216   2.722   1.940
 6656SOL    HW220868   0.248   2.879   1.975
 6657SOL     OW20869   3.278   5.075   5.430
 6657SOL    HW120870   3.273   5.024   5.345
 6657SOL    HW220871   3.347   5.035   5.489
 6658SOL     OW20872   6.228   6.806   6.342
 6658SOL    HW120873   6.310   6.815   6.399
 6658SOL    HW220874   6.252   6.813   6.246
 6659SOL     OW20875   1.433   2.744   6.614
 6659SOL    HW120876   1.414   2.662   6.669
 6659SOL    HW220877   1.347   2.781   6.579
 6660SOL     OW20878   1.095   6.605   2.891
 6660SOL    HW120879   1.123   6.636   2.800
 6660SOL    HW220880   1.099   6.681   2.956
 6661SOL     OW20881   6.907   6.424   3.917
 6661SOL    HW120882   6.847   6.345   3.910
 6661SOL    HW220883   6.881   6.491   3.847
 6662SOL     OW20884   1.430   3.940   5.756
 6662SOL    HW120885   1.335   3.957   5.782
 6662SOL    HW220886   1.491   3.995   5.813
 6663SOL     OW20887   0.630   4.979   2.378
 6663SOL    HW120888   0.552   5.019   2.328
 6663SOL    HW220889   0.681   5.052   2.423
 6664SOL     OW20890   0.053   2.237   2.414
 6664SOL    HW120891   0.032   2.160   2.354
 6664SOL    HW220892   7.025   2.232   2.497
 6665SOL     OW20893   2.404   0.290   2.295
 6665SOL    HW120894   2.410   0.193   2.272
 6665SOL    HW220895   2.309   0.315   2.311
 6666SOL     OW20896   5.304   1.341   0.496
 6666SOL    HW120897   5.381   1.293   0.538
 6666SOL    HW220898   5.336   1.425   0.453
 6667SOL     OW20899   5.961   4.951   4.804
 6667SOL    HW120900   5.975   4.936   4.902
 6667SOL    HW220901   6.030   5.014   4.770
 6668SOL     OW20902   0.018   6.401   1.199
 6668SOL    HW120903   0.107   6.358   1.191
 6668SOL    HW220904   0.025   6.497   1.171
 6669SOL     OW20905   1.056   4.916   2.852
 6669SOL    HW120906   0.983   4.911   2.919
 6669SOL    HW220907   1.065   4.828   2.805
 6670SOL     OW20908   4.146   4.590   0.011
 6670SOL    HW120909   4.135   4.563   6.944
 6670SOL    HW220910   4.176   4.686   0.015
 6671SOL     OW20911   0.669   2.748   5.420
 6671SOL    HW120912   0.649   2.836   5.377
 6671SOL    HW220913   0.673   2.760   5.519
 6672SOL     OW20914   0.555   0.393   5.342
 6672SOL    HW120915   0.577   0.425   5.250
 6672SOL    HW220916   0.560   0.293   5.345
 6673SOL     OW20917   4.785   5.897   1.047
 6673SOL    HW120918   4.794   5.812   1.097
 6673SOL    HW220919   4.695   5.937   1.064
 6674SOL     OW20920   0.907   6.868   5.753
 6674SOL    HW120921   0.850   6.876   5.671
 6674SOL    HW220922   0.902   6.775   5.788
 6675SOL     OW20923   0.010   6.409   0.239
 6675SOL    HW120924   6.967   6.388   0.306
 6675SOL    HW220925   0.087   6.346   0.249
 6676SOL     OW20926   0.230   1.864   1.128
 6676SOL    HW120927   0.264   1.917   1.206
 6676SOL    HW220928   0.307   1.819   1.082
 6677SOL     OW20929   0.175   4.666   0.468
 6677SOL    HW120930   0.097   4.620   0.511
 6677SOL    HW220931   0.213   4.607   0.397
 6678SOL     OW20932   0.809   3.355   4.405
 6678SOL    HW120933   0.814   3.454   4.391
 6678SOL    HW220934   0.901   3.316   4.397
 6679SOL     OW20935   1.612   0.767   4.745
 6679SOL    HW120936   1.533   0.829   4.748
 6679SOL    HW220937   1.584   0.677   4.779
 6680SOL     OW20938   2.723   0.683   6.589
 6680SOL    HW120939   2.658   0.750   6.624
 6680SOL    HW220940   2.696   0.655   6.497
 6681SOL     OW20941   5.059   6.128   6.739
 6681SOL    HW120942   5.004   6.181   6.804
 6681SOL    HW220943   5.146   6.103   6.782
 6682SOL     OW20944   6.673   5.206   1.701
 6682SOL    HW120945   6.730   5.125   1.717
 6682SOL    HW220946   6.580   5.177   1.681
 6683SOL     OW20947   5.024   1.824   4.746
 6683SOL    HW120948   4.930   1.833   4.714
 6683SOL    HW220949   5.040   1.731   4.779
 6684SOL     OW20950   1.610   1.788   2.608
 6684SOL    HW120951   1.533   1.848   2.585
 6684SOL    HW220952   1.675   1.838   2.665
 6685SOL     OW20953   5.601   2.933   6.745
 6685SOL    HW120954   5.564   2.912   6.835
 6685SOL    HW220955   5.526   2.945   6.680
 6686SOL     OW20956   6.139   3.589   3.956
 6686SOL    HW120957   6.159   3.499   3.994
 6686SOL    HW220958   6.169   3.593   3.861
 6687SOL     OW20959   0.256   0.843   0.399
 6687SOL    HW120960   0.308   0.872   0.318
 6687SOL    HW220961   0.159   0.841   0.377
 6688SOL     OW20962   0.562   4.944   2.708
 6688SOL    HW120963   0.582   5.041   2.716
 6688SOL    HW220964   0.563   4.902   2.799
 6689SOL     OW20965   4.761   4.659   6.845
 6689SOL    HW120966   4.757   4.713   6.761
 6689SOL    HW220967   4.849   4.675   6.890
 6690SOL     OW20968   0.876   1.721   0.842
 6690SOL    HW120969   0.956   1.745   0.898
 6690SOL    HW220970   0.863   1.622   0.844
 6691SOL     OW20971   1.437   5.034   1.072
 6691SOL    HW120972   1.456   4.938   1.054
 6691SOL    HW220973   1.351   5.061   1.028
 6692SOL     OW20974   4.405   3.877   6.258
 6692SOL    HW120975   4.358   3.915   6.338
 6692SOL    HW220976   4.338   3.858   6.187
 6693SOL     OW20977   4.093   3.680   5.662
 6693SOL    HW120978   4.127   3.596   5.704
 6693SOL    HW220979   3.995   3.671   5.645
 6694SOL     OW20980   2.588   6.085   0.198
 6694SOL    HW120981   2.615   6.180   0.214
 6694SOL    HW220982   2.552   6.045   0.283
 6695SOL     OW20983   1.392   1.739   6.839
 6695SOL    HW120984   1.373   1.828   6.881
 6695SOL    HW220985   1.491   1.726   6.833
 6696SOL     OW20986   1.725   3.143   1.269
 6696SOL    HW120987   1.813   3.177   1.237
 6696SOL    HW220988   1.732   3.045   1.288
 6697SOL     OW20989   5.201   3.439   4.411
 6697SOL    HW120990   5.243   3.362   4.362
 6697SOL    HW220991   5.255   3.521   4.397
 6698SOL     OW20992   2.817   4.093   6.712
 6698SOL    HW120993   2.725   4.117   6.680
 6698SOL    HW220994   2.884   4.126   6.645
 6699SOL     OW20995   1.459   3.509   6.589
 6699SOL    HW120996   1.369   3.524   6.628
 6699SOL    HW220997   1.475   3.411   6.578
 6700SOL     OW20998   0.424   6.519   6.478
 6700SOL    HW120999   0.332   6.492   6.506
 6700SOL    HW221000   0.449   6.471   6.394
 6701SOL     OW21001   0.608   2.165   1.013
 6701SOL    HW121002   0.530   2.165   0.950
 6701SOL    HW221003   0.577   2.192   1.104
 6702SOL     OW21004   1.647   3.401   0.254
 6702SOL    HW121005   1.580   3.327   0.264
 6702SOL    HW221006   1.717   3.393   0.325
 6703SOL     OW21007   0.159   2.307   6.763
 6703SOL    HW121008   0.065   2.337   6.749
 6703SOL    HW221009   0.176   2.223   6.711
 6704SOL     OW21010   4.849   3.055   3.037
 6704SOL    HW121011   4.829   2.963   3.070
 6704SOL    HW221012   4.824   3.122   3.107
 6705SOL     OW21013   6.073   1.250   1.079
 6705SOL    HW121014   5.980   1.284   1.075
 6705SOL    HW221015   6.103   1.244   1.174
 6706SOL     OW21016   1.387   6.007   6.956
 6706SOL    HW121017   1.399   6.019   0.027
 6706SOL    HW221018   1.348   5.916   6.938
 6707SOL     OW21019   1.082   5.119   2.673
 6707SOL    HW121020   1.057   5.034   2.720
 6707SOL    HW221021   1.061   5.197   2.731
 6708SOL     OW21022   1.897   6.141   0.952
 6708SOL    HW121023   1.809   6.121   0.995
 6708SOL    HW221024   1.957   6.187   1.017
 6709SOL     OW21025   5.683   1.850   3.270
 6709SOL    HW121026   5.653   1.756   3.284
 6709SOL    HW221027   5.699   1.865   3.172
 6710SOL     OW21028   1.736   1.881   0.587
 6710SOL    HW121029   1.786   1.853   0.505
 6710SOL    HW221030   1.651   1.829   0.593
 6711SOL     OW21031   5.524   3.711   6.491
 6711SOL    HW121032   5.603   3.665   6.451
 6711SOL    HW221033   5.462   3.643   6.531
 6712SOL     OW21034   3.727   6.398   0.998
 6712SOL    HW121035   3.679   6.442   0.921
 6712SOL    HW221036   3.699   6.302   1.004
 6713SOL     OW21037   1.402   1.775   3.280
 6713SOL    HW121038   1.331   1.845   3.269
 6713SOL    HW221039   1.429   1.771   3.376
 6714SOL     OW21040   6.668   0.385   4.979
 6714SOL    HW121041   6.635   0.379   5.073
 6714SOL    HW221042   6.688   0.480   4.956
 6715SOL     OW21043   6.149   2.430   0.544
 6715SOL    HW121044   6.195   2.508   0.501
 6715SOL    HW221045   6.077   2.463   0.605
 6716SOL     OW21046   3.380   6.118   0.943
 6716SOL    HW121047   3.448   6.044   0.942
 6716SOL    HW221048   3.400   6.181   1.018
 6717SOL     OW21049   4.027   1.029   7.003
 6717SOL    HW121050   4.076   1.110   6.972
 6717SOL    HW221051   3.944   1.016   6.948
 6718SOL     OW21052   3.938   0.183   0.006
 6718SOL    HW121053   4.001   0.258   7.016
 6718SOL    HW221054   3.913   0.138   6.948
 6719SOL     OW21055   0.713   1.918   5.461
 6719SOL    HW121056   0.800   1.930   5.508
 6719SOL    HW221057   0.709   1.978   5.381
 6720SOL     OW21058   1.638   4.691   1.222
 6720SOL    HW121059   1.632   4.747   1.304
 6720SOL    HW221060   1.546   4.662   1.195
 6721SOL     OW21061   0.084   5.986   3.102
 6721SOL    HW121062   0.128   5.938   3.178
 6721SOL    HW221063   7.021   6.017   3.129
 6722SOL     OW21064   4.610   4.946   6.777
 6722SOL    HW121065   4.654   4.876   6.720
 6722SOL    HW221066   4.668   5.028   6.779
 6723SOL     OW21067   4.123   1.054   2.570
 6723SOL    HW121068   4.107   1.062   2.669
 6723SOL    HW221069   4.071   1.124   2.522
 6724SOL     OW21070   3.554   4.409   5.397
 6724SOL    HW121071   3.460   4.420   5.367
 6724SOL    HW221072   3.568   4.457   5.483
 6725SOL     OW21073   0.303   5.405   1.190
 6725SOL    HW121074   0.256   5.482   1.148
 6725SOL    HW221075   0.256   5.320   1.166
 6726SOL     OW21076   2.290   2.859   1.781
 6726SOL    HW121077   2.304   2.821   1.689
 6726SOL    HW221078   2.374   2.903   1.812
 6727SOL     OW21079   3.437   4.342   0.652
 6727SOL    HW121080   3.347   4.376   0.678
 6727SOL    HW221081   3.428   4.255   0.604
 6728SOL     OW21082   4.552   1.744   4.686
 6728SOL    HW121083   4.619   1.669   4.695
 6728SOL    HW221084   4.505   1.735   4.598
 6729SOL     OW21085   4.559   6.269   3.473
 6729SOL    HW121086   4.627   6.218   3.526
 6729SOL    HW221087   4.604   6.316   3.397
 6730SOL     OW21088   1.247   0.184   2.160
 6730SOL    HW121089   1.171   0.211   2.218
 6730SOL    HW221090   1.307   0.262   2.144
 6731SOL     OW21091   1.938   4.063   1.856
 6731SOL    HW121092   1.898   3.985   1.904
 6731SOL    HW221093   1.981   4.031   1.772
 6732SOL     OW21094   2.848   5.678   0.548
 6732SOL    HW121095   2.766   5.622   0.557
 6732SOL    HW221096   2.928   5.625   0.574
 6733SOL     OW21097   6.184   5.712   4.674
 6733SOL    HW121098   6.198   5.643   4.603
 6733SOL    HW221099   6.126   5.785   4.640
 6734SOL     OW21100   2.469   3.526   6.000
 6734SOL    HW121101   2.450   3.450   6.063
 6734SOL    HW221102   2.382   3.563   5.966
 6735SOL     OW21103   0.865   6.728   6.483
 6735SOL    HW121104   0.772   6.739   6.519
 6735SOL    HW221105   0.863   6.661   6.408
 6736SOL     OW21106   2.394   4.454   2.204
 6736SOL    HW121107   2.432   4.378   2.152
 6736SOL    HW221108   2.416   4.540   2.158
 6737SOL     OW21109   1.882   6.981   0.903
 6737SOL    HW121110   1.888   6.927   0.819
 6737SOL    HW221111   1.958   0.017   0.907
 6738SOL     OW21112   4.892   1.466   1.415
 6738SOL    HW121113   4.850   1.434   1.330
 6738SOL    HW221114   4.987   1.492   1.398
 6739SOL     OW21115   4.179   6.764   5.697
 6739SOL    HW121116   4.093   6.799   5.660
 6739SOL    HW221117   4.241   6.743   5.621
 6740SOL     OW21118   5.862   2.641   5.788
 6740SOL    HW121119   5.777   2.692   5.774
 6740SOL    HW221120   5.894   2.654   5.882
 6741SOL     OW21121   0.252   0.299   6.132
 6741SOL    HW121122   0.281   0.343   6.047
 6741SOL    HW221123   0.152   0.305   6.140
 6742SOL     OW21124   6.325   5.771   5.063
 6742SOL    HW121125   6.279   5.844   5.014
 6742SOL    HW221126   6.380   5.810   5.138
 6743SOL     OW21127   5.671   2.235   1.683
 6743SOL    HW121128   5.741   2.191   1.626
 6743SOL    HW221129   5.669   2.189   1.772
 6744SOL     OW21130   4.632   6.802   4.321
 6744SOL    HW121131   4.682   6.730   4.273
 6744SOL    HW221132   4.666   6.809   4.415
 6745SOL     OW21133   0.805   3.486   3.124
 6745SOL    HW121134   0.758   3.402   3.096
 6745SOL    HW221135   0.857   3.468   3.207
 6746SOL     OW21136   6.034   1.039   0.619
 6746SOL    HW121137   6.026   1.079   0.710
 6746SOL    HW221138   5.943   1.022   0.582
 6747SOL     OW21139   4.620   5.525   6.885
 6747SOL    HW121140   4.654   5.563   6.799
 6747SOL    HW221141   4.649   5.583   6.961
 6748SOL     OW21142   0.040   6.314   2.305
 6748SOL    HW121143   0.093   6.244   2.353
 6748SOL    HW221144   0.025   6.391   2.367
 6749SOL     OW21145   2.941   5.733   1.292
 6749SOL    HW121146   3.035   5.759   1.274
 6749SOL    HW221147   2.880   5.787   1.234
 6750SOL     OW21148   2.237   3.034   5.276
 6750SOL    HW121149   2.271   3.027   5.369
 6750SOL    HW221150   2.300   2.986   5.214
 6751SOL     OW21151   4.013   2.065   5.961
 6751SOL    HW121152   3.966   2.128   5.900
 6751SOL    HW221153   3.953   2.040   6.037
 6752SOL     OW21154   6.980   1.926   7.021
 6752SOL    HW121155   6.973   1.976   0.079
 6752SOL    HW221156   6.909   1.959   6.958
 6753SOL     OW21157   6.470   1.220   6.949
 6753SOL    HW121158   6.412   1.301   6.949
 6753SOL    HW221159   6.421   1.143   6.908
 6754SOL     OW21160   4.638   0.493   6.564
 6754SOL    HW121161   4.586   0.438   6.500
 6754SOL    HW221162   4.600   0.482   6.656
 6755SOL     OW21163   5.378   1.830   3.669
 6755SOL    HW121164   5.384   1.731   3.656
 6755SOL    HW221165   5.344   1.873   3.586
 6756SOL     OW21166   4.670   4.385   3.521
 6756SOL    HW121167   4.679   4.291   3.488
 6756SOL    HW221168   4.675   4.385   3.621
 6757SOL     OW21169   5.883   4.621   1.003
 6757SOL    HW121170   5.907   4.702   0.950
 6757SOL    HW221171   5.964   4.588   1.052
 6758SOL     OW21172   6.459   1.784   3.003
 6758SOL    HW121173   6.469   1.706   2.941
 6758SOL    HW221174   6.395   1.760   3.076
 6759SOL     OW21175   1.172   5.090   3.361
 6759SOL    HW121176   1.214   5.002   3.383
 6759SOL    HW221177   1.117   5.080   3.278
 6760SOL     OW21178   6.799   3.706   5.013
 6760SOL    HW121179   6.724   3.773   5.015
 6760SOL    HW221180   6.800   3.654   5.099
 6761SOL     OW21181   6.104   2.632   6.107
 6761SOL    HW121182   6.089   2.543   6.066
 6761SOL    HW221183   6.197   2.636   6.144
 6762SOL     OW21184   0.349   3.885   3.802
 6762SOL    HW121185   0.395   3.948   3.738
 6762SOL    HW221186   0.368   3.791   3.776
 6763SOL     OW21187   6.408   6.937   5.182
 6763SOL    HW121188   6.379   6.872   5.253
 6763SOL    HW221189   6.351   7.018   5.186
 6764SOL     OW21190   2.007   3.459   6.997
 6764SOL    HW121191   1.941   3.531   6.977
 6764SOL    HW221192   2.031   3.411   6.913
 6765SOL     OW21193   4.474   5.066   2.531
 6765SOL    HW121194   4.487   4.979   2.578
 6765SOL    HW221195   4.547   5.130   2.557
 6766SOL     OW21196   2.416   2.264   6.139
 6766SOL    HW121197   2.513   2.267   6.162
 6766SOL    HW221198   2.401   2.309   6.051
 6767SOL     OW21199   0.408   2.672   5.796
 6767SOL    HW121200   0.448   2.582   5.812
 6767SOL    HW221201   0.308   2.663   5.790
 6768SOL     OW21202   6.949   0.889   5.964
 6768SOL    HW121203   6.945   0.965   5.899
 6768SOL    HW221204   6.952   0.802   5.915
 6769SOL     OW21205   0.817   2.367   5.851
 6769SOL    HW121206   0.875   2.287   5.866
 6769SOL    HW221207   0.772   2.359   5.762
 6770SOL     OW21208   7.011   1.697   3.746
 6770SOL    HW121209   6.960   1.670   3.828
 6770SOL    HW221210   6.962   1.770   3.699
 6771SOL     OW21211   6.245   1.856   2.577
 6771SOL    HW121212   6.157   1.818   2.607
 6771SOL    HW221213   6.297   1.887   2.656
 6772SOL     OW21214   0.873   0.580   2.191
 6772SOL    HW121215   0.908   0.607   2.101
 6772SOL    HW221216   0.843   0.485   2.189
 6773SOL     OW21217   1.699   0.979   2.879
 6773SOL    HW121218   1.762   1.032   2.821
 6773SOL    HW221219   1.747   0.951   2.962
 6774SOL     OW21220   4.177   1.083   5.323
 6774SOL    HW121221   4.142   1.177   5.331
 6774SOL    HW221222   4.194   1.062   5.227
 6775SOL     OW21223   1.834   2.106   4.571
 6775SOL    HW121224   1.747   2.122   4.525
 6775SOL    HW221225   1.906   2.160   4.526
 6776SOL     OW21226   3.502   3.815   3.470
 6776SOL    HW121227   3.543   3.773   3.552
 6776SOL    HW221228   3.549   3.901   3.451
 6777SOL     OW21229   0.354   7.024   6.194
 6777SOL    HW121230   0.345   0.093   6.215
 6777SOL    HW221231   0.263   6.982   6.188
 6778SOL     OW21232   6.561   5.885   2.094
 6778SOL    HW121233   6.461   5.886   2.100
 6778SOL    HW221234   6.590   5.930   2.009
 6779SOL     OW21235   5.032   4.681   6.559
 6779SOL    HW121236   5.016   4.778   6.576
 6779SOL    HW221237   5.121   4.668   6.516
 6780SOL     OW21238   4.712   1.137   2.442
 6780SOL    HW121239   4.736   1.233   2.426
 6780SOL    HW221240   4.613   1.125   2.435
 6781SOL     OW21241   5.732   3.474   2.937
 6781SOL    HW121242   5.713   3.403   3.005
 6781SOL    HW221243   5.686   3.559   2.964
 6782SOL     OW21244   0.193   1.694   2.495
 6782SOL    HW121245   0.289   1.669   2.485
 6782SOL    HW221246   0.137   1.611   2.490
 6783SOL     OW21247   0.380   6.659   6.767
 6783SOL    HW121248   0.294   6.643   6.815
 6783SOL    HW221249   0.370   6.633   6.671
 6784SOL     OW21250   0.918   4.884   0.088
 6784SOL    HW121251   0.843   4.829   0.049
 6784SOL    HW221252   0.905   4.980   0.062
 6785SOL     OW21253   5.419   4.542   1.882
 6785SOL    HW121254   5.496   4.487   1.850
 6785SOL    HW221255   5.380   4.593   1.806
 6786SOL     OW21256   6.557   1.785   5.495
 6786SOL    HW121257   6.522   1.877   5.482
 6786SOL    HW221258   6.568   1.740   5.406
 6787SOL     OW21259   4.171   2.273   1.114
 6787SOL    HW121260   4.105   2.333   1.159
 6787SOL    HW221261   4.207   2.207   1.181
 6788SOL     OW21262   1.495   4.116   0.928
 6788SOL    HW121263   1.417   4.071   0.971
 6788SOL    HW221264   1.510   4.079   0.837
 6789SOL     OW21265   6.033   3.649   1.836
 6789SOL    HW121266   6.024   3.570   1.896
 6789SOL    HW221267   5.946   3.699   1.833
 6790SOL     OW21268   0.262   5.286   0.550
 6790SOL    HW121269   0.275   5.291   0.451
 6790SOL    HW221270   0.183   5.340   0.576
 6791SOL     OW21271   2.026   6.519   3.395
 6791SOL    HW121272   1.975   6.464   3.462
 6791SOL    HW221273   2.102   6.465   3.359
 6792SOL     OW21274   3.431   5.924   6.915
 6792SOL    HW121275   3.361   5.934   6.844
 6792SOL    HW221276   3.521   5.943   6.876
 6793SOL     OW21277   2.298   4.173   6.981
 6793SOL    HW121278   2.306   4.139   0.047
 6793SOL    HW221279   2.214   4.140   6.940
 6794SOL     OW21280   4.795   2.276   4.043
 6794SOL    HW121281   4.893   2.265   4.028
 6794SOL    HW221282   4.753   2.315   3.960
 6795SOL     OW21283   0.535   1.101   2.051
 6795SOL    HW121284   0.549   1.003   2.044
 6795SOL    HW221285   0.536   1.142   1.960
 6796SOL     OW21286   6.892   3.242   2.167
 6796SOL    HW121287   6.963   3.172   2.163
 6796SOL    HW221288   6.857   3.260   2.076
 6797SOL     OW21289   1.414   3.600   0.774
 6797SOL    HW121290   1.442   3.684   0.820
 6797SOL    HW221291   1.494   3.552   0.738
 6798SOL     OW21292   4.829   1.613   1.791
 6798SOL    HW121293   4.738   1.594   1.830
 6798SOL    HW221294   4.865   1.530   1.749
 6799SOL     OW21295   5.410   6.840   2.924
 6799SOL    HW121296   5.379   6.928   2.961
 6799SOL    HW221297   5.350   6.813   2.849
 6800SOL     OW21298   6.480   2.737   2.021
 6800SOL    HW121299   6.389   2.775   2.040
 6800SOL    HW221300   6.550   2.807   2.037
 6801SOL     OW21301   2.231   5.144   5.269
 6801SOL    HW121302   2.133   5.149   5.288
 6801SOL    HW221303   2.282   5.187   5.344
 6802SOL     OW21304   2.615   4.425   1.720
 6802SOL    HW121305   2.619   4.333   1.682
 6802SOL    HW221306   2.708   4.459   1.737
 6803SOL     OW21307   6.185   5.133   6.397
 6803SOL    HW121308   6.250   5.185   6.452
 6803SOL    HW221309   6.180   5.039   6.431
 6804SOL     OW21310   3.401   4.985   1.997
 6804SOL    HW121311   3.468   4.914   1.976
 6804SOL    HW221312   3.343   4.956   2.073
 6805SOL     OW21313   0.686   4.069   3.874
 6805SOL    HW121314   0.749   4.092   3.801
 6805SOL    HW221315   0.720   3.988   3.923
 6806SOL     OW21316   6.176   4.030   1.562
 6806SOL    HW121317   6.110   4.073   1.624
 6806SOL    HW221318   6.129   3.997   1.481
 6807SOL     OW21319   3.772   2.926   2.318
 6807SOL    HW121320   3.766   2.860   2.244
 6807SOL    HW221321   3.768   3.019   2.281
 6808SOL     OW21322   3.733   6.191   3.544
 6808SOL    HW121323   3.645   6.170   3.501
 6808SOL    HW221324   3.742   6.290   3.555
 6809SOL     OW21325   5.865   2.907   0.573
 6809SOL    HW121326   5.833   2.875   0.662
 6809SOL    HW221327   5.798   2.970   0.534
 6810SOL     OW21328   3.179   0.154   4.439
 6810SOL    HW121329   3.097   0.118   4.395
 6810SOL    HW221330   3.225   0.217   4.376
 6811SOL     OW21331   6.359   1.421   1.574
 6811SOL    HW121332   6.436   1.429   1.638
 6811SOL    HW221333   6.321   1.513   1.557
 6812SOL     OW21334   3.281   4.366   5.405
 6812SOL    HW121335   3.253   4.444   5.461
 6812SOL    HW221336   3.202   4.333   5.353
 6813SOL     OW21337   0.133   3.693   2.067
 6813SOL    HW121338   0.047   3.712   2.021
 6813SOL    HW221339   0.172   3.608   2.031
 6814SOL     OW21340   4.205   2.344   1.706
 6814SOL    HW121341   4.152   2.310   1.784
 6814SOL    HW221342   4.245   2.432   1.730
 6815SOL     OW21343   1.147   5.886   0.198
 6815SOL    HW121344   1.083   5.961   0.216
 6815SOL    HW221345   1.234   5.905   0.243
 6816SOL     OW21346   5.886   6.482   3.896
 6816SOL    HW121347   5.817   6.551   3.916
 6816SOL    HW221348   5.841   6.398   3.867
 6817SOL     OW21349   5.955   0.742   1.673
 6817SOL    HW121350   5.918   0.691   1.595
 6817SOL    HW221351   6.016   0.814   1.640
 6818SOL     OW21352   6.794   7.023   5.760
 6818SOL    HW121353   6.711   6.978   5.727
 6818SOL    HW221354   6.874   6.982   5.715
 6819SOL     OW21355   5.738   4.029   0.176
 6819SOL    HW121356   5.799   3.990   0.107
 6819SOL    HW221357   5.687   3.955   0.221
 6820SOL     OW21358   2.210   4.437   1.042
 6820SOL    HW121359   2.133   4.439   0.978
 6820SOL    HW221360   2.237   4.343   1.060
 6821SOL     OW21361   3.090   2.616   5.777
 6821SOL    HW121362   3.102   2.676   5.856
 6821SOL    HW221363   3.137   2.529   5.793
 6822SOL     OW21364   6.528   4.165   4.835
 6822SOL    HW121365   6.477   4.225   4.896
 6822SOL    HW221366   6.622   4.198   4.827
 6823SOL     OW21367   6.730   3.130   5.585
 6823SOL    HW121368   6.638   3.113   5.550
 6823SOL    HW221369   6.729   3.212   5.643
 6824SOL     OW21370   0.506   0.270   3.699
 6824SOL    HW121371   0.562   0.335   3.750
 6824SOL    HW221372   0.454   0.319   3.629
 6825SOL     OW21373   4.853   4.624   1.637
 6825SOL    HW121374   4.777   4.559   1.630
 6825SOL    HW221375   4.818   4.712   1.668
 6826SOL     OW21376   5.731   1.103   3.656
 6826SOL    HW121377   5.695   1.176   3.714
 6826SOL    HW221378   5.831   1.101   3.662
 6827SOL     OW21379   5.207   4.990   5.480
 6827SOL    HW121380   5.112   4.975   5.455
 6827SOL    HW221381   5.239   5.076   5.438
 6828SOL     OW21382   2.736   2.299   2.846
 6828SOL    HW121383   2.830   2.275   2.824
 6828SOL    HW221384   2.685   2.318   2.762
 6829SOL     OW21385   5.673   6.616   3.985
 6829SOL    HW121386   5.650   6.713   3.986
 6829SOL    HW221387   5.608   6.567   3.928
 6830SOL     OW21388   3.794   6.601   2.224
 6830SOL    HW121389   3.750   6.512   2.217
 6830SOL    HW221390   3.744   6.668   2.169
 6831SOL     OW21391   2.397   1.032   6.971
 6831SOL    HW121392   2.490   1.001   6.990
 6831SOL    HW221393   2.347   0.959   6.924
 6832SOL     OW21394   3.345   3.624   0.467
 6832SOL    HW121395   3.402   3.548   0.435
 6832SOL    HW221396   3.383   3.660   0.552
 6833SOL     OW21397   4.565   4.984   0.226
 6833SOL    HW121398   4.576   4.922   0.304
 6833SOL    HW221399   4.645   4.977   0.166
 6834SOL     OW21400   6.407   5.482   5.451
 6834SOL    HW121401   6.311   5.488   5.477
 6834SOL    HW221402   6.447   5.398   5.489
 6835SOL     OW21403   3.990   0.156   2.694
 6835SOL    HW121404   3.973   0.250   2.724
 6835SOL    HW221405   3.915   0.126   2.636
 6836SOL     OW21406   0.709   4.796   6.930
 6836SOL    HW121407   0.628   4.775   6.876
 6836SOL    HW221408   0.757   4.711   6.952
 6837SOL     OW21409   6.623   2.536   1.552
 6837SOL    HW121410   6.636   2.587   1.637
 6837SOL    HW221411   6.546   2.576   1.501
 6838SOL     OW21412   1.909   4.371   0.032
 6838SOL    HW121413   1.816   4.396   0.004
 6838SOL    HW221414   1.974   4.428   7.010
 6839SOL     OW21415   5.963   2.036   5.451
 6839SOL    HW121416   5.884   2.024   5.390
 6839SOL    HW221417   5.939   2.101   5.523
 6840SOL     OW21418   3.376   0.041   4.603
 6840SOL    HW121419   3.460   0.061   4.553
 6840SOL    HW221420   3.297   0.075   4.551
 6841SOL     OW21421   4.635   6.204   0.593
 6841SOL    HW121422   4.703   6.252   0.648
 6841SOL    HW221423   4.670   6.115   0.567
 6842SOL     OW21424   0.944   3.535   3.737
 6842SOL    HW121425   0.932   3.626   3.778
 6842SOL    HW221426   0.857   3.505   3.698
 6843SOL     OW21427   4.762   2.953   1.668
 6843SOL    HW121428   4.718   2.988   1.751
 6843SOL    HW221429   4.811   3.027   1.622
 6844SOL     OW21430   3.458   6.834   4.354
 6844SOL    HW121431   3.381   6.799   4.409
 6844SOL    HW221432   3.544   6.812   4.399
 6845SOL     OW21433   3.496   3.967   6.916
 6845SOL    HW121434   3.418   3.999   6.862
 6845SOL    HW221435   3.473   3.879   6.957
 6846SOL     OW21436   3.874   2.954   4.181
 6846SOL    HW121437   3.793   2.915   4.226
 6846SOL    HW221438   3.856   2.964   4.084
 6847SOL     OW21439   5.273   3.416   2.224
 6847SOL    HW121440   5.191   3.386   2.175
 6847SOL    HW221441   5.257   3.508   2.261
 6848SOL     OW21442   0.708   6.098   4.871
 6848SOL    HW121443   0.649   6.178   4.875
 6848SOL    HW221444   0.749   6.083   4.961
 6849SOL     OW21445   3.082   6.979   4.865
 6849SOL    HW121446   3.038   7.014   4.947
 6849SOL    HW221447   3.099   0.025   4.801
 6850SOL     OW21448   6.832   3.924   1.719
 6850SOL    HW121449   6.756   3.970   1.765
 6850SOL    HW221450   6.805   3.831   1.694
 6851SOL     OW21451   1.896   5.532   0.133
 6851SOL    HW121452   1.875   5.486   0.219
 6851SOL    HW221453   1.855   5.624   0.134
 6852SOL     OW21454   5.851   4.743   2.116
 6852SOL    HW121455   5.834   4.654   2.157
 6852SOL    HW221456   5.810   4.747   2.025
 6853SOL     OW21457   6.211   4.246   4.789
 6853SOL    HW121458   6.238   4.240   4.885
 6853SOL    HW221459   6.222   4.156   4.745
 6854SOL     OW21460   5.981   0.894   6.716
 6854SOL    HW121461   5.989   0.828   6.791
 6854SOL    HW221462   5.993   0.987   6.753
 6855SOL     OW21463   3.199   6.819   1.863
 6855SOL    HW121464   3.197   6.846   1.959
 6855SOL    HW221465   3.150   6.886   1.808
 6856SOL     OW21466   0.305   5.729   5.600
 6856SOL    HW121467   0.373   5.742   5.528
 6856SOL    HW221468   0.343   5.672   5.673
 6857SOL     OW21469   5.008   0.200   6.754
 6857SOL    HW121470   5.091   0.214   6.700
 6857SOL    HW221471   5.027   0.135   6.828
 6858SOL     OW21472   3.530   2.792   6.812
 6858SOL    HW121473   3.461   2.829   6.874
 6858SOL    HW221474   3.493   2.710   6.767
 6859SOL     OW21475   4.414   0.899   0.506
 6859SOL    HW121476   4.506   0.928   0.479
 6859SOL    HW221477   4.354   0.979   0.511
 6860SOL     OW21478   4.815   3.463   7.026
 6860SOL    HW121479   4.853   3.472   6.934
 6860SOL    HW221480   4.817   3.551   0.044
 6861SOL     OW21481   6.190   3.674   0.324
 6861SOL    HW121482   6.131   3.688   0.403
 6861SOL    HW221483   6.285   3.695   0.348
 6862SOL     OW21484   2.497   4.626   4.842
 6862SOL    HW121485   2.446   4.574   4.911
 6862SOL    HW221486   2.439   4.640   4.761
 6863SOL     OW21487   1.057   3.375   3.941
 6863SOL    HW121488   1.002   3.426   3.874
 6863SOL    HW221489   1.135   3.333   3.895
 6864SOL     OW21490   3.514   5.436   6.212
 6864SOL    HW121491   3.534   5.534   6.204
 6864SOL    HW221492   3.527   5.392   6.123
 6865SOL     OW21493   0.898   3.027   4.575
 6865SOL    HW121494   0.923   3.121   4.550
 6865SOL    HW221495   0.799   3.016   4.569
 6866SOL     OW21496   0.844   3.913   2.531
 6866SOL    HW121497   0.753   3.932   2.567
 6866SOL    HW221498   0.837   3.857   2.449
 6867SOL     OW21499   2.370   5.436   3.505
 6867SOL    HW121500   2.420   5.456   3.421
 6867SOL    HW221501   2.330   5.520   3.541
 6868SOL     OW21502   1.929   5.758   4.853
 6868SOL    HW121503   1.996   5.685   4.866
 6868SOL    HW221504   1.897   5.756   4.758
 6869SOL     OW21505   0.437   2.923   5.187
 6869SOL    HW121506   0.365   2.924   5.256
 6869SOL    HW221507   0.526   2.934   5.231
 6870SOL     OW21508   5.180   3.628   3.160
 6870SOL    HW121509   5.196   3.709   3.104
 6870SOL    HW221510   5.205   3.546   3.108
 6871SOL     OW21511   4.650   5.861   1.620
 6871SOL    HW121512   4.626   5.858   1.523
 6871SOL    HW221513   4.745   5.832   1.632
 6872SOL     OW21514   3.596   4.388   0.890
 6872SOL    HW121515   3.611   4.487   0.888
 6872SOL    HW221516   3.551   4.359   0.805
 6873SOL     OW21517   5.591   4.614   4.596
 6873SOL    HW121518   5.691   4.610   4.599
 6873SOL    HW221519   5.557   4.651   4.682
 6874SOL     OW21520   0.878   1.864   6.076
 6874SOL    HW121521   0.935   1.906   6.147
 6874SOL    HW221522   0.795   1.828   6.118
 6875SOL     OW21523   4.005   0.724   4.552
 6875SOL    HW121524   4.066   0.645   4.548
 6875SOL    HW221525   3.926   0.702   4.610
 6876SOL     OW21526   3.484   6.061   4.951
 6876SOL    HW121527   3.569   6.112   4.941
 6876SOL    HW221528   3.411   6.109   4.900
 6877SOL     OW21529   2.025   3.393   6.737
 6877SOL    HW121530   1.962   3.328   6.695
 6877SOL    HW221531   2.119   3.358   6.731
 6878SOL     OW21532   1.184   1.512   4.679
 6878SOL    HW121533   1.208   1.435   4.619
 6878SOL    HW221534   1.140   1.477   4.761
 6879SOL     OW21535   6.631   0.773   5.390
 6879SOL    HW121536   6.562   0.837   5.423
 6879SOL    HW221537   6.636   0.778   5.290
 6880SOL     OW21538   1.322   4.300   4.867
 6880SOL    HW121539   1.338   4.293   4.966
 6880SOL    HW221540   1.351   4.214   4.823
 6881SOL     OW21541   5.220   5.638   1.540
 6881SOL    HW121542   5.318   5.620   1.532
 6881SOL    HW221543   5.202   5.733   1.516
 6882SOL     OW21544   2.411   5.854   5.723
 6882SOL    HW121545   2.479   5.925   5.739
 6882SOL    HW221546   2.436   5.772   5.774
 6883SOL     OW21547   3.486   6.277   2.135
 6883SOL    HW121548   3.550   6.275   2.212
 6883SOL    HW221549   3.470   6.372   2.107
 6884SOL     OW21550   1.954   4.717   2.284
 6884SOL    HW121551   1.962   4.619   2.302
 6884SOL    HW221552   1.923   4.763   2.367
 6885SOL     OW21553   4.268   4.837   5.046
 6885SOL    HW121554   4.172   4.861   5.056
 6885SOL    HW221555   4.276   4.743   5.012
 6886SOL     OW21556   5.475   1.173   1.586
 6886SOL    HW121557   5.413   1.107   1.542
 6886SOL    HW221558   5.562   1.174   1.537
 6887SOL     OW21559   6.041   1.011   4.905
 6887SOL    HW121560   6.043   0.916   4.874
 6887SOL    HW221561   5.964   1.058   4.862
 6888SOL     OW21562   5.854   7.014   4.185
 6888SOL    HW121563   5.920   6.973   4.122
 6888SOL    HW221564   5.838   6.952   4.262
 6889SOL     OW21565   2.216   3.946   6.475
 6889SOL    HW121566   2.183   3.867   6.424
 6889SOL    HW221567   2.197   3.932   6.573
 6890SOL     OW21568   1.416   0.377   1.314
 6890SOL    HW121569   1.407   0.360   1.216
 6890SOL    HW221570   1.375   0.302   1.366
 6891SOL     OW21571   4.244   5.380   6.059
 6891SOL    HW121572   4.274   5.453   6.120
 6891SOL    HW221573   4.255   5.292   6.104
 6892SOL     OW21574   3.399   1.731   4.272
 6892SOL    HW121575   3.318   1.785   4.294
 6892SOL    HW221576   3.374   1.634   4.264
 6893SOL     OW21577   4.984   0.076   1.367
 6893SOL    HW121578   5.049   0.080   1.291
 6893SOL    HW221579   4.925   7.024   1.355
 6894SOL     OW21580   5.841   4.929   6.053
 6894SOL    HW121581   5.795   4.986   5.985
 6894SOL    HW221582   5.797   4.942   6.142
 6895SOL     OW21583   4.215   5.316   5.538
 6895SOL    HW121584   4.239   5.369   5.619
 6895SOL    HW221585   4.298   5.285   5.492
 6896SOL     OW21586   4.909   1.699   2.700
 6896SOL    HW121587   5.000   1.690   2.741
 6896SOL    HW221588   4.905   1.644   2.616
 6897SOL     OW21589   3.895   0.758   1.190
 6897SOL    HW121590   3.833   0.707   1.250
 6897SOL    HW221591   3.891   0.720   1.098
 6898SOL     OW21592   4.158   1.691   2.431
 6898SOL    HW121593   4.239   1.651   2.388
 6898SOL    HW221594   4.084   1.696   2.364
 6899SOL     OW21595   5.457   5.608   5.976
 6899SOL    HW121596   5.474   5.528   6.035
 6899SOL    HW221597   5.444   5.689   6.033
 6900SOL     OW21598   4.535   0.172   6.077
 6900SOL    HW121599   4.532   0.271   6.089
 6900SOL    HW221600   4.448   0.133   6.107
 6901SOL     OW21601   2.422   0.760   0.185
 6901SOL    HW121602   2.340   0.794   0.140
 6901SOL    HW221603   2.451   0.825   0.255
 6902SOL     OW21604   6.818   5.751   2.585
 6902SOL    HW121605   6.809   5.709   2.675
 6902SOL    HW221606   6.756   5.705   2.521
 6903SOL     OW21607   5.069   4.327   0.270
 6903SOL    HW121608   5.046   4.421   0.293
 6903SOL    HW221609   5.079   4.319   0.170
 6904SOL     OW21610   0.606   0.482   2.799
 6904SOL    HW121611   0.624   0.383   2.801
 6904SOL    HW221612   0.507   0.497   2.788
 6905SOL     OW21613   3.416   5.455   1.154
 6905SOL    HW121614   3.375   5.437   1.064
 6905SOL    HW221615   3.441   5.368   1.196
 6906SOL     OW21616   6.224   5.752   3.060
 6906SOL    HW121617   6.260   5.784   3.148
 6906SOL    HW221618   6.126   5.736   3.067
 6907SOL     OW21619   3.567   0.440   1.413
 6907SOL    HW121620   3.615   0.527   1.414
 6907SOL    HW221621   3.506   0.435   1.334
 6908SOL     OW21622   5.173   6.677   6.974
 6908SOL    HW121623   5.233   6.754   6.992
 6908SOL    HW221624   5.129   6.648   0.032
 6909SOL     OW21625   1.999   2.102   0.275
 6909SOL    HW121626   1.978   2.148   0.189
 6909SOL    HW221627   2.093   2.067   0.272
 6910SOL     OW21628   5.399   1.439   0.928
 6910SOL    HW121629   5.314   1.394   0.900
 6910SOL    HW221630   5.404   1.441   1.027
 6911SOL     OW21631   4.499   0.252   4.647
 6911SOL    HW121632   4.427   0.280   4.711
 6911SOL    HW221633   4.552   0.332   4.620
 6912SOL     OW21634   4.172   4.806   2.002
 6912SOL    HW121635   4.184   4.795   2.101
 6912SOL    HW221636   4.224   4.735   1.955
 6913SOL     OW21637   4.824   5.791   5.198
 6913SOL    HW121638   4.877   5.868   5.163
 6913SOL    HW221639   4.848   5.776   5.294
 6914SOL     OW21640   6.483   4.783   6.950
 6914SOL    HW121641   6.392   4.819   6.926
 6914SOL    HW221642   6.535   4.766   6.866
 6915SOL     OW21643   0.290   6.508   0.816
 6915SOL    HW121644   0.342   6.582   0.774
 6915SOL    HW221645   0.197   6.507   0.778
 6916SOL     OW21646   5.909   0.831   5.690
 6916SOL    HW121647   5.861   0.849   5.605
 6916SOL    HW221648   6.006   0.819   5.671
 6917SOL     OW21649   4.214   6.978   5.421
 6917SOL    HW121650   4.126   6.946   5.457
 6917SOL    HW221651   4.282   6.905   5.429
 6918SOL     OW21652   2.220   2.499   3.479
 6918SOL    HW121653   2.166   2.581   3.495
 6918SOL    HW221654   2.318   2.520   3.490
 6919SOL     OW21655   1.404   5.786   3.701
 6919SOL    HW121656   1.383   5.861   3.639
 6919SOL    HW221657   1.496   5.753   3.684
 6920SOL     OW21658   5.404   5.969   3.784
 6920SOL    HW121659   5.362   5.950   3.696
 6920SOL    HW221660   5.465   5.894   3.810
 6921SOL     OW21661   1.351   5.461   3.685
 6921SOL    HW121662   1.344   5.394   3.610
 6921SOL    HW221663   1.277   5.447   3.750
 6922SOL     OW21664   1.942   6.536   1.128
 6922SOL    HW121665   1.978   6.558   1.037
 6922SOL    HW221666   1.845   6.515   1.120
 6923SOL     OW21667   4.728   5.577   3.627
 6923SOL    HW121668   4.687   5.588   3.536
 6923SOL    HW221669   4.797   5.504   3.624
 6924SOL     OW21670   6.149   5.814   1.875
 6924SOL    HW121671   6.238   5.848   1.843
 6924SOL    HW221672   6.078   5.838   1.809
 6925SOL     OW21673   4.947   5.344   2.299
 6925SOL    HW121674   5.024   5.282   2.280
 6925SOL    HW221675   4.863   5.290   2.311
 6926SOL     OW21676   2.715   3.767   5.631
 6926SOL    HW121677   2.794   3.809   5.587
 6926SOL    HW221678   2.635   3.825   5.619
 6927SOL     OW21679   3.926   3.883   0.508
 6927SOL    HW121680   3.840   3.906   0.462
 6927SOL    HW221681   3.926   3.924   0.599
 6928SOL     OW21682   6.865   0.593   6.675
 6928SOL    HW121683   6.914   0.618   6.758
 6928SOL    HW221684   6.858   0.672   6.614
 6929SOL     OW21685   3.187   5.475   1.834
 6929SOL    HW121686   3.192   5.426   1.921
 6929SOL    HW221687   3.278   5.510   1.811
 6930SOL     OW21688   0.292   0.580   3.171
 6930SOL    HW121689   0.242   0.642   3.111
 6930SOL    HW221690   0.292   0.488   3.132
 6931SOL     OW21691   2.331   0.004   0.218
 6931SOL    HW121692   2.384   6.996   0.295
 6931SOL    HW221693   2.337   0.104   0.218
 6932SOL     OW21694   2.651   2.354   0.496
 6932SOL    HW121695   2.673   2.331   0.401
 6932SOL    HW221696   2.552   2.354   0.508
 6933SOL     OW21697   2.372   6.242   4.815
 6933SOL    HW121698   2.466   6.238   4.849
 6933SOL    HW221699   2.359   6.174   4.744
 6934SOL     OW21700   5.343   5.177   6.533
 6934SOL    HW121701   5.416   5.233   6.570
 6934SOL    HW221702   5.271   5.236   6.497
 6935SOL     OW21703   4.339   5.756   3.096
 6935SOL    HW121704   4.293   5.667   3.101
 6935SOL    HW221705   4.427   5.746   3.051
 6936SOL     OW21706   0.243   4.457   0.825
 6936SOL    HW121707   0.307   4.531   0.845
 6936SOL    HW221708   0.151   4.484   0.852
 6937SOL     OW21709   4.243   6.155   5.730
 6937SOL    HW121710   4.231   6.250   5.703
 6937SOL    HW221711   4.171   6.130   5.796
 6938SOL     OW21712   6.139   2.899   4.894
 6938SOL    HW121713   6.042   2.892   4.914
 6938SOL    HW221714   6.162   2.837   4.819
 6939SOL     OW21715   6.593   5.024   1.283
 6939SOL    HW121716   6.689   5.052   1.290
 6939SOL    HW221717   6.557   5.004   1.374
 6940SOL     OW21718   4.373   0.495   4.405
 6940SOL    HW121719   4.444   0.481   4.474
 6940SOL    HW221720   4.396   0.574   4.348
 6941SOL     OW21721   3.417   2.869   4.689
 6941SOL    HW121722   3.402   2.867   4.788
 6941SOL    HW221723   3.454   2.781   4.659
 6942SOL     OW21724   5.783   1.441   6.765
 6942SOL    HW121725   5.768   1.344   6.784
 6942SOL    HW221726   5.718   1.496   6.817
 6943SOL     OW21727   6.338   5.366   6.445
 6943SOL    HW121728   6.432   5.336   6.460
 6943SOL    HW221729   6.312   5.430   6.517
 6944SOL     OW21730   1.195   6.760   0.272
 6944SOL    HW121731   1.244   6.683   0.234
 6944SOL    HW221732   1.137   6.729   0.348
 6945SOL     OW21733   4.228   1.783   6.158
 6945SOL    HW121734   4.240   1.732   6.243
 6945SOL    HW221735   4.293   1.860   6.156
 6946SOL     OW21736   6.495   4.243   3.119
 6946SOL    HW121737   6.583   4.284   3.144
 6946SOL    HW221738   6.421   4.301   3.153
 6947SOL     OW21739   3.649   6.649   0.788
 6947SOL    HW121740   3.622   6.669   0.883
 6947SOL    HW221741   3.748   6.632   0.786
 6948SOL     OW21742   3.250   2.281   5.445
 6948SOL    HW121743   3.345   2.310   5.452
 6948SOL    HW221744   3.217   2.294   5.352
 6949SOL     OW21745   5.165   0.619   2.232
 6949SOL    HW121746   5.192   0.681   2.158
 6949SOL    HW221747   5.144   0.672   2.314
 6950SOL     OW21748   3.431   1.363   2.917
 6950SOL    HW121749   3.495   1.402   2.851
 6950SOL    HW221750   3.428   1.421   2.998
 6951SOL     OW21751   4.893   4.698   5.455
 6951SOL    HW121752   4.811   4.701   5.511
 6951SOL    HW221753   4.885   4.624   5.388
 6952SOL     OW21754   0.294   3.652   6.105
 6952SOL    HW121755   0.263   3.747   6.104
 6952SOL    HW221756   0.235   3.598   6.045
 6953SOL     OW21757   4.941   2.346   4.760
 6953SOL    HW121758   4.842   2.352   4.747
 6953SOL    HW221759   4.964   2.262   4.809
 6954SOL     OW21760   0.173   4.679   2.115
 6954SOL    HW121761   0.241   4.608   2.095
 6954SOL    HW221762   0.115   4.648   2.191
 6955SOL     OW21763   6.589   0.693   3.394
 6955SOL    HW121764   6.645   0.764   3.437
 6955SOL    HW221765   6.607   0.605   3.438
 6956SOL     OW21766   2.846   4.210   0.964
 6956SOL    HW121767   2.940   4.194   0.933
 6956SOL    HW221768   2.814   4.131   1.016
 6957SOL     OW21769   0.660   4.532   0.185
 6957SOL    HW121770   0.669   4.448   0.240
 6957SOL    HW221771   0.713   4.521   0.101
 6958SOL     OW21772   2.394   4.019   6.120
 6958SOL    HW121773   2.340   4.008   6.204
 6958SOL    HW221774   2.449   3.937   6.105
 6959SOL     OW21775   3.586   1.054   4.853
 6959SOL    HW121776   3.685   1.068   4.856
 6959SOL    HW221777   3.542   1.139   4.825
 6960SOL     OW21778   0.759   5.869   0.007
 6960SOL    HW121779   0.731   5.900   0.098
 6960SOL    HW221780   0.702   5.914   6.966
 6961SOL     OW21781   6.753   1.418   3.475
 6961SOL    HW121782   6.763   1.359   3.395
 6961SOL    HW221783   6.681   1.381   3.535
 6962SOL     OW21784   3.799   4.007   1.036
 6962SOL    HW121785   3.818   4.103   1.060
 6962SOL    HW221786   3.810   3.950   1.117
 6963SOL     OW21787   6.388   6.180   1.984
 6963SOL    HW121788   6.485   6.170   2.006
 6963SOL    HW221789   6.334   6.179   2.068
 6964SOL     OW21790   3.257   5.853   5.997
 6964SOL    HW121791   3.183   5.896   5.944
 6964SOL    HW221792   3.293   5.919   6.063
 6965SOL     OW21793   6.135   1.721   5.686
 6965SOL    HW121794   6.040   1.725   5.655
 6965SOL    HW221795   6.184   1.803   5.655
 6966SOL     OW21796   5.037   2.213   3.941
 6966SOL    HW121797   5.069   2.203   3.846
 6966SOL    HW221798   5.101   2.271   3.992
 6967SOL     OW21799   2.913   2.426   6.454
 6967SOL    HW121800   2.854   2.346   6.445
 6967SOL    HW221801   2.862   2.508   6.428
 6968SOL     OW21802   4.255   6.931   4.053
 6968SOL    HW121803   4.311   6.854   4.083
 6968SOL    HW221804   4.234   6.922   3.955
 6969SOL     OW21805   3.206   3.639   0.974
 6969SOL    HW121806   3.201   3.591   1.062
 6969SOL    HW221807   3.212   3.573   0.900
 6970SOL     OW21808   5.226   4.211   0.464
 6970SOL    HW121809   5.152   4.247   0.407
 6970SOL    HW221810   5.313   4.221   0.416
 6971SOL     OW21811   6.396   1.636   2.489
 6971SOL    HW121812   6.363   1.560   2.544
 6971SOL    HW221813   6.330   1.711   2.493
 6972SOL     OW21814   5.291   4.781   4.242
 6972SOL    HW121815   5.339   4.863   4.274
 6972SOL    HW221816   5.238   4.803   4.160
 6973SOL     OW21817   1.264   4.646   4.416
 6973SOL    HW121818   1.232   4.722   4.473
 6973SOL    HW221819   1.187   4.610   4.363
 6974SOL     OW21820   3.545   4.256   5.149
 6974SOL    HW121821   3.574   4.166   5.181
 6974SOL    HW221822   3.548   4.321   5.226
 6975SOL     OW21823   2.924   6.905   6.087
 6975SOL    HW121824   2.828   6.878   6.080
 6975SOL    HW221825   2.953   6.900   6.183
 6976SOL     OW21826   1.172   5.998   0.488
 6976SOL    HW121827   1.200   6.087   0.522
 6976SOL    HW221828   1.073   5.992   0.488
 6977SOL     OW21829   4.801   2.771   2.109
 6977SOL    HW121830   4.783   2.864   2.078
 6977SOL    HW221831   4.760   2.758   2.200
 6978SOL     OW21832   4.403   2.118   3.921
 6978SOL    HW121833   4.442   2.135   3.830
 6978SOL    HW221834   4.322   2.176   3.933
 6979SOL     OW21835   0.338   3.585   3.974
 6979SOL    HW121836   0.289   3.645   4.037
 6979SOL    HW221837   0.433   3.614   3.968
 6980SOL     OW21838   4.386   1.192   4.516
 6980SOL    HW121839   4.419   1.127   4.585
 6980SOL    HW221840   4.392   1.150   4.426
 6981SOL     OW21841   2.978   3.526   6.734
 6981SOL    HW121842   3.032   3.488   6.809
 6981SOL    HW221843   2.883   3.493   6.741
 6982SOL     OW21844   0.483   0.092   5.030
 6982SOL    HW121845   0.421   0.133   4.963
 6982SOL    HW221846   0.459   0.125   5.122
 6983SOL     OW21847   5.990   1.141   3.067
 6983SOL    HW121848   6.043   1.226   3.067
 6983SOL    HW221849   6.053   1.063   3.064
 6984SOL     OW21850   1.788   1.371   6.161
 6984SOL    HW121851   1.852   1.369   6.238
 6984SOL    HW221852   1.807   1.293   6.101
 6985SOL     OW21853   4.836   6.777   3.948
 6985SOL    HW121854   4.800   6.809   4.036
 6985SOL    HW221855   4.809   6.841   3.876
 6986SOL     OW21856   1.823   6.508   5.342
 6986SOL    HW121857   1.915   6.481   5.371
 6986SOL    HW221858   1.763   6.428   5.342
 6987SOL     OW21859   6.832   3.031   6.397
 6987SOL    HW121860   6.878   2.999   6.314
 6987SOL    HW221861   6.895   3.026   6.474
 6988SOL     OW21862   5.380   1.810   5.959
 6988SOL    HW121863   5.353   1.726   5.912
 6988SOL    HW221864   5.472   1.800   5.996
 6989SOL     OW21865   2.227   3.154   4.047
 6989SOL    HW121866   2.221   3.187   4.142
 6989SOL    HW221867   2.253   3.230   3.988
 6990SOL     OW21868   3.990   3.389   1.011
 6990SOL    HW121869   4.084   3.366   0.988
 6990SOL    HW221870   3.990   3.451   1.090
 6991SOL     OW21871   4.026   4.691   5.240
 6991SOL    HW121872   4.007   4.713   5.144
 6991SOL    HW221873   4.007   4.594   5.256
 6992SOL     OW21874   6.701   6.502   4.459
 6992SOL    HW121875   6.742   6.477   4.371
 6992SOL    HW221876   6.714   6.427   4.524
 6993SOL     OW21877   0.731   6.794   2.871
 6993SOL    HW121878   0.694   6.843   2.950
 6993SOL    HW221879   0.657   6.775   2.807
 6994SOL     OW21880   1.067   2.474   6.848
 6994SOL    HW121881   1.147   2.500   6.795
 6994SOL    HW221882   1.071   2.377   6.872
 6995SOL     OW21883   1.115   5.308   4.388
 6995SOL    HW121884   1.201   5.277   4.429
 6995SOL    HW221885   1.109   5.275   4.293
 6996SOL     OW21886   1.920   0.144   6.134
 6996SOL    HW121887   1.854   0.213   6.164
 6996SOL    HW221888   1.882   0.094   6.056
 6997SOL     OW21889   4.821   5.221   4.605
 6997SOL    HW121890   4.804   5.273   4.521
 6997SOL    HW221891   4.778   5.131   4.598
 6998SOL     OW21892   2.988   1.994   2.529
 6998SOL    HW121893   2.918   2.066   2.525
 6998SOL    HW221894   3.070   2.030   2.573
 6999SOL     OW21895   5.531   2.421   0.109
 6999SOL    HW121896   5.460   2.379   0.166
 6999SOL    HW221897   5.560   2.508   0.150
 7000SOL     OW21898   6.909   0.210   1.585
 7000SOL    HW121899   6.936   0.282   1.521
 7000SOL    HW221900   6.833   0.242   1.642
 7001SOL     OW21901   3.216   1.572   6.438
 7001SOL    HW121902   3.299   1.529   6.475
 7001SOL    HW221903   3.138   1.548   6.495
 7002SOL     OW21904   2.177   5.027   2.476
 7002SOL    HW121905   2.201   5.117   2.438
 7002SOL    HW221906   2.252   4.963   2.459
 7003SOL     OW21907   1.975   6.351   5.863
 7003SOL    HW121908   1.906   6.292   5.905
 7003SOL    HW221909   1.999   6.315   5.773
 7004SOL     OW21910   1.752   4.018   6.938
 7004SOL    HW121911   1.654   4.017   6.958
 7004SOL    HW221912   1.804   4.017   7.024
 7005SOL     OW21913   6.908   6.865   5.562
 7005SOL    HW121914   6.886   6.921   5.482
 7005SOL    HW221915   6.918   6.769   5.534
 7006SOL     OW21916   4.435   4.801   3.896
 7006SOL    HW121917   4.441   4.844   3.987
 7006SOL    HW221918   4.465   4.866   3.827
 7007SOL     OW21919   4.665   5.305   2.207
 7007SOL    HW121920   4.644   5.313   2.109
 7007SOL    HW221921   4.589   5.342   2.261
 7008SOL     OW21922   0.997   5.513   4.045
 7008SOL    HW121923   0.913   5.541   4.092
 7008SOL    HW221924   1.076   5.557   4.088
 7009SOL     OW21925   0.000   4.032   1.846
 7009SOL    HW121926   0.094   4.004   1.823
 7009SOL    HW221927   6.963   3.977   1.793
 7010SOL     OW21928   5.496   4.970   6.194
 7010SOL    HW121929   5.420   4.972   6.258
 7010SOL    HW221930   5.477   4.905   6.121
 7011SOL     OW21931   1.010   0.847   5.345
 7011SOL    HW121932   0.911   0.858   5.353
 7011SOL    HW221933   1.055   0.934   5.366
 7012SOL     OW21934   1.318   1.024   1.699
 7012SOL    HW121935   1.265   1.063   1.774
 7012SOL    HW221936   1.357   0.936   1.726
 7013SOL     OW21937   6.690   1.985   1.887
 7013SOL    HW121938   6.769   2.045   1.875
 7013SOL    HW221939   6.717   1.891   1.868
 7014SOL     OW21940   2.355   5.441   0.879
 7014SOL    HW121941   2.267   5.473   0.844
 7014SOL    HW221942   2.404   5.392   0.807
 7015SOL     OW21943   4.663   1.866   2.781
 7015SOL    HW121944   4.756   1.835   2.767
 7015SOL    HW221945   4.664   1.960   2.817
 7016SOL     OW21946   4.317   4.401   1.663
 7016SOL    HW121947   4.386   4.465   1.630
 7016SOL    HW221948   4.355   4.346   1.737
 7017SOL     OW21949   4.999   1.628   5.337
 7017SOL    HW121950   5.015   1.706   5.276
 7017SOL    HW221951   4.901   1.608   5.339
 7018SOL     OW21952   0.662   3.261   3.068
 7018SOL    HW121953   0.564   3.273   3.050
 7018SOL    HW221954   0.697   3.186   3.011
 7019SOL     OW21955   1.298   6.458   1.357
 7019SOL    HW121956   1.308   6.416   1.447
 7019SOL    HW221957   1.227   6.409   1.306
 7020SOL     OW21958   0.651   5.810   6.769
 7020SOL    HW121959   0.581   5.881   6.756
 7020SOL    HW221960   0.608   5.728   6.808
 7021SOL     OW21961   3.455   6.903   6.164
 7021SOL    HW121962   3.400   6.986   6.160
 7021SOL    HW221963   3.409   6.830   6.114
 7022SOL     OW21964   4.284   5.429   5.770
 7022SOL    HW121965   4.252   5.398   5.860
 7022SOL    HW221966   4.368   5.380   5.746
 7023SOL     OW21967   4.819   4.330   2.718
 7023SOL    HW121968   4.883   4.406   2.725
 7023SOL    HW221969   4.870   4.243   2.717
 7024SOL     OW21970   6.113   6.575   1.444
 7024SOL    HW121971   6.185   6.632   1.484
 7024SOL    HW221972   6.092   6.608   1.352
 7025SOL     OW21973   2.676   0.226   0.759
 7025SOL    HW121974   2.643   0.151   0.816
 7025SOL    HW221975   2.776   0.233   0.769
 7026SOL     OW21976   4.080   1.917   1.105
 7026SOL    HW121977   3.986   1.949   1.120
 7026SOL    HW221978   4.091   1.825   1.143
 7027SOL     OW21979   5.670   5.879   4.296
 7027SOL    HW121980   5.702   5.933   4.218
 7027SOL    HW221981   5.707   5.918   4.381
 7028SOL     OW21982   2.823   0.419   4.594
 7028SOL    HW121983   2.894   0.489   4.597
 7028SOL    HW221984   2.776   0.422   4.506
 7029SOL     OW21985   4.131   1.181   4.612
 7029SOL    HW121986   4.223   1.159   4.581
 7029SOL    HW221987   4.133   1.263   4.669
 7030SOL     OW21988   1.785   3.214   4.064
 7030SOL    HW121989   1.875   3.240   4.100
 7030SOL    HW221990   1.752   3.285   4.002
 7031SOL     OW21991   1.435   1.012   4.479
 7031SOL    HW121992   1.407   0.958   4.559
 7031SOL    HW221993   1.535   1.018   4.476
 7032SOL     OW21994   6.066   2.417   3.710
 7032SOL    HW121995   5.982   2.364   3.721
 7032SOL    HW221996   6.132   2.390   3.780
 7033SOL     OW21997   0.918   0.114   5.587
 7033SOL    HW121998   0.867   0.056   5.651
 7033SOL    HW221999   0.906   0.078   5.494
 7034SOL     OW22000   0.413   5.228   3.559
 7034SOL    HW122001   0.390   5.323   3.539
 7034SOL    HW222002   0.346   5.167   3.516
 7035SOL     OW22003   6.849   4.989   1.872
 7035SOL    HW122004   6.938   4.943   1.873
 7035SOL    HW222005   6.777   4.922   1.888
 7036SOL     OW22006   5.695   4.899   0.730
 7036SOL    HW122007   5.659   4.992   0.727
 7036SOL    HW222008   5.757   4.886   0.653
 7037SOL     OW22009   1.527   0.408   6.419
 7037SOL    HW122010   1.587   0.461   6.479
 7037SOL    HW222011   1.452   0.370   6.473
 7038SOL     OW22012   2.158   3.229   4.324
 7038SOL    HW122013   2.138   3.201   4.418
 7038SOL    HW222014   2.136   3.326   4.312
 7039SOL     OW22015   3.282   2.092   0.006
 7039SOL    HW122016   3.313   2.017   0.066
 7039SOL    HW222017   3.252   2.054   6.947
 7040SOL     OW22018   5.198   2.789   6.706
 7040SOL    HW122019   5.253   2.872   6.694
 7040SOL    HW222020   5.119   2.810   6.764
 7041SOL     OW22021   2.483   1.660   3.580
 7041SOL    HW122022   2.506   1.688   3.673
 7041SOL    HW222023   2.473   1.741   3.523
 7042SOL     OW22024   1.237   0.682   6.535
 7042SOL    HW122025   1.308   0.675   6.466
 7042SOL    HW222026   1.212   0.591   6.567
 7043SOL     OW22027   1.502   2.389   2.244
 7043SOL    HW122028   1.492   2.439   2.158
 7043SOL    HW222029   1.469   2.295   2.231
 7044SOL     OW22030   6.674   6.306   1.673
 7044SOL    HW122031   6.624   6.276   1.754
 7044SOL    HW222032   6.732   6.383   1.697
 7045SOL     OW22033   6.781   4.806   0.052
 7045SOL    HW122034   6.725   4.869   7.027
 7045SOL    HW222035   6.763   4.820   0.150
 7046SOL     OW22036   3.347   1.747   3.720
 7046SOL    HW122037   3.335   1.766   3.818
 7046SOL    HW222038   3.442   1.761   3.695
 7047SOL     OW22039   1.714   0.179   2.949
 7047SOL    HW122040   1.770   0.100   2.976
 7047SOL    HW222041   1.642   0.148   2.886
 7048SOL     OW22042   6.839   5.880   0.278
 7048SOL    HW122043   6.930   5.893   0.319
 7048SOL    HW222044   6.816   5.782   0.280
 7049SOL     OW22045   2.320   1.337   6.452
 7049SOL    HW122046   2.289   1.242   6.464
 7049SOL    HW222047   2.240   1.397   6.446
 7050SOL     OW22048   4.143   3.854   5.178
 7050SOL    HW122049   4.164   3.927   5.243
 7050SOL    HW222050   4.093   3.781   5.225
 7051SOL     OW22051   6.379   6.637   3.023
 7051SOL    HW122052   6.350   6.715   3.077
 7051SOL    HW222053   6.448   6.666   2.957
 7052SOL     OW22054   0.102   0.046   5.408
 7052SOL    HW122055   0.110   0.144   5.390
 7052SOL    HW222056   0.120   7.023   5.323
 7053SOL     OW22057   6.945   3.681   5.741
 7053SOL    HW122058   6.919   3.745   5.668
 7053SOL    HW222059   6.896   3.705   5.825
 7054SOL     OW22060   6.334   1.863   2.007
 7054SOL    HW122061   6.284   1.945   1.980
 7054SOL    HW222062   6.332   1.797   1.932
 7055SOL     OW22063   4.214   1.237   4.103
 7055SOL    HW122064   4.185   1.298   4.176
 7055SOL    HW222065   4.299   1.191   4.129
 7056SOL     OW22066   4.557   5.304   4.088
 7056SOL    HW122067   4.653   5.333   4.093
 7056SOL    HW222068   4.498   5.381   4.108
 7057SOL     OW22069   6.152   5.832   2.616
 7057SOL    HW122070   6.083   5.764   2.642
 7057SOL    HW222071   6.127   5.873   2.528
 7058SOL     OW22072   6.964   4.416   4.361
 7058SOL    HW122073   6.915   4.493   4.320
 7058SOL    HW222074   0.033   4.421   4.336
 7059SOL     OW22075   1.786   1.398   2.835
 7059SOL    HW122076   1.863   1.447   2.877
 7059SOL    HW222077   1.737   1.458   2.773
 7060SOL     OW22078   2.698   6.484   1.140
 7060SOL    HW122079   2.719   6.493   1.238
 7060SOL    HW222080   2.777   6.447   1.092
 7061SOL     OW22081   0.119   0.708   2.950
 7061SOL    HW122082   0.071   0.773   3.009
 7061SOL    HW222083   0.062   0.687   2.871
 7062SOL     OW22084   6.387   1.375   5.316
 7062SOL    HW122085   6.365   1.280   5.339
 7062SOL    HW222086   6.369   1.434   5.395
 7063SOL     OW22087   1.988   6.563   2.613
 7063SOL    HW122088   2.026   6.472   2.598
 7063SOL    HW222089   2.024   6.626   2.545
 7064SOL     OW22090   3.977   2.673   0.150
 7064SOL    HW122091   3.969   2.721   0.062
 7064SOL    HW222092   3.898   2.613   0.162
 7065SOL     OW22093   3.459   3.686   2.260
 7065SOL    HW122094   3.378   3.735   2.227
 7065SOL    HW222095   3.461   3.688   2.360
 7066SOL     OW22096   2.422   5.134   1.180
 7066SOL    HW122097   2.431   5.088   1.092
 7066SOL    HW222098   2.398   5.230   1.166
 7067SOL     OW22099   0.425   4.322   4.579
 7067SOL    HW122100   0.423   4.359   4.486
 7067SOL    HW222101   0.437   4.398   4.644
 7068SOL     OW22102   0.216   0.343   2.759
 7068SOL    HW122103   0.120   0.364   2.780
 7068SOL    HW222104   0.271   0.426   2.771
 7069SOL     OW22105   1.424   5.029   5.104
 7069SOL    HW122106   1.369   5.092   5.159
 7069SOL    HW222107   1.476   4.969   5.165
 7070SOL     OW22108   5.544   5.426   3.365
 7070SOL    HW122109   5.631   5.425   3.314
 7070SOL    HW222110   5.504   5.517   3.360
 7071SOL     OW22111   1.907   6.746   5.493
 7071SOL    HW122112   1.867   6.837   5.483
 7071SOL    HW222113   1.886   6.691   5.412
 7072SOL     OW22114   0.531   0.269   6.813
 7072SOL    HW122115   0.548   0.348   6.754
 7072SOL    HW222116   0.551   0.293   6.908
 7073SOL     OW22117   1.863   2.061   6.225
 7073SOL    HW122118   1.907   2.145   6.193
 7073SOL    HW222119   1.866   2.057   6.325
 7074SOL     OW22120   3.512   1.259   6.944
 7074SOL    HW122121   3.448   1.336   6.949
 7074SOL    HW222122   3.601   1.287   6.979
 7075SOL     OW22123   0.730   5.895   2.546
 7075SOL    HW122124   0.686   5.983   2.562
 7075SOL    HW222125   0.829   5.905   2.554
 7076SOL     OW22126   3.672   1.637   5.732
 7076SOL    HW122127   3.771   1.628   5.724
 7076SOL    HW222128   3.628   1.557   5.691
 7077SOL     OW22129   1.616   5.247   6.552
 7077SOL    HW122130   1.706   5.271   6.588
 7077SOL    HW222131   1.605   5.288   6.461
 7078SOL     OW22132   6.788   0.991   2.090
 7078SOL    HW122133   6.774   0.934   2.171
 7078SOL    HW222134   6.873   0.966   2.045
 7079SOL     OW22135   5.372   5.790   5.006
 7079SOL    HW122136   5.452   5.849   5.019
 7079SOL    HW222137   5.397   5.712   4.949
 7080SOL     OW22138   5.901   0.443   4.090
 7080SOL    HW122139   5.835   0.368   4.089
 7080SOL    HW222140   5.880   0.505   4.166
 7081SOL     OW22141   4.946   0.842   4.773
 7081SOL    HW122142   5.040   0.860   4.741
 7081SOL    HW222143   4.949   0.789   4.858
 7082SOL     OW22144   5.793   1.260   0.370
 7082SOL    HW122145   5.877   1.247   0.423
 7082SOL    HW222146   5.782   1.357   0.350
 7083SOL     OW22147   3.694   0.292   5.771
 7083SOL    HW122148   3.661   0.384   5.795
 7083SOL    HW222149   3.777   0.272   5.824
 7084SOL     OW22150   5.962   6.130   0.525
 7084SOL    HW122151   6.048   6.160   0.567
 7084SOL    HW222152   5.927   6.050   0.573
 7085SOL     OW22153   3.787   1.458   1.266
 7085SOL    HW122154   3.860   1.432   1.329
 7085SOL    HW222155   3.826   1.496   1.182
 7086SOL     OW22156   1.259   0.980   6.361
 7086SOL    HW122157   1.278   1.031   6.278
 7086SOL    HW222158   1.192   1.029   6.417
 7087SOL     OW22159   2.368   2.747   4.933
 7087SOL    HW122160   2.397   2.832   4.977
 7087SOL    HW222161   2.395   2.749   4.836
 7088SOL     OW22162   0.099   2.270   5.201
 7088SOL    HW122163   0.085   2.340   5.272
 7088SOL    HW222164   0.018   2.212   5.195
 7089SOL     OW22165   3.224   1.693   1.632
 7089SOL    HW122166   3.143   1.738   1.670
 7089SOL    HW222167   3.283   1.762   1.589
 7090SOL     OW22168   2.257   2.263   5.430
 7090SOL    HW122169   2.206   2.214   5.359
 7090SOL    HW222170   2.291   2.197   5.498
 7091SOL     OW22171   6.550   6.541   0.739
 7091SOL    HW122172   6.605   6.519   0.658
 7091SOL    HW222173   6.573   6.478   0.813
 7092SOL     OW22174   2.885   1.770   0.588
 7092SOL    HW122175   2.932   1.840   0.642
 7092SOL    HW222176   2.855   1.696   0.648
 7093SOL     OW22177   4.247   3.311   6.193
 7093SOL    HW122178   4.202   3.301   6.282
 7093SOL    HW222179   4.292   3.400   6.188
 7094SOL     OW22180   6.541   0.756   5.713
 7094SOL    HW122181   6.511   0.674   5.663
 7094SOL    HW222182   6.551   0.832   5.650
 7095SOL     OW22183   0.604   3.853   0.744
 7095SOL    HW122184   0.514   3.883   0.775
 7095SOL    HW222185   0.654   3.814   0.821
 7096SOL     OW22186   4.485   6.919   2.627
 7096SOL    HW122187   4.485   6.965   2.715
 7096SOL    HW222188   4.525   6.979   2.558
 7097SOL     OW22189   1.636   1.624   1.720
 7097SOL    HW122190   1.672   1.531   1.713
 7097SOL    HW222191   1.698   1.679   1.776
 7098SOL     OW22192   1.238   0.565   6.137
 7098SOL    HW122193   1.186   0.614   6.068
 7098SOL    HW222194   1.294   0.629   6.189
 7099SOL     OW22195   6.879   1.046   5.300
 7099SOL    HW122196   6.941   1.005   5.232
 7099SOL    HW222197   6.910   1.022   5.392
 7100SOL     OW22198   5.545   1.578   1.300
 7100SOL    HW122199   5.467   1.517   1.287
 7100SOL    HW222200   5.543   1.616   1.393
 7101SOL     OW22201   1.449   0.482   4.129
 7101SOL    HW122202   1.354   0.511   4.120
 7101SOL    HW222203   1.459   0.426   4.212
 7102SOL     OW22204   4.774   3.163   0.450
 7102SOL    HW122205   4.758   3.065   0.435
 7102SOL    HW222206   4.865   3.187   0.417
 7103SOL     OW22207   2.669   6.804   6.051
 7103SOL    HW122208   2.619   6.723   6.081
 7103SOL    HW222209   2.608   6.882   6.045
 7104SOL     OW22210   0.806   2.777   1.921
 7104SOL    HW122211   0.734   2.716   1.956
 7104SOL    HW222212   0.871   2.796   1.995
 7105SOL     OW22213   2.143   3.674   5.595
 7105SOL    HW122214   2.228   3.634   5.631
 7105SOL    HW222215   2.095   3.606   5.540
 7106SOL     OW22216   3.188   2.821   5.303
 7106SOL    HW122217   3.235   2.733   5.297
 7106SOL    HW222218   3.097   2.809   5.342
 7107SOL     OW22219   1.453   1.706   0.626
 7107SOL    HW122220   1.385   1.641   0.660
 7107SOL    HW222221   1.522   1.657   0.573
 7108SOL     OW22222   4.457   6.682   1.763
 7108SOL    HW122223   4.405   6.764   1.787
 7108SOL    HW222224   4.398   6.602   1.774
 7109SOL     OW22225   4.191   5.924   6.526
 7109SOL    HW122226   4.168   5.924   6.429
 7109SOL    HW222227   4.151   5.843   6.570
 7110SOL     OW22228   3.382   4.993   4.483
 7110SOL    HW122229   3.473   4.971   4.448
 7110SOL    HW222230   3.372   5.093   4.487
 7111SOL     OW22231   1.206   2.509   3.619
 7111SOL    HW122232   1.302   2.512   3.648
 7111SOL    HW222233   1.150   2.561   3.683
 7112SOL     OW22234   1.654   6.460   3.150
 7112SOL    HW122235   1.583   6.515   3.105
 7112SOL    HW222236   1.721   6.521   3.191
 7113SOL     OW22237   3.541   3.536   5.379
 7113SOL    HW122238   3.451   3.492   5.380
 7113SOL    HW222239   3.605   3.484   5.435
 7114SOL     OW22240   3.641   6.655   0.475
 7114SOL    HW122241   3.648   6.646   0.575
 7114SOL    HW222242   3.560   6.605   0.443
 7115SOL     OW22243   3.951   2.249   1.524
 7115SOL    HW122244   3.945   2.311   1.446
 7115SOL    HW222245   3.971   2.302   1.607
 7116SOL     OW22246   6.036   4.194   2.849
 7116SOL    HW122247   6.061   4.233   2.938
 7116SOL    HW222248   6.085   4.108   2.836
 7117SOL     OW22249   6.138   6.705   2.733
 7117SOL    HW122250   6.152   6.721   2.635
 7117SOL    HW222251   6.226   6.684   2.776
 7118SOL     OW22252   6.682   3.155   2.952
 7118SOL    HW122253   6.738   3.078   2.982
 7118SOL    HW222254   6.741   3.230   2.922
 7119SOL     OW22255   1.103   2.055   2.962
 7119SOL    HW122256   1.074   2.129   3.023
 7119SOL    HW222257   1.179   2.086   2.905
 7120SOL     OW22258   4.540   5.807   2.737
 7120SOL    HW122259   4.616   5.859   2.698
 7120SOL    HW222260   4.455   5.857   2.720
 7121SOL     OW22261   2.257   6.412   0.951
 7121SOL    HW122262   2.320   6.380   1.021
 7121SOL    HW222263   2.239   6.510   0.964
 7122SOL     OW22264   6.596   6.410   0.433
 7122SOL    HW122265   6.600   6.496   0.382
 7122SOL    HW222266   6.665   6.347   0.397
 7123SOL     OW22267   2.689   5.528   0.861
 7123SOL    HW122268   2.780   5.563   0.885
 7123SOL    HW222269   2.619   5.593   0.892
 7124SOL     OW22270   0.305   6.075   6.463
 7124SOL    HW122271   0.350   5.986   6.464
 7124SOL    HW222272   0.280   6.099   6.370
 7125SOL     OW22273   0.406   6.329   3.679
 7125SOL    HW122274   0.308   6.312   3.667
 7125SOL    HW222275   0.458   6.252   3.643
 7126SOL     OW22276   1.596   3.776   1.452
 7126SOL    HW122277   1.594   3.870   1.419
 7126SOL    HW222278   1.547   3.717   1.388
 7127SOL     OW22279   2.477   0.474   4.679
 7127SOL    HW122280   2.387   0.439   4.650
 7127SOL    HW222281   2.492   0.564   4.638
 7128SOL     OW22282   3.007   3.846   1.956
 7128SOL    HW122283   3.042   3.940   1.953
 7128SOL    HW222284   2.916   3.843   1.916
 7129SOL     OW22285   2.416   1.706   1.255
 7129SOL    HW122286   2.383   1.797   1.280
 7129SOL    HW222287   2.339   1.648   1.229
 7130SOL     OW22288   2.357   0.305   2.914
 7130SOL    HW122289   2.298   0.265   2.844
 7130SOL    HW222290   2.315   0.293   3.004
 7131SOL     OW22291   3.178   1.589   3.595
 7131SOL    HW122292   3.127   1.546   3.669
 7131SOL    HW222293   3.245   1.653   3.634
 7132SOL     OW22294   3.130   4.097   1.926
 7132SOL    HW122295   3.225   4.114   1.901
 7132SOL    HW222296   3.069   4.142   1.862
 7133SOL     OW22297   6.104   4.132   2.217
 7133SOL    HW122298   6.043   4.060   2.182
 7133SOL    HW222299   6.077   4.156   2.310
 7134SOL     OW22300   5.443   4.830   2.362
 7134SOL    HW122301   5.452   4.733   2.384
 7134SOL    HW222302   5.437   4.841   2.263
 7135SOL     OW22303   0.207   2.062   6.209
 7135SOL    HW122304   0.187   2.158   6.192
 7135SOL    HW222305   0.304   2.044   6.191
 7136SOL     OW22306   1.806   2.041   6.795
 7136SOL    HW122307   1.855   2.102   6.733
 7136SOL    HW222308   1.713   2.026   6.761
 7137SOL     OW22309   4.871   2.074   5.023
 7137SOL    HW122310   4.952   2.047   4.972
 7137SOL    HW222311   4.897   2.122   5.107
 7138SOL     OW22312   2.235   2.599   6.955
 7138SOL    HW122313   2.254   2.565   0.020
 7138SOL    HW222314   2.249   2.698   6.953
 7139SOL     OW22315   2.709   1.275   0.488
 7139SOL    HW122316   2.644   1.261   0.413
 7139SOL    HW222317   2.709   1.371   0.515
 7140SOL     OW22318   6.804   3.995   4.469
 7140SOL    HW122319   6.706   4.017   4.473
 7140SOL    HW222320   6.822   3.912   4.523
 7141SOL     OW22321   0.901   6.690   1.865
 7141SOL    HW122322   0.937   6.597   1.856
 7141SOL    HW222323   0.871   6.723   1.775
 7142SOL     OW22324   3.460   6.525   3.564
 7142SOL    HW122325   3.413   6.480   3.640
 7142SOL    HW222326   3.557   6.501   3.566
 7143SOL     OW22327   2.369   2.249   3.944
 7143SOL    HW122328   2.369   2.343   3.912
 7143SOL    HW222329   2.463   2.219   3.963
 7144SOL     OW22330   1.375   3.164   3.617
 7144SOL    HW122331   1.292   3.108   3.620
 7144SOL    HW222332   1.352   3.259   3.635
 7145SOL     OW22333   4.037   5.790   5.897
 7145SOL    HW122334   3.964   5.727   5.923
 7145SOL    HW222335   4.074   5.763   5.808
 7146SOL     OW22336   3.207   5.171   2.150
 7146SOL    HW122337   3.242   5.256   2.113
 7146SOL    HW222338   3.213   5.099   2.081
 7147SOL     OW22339   0.008   0.989   3.742
 7147SOL    HW122340   7.020   1.082   3.774
 7147SOL    HW222341   0.042   0.933   3.818
 7148SOL     OW22342   0.068   1.571   0.610
 7148SOL    HW122343   0.092   1.479   0.579
 7148SOL    HW222344   0.112   1.589   0.698
 7149SOL     OW22345   0.557   0.642   4.741
 7149SOL    HW122346   0.570   0.701   4.821
 7149SOL    HW222347   0.630   0.658   4.675
 7150SOL     OW22348   6.100   3.672   6.283
 7150SOL    HW122349   6.105   3.678   6.383
 7150SOL    HW222350   6.006   3.659   6.254
 7151SOL     OW22351   2.445   6.855   0.628
 7151SOL    HW122352   2.514   6.885   0.693
 7151SOL    HW222353   2.360   6.905   0.644
 7152SOL     OW22354   1.225   2.457   4.499
 7152SOL    HW122355   1.193   2.422   4.587
 7152SOL    HW222356   1.190   2.550   4.485
 7153SOL     OW22357   4.125   1.899   2.897
 7153SOL    HW122358   4.040   1.887   2.948
 7153SOL    HW222359   4.104   1.922   2.802
 7154SOL     OW22360   3.824   6.672   4.895
 7154SOL    HW122361   3.798   6.663   4.991
 7154SOL    HW222362   3.805   6.765   4.864
 7155SOL     OW22363   2.768   1.713   3.189
 7155SOL    HW122364   2.702   1.730   3.262
 7155SOL    HW222365   2.836   1.647   3.221
 7156SOL     OW22366   1.826   5.696   5.810
 7156SOL    HW122367   1.863   5.698   5.903
 7156SOL    HW222368   1.767   5.616   5.798
 7157SOL     OW22369   5.527   3.982   0.477
 7157SOL    HW122370   5.586   4.054   0.441
 7157SOL    HW222371   5.491   4.009   0.566
 7158SOL     OW22372   4.196   7.001   3.461
 7158SOL    HW122373   4.190   0.002   3.365
 7158SOL    HW222374   4.291   6.979   3.483
 7159SOL     OW22375   0.856   5.508   7.026
 7159SOL    HW122376   0.835   5.416   0.032
 7159SOL    HW222377   0.774   5.548   6.984
 7160SOL     OW22378   6.506   0.661   1.610
 7160SOL    HW122379   6.458   0.640   1.695
 7160SOL    HW222380   6.451   0.630   1.532
 7161SOL     OW22381   4.085   3.653   4.610
 7161SOL    HW122382   4.163   3.643   4.671
 7161SOL    HW222383   4.007   3.689   4.662
 7162SOL     OW22384   3.690   4.989   4.398
 7162SOL    HW122385   3.764   4.943   4.446
 7162SOL    HW222386   3.715   5.084   4.380
 7163SOL     OW22387   1.385   6.395   3.477
 7163SOL    HW122388   1.348   6.355   3.393
 7163SOL    HW222389   1.458   6.459   3.454
 7164SOL     OW22390   2.477   2.091   4.578
 7164SOL    HW122391   2.529   2.175   4.561
 7164SOL    HW222392   2.506   2.051   4.664
 7165SOL     OW22393   4.880   5.838   2.056
 7165SOL    HW122394   4.817   5.910   2.084
 7165SOL    HW222395   4.895   5.843   1.957
 7166SOL     OW22396   3.954   5.995   2.019
 7166SOL    HW122397   4.031   6.009   1.957
 7166SOL    HW222398   3.873   6.039   1.981
 7167SOL     OW22399   5.310   3.537   6.610
 7167SOL    HW122400   5.308   3.462   6.544
 7167SOL    HW222401   5.347   3.504   6.697
 7168SOL     OW22402   0.997   1.598   3.888
 7168SOL    HW122403   0.967   1.663   3.818
 7168SOL    HW222404   0.921   1.580   3.950
 7169SOL     OW22405   1.968   2.773   6.684
 7169SOL    HW122406   1.955   2.678   6.713
 7169SOL    HW222407   1.952   2.834   6.761
 7170SOL     OW22408   5.690   4.397   3.798
 7170SOL    HW122409   5.641   4.321   3.841
 7170SOL    HW222410   5.650   4.417   3.709
 7171SOL     OW22411   3.997   3.695   5.317
 7171SOL    HW122412   3.977   3.620   5.254
 7171SOL    HW222413   3.984   3.663   5.411
 7172SOL     OW22414   0.338   6.387   1.422
 7172SOL    HW122415   0.417   6.448   1.431
 7172SOL    HW222416   0.295   6.376   1.512
 7173SOL     OW22417   6.362   6.314   4.543
 7173SOL    HW122418   6.378   6.265   4.629
 7173SOL    HW222419   6.305   6.394   4.560
 7174SOL     OW22420   1.055   6.157   5.962
 7174SOL    HW122421   1.074   6.184   6.057
 7174SOL    HW222422   0.982   6.088   5.961
 7175SOL     OW22423   6.140   3.804   6.046
 7175SOL    HW122424   6.152   3.758   5.958
 7175SOL    HW222425   6.133   3.735   6.118
 7176SOL     OW22426   0.521   3.076   1.783
 7176SOL    HW122427   0.611   3.089   1.824
 7176SOL    HW222428   0.514   2.983   1.748
 7177SOL     OW22429   0.748   5.309   1.981
 7177SOL    HW122430   0.697   5.283   1.900
 7177SOL    HW222431   0.764   5.228   2.038
 7178SOL     OW22432   6.343   0.982   6.812
 7178SOL    HW122433   6.312   0.910   6.875
 7178SOL    HW222434   6.426   0.952   6.765
 7179SOL     OW22435   1.596   4.069   5.927
 7179SOL    HW122436   1.628   3.989   5.977
 7179SOL    HW222437   1.636   4.151   5.967
 7180SOL     OW22438   6.948   6.746   2.794
 7180SOL    HW122439   6.897   6.735   2.879
 7180SOL    HW222440   6.947   6.661   2.742
 7181SOL     OW22441   5.789   5.868   2.709
 7181SOL    HW122442   5.714   5.875   2.644
 7181SOL    HW222443   5.862   5.932   2.684
 7182SOL     OW22444   4.183   3.451   5.811
 7182SOL    HW122445   4.105   3.397   5.845
 7182SOL    HW222446   4.259   3.389   5.791
 7183SOL     OW22447   1.813   3.596   3.353
 7183SOL    HW122448   1.894   3.551   3.389
 7183SOL    HW222449   1.749   3.615   3.428
 7184SOL     OW22450   2.459   5.879   3.613
 7184SOL    HW122451   2.448   5.895   3.711
 7184SOL    HW222452   2.552   5.900   3.586
 7185SOL     OW22453   4.294   2.700   6.797
 7185SOL    HW122454   4.367   2.639   6.827
 7185SOL    HW222455   4.238   2.727   6.876
 7186SOL     OW22456   0.829   6.584   4.922
 7186SOL    HW122457   0.928   6.571   4.925
 7186SOL    HW222458   0.786   6.533   4.996
 7187SOL     OW22459   1.441   5.869   1.070
 7187SOL    HW122460   1.402   5.933   1.137
 7187SOL    HW222461   1.512   5.814   1.114
 7188SOL     OW22462   5.207   6.972   2.162
 7188SOL    HW122463   5.164   6.947   2.248
 7188SOL    HW222464   5.281   0.009   2.179
 7189SOL     OW22465   6.310   0.790   5.232
 7189SOL    HW122466   6.302   0.703   5.281
 7189SOL    HW222467   6.361   0.775   5.147
 7190SOL     OW22468   4.179   5.010   2.916
 7190SOL    HW122469   4.138   4.918   2.914
 7190SOL    HW222470   4.162   5.056   2.829
 7191SOL     OW22471   0.762   3.066   1.911
 7191SOL    HW122472   0.792   2.972   1.926
 7191SOL    HW222473   0.809   3.128   1.974
 7192SOL     OW22474   3.462   4.411   6.604
 7192SOL    HW122475   3.501   4.338   6.659
 7192SOL    HW222476   3.410   4.371   6.528
 7193SOL     OW22477   5.618   1.623   4.628
 7193SOL    HW122478   5.656   1.705   4.671
 7193SOL    HW222479   5.642   1.622   4.531
 7194SOL     OW22480   3.020   1.490   1.623
 7194SOL    HW122481   2.930   1.531   1.639
 7194SOL    HW222482   3.090   1.560   1.637
 7195SOL     OW22483   0.302   6.349   2.160
 7195SOL    HW122484   0.259   6.367   2.248
 7195SOL    HW222485   0.288   6.253   2.135
 7196SOL     OW22486   3.735   3.223   1.434
 7196SOL    HW122487   3.772   3.212   1.341
 7196SOL    HW222488   3.653   3.167   1.444
 7197SOL     OW22489   1.291   1.077   4.208
 7197SOL    HW122490   1.330   1.029   4.130
 7197SOL    HW222491   1.357   1.080   4.283
 7198SOL     OW22492   6.975   6.790   6.206
 7198SOL    HW122493   7.015   6.853   6.272
 7198SOL    HW222494   0.001   6.793   6.121
 7199SOL     OW22495   5.998   5.958   2.425
 7199SOL    HW122496   5.963   5.865   2.430
 7199SOL    HW222497   6.017   5.981   2.329
 7200SOL     OW22498   1.808   1.861   2.379
 7200SOL    HW122499   1.830   1.957   2.359
 7200SOL    HW222500   1.810   1.847   2.478
 7201SOL     OW22501   2.184   4.716   3.993
 7201SOL    HW122502   2.222   4.753   3.908
 7201SOL    HW222503   2.252   4.724   4.066
 7202SOL     OW22504   2.971   0.140   6.021
 7202SOL    HW122505   2.996   0.155   5.926
 7202SOL    HW222506   2.964   0.042   6.039
 7203SOL     OW22507   5.876   0.363   0.092
 7203SOL    HW122508   5.945   0.337   0.024
 7203SOL    HW222509   5.922   0.395   0.175
 7204SOL     OW22510   6.418   2.393   3.393
 7204SOL    HW122511   6.354   2.413   3.319
 7204SOL    HW222512   6.446   2.298   3.389
 7205SOL     OW22513   1.505   4.395   1.620
 7205SOL    HW122514   1.596   4.401   1.662
 7205SOL    HW222515   1.514   4.373   1.523
 7206SOL     OW22516   6.066   1.503   1.813
 7206SOL    HW122517   6.001   1.573   1.785
 7206SOL    HW222518   6.028   1.449   1.888
 7207SOL     OW22519   4.283   6.909   1.757
 7207SOL    HW122520   4.267   6.915   1.855
 7207SOL    HW222521   4.198   6.927   1.707
 7208SOL     OW22522   2.788   0.548   5.319
 7208SOL    HW122523   2.713   0.561   5.384
 7208SOL    HW222524   2.872   0.584   5.359
 7209SOL     OW22525   2.904   3.769   4.608
 7209SOL    HW122526   2.833   3.832   4.578
 7209SOL    HW222527   2.968   3.752   4.533
 7210SOL     OW22528   4.432   6.724   4.173
 7210SOL    HW122529   4.491   6.755   4.247
 7210SOL    HW222530   4.486   6.676   4.104
 7211SOL     OW22531   0.769   4.849   2.173
 7211SOL    HW122532   0.869   4.851   2.181
 7211SOL    HW222533   0.728   4.875   2.260
 7212SOL     OW22534   4.866   6.413   2.975
 7212SOL    HW122535   4.952   6.380   2.936
 7212SOL    HW222536   4.862   6.512   2.968
 7213SOL     OW22537   5.199   6.411   5.040
 7213SOL    HW122538   5.105   6.382   5.023
 7213SOL    HW222539   5.259   6.331   5.044
 7214SOL     OW22540   1.120   4.798   5.505
 7214SOL    HW122541   1.094   4.741   5.583
 7214SOL    HW222542   1.215   4.827   5.515
 7215SOL     OW22543   1.105   2.973   1.895
 7215SOL    HW122544   1.054   3.015   1.820
 7215SOL    HW222545   1.195   3.016   1.902
 7216SOL     OW22546   3.318   2.095   2.088
 7216SOL    HW122547   3.406   2.077   2.045
 7216SOL    HW222548   3.253   2.128   2.019
 7217SOL     OW22549   0.676   3.488   2.103
 7217SOL    HW122550   0.639   3.544   2.178
 7217SOL    HW222551   0.604   3.428   2.068
 7218SOL     OW22552   6.437   2.577   4.794
 7218SOL    HW122553   6.374   2.577   4.716
 7218SOL    HW222554   6.452   2.671   4.824
 7219SOL     OW22555   3.321   1.070   1.213
 7219SOL    HW122556   3.359   1.012   1.285
 7219SOL    HW222557   3.284   1.153   1.253
 7220SOL     OW22558   6.732   1.850   3.040
 7220SOL    HW122559   6.806   1.783   3.041
 7220SOL    HW222560   6.645   1.802   3.027
 7221SOL     OW22561   6.417   3.917   5.643
 7221SOL    HW122562   6.438   3.980   5.718
 7221SOL    HW222563   6.323   3.934   5.612
 7222SOL     OW22564   6.864   0.103   3.419
 7222SOL    HW122565   6.811   0.121   3.502
 7222SOL    HW222566   6.851   0.179   3.355
 7223SOL     OW22567   4.836   0.581   4.637
 7223SOL    HW122568   4.871   0.583   4.731
 7223SOL    HW222569   4.854   0.668   4.593
 7224SOL     OW22570   5.841   1.488   3.257
 7224SOL    HW122571   5.779   1.412   3.278
 7224SOL    HW222572   5.798   1.547   3.189
 7225SOL     OW22573   2.540   0.301   1.591
 7225SOL    HW122574   2.638   0.314   1.606
 7225SOL    HW222575   2.505   0.379   1.538
 7226SOL     OW22576   6.220   6.349   4.880
 7226SOL    HW122577   6.280   6.367   4.958
 7226SOL    HW222578   6.224   6.427   4.817
 7227SOL     OW22579   6.963   2.352   6.148
 7227SOL    HW122580   6.921   2.443   6.148
 7227SOL    HW222581   6.891   2.282   6.152
 7228SOL     OW22582   2.251   0.908   3.367
 7228SOL    HW122583   2.347   0.904   3.337
 7228SOL    HW222584   2.193   0.863   3.300
 7229SOL     OW22585   0.279   6.992   3.467
 7229SOL    HW122586   0.227   0.028   3.523
 7229SOL    HW222587   0.375   7.022   3.463
 7230SOL     OW22588   6.423   5.795   1.104
 7230SOL    HW122589   6.347   5.860   1.102
 7230SOL    HW222590   6.417   5.739   1.187
 7231SOL     OW22591   5.818   0.969   0.460
 7231SOL    HW122592   5.821   0.942   0.363
 7231SOL    HW222593   5.726   1.000   0.483
 7232SOL     OW22594   3.947   3.991   0.766
 7232SOL    HW122595   3.888   3.983   0.846
 7232SOL    HW222596   4.040   3.965   0.791
 7233SOL     OW22597   1.002   1.993   5.448
 7233SOL    HW122598   1.077   2.021   5.508
 7233SOL    HW222599   1.016   2.030   5.357
 7234SOL     OW22600   4.896   2.068   3.549
 7234SOL    HW122601   4.842   2.026   3.623
 7234SOL    HW222602   4.875   2.165   3.543
 7235SOL     OW22603   5.874   2.689   4.519
 7235SOL    HW122604   5.886   2.727   4.427
 7235SOL    HW222605   5.779   2.699   4.547
 7236SOL     OW22606   1.414   1.856   3.032
 7236SOL    HW122607   1.401   1.955   3.044
 7236SOL    HW222608   1.439   1.815   3.119
 7237SOL     OW22609   5.451   5.115   4.614
 7237SOL    HW122610   5.528   5.053   4.630
 7237SOL    HW222611   5.420   5.154   4.700
 7238SOL     OW22612   1.430   0.254   1.816
 7238SOL    HW122613   1.432   0.157   1.842
 7238SOL    HW222614   1.495   0.270   1.741
 7239SOL     OW22615   4.262   1.658   1.710
 7239SOL    HW122616   4.169   1.676   1.742
 7239SOL    HW222617   4.319   1.738   1.728
 7240SOL     OW22618   3.103   3.601   2.276
 7240SOL    HW122619   3.079   3.637   2.366
 7240SOL    HW222620   3.020   3.569   2.230
 7241SOL     OW22621   4.688   6.865   4.577
 7241SOL    HW122622   4.690   6.914   4.664
 7241SOL    HW222623   4.630   6.784   4.586
 7242SOL     OW22624   6.474   6.099   0.866
 7242SOL    HW122625   6.434   6.140   0.948
 7242SOL    HW222626   6.574   6.096   0.875
 7243SOL     OW22627   0.363   5.362   0.815
 7243SOL    HW122628   0.282   5.390   0.866
 7243SOL    HW222629   0.334   5.319   0.729
 7244SOL     OW22630   5.446   2.347   0.971
 7244SOL    HW122631   5.424   2.394   0.886
 7244SOL    HW222632   5.534   2.300   0.962
 7245SOL     OW22633   6.050   1.881   4.270
 7245SOL    HW122634   6.119   1.919   4.209
 7245SOL    HW222635   5.960   1.884   4.226
 7246SOL     OW22636   0.941   5.998   5.699
 7246SOL    HW122637   0.989   6.083   5.676
 7246SOL    HW222638   0.910   5.954   5.614
 7247SOL     OW22639   3.729   5.711   4.083
 7247SOL    HW122640   3.675   5.782   4.129
 7247SOL    HW222641   3.796   5.674   4.147
 7248SOL     OW22642   2.892   0.951   4.593
 7248SOL    HW122643   2.947   0.929   4.513
 7248SOL    HW222644   2.945   0.930   4.676
 7249SOL     OW22645   4.493   3.611   5.667
 7249SOL    HW122646   4.487   3.645   5.573
 7249SOL    HW222647   4.435   3.529   5.676
 7250SOL     OW22648   2.578   3.447   6.820
 7250SOL    HW122649   2.607   3.485   6.908
 7250SOL    HW222650   2.545   3.521   6.761
 7251SOL     OW22651   6.017   1.119   5.171
 7251SOL    HW122652   5.950   1.193   5.169
 7251SOL    HW222653   6.050   1.102   5.078
 7252SOL     OW22654   4.558   3.426   5.354
 7252SOL    HW122655   4.600   3.480   5.280
 7252SOL    HW222656   4.461   3.447   5.359
 7253SOL     OW22657   5.260   4.783   0.232
 7253SOL    HW122658   5.321   4.769   0.310
 7253SOL    HW222659   5.176   4.827   0.263
 7254SOL     OW22660   5.288   6.705   4.863
 7254SOL    HW122661   5.232   6.649   4.801
 7254SOL    HW222662   5.266   6.681   4.958
 7255SOL     OW22663   3.795   3.100   3.092
 7255SOL    HW122664   3.839   3.190   3.090
 7255SOL    HW222665   3.834   3.041   3.021
 7256SOL     OW22666   3.144   5.773   3.911
 7256SOL    HW122667   3.153   5.794   4.009
 7256SOL    HW222668   3.047   5.773   3.887
 7257SOL     OW22669   6.336   4.780   2.225
 7257SOL    HW122670   6.429   4.794   2.257
 7257SOL    HW222671   6.333   4.701   2.163
 7258SOL     OW22672   2.456   0.342   5.395
 7258SOL    HW122673   2.469   0.355   5.493
 7258SOL    HW222674   2.453   0.244   5.374
 7259SOL     OW22675   3.436   4.168   6.177
 7259SOL    HW122676   3.509   4.177   6.245
 7259SOL    HW222677   3.413   4.071   6.165
 7260SOL     OW22678   4.655   2.299   3.126
 7260SOL    HW122679   4.631   2.202   3.122
 7260SOL    HW222680   4.575   2.354   3.105
 7261SOL     OW22681   2.343   4.942   0.991
 7261SOL    HW122682   2.397   4.871   0.946
 7261SOL    HW222683   2.292   4.901   1.067
 7262SOL     OW22684   6.511   0.754   4.612
 7262SOL    HW122685   6.426   0.800   4.640
 7262SOL    HW222686   6.512   0.744   4.513
 7263SOL     OW22687   5.496   5.170   1.485
 7263SOL    HW122688   5.541   5.187   1.397
 7263SOL    HW222689   5.413   5.225   1.491
 7264SOL     OW22690   0.485   6.358   4.399
 7264SOL    HW122691   0.573   6.342   4.443
 7264SOL    HW222692   0.460   6.454   4.409
 7265SOL     OW22693   4.591   3.554   6.728
 7265SOL    HW122694   4.596   3.630   6.662
 7265SOL    HW222695   4.654   3.482   6.699
 7266SOL     OW22696   4.427   1.501   1.954
 7266SOL    HW122697   4.347   1.444   1.973
 7266SOL    HW222698   4.412   1.552   1.869
 7267SOL     OW22699   5.259   2.288   4.099
 7267SOL    HW122700   5.271   2.192   4.121
 7267SOL    HW222701   5.336   2.319   4.043
 7268SOL     OW22702   4.099   6.947   0.189
 7268SOL    HW122703   4.014   6.989   0.159
 7268SOL    HW222704   4.157   7.015   0.235
 7269SOL     OW22705   1.413   0.409   2.055
 7269SOL    HW122706   1.436   0.355   1.974
 7269SOL    HW222707   1.349   0.481   2.031
 7270SOL     OW22708   3.277   2.177   1.770
 7270SOL    HW122709   3.331   2.258   1.747
 7270SOL    HW222710   3.338   2.099   1.781
 7271SOL     OW22711   5.776   5.540   3.645
 7271SOL    HW122712   5.738   5.611   3.585
 7271SOL    HW222713   5.874   5.555   3.655
 7272SOL     OW22714   5.971   1.736   1.562
 7272SOL    HW122715   5.926   1.748   1.473
 7272SOL    HW222716   5.905   1.699   1.628
 7273SOL     OW22717   5.661   5.480   5.020
 7273SOL    HW122718   5.577   5.514   4.978
 7273SOL    HW222719   5.684   5.390   4.984
 7274SOL     OW22720   5.489   4.864   3.648
 7274SOL    HW122721   5.399   4.819   3.645
 7274SOL    HW222722   5.524   4.862   3.741
 7275SOL     OW22723   6.465   6.689   2.192
 7275SOL    HW122724   6.367   6.673   2.179
 7275SOL    HW222725   6.480   6.783   2.221
 7276SOL     OW22726   3.941   1.879   3.153
 7276SOL    HW122727   3.841   1.881   3.158
 7276SOL    HW222728   3.974   1.790   3.183
 7277SOL     OW22729   6.220   2.093   4.041
 7277SOL    HW122730   6.303   2.045   4.068
 7277SOL    HW222731   6.184   2.053   3.956
 7278SOL     OW22732   3.968   1.690   3.551
 7278SOL    HW122733   3.894   1.756   3.567
 7278SOL    HW222734   3.929   1.605   3.517
 7279SOL     OW22735   3.450   3.673   1.783
 7279SOL    HW122736   3.461   3.772   1.782
 7279SOL    HW222737   3.422   3.641   1.692
 7280SOL     OW22738   6.509   1.542   5.629
 7280SOL    HW122739   6.547   1.630   5.603
 7280SOL    HW222740   6.581   1.485   5.668
 7281SOL     OW22741   3.486   6.415   3.024
 7281SOL    HW122742   3.563   6.426   2.962
 7281SOL    HW222743   3.474   6.319   3.046
 7282SOL     OW22744   0.073   3.655   1.186
 7282SOL    HW122745   0.133   3.577   1.207
 7282SOL    HW222746   7.024   3.624   1.131
 7283SOL     OW22747   3.301   5.921   2.696
 7283SOL    HW122748   3.316   6.020   2.687
 7283SOL    HW222749   3.209   5.898   2.663
 7284SOL     OW22750   0.509   0.155   3.323
 7284SOL    HW122751   0.569   0.235   3.316
 7284SOL    HW222752   0.539   0.097   3.398
 7285SOL     OW22753   5.069   2.748   2.086
 7285SOL    HW122754   4.981   2.750   2.133
 7285SOL    HW222755   5.053   2.739   1.987
 7286SOL     OW22756   6.775   0.941   4.237
 7286SOL    HW122757   6.705   1.010   4.221
 7286SOL    HW222758   6.859   0.986   4.269
 7287SOL     OW22759   3.191   1.901   4.325
 7287SOL    HW122760   3.196   1.927   4.421
 7287SOL    HW222761   3.221   1.977   4.268
 7288SOL     OW22762   3.138   1.787   1.962
 7288SOL    HW122763   3.045   1.792   1.926
 7288SOL    HW222764   3.140   1.722   2.039
 7289SOL     OW22765   6.945   1.996   1.399
 7289SOL    HW122766   6.857   2.024   1.359
 7289SOL    HW222767   6.989   2.075   1.441
 7290SOL     OW22768   3.533   1.832   4.537
 7290SOL    HW122769   3.627   1.802   4.521
 7290SOL    HW222770   3.470   1.773   4.487
 7291SOL     OW22771   0.936   1.008   0.476
 7291SOL    HW122772   0.910   0.934   0.539
 7291SOL    HW222773   1.010   0.976   0.417
 7292SOL     OW22774   4.188   1.203   2.258
 7292SOL    HW122775   4.216   1.108   2.270
 7292SOL    HW222776   4.127   1.229   2.332
 7293SOL     OW22777   6.309   0.958   4.252
 7293SOL    HW122778   6.279   0.902   4.329
 7293SOL    HW222779   6.385   1.016   4.279
 7294SOL     OW22780   3.670   0.166   2.745
 7294SOL    HW122781   3.579   0.136   2.716
 7294SOL    HW222782   3.695   0.248   2.695
 7295SOL     OW22783   5.173   3.659   1.789
 7295SOL    HW122784   5.215   3.651   1.699
 7295SOL    HW222785   5.118   3.577   1.807
 7296SOL     OW22786   3.365   6.594   2.516
 7296SOL    HW122787   3.281   6.620   2.564
 7296SOL    HW222788   3.438   6.577   2.582
 7297SOL     OW22789   3.861   0.149   0.547
 7297SOL    HW122790   3.787   0.210   0.575
 7297SOL    HW222791   3.882   0.162   0.450
 7298SOL     OW22792   4.231   4.797   1.497
 7298SOL    HW122793   4.303   4.729   1.506
 7298SOL    HW222794   4.249   4.873   1.561
 7299SOL     OW22795   0.316   3.130   0.020
 7299SOL    HW122796   0.278   3.058   6.989
 7299SOL    HW222797   0.261   3.139   0.102
 7300SOL     OW22798   0.988   3.888   1.353
 7300SOL    HW122799   0.918   3.956   1.334
 7300SOL    HW222800   0.972   3.849   1.444
 7301SOL     OW22801   4.510   1.688   0.597
 7301SOL    HW122802   4.445   1.754   0.633
 7301SOL    HW222803   4.587   1.736   0.555
 7302SOL     OW22804   6.027   2.132   6.130
 7302SOL    HW122805   6.119   2.169   6.142
 7302SOL    HW222806   6.034   2.037   6.100
 7303SOL     OW22807   3.497   2.135   1.540
 7303SOL    HW122808   3.460   2.217   1.497
 7303SOL    HW222809   3.587   2.156   1.578
 7304SOL     OW22810   2.122   7.001   0.511
 7304SOL    HW122811   2.164   7.011   0.421
 7304SOL    HW222812   2.179   0.018   0.580
 7305SOL     OW22813   6.768   6.761   6.456
 7305SOL    HW122814   6.790   6.840   6.513
 7305SOL    HW222815   6.852   6.719   6.422
 7306SOL     OW22816   1.870   3.853   0.444
 7306SOL    HW122817   1.878   3.866   0.543
 7306SOL    HW222818   1.783   3.809   0.423
 7307SOL     OW22819   3.654   6.289   1.813
 7307SOL    HW122820   3.659   6.375   1.863
 7307SOL    HW222821   3.583   6.294   1.743
 7308SOL     OW22822   3.860   1.655   2.907
 7308SOL    HW122823   3.881   1.574   2.962
 7308SOL    HW222824   3.900   1.645   2.816
 7309SOL     OW22825   2.355   4.757   4.208
 7309SOL    HW122826   2.324   4.735   4.301
 7309SOL    HW222827   2.437   4.813   4.212
 7310SOL     OW22828   3.442   3.016   0.030
 7310SOL    HW122829   3.509   3.034   6.986
 7310SOL    HW222830   3.445   2.919   0.055
 7311SOL     OW22831   1.244   6.556   6.022
 7311SOL    HW122832   1.182   6.634   6.023
 7311SOL    HW222833   1.333   6.583   6.057
 7312SOL     OW22834   6.308   2.149   4.472
 7312SOL    HW122835   6.264   2.066   4.507
 7312SOL    HW222836   6.247   2.227   4.485
 7313SOL     OW22837   3.850   0.977   2.599
 7313SOL    HW122838   3.794   0.938   2.526
 7313SOL    HW222839   3.935   1.013   2.559
 7314SOL     OW22840   2.687   5.738   5.046
 7314SOL    HW122841   2.636   5.679   4.983
 7314SOL    HW222842   2.648   5.830   5.044
 7315SOL     OW22843   2.421   5.471   2.681
 7315SOL    HW122844   2.398   5.562   2.647
 7315SOL    HW222845   2.504   5.476   2.736
 7316SOL     OW22846   3.975   1.246   1.743
 7316SOL    HW122847   3.902   1.293   1.694
 7316SOL    HW222848   3.935   1.193   1.818
 7317SOL     OW22849   6.356   1.749   1.528
 7317SOL    HW122850   6.262   1.781   1.539
 7317SOL    HW222851   6.403   1.806   1.460
 7318SOL     OW22852   5.416   6.212   1.417
 7318SOL    HW122853   5.436   6.138   1.353
 7318SOL    HW222854   5.500   6.240   1.463
 7319SOL     OW22855   4.257   5.890   6.046
 7319SOL    HW122856   4.198   5.857   5.972
 7319SOL    HW222857   4.352   5.866   6.025
 7320SOL     OW22858   1.107   2.776   0.504
 7320SOL    HW122859   1.065   2.729   0.582
 7320SOL    HW222860   1.036   2.803   0.440
 7321SOL     OW22861   2.408   2.535   5.716
 7321SOL    HW122862   2.494   2.483   5.710
 7321SOL    HW222863   2.400   2.596   5.637
 7322SOL     OW22864   2.171   1.821   4.481
 7322SOL    HW122865   2.102   1.802   4.412
 7322SOL    HW222866   2.228   1.899   4.452
 7323SOL     OW22867   2.337   1.967   1.275
 7323SOL    HW122868   2.248   1.961   1.230
 7323SOL    HW222869   2.332   2.029   1.353
 7324SOL     OW22870   4.891   3.920   4.503
 7324SOL    HW122871   4.890   3.893   4.407
 7324SOL    HW222872   4.882   3.840   4.562
 7325SOL     OW22873   3.632   1.024   6.387
 7325SOL    HW122874   3.587   1.088   6.449
 7325SOL    HW222875   3.681   1.076   6.317
 7326SOL     OW22876   3.552   6.269   0.518
 7326SOL    HW122877   3.616   6.196   0.496
 7326SOL    HW222878   3.537   6.327   0.438
 7327SOL     OW22879   1.455   4.143   3.183
 7327SOL    HW122880   1.378   4.206   3.176
 7327SOL    HW222881   1.509   4.146   3.099
 7328SOL     OW22882   4.880   4.924   6.261
 7328SOL    HW122883   4.781   4.925   6.255
 7328SOL    HW222884   4.917   5.005   6.214
 7329SOL     OW22885   2.708   3.798   0.043
 7329SOL    HW122886   2.704   3.699   0.031
 7329SOL    HW222887   2.798   3.825   0.076
 7330SOL     OW22888   2.391   3.644   1.038
 7330SOL    HW122889   2.349   3.682   0.956
 7330SOL    HW222890   2.324   3.587   1.086
 7331SOL     OW22891   5.008   1.339   2.497
 7331SOL    HW122892   5.043   1.320   2.405
 7331SOL    HW222893   5.021   1.258   2.555
 7332SOL     OW22894   2.659   6.864   5.197
 7332SOL    HW122895   2.730   6.844   5.129
 7332SOL    HW222896   2.701   6.908   5.276
 7333SOL     OW22897   6.264   1.118   1.723
 7333SOL    HW122898   6.303   1.047   1.781
 7333SOL    HW222899   6.272   1.207   1.770
 7334SOL     OW22900   0.990   4.698   4.670
 7334SOL    HW122901   0.916   4.718   4.605
 7334SOL    HW222902   1.056   4.773   4.668
 7335SOL     OW22903   0.326   3.027   2.458
 7335SOL    HW122904   0.343   2.943   2.509
 7335SOL    HW222905   0.384   3.101   2.495
 7336SOL     OW22906   2.259   0.474   0.744
 7336SOL    HW122907   2.159   0.470   0.748
 7336SOL    HW222908   2.290   0.568   0.755
 7337SOL     OW22909   3.589   1.643   2.822
 7337SOL    HW122910   3.685   1.636   2.849
 7337SOL    HW222911   3.549   1.726   2.862
 7338SOL     OW22912   5.650   3.509   0.377
 7338SOL    HW122913   5.643   3.553   0.467
 7338SOL    HW222914   5.604   3.566   0.309
 7339SOL     OW22915   6.729   0.142   3.665
 7339SOL    HW122916   6.678   0.178   3.742
 7339SOL    HW222917   6.669   0.135   3.585
 7340SOL     OW22918   2.934   6.693   0.497
 7340SOL    HW122919   2.855   6.694   0.559
 7340SOL    HW222920   2.985   6.609   0.509
 7341SOL     OW22921   6.031   5.674   3.516
 7341SOL    HW122922   6.084   5.642   3.437
 7341SOL    HW222923   6.047   5.772   3.529
 7342SOL     OW22924   0.623   5.417   0.673
 7342SOL    HW122925   0.528   5.386   0.671
 7342SOL    HW222926   0.633   5.490   0.741
 7343SOL     OW22927   6.940   2.845   2.510
 7343SOL    HW122928   6.876   2.789   2.458
 7343SOL    HW222929   6.970   2.922   2.453
 7344SOL     OW22930   2.006   1.187   6.344
 7344SOL    HW122931   2.084   1.139   6.383
 7344SOL    HW222932   1.923   1.165   6.397
 7345SOL     OW22933   1.506   6.805   6.564
 7345SOL    HW122934   1.569   6.842   6.495
 7345SOL    HW222935   1.538   6.832   6.655
 7346SOL     OW22936   3.398   5.205   4.004
 7346SOL    HW122937   3.341   5.287   3.998
 7346SOL    HW222938   3.421   5.174   3.912
 7347SOL     OW22939   5.920   3.196   3.373
 7347SOL    HW122940   5.918   3.112   3.428
 7347SOL    HW222941   5.865   3.266   3.419
 7348SOL     OW22942   5.739   0.571   6.399
 7348SOL    HW122943   5.696   0.575   6.309
 7348SOL    HW222944   5.827   0.523   6.393
 7349SOL     OW22945   3.867   1.978   1.356
 7349SOL    HW122946   3.913   1.950   1.440
 7349SOL    HW222947   3.896   2.071   1.332
 7350SOL     OW22948   1.944   1.253   3.316
 7350SOL    HW122949   1.874   1.265   3.246
 7350SOL    HW222950   2.032   1.232   3.272
 7351SOL     OW22951   4.963   4.592   0.230
 7351SOL    HW122952   4.986   4.591   0.133
 7351SOL    HW222953   4.985   4.681   0.269
 7352SOL     OW22954   6.711   1.245   3.136
 7352SOL    HW122955   6.613   1.241   3.120
 7352SOL    HW222956   6.730   1.220   3.231
 7353SOL     OW22957   5.375   1.931   5.211
 7353SOL    HW122958   5.414   1.911   5.301
 7353SOL    HW222959   5.351   1.845   5.165
 7354SOL     OW22960   5.405   4.223   5.352
 7354SOL    HW122961   5.442   4.314   5.340
 7354SOL    HW222962   5.397   4.177   5.264
 7355SOL     OW22963   6.571   5.914   0.367
 7355SOL    HW122964   6.670   5.925   0.362
 7355SOL    HW222965   6.549   5.818   0.385
 7356SOL     OW22966   6.656   1.724   5.807
 7356SOL    HW122967   6.582   1.778   5.767
 7356SOL    HW222968   6.727   1.786   5.840
 7357SOL     OW22969   0.340   1.677   0.595
 7357SOL    HW122970   0.426   1.675   0.544
 7357SOL    HW222971   0.268   1.715   0.537
 7358SOL     OW22972   3.613   0.930   3.567
 7358SOL    HW122973   3.637   0.966   3.657
 7358SOL    HW222974   3.517   0.950   3.549
 7359SOL     OW22975   3.058   3.768   4.375
 7359SOL    HW122976   3.090   3.856   4.342
 7359SOL    HW222977   3.047   3.705   4.298
 7360SOL     OW22978   1.155   4.339   6.497
 7360SOL    HW122979   1.163   4.297   6.407
 7360SOL    HW222980   1.245   4.339   6.542
 7361SOL     OW22981   4.638   6.962   1.418
 7361SOL    HW122982   4.584   6.979   1.501
 7361SOL    HW222983   4.692   6.879   1.430
 7362SOL     OW22984   1.199   5.682   6.622
 7362SOL    HW122985   1.130   5.610   6.627
 7362SOL    HW222986   1.283   5.650   6.668
 7363SOL     OW22987   4.394   1.987   6.111
 7363SOL    HW122988   4.428   2.025   6.197
 7363SOL    HW222989   4.386   2.060   6.043
 7364SOL     OW22990   4.898   6.946   0.749
 7364SOL    HW122991   4.939   6.874   0.804
 7364SOL    HW222992   4.845   7.007   0.808
 7365SOL     OW22993   4.233   6.729   1.405
 7365SOL    HW122994   4.185   6.684   1.481
 7365SOL    HW222995   4.246   6.826   1.426
 7366SOL     OW22996   1.903   0.493   0.314
 7366SOL    HW122997   1.900   0.590   0.338
 7366SOL    HW222998   1.834   0.444   0.366
 7367SOL     OW22999   4.318   2.981   6.725
 7367SOL    HW123000   4.380   3.001   6.649
 7367SOL    HW223001   4.295   2.884   6.726
 7368SOL     OW23002   3.069   3.105   4.654
 7368SOL    HW123003   3.077   3.189   4.601
 7368SOL    HW223004   3.041   3.030   4.594
 7369SOL     OW23005   6.386   0.716   6.604
 7369SOL    HW123006   6.439   0.792   6.642
 7369SOL    HW223007   6.371   0.732   6.506
 7370SOL     OW23008   0.625   6.064   0.773
 7370SOL    HW123009   0.594   6.067   0.677
 7370SOL    HW223010   0.560   6.116   0.829
 7371SOL     OW23011   1.771   5.089   4.192
 7371SOL    HW123012   1.813   5.164   4.141
 7371SOL    HW223013   1.838   5.050   4.256
 7372SOL     OW23014   2.928   0.328   5.080
 7372SOL    HW123015   2.919   0.241   5.030
 7372SOL    HW223016   3.018   0.368   5.061
 7373SOL     OW23017   3.493   0.848   1.319
 7373SOL    HW123018   3.537   0.910   1.254
 7373SOL    HW223019   3.416   0.802   1.274
 7374SOL     OW23020   2.278   3.383   6.979
 7374SOL    HW123021   2.358   3.415   0.002
 7374SOL    HW223022   2.203   3.448   6.989
 7375SOL     OW23023   2.679   5.951   3.515
 7375SOL    HW123024   2.745   5.876   3.510
 7375SOL    HW223025   2.664   5.988   3.423
 7376SOL     OW23026   3.219   3.931   6.790
 7376SOL    HW123027   3.237   4.025   6.762
 7376SOL    HW223028   3.120   3.916   6.794
 7377SOL     OW23029   6.405   5.853   1.766
 7377SOL    HW123030   6.478   5.922   1.769
 7377SOL    HW223031   6.443   5.763   1.788
 7378SOL     OW23032   0.888   2.062   5.714
 7378SOL    HW123033   0.843   1.984   5.756
 7378SOL    HW223034   0.912   2.040   5.619
 7379SOL     OW23035   4.243   0.117   0.359
 7379SOL    HW123036   4.231   0.021   0.383
 7379SOL    HW223037   4.237   0.173   0.441
 7380SOL     OW23038   6.795   2.748   6.480
 7380SOL    HW123039   6.786   2.829   6.422
 7380SOL    HW223040   6.708   2.730   6.526
 7381SOL     OW23041   5.359   2.279   0.278
 7381SOL    HW123042   5.293   2.209   0.250
 7381SOL    HW223043   5.432   2.237   0.332
 7382SOL     OW23044   1.093   5.240   4.125
 7382SOL    HW123045   1.126   5.328   4.090
 7382SOL    HW223046   1.024   5.203   4.064
 7383SOL     OW23047   1.601   4.020   2.614
 7383SOL    HW123048   1.683   4.015   2.672
 7383SOL    HW223049   1.573   4.116   2.604
 7384SOL     OW23050   6.138   2.054   1.381
 7384SOL    HW123051   6.076   1.982   1.412
 7384SOL    HW223052   6.178   2.100   1.460
 7385SOL     OW23053   5.466   0.437   1.804
 7385SOL    HW123054   5.458   0.447   1.705
 7385SOL    HW223055   5.553   0.477   1.834
 7386SOL     OW23056   6.589   1.496   5.910
 7386SOL    HW123057   6.607   1.585   5.867
 7386SOL    HW223058   6.490   1.479   5.911
 7387SOL     OW23059   4.772   6.325   3.239
 7387SOL    HW123060   4.692   6.271   3.213
 7387SOL    HW223061   4.829   6.342   3.159
 7388SOL     OW23062   4.951   4.077   4.736
 7388SOL    HW123063   4.978   4.009   4.804
 7388SOL    HW223064   4.912   4.031   4.657
 7389SOL     OW23065   1.270   3.155   5.145
 7389SOL    HW123066   1.190   3.113   5.102
 7389SOL    HW223067   1.257   3.159   5.244
 7390SOL     OW23068   4.403   6.891   0.039
 7390SOL    HW123069   4.422   6.823   0.110
 7390SOL    HW223070   4.472   6.964   0.044
 7391SOL     OW23071   0.484   4.991   0.017
 7391SOL    HW123072   0.518   4.914   0.072
 7391SOL    HW223073   0.559   5.029   6.991
 7392SOL     OW23074   1.914   4.745   2.012
 7392SOL    HW123075   1.930   4.765   2.108
 7392SOL    HW223076   1.816   4.737   1.994
 7393SOL     OW23077   1.179   3.905   0.184
 7393SOL    HW123078   1.133   3.856   0.258
 7393SOL    HW223079   1.131   3.887   0.098
 7394SOL     OW23080   2.495   3.210   6.519
 7394SOL    HW123081   2.452   3.132   6.473
 7394SOL    HW223082   2.519   3.183   6.613
 7395SOL     OW23083   2.721   0.949   6.951
 7395SOL    HW123084   2.774   0.942   6.867
 7395SOL    HW223085   2.664   0.868   6.963
 7396SOL     OW23086   7.000   7.008   2.702
 7396SOL    HW123087   6.977   6.916   2.733
 7396SOL    HW223088   6.962   7.024   2.612
 7397SOL     OW23089   6.061   4.215   4.380
 7397SOL    HW123090   6.089   4.306   4.409
 7397SOL    HW223091   6.115   4.146   4.429
 7398SOL     OW23092   4.503   6.237   2.646
 7398SOL    HW123093   4.506   6.162   2.580
 7398SOL    HW223094   4.567   6.219   2.720
 7399SOL     OW23095   5.195   5.598   3.881
 7399SOL    HW123096   5.224   5.608   3.975
 7399SOL    HW223097   5.220   5.507   3.847
 7400SOL     OW23098   2.532   4.140   6.803
 7400SOL    HW123099   2.549   4.042   6.814
 7400SOL    HW223100   2.452   4.166   6.857
 7401SOL     OW23101   5.960   3.075   4.363
 7401SOL    HW123102   5.930   2.986   4.327
 7401SOL    HW223103   6.055   3.068   4.393
 7402SOL     OW23104   1.852   6.331   4.733
 7402SOL    HW123105   1.920   6.285   4.790
 7402SOL    HW223106   1.793   6.263   4.690
 7403SOL     OW23107   2.365   3.203   1.717
 7403SOL    HW123108   2.351   3.285   1.772
 7403SOL    HW223109   2.277   3.159   1.698
 7404SOL     OW23110   1.117   2.667   2.937
 7404SOL    HW123111   1.085   2.696   3.027
 7404SOL    HW223112   1.206   2.707   2.919
 7405SOL     OW23113   3.567   4.675   6.042
 7405SOL    HW123114   3.623   4.594   6.025
 7405SOL    HW223115   3.597   4.719   6.127
 7406SOL     OW23116   0.400   6.099   2.736
 7406SOL    HW123117   0.324   6.150   2.777
 7406SOL    HW223118   0.397   6.004   2.765
 7407SOL     OW23119   3.353   1.477   5.562
 7407SOL    HW123120   3.424   1.459   5.630
 7407SOL    HW223121   3.270   1.510   5.607
 7408SOL     OW23122   1.310   3.421   5.396
 7408SOL    HW123123   1.380   3.350   5.392
 7408SOL    HW223124   1.296   3.460   5.305
 7409SOL     OW23125   2.519   6.797   4.498
 7409SOL    HW123126   2.463   6.806   4.581
 7409SOL    HW223127   2.468   6.746   4.429
 7410SOL     OW23128   5.023   5.773   5.818
 7410SOL    HW123129   4.966   5.850   5.792
 7410SOL    HW223130   5.052   5.784   5.914
 7411SOL     OW23131   5.645   3.912   5.716
 7411SOL    HW123132   5.744   3.929   5.715
 7411SOL    HW223133   5.603   3.958   5.638
 7412SOL     OW23134   1.693   1.216   0.187
 7412SOL    HW123135   1.772   1.265   0.225
 7412SOL    HW223136   1.623   1.208   0.257
 7413SOL     OW23137   6.959   3.456   3.707
 7413SOL    HW123138   6.899   3.499   3.639
 7413SOL    HW223139   0.026   3.457   3.673
 7414SOL     OW23140   0.480   5.258   1.576
 7414SOL    HW123141   0.542   5.286   1.503
 7414SOL    HW223142   0.464   5.160   1.570
 7415SOL     OW23143   3.159   1.403   2.767
 7415SOL    HW123144   3.221   1.381   2.843
 7415SOL    HW223145   3.201   1.373   2.681
 7416SOL     OW23146   6.641   0.095   3.165
 7416SOL    HW123147   6.692   0.067   3.083
 7416SOL    HW223148   6.680   0.180   3.201
 7417SOL     OW23149   6.999   4.958   1.132
 7417SOL    HW123150   0.037   5.017   1.085
 7417SOL    HW223151   0.010   4.867   1.145
 7418SOL     OW23152   1.436   3.855   0.114
 7418SOL    HW123153   1.341   3.881   0.132
 7418SOL    HW223154   1.443   3.755   0.111
 7419SOL     OW23155   6.261   2.407   5.639
 7419SOL    HW123156   6.268   2.344   5.562
 7419SOL    HW223157   6.179   2.463   5.629
 7420SOL     OW23158   6.798   5.633   1.935
 7420SOL    HW123159   6.816   5.704   1.867
 7420SOL    HW223160   6.834   5.662   2.023
 7421SOL     OW23161   4.101   1.958   1.527
 7421SOL    HW123162   4.198   1.966   1.505
 7421SOL    HW223163   4.083   1.999   1.617
 7422SOL     OW23164   0.698   1.873   1.112
 7422SOL    HW123165   0.749   1.952   1.078
 7422SOL    HW223166   0.748   1.790   1.089
 7423SOL     OW23167   2.753   4.049   0.674
 7423SOL    HW123168   2.660   4.066   0.707
 7423SOL    HW223169   2.795   3.976   0.728
 7424SOL     OW23170   5.083   0.639   3.485
 7424SOL    HW123171   5.152   0.574   3.517
 7424SOL    HW223172   5.063   0.705   3.557
 7425SOL     OW23173   3.310   0.280   4.249
 7425SOL    HW123174   3.329   0.213   4.177
 7425SOL    HW223175   3.341   0.371   4.218
 7426SOL     OW23176   0.284   0.682   6.755
 7426SOL    HW123177   0.347   0.753   6.784
 7426SOL    HW223178   0.191   0.705   6.786
 7427SOL     OW23179   5.510   4.882   4.807
 7427SOL    HW123180   5.413   4.855   4.808
 7427SOL    HW223181   5.539   4.897   4.712
 7428SOL     OW23182   4.809   1.044   5.105
 7428SOL    HW123183   4.831   0.982   5.180
 7428SOL    HW223184   4.889   1.055   5.046
 7429SOL     OW23185   6.365   6.149   3.844
 7429SOL    HW123186   6.321   6.227   3.888
 7429SOL    HW223187   6.461   6.171   3.824
 7430SOL     OW23188   0.360   4.077   4.204
 7430SOL    HW123189   0.417   4.152   4.170
 7430SOL    HW223190   0.264   4.100   4.191
 7431SOL     OW23191   0.204   4.007   2.430
 7431SOL    HW123192   0.277   4.065   2.465
 7431SOL    HW223193   0.189   3.929   2.491
 7432SOL     OW23194   2.026   6.230   5.622
 7432SOL    HW123195   1.967   6.247   5.543
 7432SOL    HW223196   2.049   6.133   5.627
 7433SOL     OW23197   0.231   6.929   0.911
 7433SOL    HW123198   0.215   7.013   0.859
 7433SOL    HW223199   0.249   6.952   1.007
 7434SOL     OW23200   4.604   6.576   0.525
 7434SOL    HW123201   4.584   6.663   0.570
 7434SOL    HW223202   4.521   6.541   0.481
 7435SOL     OW23203   1.366   4.960   0.730
 7435SOL    HW123204   1.321   4.870   0.724
 7435SOL    HW223205   1.453   4.957   0.681
 7436SOL     OW23206   4.830   3.800   6.725
 7436SOL    HW123207   4.774   3.809   6.642
 7436SOL    HW223208   4.860   3.891   6.755
 7437SOL     OW23209   0.233   6.307   5.281
 7437SOL    HW123210   0.216   6.372   5.355
 7437SOL    HW223211   0.166   6.321   5.209
 7438SOL     OW23212   5.826   3.638   0.793
 7438SOL    HW123213   5.911   3.609   0.749
 7438SOL    HW223214   5.835   3.733   0.823
 7439SOL     OW23215   1.332   6.793   2.923
 7439SOL    HW123216   1.295   6.877   2.962
 7439SOL    HW223217   1.354   6.808   2.827
 7440SOL     OW23218   0.736   1.258   4.090
 7440SOL    HW123219   0.652   1.288   4.046
 7440SOL    HW223220   0.814   1.286   4.034
 7441SOL     OW23221   6.544   0.082   3.986
 7441SOL    HW123222   6.510   0.175   4.000
 7441SOL    HW223223   6.579   0.046   4.073
 7442SOL     OW23224   1.588   0.793   6.689
 7442SOL    HW123225   1.641   0.787   6.773
 7442SOL    HW223226   1.592   0.886   6.653
 7443SOL     OW23227   6.910   2.218   1.891
 7443SOL    HW123228   6.980   2.278   1.928
 7443SOL    HW223229   6.878   2.254   1.804
 7444SOL     OW23230   0.805   2.781   5.032
 7444SOL    HW123231   0.847   2.704   4.984
 7444SOL    HW223232   0.832   2.779   5.128
 7445SOL     OW23233   6.097   2.888   1.828
 7445SOL    HW123234   6.179   2.864   1.776
 7445SOL    HW223235   6.113   2.869   1.925
 7446SOL     OW23236   5.414   4.104   3.043
 7446SOL    HW123237   5.478   4.028   3.051
 7446SOL    HW223238   5.435   4.159   2.962
 7447SOL     OW23239   0.735   3.980   6.640
 7447SOL    HW123240   0.775   3.963   6.550
 7447SOL    HW223241   0.689   4.069   6.639
 7448SOL     OW23242   0.488   0.953   6.032
 7448SOL    HW123243   0.586   0.969   6.024
 7448SOL    HW223244   0.445   0.968   5.943
 7449SOL     OW23245   4.039   0.541   1.829
 7449SOL    HW123246   4.109   0.543   1.900
 7449SOL    HW223247   4.057   0.465   1.766
 7450SOL     OW23248   3.681   1.895   1.645
 7450SOL    HW123249   3.716   1.988   1.654
 7450SOL    HW223250   3.670   1.872   1.549
 7451SOL     OW23251   1.049   0.435   2.637
 7451SOL    HW123252   1.103   0.519   2.635
 7451SOL    HW223253   0.953   0.457   2.652
 7452SOL     OW23254   1.583   5.998   3.369
 7452SOL    HW123255   1.536   6.071   3.320
 7452SOL    HW223256   1.626   6.035   3.452
 7453SOL     OW23257   6.633   4.495   4.898
 7453SOL    HW123258   6.571   4.509   4.975
 7453SOL    HW223259   6.727   4.512   4.927
 7454SOL     OW23260   1.517   3.025   0.225
 7454SOL    HW123261   1.454   3.076   0.168
 7454SOL    HW223262   1.467   2.954   0.276
 7455SOL     OW23263   4.519   0.094   0.571
 7455SOL    HW123264   4.487   0.146   0.650
 7455SOL    HW223265   4.617   0.105   0.561
 7456SOL     OW23266   1.143   3.909   6.241
 7456SOL    HW123267   1.108   3.851   6.168
 7456SOL    HW223268   1.236   3.881   6.264
 7457SOL     OW23269   0.238   6.149   6.188
 7457SOL    HW123270   0.197   6.065   6.152
 7457SOL    HW223271   0.308   6.183   6.125
 7458SOL     OW23272   2.982   0.474   1.247
 7458SOL    HW123273   3.025   0.548   1.297
 7458SOL    HW223274   2.886   0.467   1.274
 7459SOL     OW23275   3.479   5.954   4.193
 7459SOL    HW123276   3.401   6.001   4.154
 7459SOL    HW223277   3.531   6.017   4.251
 7460SOL     OW23278   0.613   5.520   6.854
 7460SOL    HW123279   0.577   5.481   6.939
 7460SOL    HW223280   0.606   5.453   6.781
 7461SOL     OW23281   4.233   0.795   4.002
 7461SOL    HW123282   4.293   0.760   3.930
 7461SOL    HW223283   4.148   0.742   4.003
 7462SOL     OW23284   2.444   1.609   3.992
 7462SOL    HW123285   2.455   1.706   3.971
 7462SOL    HW223286   2.494   1.588   4.076
 7463SOL     OW23287   3.886   3.867   2.352
 7463SOL    HW123288   3.979   3.836   2.371
 7463SOL    HW223289   3.858   3.932   2.422
 7464SOL     OW23290   4.616   5.753   0.033
 7464SOL    HW123291   4.635   5.793   0.123
 7464SOL    HW223292   4.553   5.812   7.011
 7465SOL     OW23293   3.939   1.175   2.877
 7465SOL    HW123294   4.010   1.106   2.886
 7465SOL    HW223295   3.971   1.247   2.815
 7466SOL     OW23296   6.303   0.104   0.482
 7466SOL    HW123297   6.262   0.193   0.505
 7466SOL    HW223298   6.402   0.112   0.484
 7467SOL     OW23299   4.623   2.433   0.800
 7467SOL    HW123300   4.591   2.355   0.853
 7467SOL    HW223301   4.707   2.468   0.841
 7468SOL     OW23302   5.511   4.278   4.232
 7468SOL    HW123303   5.578   4.204   4.226
 7468SOL    HW223304   5.540   4.343   4.302
 7469SOL     OW23305   5.052   1.403   2.001
 7469SOL    HW123306   4.983   1.355   1.948
 7469SOL    HW223307   5.061   1.496   1.968
 7470SOL     OW23308   0.380   3.109   3.466
 7470SOL    HW123309   0.371   3.181   3.534
 7470SOL    HW223310   0.302   3.047   3.473
 7471SOL     OW23311   6.387   4.770   5.249
 7471SOL    HW123312   6.440   4.820   5.181
 7471SOL    HW223313   6.447   4.741   5.323
 7472SOL     OW23314   4.085   5.221   3.069
 7472SOL    HW123315   4.113   5.141   3.016
 7472SOL    HW223316   4.008   5.265   3.023
 7473SOL     OW23317   1.295   2.442   6.192
 7473SOL    HW123318   1.372   2.505   6.183
 7473SOL    HW223319   1.222   2.485   6.246
 7474SOL     OW23320   2.892   1.311   2.464
 7474SOL    HW123321   2.951   1.380   2.422
 7474SOL    HW223322   2.887   1.327   2.563
 7475SOL     OW23323   4.913   0.709   6.153
 7475SOL    HW123324   4.907   0.689   6.055
 7475SOL    HW223325   4.857   0.644   6.203
 7476SOL     OW23326   2.376   6.866   4.735
 7476SOL    HW123327   2.331   6.815   4.808
 7476SOL    HW223328   2.427   6.943   4.774
 7477SOL     OW23329   4.825   4.359   4.249
 7477SOL    HW123330   4.770   4.293   4.299
 7477SOL    HW223331   4.895   4.398   4.309
 7478SOL     OW23332   0.783   4.593   1.796
 7478SOL    HW123333   0.694   4.636   1.812
 7478SOL    HW223334   0.850   4.663   1.772
 7479SOL     OW23335   3.425   0.476   4.956
 7479SOL    HW123336   3.512   0.494   5.002
 7479SOL    HW223337   3.369   0.416   5.013
 7480SOL     OW23338   6.062   5.423   0.243
 7480SOL    HW123339   6.117   5.507   0.238
 7480SOL    HW223340   6.120   5.347   0.270
 7481SOL     OW23341   6.116   6.200   0.295
 7481SOL    HW123342   6.060   6.165   0.370
 7481SOL    HW223343   6.209   6.166   0.303
 7482SOL     OW23344   5.040   6.943   4.817
 7482SOL    HW123345   5.139   6.929   4.819
 7482SOL    HW223346   5.007   6.936   4.723
 7483SOL     OW23347   3.345   0.417   6.683
 7483SOL    HW123348   3.353   0.318   6.695
 7483SOL    HW223349   3.437   0.457   6.682
 7484SOL     OW23350   3.209   6.853   1.252
 7484SOL    HW123351   3.246   6.761   1.239
 7484SOL    HW223352   3.227   6.883   1.345
 7485SOL     OW23353   0.852   6.255   5.377
 7485SOL    HW123354   0.911   6.307   5.315
 7485SOL    HW223355   0.792   6.317   5.426
 7486SOL     OW23356   1.451   2.124   5.125
 7486SOL    HW123357   1.395   2.133   5.207
 7486SOL    HW223358   1.505   2.208   5.112
 7487SOL     OW23359   3.470   4.995   3.165
 7487SOL    HW123360   3.420   5.077   3.140
 7487SOL    HW223361   3.437   4.918   3.111
 7488SOL     OW23362   4.426   0.985   5.276
 7488SOL    HW123363   4.374   1.030   5.349
 7488SOL    HW223364   4.364   0.961   5.201
 7489SOL     OW23365   0.069   3.557   3.367
 7489SOL    HW123366   0.038   3.639   3.415
 7489SOL    HW223367   0.136   3.583   3.297
 7490SOL     OW23368   5.811   6.941   2.879
 7490SOL    HW123369   5.828   0.002   2.836
 7490SOL    HW223370   5.898   6.896   2.897
 7491SOL     OW23371   0.392   0.184   0.723
 7491SOL    HW123372   0.450   0.126   0.781
 7491SOL    HW223373   0.298   0.148   0.725
 7492SOL     OW23374   2.660   1.925   3.077
 7492SOL    HW123375   2.707   1.840   3.098
 7492SOL    HW223376   2.660   1.985   3.158
 7493SOL     OW23377   5.295   4.934   6.401
 7493SOL    HW123378   5.309   5.017   6.455
 7493SOL    HW223379   5.308   4.854   6.459
 7494SOL     OW23380   5.108   1.852   1.562
 7494SOL    HW123381   5.117   1.883   1.657
 7494SOL    HW223382   5.023   1.800   1.552
 7495SOL     OW23383   1.055   1.779   3.036
 7495SOL    HW123384   1.035   1.757   3.131
 7495SOL    HW223385   1.078   1.876   3.027
 7496SOL     OW23386   0.406   5.599   5.832
 7496SOL    HW123387   0.489   5.554   5.864
 7496SOL    HW223388   0.326   5.544   5.857
 7497SOL     OW23389   1.720   4.980   2.759
 7497SOL    HW123390   1.648   4.958   2.826
 7497SOL    HW223391   1.807   4.993   2.807
 7498SOL     OW23392   5.675   1.923   4.371
 7498SOL    HW123393   5.739   1.976   4.426
 7498SOL    HW223394   5.582   1.956   4.387
 7499SOL     OW23395   3.670   5.213   3.548
 7499SOL    HW123396   3.673   5.283   3.476
 7499SOL    HW223397   3.632   5.253   3.632
 7500SOL     OW23398   4.721   3.896   1.749
 7500SOL    HW123399   4.642   3.912   1.690
 7500SOL    HW223400   4.774   3.981   1.759
 7501SOL     OW23401   0.620   4.631   3.892
 7501SOL    HW123402   0.661   4.553   3.939
 7501SOL    HW223403   0.550   4.598   3.828
 7502SOL     OW23404   1.617   2.035   3.958
 7502SOL    HW123405   1.656   2.115   3.912
 7502SOL    HW223406   1.637   2.039   4.056
 7503SOL     OW23407   2.514   2.197   6.835
 7503SOL    HW123408   2.503   2.199   6.736
 7503SOL    HW223409   2.609   2.178   6.858
 7504SOL     OW23410   4.392   5.788   4.393
 7504SOL    HW123411   4.466   5.845   4.425
 7504SOL    HW223412   4.367   5.813   4.299
 7505SOL     OW23413   1.869   1.251   4.128
 7505SOL    HW123414   1.838   1.294   4.212
 7505SOL    HW223415   1.959   1.287   4.104
 7506SOL     OW23416   4.094   0.712   2.916
 7506SOL    HW123417   4.131   0.710   3.009
 7506SOL    HW223418   4.160   0.672   2.853
 7507SOL     OW23419   1.952   0.292   5.597
 7507SOL    HW123420   2.008   0.215   5.566
 7507SOL    HW223421   1.998   0.378   5.575
 7508SOL     OW23422   5.617   5.527   3.039
 7508SOL    HW123423   5.542   5.494   2.981
 7508SOL    HW223424   5.685   5.454   3.049
 7509SOL     OW23425   4.194   4.276   6.196
 7509SOL    HW123426   4.128   4.217   6.242
 7509SOL    HW223427   4.154   4.366   6.181
 7510SOL     OW23428   3.705   3.572   4.641
 7510SOL    HW123429   3.766   3.526   4.576
 7510SOL    HW223430   3.756   3.642   4.691
 7511SOL     OW23431   1.252   1.542   2.585
 7511SOL    HW123432   1.305   1.460   2.604
 7511SOL    HW223433   1.269   1.610   2.657
 7512SOL     OW23434   2.114   3.358   2.255
 7512SOL    HW123435   2.214   3.354   2.257
 7512SOL    HW223436   2.084   3.424   2.186
 7513SOL     OW23437   1.515   3.231   6.559
 7513SOL    HW123438   1.548   3.169   6.629
 7513SOL    HW223439   1.560   3.211   6.472
 7514SOL     OW23440   3.286   5.474   3.545
 7514SOL    HW123441   3.270   5.405   3.615
 7514SOL    HW223442   3.320   5.429   3.462
 7515SOL     OW23443   0.332   4.695   3.048
 7515SOL    HW123444   0.315   4.686   3.146
 7515SOL    HW223445   0.429   4.712   3.032
 7516SOL     OW23446   1.967   2.953   1.434
 7516SOL    HW123447   1.972   2.866   1.386
 7516SOL    HW223448   1.875   2.967   1.471
 7517SOL     OW23449   0.851   5.135   2.163
 7517SOL    HW123450   0.829   5.038   2.150
 7517SOL    HW223451   0.891   5.147   2.254
 7518SOL     OW23452   5.083   4.169   2.827
 7518SOL    HW123453   4.998   4.118   2.814
 7518SOL    HW223454   5.074   4.228   2.907
 7519SOL     OW23455   2.113   0.194   4.448
 7519SOL    HW123456   2.123   0.096   4.461
 7519SOL    HW223457   2.044   0.212   4.377
 7520SOL     OW23458   2.432   6.958   4.000
 7520SOL    HW123459   2.433   0.016   4.051
 7520SOL    HW223460   2.476   6.971   3.912
 7521SOL     OW23461   4.530   3.162   5.467
 7521SOL    HW123462   4.584   3.242   5.442
 7521SOL    HW223463   4.565   3.082   5.420
 7522SOL     OW23464   2.014   6.783   2.443
 7522SOL    HW123465   1.945   6.854   2.429
 7522SOL    HW223466   2.105   6.824   2.446
 7523SOL     OW23467   6.808   6.341   6.490
 7523SOL    HW123468   6.857   6.254   6.488
 7523SOL    HW223469   6.717   6.328   6.530
 7524SOL     OW23470   6.521   1.089   4.720
 7524SOL    HW123471   6.611   1.106   4.679
 7524SOL    HW223472   6.517   1.130   4.811
 7525SOL     OW23473   0.464   0.692   0.833
 7525SOL    HW123474   0.510   0.745   0.904
 7525SOL    HW223475   0.450   0.598   0.865
 7526SOL     OW23476   3.731   3.284   5.802
 7526SOL    HW123477   3.767   3.226   5.875
 7526SOL    HW223478   3.748   3.380   5.825
 7527SOL     OW23479   3.499   6.550   2.042
 7527SOL    HW123480   3.595   6.564   2.016
 7527SOL    HW223481   3.445   6.528   1.960
 7528SOL     OW23482   5.986   3.473   6.567
 7528SOL    HW123483   6.023   3.474   6.660
 7528SOL    HW223484   6.026   3.397   6.516
 7529SOL     OW23485   2.132   0.136   4.780
 7529SOL    HW123486   2.148   0.139   4.681
 7529SOL    HW223487   2.126   0.040   4.809
 7530SOL     OW23488   6.722   2.885   2.699
 7530SOL    HW123489   6.749   2.885   2.796
 7530SOL    HW223490   6.788   2.831   2.647
 7531SOL     OW23491   2.346   1.687   4.316
 7531SOL    HW123492   2.383   1.776   4.343
 7531SOL    HW223493   2.249   1.682   4.341
 7532SOL     OW23494   4.861   4.716   2.312
 7532SOL    HW123495   4.804   4.709   2.230
 7532SOL    HW223496   4.803   4.734   2.391
 7533SOL     OW23497   3.340   0.781   4.935
 7533SOL    HW123498   3.366   0.697   4.888
 7533SOL    HW223499   3.328   0.855   4.868
 7534SOL     OW23500   4.440   6.950   3.557
 7534SOL    HW123501   4.475   0.004   3.603
 7534SOL    HW223502   4.507   6.876   3.566
 7535SOL     OW23503   3.071   4.927   0.278
 7535SOL    HW123504   3.027   5.017   0.271
 7535SOL    HW223505   3.017   4.859   0.229
 7536SOL     OW23506   4.504   5.694   5.969
 7536SOL    HW123507   4.509   5.710   5.870
 7536SOL    HW223508   4.494   5.596   5.986
 7537SOL     OW23509   2.016   4.755   5.375
 7537SOL    HW123510   1.958   4.794   5.304
 7537SOL    HW223511   1.996   4.658   5.385
 7538SOL     OW23512   3.436   4.047   5.013
 7538SOL    HW123513   3.428   3.970   5.077
 7538SOL    HW223514   3.414   4.132   5.060
 7539SOL     OW23515   0.793   2.177   4.802
 7539SOL    HW123516   0.809   2.251   4.868
 7539SOL    HW223517   0.860   2.183   4.729
 7540SOL     OW23518   2.433   0.972   0.387
 7540SOL    HW123519   2.492   0.991   0.466
 7540SOL    HW223520   2.396   1.058   0.352
 7541SOL     OW23521   6.760   2.556   5.430
 7541SOL    HW123522   6.769   2.631   5.364
 7541SOL    HW223523   6.706   2.482   5.390
 7542SOL     OW23524   1.564   0.433   5.611
 7542SOL    HW123525   1.512   0.390   5.537
 7542SOL    HW223526   1.659   0.445   5.582
 7543SOL     OW23527   2.505   2.354   1.321
 7543SOL    HW123528   2.582   2.332   1.381
 7543SOL    HW223529   2.501   2.453   1.306
 7544SOL     OW23530   1.379   1.987   2.561
 7544SOL    HW123531   1.293   1.941   2.539
 7544SOL    HW223532   1.401   2.054   2.491
 7545SOL     OW23533   3.915   0.431   3.238
 7545SOL    HW123534   3.996   0.478   3.274
 7545SOL    HW223535   3.879   0.368   3.307
 7546SOL     OW23536   5.436   0.371   5.400
 7546SOL    HW123537   5.400   0.284   5.434
 7546SOL    HW223538   5.536   0.367   5.399
 7547SOL     OW23539   2.783   0.275   0.277
 7547SOL    HW123540   2.710   0.242   0.337
 7547SOL    HW223541   2.752   0.270   0.182
 7548SOL     OW23542   2.091   3.404   1.418
 7548SOL    HW123543   2.083   3.306   1.399
 7548SOL    HW223544   2.002   3.439   1.448
 7549SOL     OW23545   5.571   0.454   2.518
 7549SOL    HW123546   5.597   0.541   2.559
 7549SOL    HW223547   5.630   0.434   2.440
 7550SOL     OW23548   0.997   5.709   0.916
 7550SOL    HW123549   1.042   5.621   0.896
 7550SOL    HW223550   0.952   5.703   1.005
 7551SOL     OW23551   5.308   3.538   6.210
 7551SOL    HW123552   5.394   3.510   6.165
 7551SOL    HW223553   5.266   3.612   6.157
 7552SOL     OW23554   3.851   5.902   3.915
 7552SOL    HW123555   3.933   5.856   3.880
 7552SOL    HW223556   3.788   5.834   3.950
 7553SOL     OW23557   4.075   3.902   5.814
 7553SOL    HW123558   4.086   3.822   5.756
 7553SOL    HW223559   3.986   3.899   5.860
 7554SOL     OW23560   0.163   1.349   1.175
 7554SOL    HW123561   0.236   1.408   1.141
 7554SOL    HW223562   0.139   1.376   1.269
 7555SOL     OW23563   1.773   6.112   5.996
 7555SOL    HW123564   1.691   6.057   5.981
 7555SOL    HW223565   1.752   6.187   6.059
 7556SOL     OW23566   6.778   4.195   3.276
 7556SOL    HW123567   6.740   4.171   3.365
 7556SOL    HW223568   6.796   4.111   3.224
 7557SOL     OW23569   4.122   4.041   0.340
 7557SOL    HW123570   4.110   4.110   0.411
 7557SOL    HW223571   4.095   3.952   0.376
 7558SOL     OW23572   1.751   2.921   3.560
 7558SOL    HW123573   1.828   2.906   3.498
 7558SOL    HW223574   1.707   3.008   3.538
 7559SOL     OW23575   0.386   4.537   0.024
 7559SOL    HW123576   0.368   4.629   0.059
 7559SOL    HW223577   0.306   4.504   7.001
 7560SOL     OW23578   4.724   0.555   5.286
 7560SOL    HW123579   4.638   0.571   5.335
 7560SOL    HW223580   4.756   0.462   5.306
 7561SOL     OW23581   0.614   3.898   0.482
 7561SOL    HW123582   0.618   3.883   0.581
 7561SOL    HW223583   0.545   3.967   0.461
 7562SOL     OW23584   4.396   6.168   4.686
 7562SOL    HW123585   4.343   6.189   4.768
 7562SOL    HW223586   4.377   6.074   4.658
 7563SOL     OW23587   2.436   1.283   3.948
 7563SOL    HW123588   2.519   1.336   3.964
 7563SOL    HW223589   2.413   1.286   3.851
 7564SOL     OW23590   5.999   5.714   3.999
 7564SOL    HW123591   6.068   5.659   3.951
 7564SOL    HW223592   5.911   5.703   3.954
 7565SOL     OW23593   4.798   5.336   6.824
 7565SOL    HW123594   4.798   5.352   6.725
 7565SOL    HW223595   4.743   5.406   6.869
 7566SOL     OW23596   1.516   5.863   4.401
 7566SOL    HW123597   1.529   5.838   4.497
 7566SOL    HW223598   1.578   5.938   4.377
 7567SOL     OW23599   2.267   3.221   0.349
 7567SOL    HW123600   2.173   3.222   0.384
 7567SOL    HW223601   2.312   3.136   0.377
 7568SOL     OW23602   3.750   4.811   2.779
 7568SOL    HW123603   3.847   4.814   2.755
 7568SOL    HW223604   3.740   4.793   2.877
 7569SOL     OW23605   3.615   0.133   2.377
 7569SOL    HW123606   3.625   0.152   2.280
 7569SOL    HW223607   3.704   0.103   2.414
 7570SOL     OW23608   5.671   4.946   4.593
 7570SOL    HW123609   5.746   4.970   4.654
 7570SOL    HW223610   5.704   4.941   4.499
 7571SOL     OW23611   6.361   3.998   0.294
 7571SOL    HW123612   6.400   4.047   0.372
 7571SOL    HW223613   6.262   4.011   0.293
 7572SOL     OW23614   6.781   1.614   3.221
 7572SOL    HW123615   6.833   1.691   3.258
 7572SOL    HW223616   6.764   1.548   3.295
 7573SOL     OW23617   3.891   5.086   4.649
 7573SOL    HW123618   3.896   5.185   4.634
 7573SOL    HW223619   3.817   5.066   4.713
 7574SOL     OW23620   4.669   6.022   2.102
 7574SOL    HW123621   4.588   6.042   2.156
 7574SOL    HW223622   4.731   6.101   2.103
 7575SOL     OW23623   4.820   3.020   5.211
 7575SOL    HW123624   4.870   2.995   5.128
 7575SOL    HW223625   4.813   3.119   5.217
 7576SOL     OW23626   7.008   3.643   1.743
 7576SOL    HW123627   0.003   3.546   1.729
 7576SOL    HW223628   6.940   3.671   1.676
 7577SOL     OW23629   4.367   1.467   4.686
 7577SOL    HW123630   4.446   1.412   4.659
 7577SOL    HW223631   4.369   1.555   4.639
 7578SOL     OW23632   2.648   5.653   4.764
 7578SOL    HW123633   2.651   5.660   4.665
 7578SOL    HW223634   2.555   5.627   4.792
 7579SOL     OW23635   4.365   2.387   4.105
 7579SOL    HW123636   4.409   2.422   4.188
 7579SOL    HW223637   4.434   2.370   4.035
 7580SOL     OW23638   1.965   3.449   2.009
 7580SOL    HW123639   2.063   3.465   2.002
 7580SOL    HW223640   1.921   3.472   1.923
 7581SOL     OW23641   5.192   0.830   0.786
 7581SOL    HW123642   5.211   0.787   0.697
 7581SOL    HW223643   5.268   0.811   0.849
 7582SOL     OW23644   3.579   2.529   1.312
 7582SOL    HW123645   3.608   2.532   1.408
 7582SOL    HW223646   3.602   2.616   1.268
 7583SOL     OW23647   6.645   4.471   3.206
 7583SOL    HW123648   6.626   4.485   3.109
 7583SOL    HW223649   6.740   4.495   3.225
 7584SOL     OW23650   2.367   2.034   2.120
 7584SOL    HW123651   2.371   2.132   2.140
 7584SOL    HW223652   2.455   1.992   2.138
 7585SOL     OW23653   2.071   4.533   6.919
 7585SOL    HW123654   2.072   4.576   6.828
 7585SOL    HW223655   2.159   4.490   6.936
 7586SOL     OW23656   1.421   2.220   3.497
 7586SOL    HW123657   1.328   2.256   3.510
 7586SOL    HW223658   1.486   2.294   3.511
 7587SOL     OW23659   2.262   1.105   5.631
 7587SOL    HW123660   2.224   1.085   5.541
 7587SOL    HW223661   2.342   1.165   5.621
 7588SOL     OW23662   0.775   4.323   1.695
 7588SOL    HW123663   0.793   4.267   1.775
 7588SOL    HW223664   0.794   4.419   1.716
 7589SOL     OW23665   4.817   6.127   6.190
 7589SOL    HW123666   4.834   6.039   6.234
 7589SOL    HW223667   4.760   6.113   6.109
 7590SOL     OW23668   1.489   1.039   5.725
 7590SOL    HW123669   1.528   1.119   5.770
 7590SOL    HW223670   1.448   0.979   5.793
 7591SOL     OW23671   6.414   5.823   6.769
 7591SOL    HW123672   6.352   5.854   6.696
 7591SOL    HW223673   6.370   5.838   6.857
 7592SOL     OW23674   4.157   5.144   6.176
 7592SOL    HW123675   4.178   5.077   6.248
 7592SOL    HW223676   4.180   5.104   6.087
 7593SOL     OW23677   6.102   4.098   0.342
 7593SOL    HW123678   6.064   4.181   0.302
 7593SOL    HW223679   6.083   4.096   0.440
 7594SOL     OW23680   0.948   6.902   4.111
 7594SOL    HW123681   1.003   6.822   4.136
 7594SOL    HW223682   1.001   6.985   4.128
 7595SOL     OW23683   6.566   2.703   6.681
 7595SOL    HW123684   6.524   2.646   6.752
 7595SOL    HW223685   6.640   2.758   6.721
 7596SOL     OW23686   4.957   5.553   2.104
 7596SOL    HW123687   4.943   5.511   2.194
 7596SOL    HW223688   4.906   5.639   2.100
 7597SOL     OW23689   2.198   5.558   1.702
 7597SOL    HW123690   2.115   5.513   1.735
 7597SOL    HW223691   2.202   5.652   1.736
 7598SOL     OW23692   6.336   1.202   2.758
 7598SOL    HW123693   6.332   1.131   2.687
 7598SOL    HW223694   6.430   1.210   2.790
 7599SOL     OW23695   5.689   3.005   2.127
 7599SOL    HW123696   5.681   3.069   2.051
 7599SOL    HW223697   5.713   2.915   2.092
 7600SOL     OW23698   2.222   2.494   3.192
 7600SOL    HW123699   2.311   2.489   3.238
 7600SOL    HW223700   2.216   2.420   3.125
 7601SOL     OW23701   2.318   0.676   5.672
 7601SOL    HW123702   2.345   0.644   5.581
 7601SOL    HW223703   2.270   0.603   5.720
 7602SOL     OW23704   2.071   3.231   5.344
 7602SOL    HW123705   2.128   3.150   5.330
 7602SOL    HW223706   2.033   3.261   5.256
 7603SOL     OW23707   6.660   1.221   2.169
 7603SOL    HW123708   6.697   1.149   2.110
 7603SOL    HW223709   6.732   1.254   2.231
 7604SOL     OW23710   5.141   5.456   6.573
 7604SOL    HW123711   5.172   5.532   6.517
 7604SOL    HW223712   5.114   5.379   6.515
 7605SOL     OW23713   5.842   3.637   6.213
 7605SOL    HW123714   5.796   3.725   6.224
 7605SOL    HW223715   5.806   3.572   6.279
 7606SOL     OW23716   5.642   1.946   3.801
 7606SOL    HW123717   5.676   1.983   3.715
 7606SOL    HW223718   5.545   1.925   3.791
 7607SOL     OW23719   5.184   6.953   5.987
 7607SOL    HW123720   5.129   6.980   5.908
 7607SOL    HW223721   5.263   7.014   5.995
 7608SOL     OW23722   3.365   3.548   4.762
 7608SOL    HW123723   3.296   3.543   4.835
 7608SOL    HW223724   3.350   3.632   4.709
 7609SOL     OW23725   1.140   2.941   3.590
 7609SOL    HW123726   1.212   2.874   3.571
 7609SOL    HW223727   1.051   2.902   3.567
 7610SOL     OW23728   5.774   0.381   2.273
 7610SOL    HW123729   5.813   0.340   2.190
 7610SOL    HW223730   5.738   0.471   2.251
 7611SOL     OW23731   1.969   1.848   1.563
 7611SOL    HW123732   2.055   1.816   1.601
 7611SOL    HW223733   1.941   1.788   1.488
 7612SOL     OW23734   4.385   1.975   3.002
 7612SOL    HW123735   4.310   1.945   2.944
 7612SOL    HW223736   4.416   2.065   2.973
 7613SOL     OW23737   5.904   0.507   2.473
 7613SOL    HW123738   5.885   0.442   2.399
 7613SOL    HW223739   5.868   0.597   2.448
 7614SOL     OW23740   4.182   1.040   0.625
 7614SOL    HW123741   4.113   1.068   0.558
 7614SOL    HW223742   4.238   1.119   0.649
 7615SOL     OW23743   3.838   4.557   5.675
 7615SOL    HW123744   3.887   4.495   5.614
 7615SOL    HW223745   3.903   4.619   5.719
 7616SOL     OW23746   0.226   5.300   3.122
 7616SOL    HW123747   0.325   5.309   3.111
 7616SOL    HW223748   0.179   5.347   3.047
 7617SOL     OW23749   3.311   5.708   3.705
 7617SOL    HW123750   3.237   5.721   3.770
 7617SOL    HW223751   3.303   5.617   3.663
 7618SOL     OW23752   2.535   1.975   0.592
 7618SOL    HW123753   2.489   2.063   0.584
 7618SOL    HW223754   2.615   1.974   0.532
 7619SOL     OW23755   5.872   3.066   6.271
 7619SOL    HW123756   5.818   3.122   6.208
 7619SOL    HW223757   5.831   3.071   6.362
 7620SOL     OW23758   3.320   5.894   1.475
 7620SOL    HW123759   3.273   5.829   1.415
 7620SOL    HW223760   3.367   5.962   1.419
 7621SOL     OW23761   2.297   2.498   0.683
 7621SOL    HW123762   2.205   2.535   0.696
 7621SOL    HW223763   2.310   2.419   0.742
 7622SOL     OW23764   4.518   2.228   1.352
 7622SOL    HW123765   4.433   2.278   1.370
 7622SOL    HW223766   4.507   2.173   1.269
 7623SOL     OW23767   6.386   6.519   5.092
 7623SOL    HW123768   6.477   6.483   5.114
 7623SOL    HW223769   6.336   6.538   5.177
 7624SOL     OW23770   0.303   0.537   4.852
 7624SOL    HW123771   0.396   0.570   4.835
 7624SOL    HW223772   0.306   0.439   4.869
 7625SOL     OW23773   3.213   5.560   0.876
 7625SOL    HW123774   3.263   5.474   0.884
 7625SOL    HW223775   3.219   5.594   0.782
 7626SOL     OW23776   2.735   4.230   5.401
 7626SOL    HW123777   2.705   4.325   5.395
 7626SOL    HW223778   2.778   4.215   5.490
 7627SOL     OW23779   6.924   1.162   0.449
 7627SOL    HW123780   7.003   1.224   0.455
 7627SOL    HW223781   6.935   1.102   0.370
 7628SOL     OW23782   4.847   1.708   1.501
 7628SOL    HW123783   4.846   1.697   1.600
 7628SOL    HW223784   4.871   1.621   1.458
 7629SOL     OW23785   6.121   5.930   3.457
 7629SOL    HW123786   6.186   5.937   3.381
 7629SOL    HW223787   6.148   5.994   3.530
 7630SOL     OW23788   6.663   1.526   2.013
 7630SOL    HW123789   6.640   1.598   2.078
 7630SOL    HW223790   6.691   1.443   2.062
 7631SOL     OW23791   1.459   0.948   3.553
 7631SOL    HW123792   1.495   0.861   3.587
 7631SOL    HW223793   1.359   0.944   3.552
 7632SOL     OW23794   4.297   0.646   4.971
 7632SOL    HW123795   4.217   0.587   4.964
 7632SOL    HW223796   4.288   0.707   5.050
 7633SOL     OW23797   6.170   3.932   6.841
 7633SOL    HW123798   6.187   3.833   6.844
 7633SOL    HW223799   6.150   3.959   6.747
 7634SOL     OW23800   1.258   2.551   2.589
 7634SOL    HW123801   1.260   2.487   2.512
 7634SOL    HW223802   1.219   2.638   2.558
 7635SOL     OW23803   2.687   4.665   6.314
 7635SOL    HW123804   2.633   4.748   6.301
 7635SOL    HW223805   2.636   4.586   6.280
 7636SOL     OW23806   1.390   0.414   3.460
 7636SOL    HW123807   1.408   0.394   3.363
 7636SOL    HW223808   1.291   0.414   3.475
 7637SOL     OW23809   2.646   6.384   4.114
 7637SOL    HW123810   2.706   6.304   4.126
 7637SOL    HW223811   2.695   6.466   4.142
 7638SOL     OW23812   4.328   4.628   1.862
 7638SOL    HW123813   4.424   4.646   1.842
 7638SOL    HW223814   4.303   4.537   1.829
 7639SOL     OW23815   0.420   1.573   4.511
 7639SOL    HW123816   0.420   1.586   4.412
 7639SOL    HW223817   0.412   1.663   4.555
 7640SOL     OW23818   2.595   3.002   5.897
 7640SOL    HW123819   2.598   2.997   5.797
 7640SOL    HW223820   2.599   3.098   5.925
 7641SOL     OW23821   6.019   3.149   3.117
 7641SOL    HW123822   5.983   3.071   3.064
 7641SOL    HW223823   5.969   3.155   3.203
 7642SOL     OW23824   1.663   2.034   2.770
 7642SOL    HW123825   1.588   2.033   2.704
 7642SOL    HW223826   1.627   2.020   2.862
 7643SOL     OW23827   5.689   3.803   3.472
 7643SOL    HW123828   5.617   3.850   3.522
 7643SOL    HW223829   5.767   3.865   3.459
 7644SOL     OW23830   6.601   3.175   3.788
 7644SOL    HW123831   6.539   3.101   3.815
 7644SOL    HW223832   6.617   3.235   3.867
 7645SOL     OW23833   3.507   2.630   0.332
 7645SOL    HW123834   3.409   2.645   0.341
 7645SOL    HW223835   3.556   2.697   0.389
 7646SOL     OW23836   0.607   0.052   2.101
 7646SOL    HW123837   0.564   0.142   2.098
 7646SOL    HW223838   0.566   7.025   2.174
 7647SOL     OW23839   1.816   4.924   0.076
 7647SOL    HW123840   1.915   4.922   0.060
 7647SOL    HW223841   1.793   5.002   0.135
 7648SOL     OW23842   3.065   1.089   3.749
 7648SOL    HW123843   3.148   1.092   3.803
 7648SOL    HW223844   3.088   1.065   3.654
 7649SOL     OW23845   2.789   1.466   0.878
 7649SOL    HW123846   2.769   1.401   0.951
 7649SOL    HW223847   2.723   1.541   0.882
 7650SOL     OW23848   6.454   5.006   0.365
 7650SOL    HW123849   6.541   5.048   0.389
 7650SOL    HW223850   6.459   4.907   0.381
 7651SOL     OW23851   5.516   2.148   6.028
 7651SOL    HW123852   5.491   2.188   5.940
 7651SOL    HW223853   5.463   2.192   6.100
 7652SOL     OW23854   1.265   3.305   3.048
 7652SOL    HW123855   1.265   3.404   3.031
 7652SOL    HW223856   1.242   3.288   3.144
 7653SOL     OW23857   4.596   2.527   2.402
 7653SOL    HW123858   4.554   2.503   2.315
 7653SOL    HW223859   4.636   2.619   2.395
 7654SOL     OW23860   5.278   3.958   4.735
 7654SOL    HW123861   5.334   3.958   4.653
 7654SOL    HW223862   5.259   4.053   4.763
 7655SOL     OW23863   4.767   5.175   5.415
 7655SOL    HW123864   4.813   5.259   5.387
 7655SOL    HW223865   4.668   5.188   5.411
 7656SOL     OW23866   0.963   0.512   5.041
 7656SOL    HW123867   0.983   0.420   5.074
 7656SOL    HW223868   1.006   0.526   4.952
 7657SOL     OW23869   4.222   1.811   3.504
 7657SOL    HW123870   4.239   1.828   3.407
 7657SOL    HW223871   4.129   1.777   3.516
 7658SOL     OW23872   4.195   0.469   5.863
 7658SOL    HW123873   4.214   0.564   5.884
 7658SOL    HW223874   4.110   0.441   5.908
 7659SOL     OW23875   5.178   6.072   6.469
 7659SOL    HW123876   5.221   5.984   6.448
 7659SOL    HW223877   5.154   6.075   6.566
 7660SOL     OW23878   5.331   5.329   3.530
 7660SOL    HW123879   5.313   5.243   3.579
 7660SOL    HW223880   5.424   5.329   3.495
 7661SOL     OW23881   6.231   3.440   4.428
 7661SOL    HW123882   6.148   3.384   4.429
 7661SOL    HW223883   6.206   3.535   4.447
 7662SOL     OW23884   6.546   5.426   3.477
 7662SOL    HW123885   6.526   5.374   3.395
 7662SOL    HW223886   6.476   5.496   3.490
 7663SOL     OW23887   0.290   6.104   0.484
 7663SOL    HW123888   0.240   6.183   0.520
 7663SOL    HW223889   0.290   6.030   0.552
 7664SOL     OW23890   3.705   5.611   5.000
 7664SOL    HW123891   3.649   5.681   4.957
 7664SOL    HW223892   3.730   5.542   4.932
 7665SOL     OW23893   2.187   5.648   3.755
 7665SOL    HW123894   2.155   5.722   3.814
 7665SOL    HW223895   2.284   5.632   3.770
 7666SOL     OW23896   1.891   0.545   2.232
 7666SOL    HW123897   1.921   0.612   2.300
 7666SOL    HW223898   1.971   0.493   2.200
 7667SOL     OW23899   5.682   6.645   5.180
 7667SOL    HW123900   5.695   6.546   5.185
 7667SOL    HW223901   5.660   6.671   5.086
 7668SOL     OW23902   2.824   3.865   1.749
 7668SOL    HW123903   2.895   3.925   1.713
 7668SOL    HW223904   2.734   3.907   1.735
 7669SOL     OW23905   4.552   6.428   5.132
 7669SOL    HW123906   4.633   6.470   5.090
 7669SOL    HW223907   4.479   6.423   5.065
 7670SOL     OW23908   1.546   5.738   0.604
 7670SOL    HW123909   1.523   5.799   0.528
 7670SOL    HW223910   1.482   5.662   0.605
 7671SOL     OW23911   5.167   2.093   4.512
 7671SOL    HW123912   5.131   2.171   4.460
 7671SOL    HW223913   5.093   2.030   4.533
 7672SOL     OW23914   6.563   0.347   2.072
 7672SOL    HW123915   6.609   0.433   2.048
 7672SOL    HW223916   6.616   0.299   2.141
 7673SOL     OW23917   0.740   3.477   0.208
 7673SOL    HW123918   0.782   3.515   0.126
 7673SOL    HW223919   0.798   3.495   0.288
 7674SOL     OW23920   5.856   0.625   5.319
 7674SOL    HW123921   5.903   0.622   5.231
 7674SOL    HW223922   5.897   0.696   5.376
 7675SOL     OW23923   4.714   0.428   3.333
 7675SOL    HW123924   4.739   0.396   3.241
 7675SOL    HW223925   4.704   0.349   3.394
 7676SOL     OW23926   1.300   0.377   1.058
 7676SOL    HW123927   1.215   0.364   1.108
 7676SOL    HW223928   1.308   0.472   1.030
 7677SOL     OW23929   1.495   2.847   2.908
 7677SOL    HW123930   1.439   2.930   2.912
 7677SOL    HW223931   1.591   2.871   2.917
 7678SOL     OW23932   5.368   6.588   5.955
 7678SOL    HW123933   5.447   6.527   5.960
 7678SOL    HW223934   5.287   6.535   5.929
 7679SOL     OW23935   1.575   5.233   4.336
 7679SOL    HW123936   1.616   5.210   4.247
 7679SOL    HW223937   1.642   5.281   4.392
 7680SOL     OW23938   5.024   0.719   0.111
 7680SOL    HW123939   5.020   0.650   0.039
 7680SOL    HW223940   4.958   0.792   0.090
 7681SOL     OW23941   3.404   2.280   6.513
 7681SOL    HW123942   3.344   2.255   6.589
 7681SOL    HW223943   3.397   2.378   6.496
 7682SOL     OW23944   2.951   0.147   0.587
 7682SOL    HW123945   2.928   0.093   0.506
 7682SOL    HW223946   3.016   0.219   0.562
 7683SOL     OW23947   6.997   3.109   3.519
 7683SOL    HW123948   6.931   3.082   3.589
 7683SOL    HW223949   0.026   3.031   3.494
 7684SOL     OW23950   4.003   2.022   5.532
 7684SOL    HW123951   4.059   2.100   5.506
 7684SOL    HW223952   3.933   2.007   5.462
 7685SOL     OW23953   4.054   3.818   1.200
 7685SOL    HW123954   3.964   3.838   1.239
 7685SOL    HW223955   4.125   3.839   1.268
 7686SOL     OW23956   3.070   1.092   2.988
 7686SOL    HW123957   3.113   1.086   2.898
 7686SOL    HW223958   3.065   1.187   3.017
 7687SOL     OW23959   4.444   3.821   5.837
 7687SOL    HW123960   4.462   3.768   5.754
 7687SOL    HW223961   4.378   3.893   5.818
 7688SOL     OW23962   6.486   0.602   3.162
 7688SOL    HW123963   6.515   0.639   3.251
 7688SOL    HW223964   6.567   0.575   3.110
 7689SOL     OW23965   3.604   6.346   4.687
 7689SOL    HW123966   3.630   6.438   4.656
 7689SOL    HW223967   3.533   6.309   4.628
 7690SOL     OW23968   0.841   5.192   2.780
 7690SOL    HW123969   0.861   5.097   2.803
 7690SOL    HW223970   0.825   5.245   2.863
 7691SOL     OW23971   6.193   4.137   5.973
 7691SOL    HW123972   6.167   4.046   6.005
 7691SOL    HW223973   6.111   4.194   5.965
 7692SOL     OW23974   1.710   6.823   1.076
 7692SOL    HW123975   1.783   6.872   1.029
 7692SOL    HW223976   1.746   6.784   1.162
 7693SOL     OW23977   5.325   1.794   0.637
 7693SOL    HW123978   5.363   1.781   0.729
 7693SOL    HW223979   5.330   1.891   0.613
 7694SOL     OW23980   5.537   5.152   3.383
 7694SOL    HW123981   5.562   5.249   3.375
 7694SOL    HW223982   5.619   5.096   3.376
 7695SOL     OW23983   4.878   0.429   6.725
 7695SOL    HW123984   4.931   0.348   6.751
 7695SOL    HW223985   4.889   0.446   6.627
 7696SOL     OW23986   1.249   4.151   5.580
 7696SOL    HW123987   1.340   4.191   5.593
 7696SOL    HW223988   1.193   4.213   5.525
 7697SOL     OW23989   4.763   1.271   1.979
 7697SOL    HW123990   4.767   1.198   2.047
 7697SOL    HW223991   4.719   1.238   1.896
 7698SOL     OW23992   6.761   2.692   5.820
 7698SOL    HW123993   6.834   2.660   5.759
 7698SOL    HW223994   6.726   2.779   5.787
 7699SOL     OW23995   3.143   4.166   0.453
 7699SOL    HW123996   3.089   4.145   0.371
 7699SOL    HW223997   3.082   4.176   0.531
 7700SOL     OW23998   5.796   6.558   4.257
 7700SOL    HW123999   5.832   6.643   4.295
 7700SOL    HW224000   5.735   6.579   4.180
 7701SOL     OW24001   6.583   2.361   5.352
 7701SOL    HW124002   6.501   2.369   5.296
 7701SOL    HW224003   6.639   2.285   5.319
 7702SOL     OW24004   1.892   6.396   6.627
 7702SOL    HW124005   1.818   6.446   6.671
 7702SOL    HW224006   1.979   6.443   6.643
 7703SOL     OW24007   0.471   2.408   5.821
 7703SOL    HW124008   0.529   2.345   5.769
 7703SOL    HW224009   0.453   2.369   5.912
 7704SOL     OW24010   2.420   4.052   1.512
 7704SOL    HW124011   2.407   3.983   1.440
 7704SOL    HW224012   2.378   4.138   1.485
 7705SOL     OW24013   4.142   3.765   4.907
 7705SOL    HW124014   4.170   3.786   5.000
 7705SOL    HW224015   4.216   3.788   4.844
 7706SOL     OW24016   6.507   0.524   5.553
 7706SOL    HW124017   6.601   0.498   5.529
 7706SOL    HW224018   6.467   0.576   5.477
 7707SOL     OW24019   6.968   5.847   6.832
 7707SOL    HW124020   6.870   5.839   6.816
 7707SOL    HW224021   6.993   5.799   6.916
 7708SOL     OW24022   5.063   1.384   5.179
 7708SOL    HW124023   5.051   1.482   5.193
 7708SOL    HW224024   5.086   1.366   5.084
 7709SOL     OW24025   3.915   2.437   1.742
 7709SOL    HW124026   3.831   2.421   1.793
 7709SOL    HW224027   3.931   2.535   1.733
 7710SOL     OW24028   2.765   1.943   6.884
 7710SOL    HW124029   2.783   2.038   6.909
 7710SOL    HW224030   2.844   1.887   6.908
 7711SOL     OW24031   4.367   5.711   4.726
 7711SOL    HW124032   4.413   5.662   4.653
 7711SOL    HW224033   4.434   5.761   4.781
 7712SOL     OW24034   5.306   4.467   6.355
 7712SOL    HW124035   5.215   4.425   6.353
 7712SOL    HW224036   5.366   4.421   6.290
 7713SOL     OW24037   0.347   5.594   6.457
 7713SOL    HW124038   0.377   5.688   6.473
 7713SOL    HW224039   0.256   5.580   6.495
 7714SOL     OW24040   5.200   4.221   4.793
 7714SOL    HW124041   5.108   4.184   4.781
 7714SOL    HW224042   5.204   4.313   4.756
 7715SOL     OW24043   3.983   2.076   1.931
 7715SOL    HW124044   3.921   2.153   1.922
 7715SOL    HW224045   3.931   1.991   1.930
 7716SOL     OW24046   4.312   2.286   4.451
 7716SOL    HW124047   4.373   2.345   4.397
 7716SOL    HW224048   4.309   2.195   4.411
 7717SOL     OW24049   3.028   0.039   6.533
 7717SOL    HW124050   3.028   0.133   6.568
 7717SOL    HW224051   2.937   0.015   6.502
 7718SOL     OW24052   2.533   6.551   3.586
 7718SOL    HW124053   2.469   6.473   3.585
 7718SOL    HW224054   2.589   6.547   3.668
 7719SOL     OW24055   5.865   2.820   5.238
 7719SOL    HW124056   5.950   2.828   5.290
 7719SOL    HW224057   5.790   2.793   5.299
 7720SOL     OW24058   5.654   6.265   1.667
 7720SOL    HW124059   5.735   6.322   1.664
 7720SOL    HW224060   5.638   6.234   1.761
 7721SOL     OW24061   0.998   4.424   2.878
 7721SOL    HW124062   0.921   4.372   2.915
 7721SOL    HW224063   0.966   4.513   2.845
 7722SOL     OW24064   0.819   6.039   4.447
 7722SOL    HW124065   0.817   6.113   4.514
 7722SOL    HW224066   0.784   6.073   4.359
 7723SOL     OW24067   0.044   2.054   0.240
 7723SOL    HW124068   0.076   2.133   0.292
 7723SOL    HW224069   6.977   2.035   0.264
 7724SOL     OW24070   2.466   6.179   6.828
 7724SOL    HW124071   2.526   6.100   6.817
 7724SOL    HW224072   2.384   6.154   6.878
 7725SOL     OW24073   4.948   3.740   4.293
 7725SOL    HW124074   4.980   3.752   4.199
 7725SOL    HW224075   4.898   3.654   4.301
 7726SOL     OW24076   5.353   4.818   3.115
 7726SOL    HW124077   5.321   4.902   3.160
 7726SOL    HW224078   5.384   4.839   3.023
 7727SOL     OW24079   5.831   3.310   2.202
 7727SOL    HW124080   5.767   3.385   2.223
 7727SOL    HW224081   5.786   3.222   2.220
 7728SOL     OW24082   2.233   2.843   3.037
 7728SOL    HW124083   2.322   2.812   3.005
 7728SOL    HW224084   2.163   2.777   3.012
 7729SOL     OW24085   5.072   2.088   6.481
 7729SOL    HW124086   5.117   2.079   6.392
 7729SOL    HW224087   5.095   2.177   6.521
 7730SOL     OW24088   4.733   0.006   2.272
 7730SOL    HW124089   4.779   6.945   2.275
 7730SOL    HW224090   4.788   0.070   2.219
 7731SOL     OW24091   6.848   1.637   3.946
 7731SOL    HW124092   6.819   1.627   4.042
 7731SOL    HW224093   6.800   1.714   3.905
 7732SOL     OW24094   4.127   4.748   0.629
 7732SOL    HW124095   4.160   4.736   0.536
 7732SOL    HW224096   4.135   4.844   0.655
 7733SOL     OW24097   2.920   5.965   0.570
 7733SOL    HW124098   2.878   5.874   0.566
 7733SOL    HW224099   3.016   5.958   0.542
 7734SOL     OW24100   1.735   3.243   2.391
 7734SOL    HW124101   1.663   3.247   2.322
 7734SOL    HW224102   1.774   3.151   2.393
 7735SOL     OW24103   5.125   4.541   0.867
 7735SOL    HW124104   5.122   4.547   0.967
 7735SOL    HW224105   5.220   4.539   0.836
 7736SOL     OW24106   5.911   4.364   6.498
 7736SOL    HW124107   5.918   4.351   6.597
 7736SOL    HW224108   5.821   4.401   6.475
 7737SOL     OW24109   4.714   2.602   0.386
 7737SOL    HW124110   4.615   2.601   0.405
 7737SOL    HW224111   4.739   2.692   0.349
 7738SOL     OW24112   2.011   5.006   6.775
 7738SOL    HW124113   2.033   4.937   6.844
 7738SOL    HW224114   1.955   4.965   6.703
 7739SOL     OW24115   5.158   3.711   2.634
 7739SOL    HW124116   5.190   3.673   2.548
 7739SOL    HW224117   5.060   3.731   2.627
 7740SOL     OW24118   6.942   6.239   3.606
 7740SOL    HW124119   0.009   6.262   3.587
 7740SOL    HW224120   6.887   6.323   3.612
 7741SOL     OW24121   3.155   5.489   4.245
 7741SOL    HW124122   3.177   5.414   4.306
 7741SOL    HW224123   3.193   5.471   4.154
 7742SOL     OW24124   0.049   0.483   4.392
 7742SOL    HW124125   0.051   0.426   4.310
 7742SOL    HW224126   0.143   0.499   4.423
 7743SOL     OW24127   4.949   3.130   2.275
 7743SOL    HW124128   4.919   3.110   2.368
 7743SOL    HW224129   4.880   3.099   2.210
 7744SOL     OW24130   0.208   6.565   4.896
 7744SOL    HW124131   0.256   6.493   4.846
 7744SOL    HW224132   0.164   6.627   4.831
 7745SOL     OW24133   5.335   3.465   5.654
 7745SOL    HW124134   5.306   3.386   5.600
 7745SOL    HW224135   5.281   3.470   5.738
 7746SOL     OW24136   1.946   0.793   6.625
 7746SOL    HW124137   1.976   0.775   6.719
 7746SOL    HW224138   1.977   0.719   6.566
 7747SOL     OW24139   4.606   4.791   0.473
 7747SOL    HW124140   4.604   4.710   0.532
 7747SOL    HW224141   4.701   4.809   0.446
 7748SOL     OW24142   2.196   3.688   6.729
 7748SOL    HW124143   2.142   3.607   6.749
 7748SOL    HW224144   2.142   3.751   6.673
 7749SOL     OW24145   6.095   2.846   6.303
 7749SOL    HW124146   6.033   2.911   6.258
 7749SOL    HW224147   6.044   2.793   6.370
 7750SOL     OW24148   4.431   5.337   2.413
 7750SOL    HW124149   4.426   5.244   2.449
 7750SOL    HW224150   4.415   5.402   2.487
 7751SOL     OW24151   0.637   2.622   0.859
 7751SOL    HW124152   0.572   2.550   0.883
 7751SOL    HW224153   0.709   2.626   0.929
 7752SOL     OW24154   3.966   1.411   3.054
 7752SOL    HW124155   4.014   1.397   3.140
 7752SOL    HW224156   3.930   1.324   3.021
 7753SOL     OW24157   3.914   0.694   5.238
 7753SOL    HW124158   3.848   0.673   5.166
 7753SOL    HW224159   3.896   0.636   5.318
 7754SOL     OW24160   4.967   5.502   1.585
 7754SOL    HW124161   4.918   5.578   1.543
 7754SOL    HW224162   5.065   5.523   1.586
 7755SOL     OW24163   0.209   4.860   5.828
 7755SOL    HW124164   0.168   4.950   5.845
 7755SOL    HW224165   0.167   4.819   5.747
 7756SOL     OW24166   2.149   4.047   2.111
 7756SOL    HW124167   2.066   4.074   2.161
 7756SOL    HW224168   2.178   3.956   2.141
 7757SOL     OW24169   0.277   4.160   0.401
 7757SOL    HW124170   0.336   4.239   0.418
 7757SOL    HW224171   0.278   4.100   0.481
 7758SOL     OW24172   0.697   1.093   5.693
 7758SOL    HW124173   0.647   1.037   5.626
 7758SOL    HW224174   0.788   1.055   5.706
 7759SOL     OW24175   3.954   1.252   2.068
 7759SOL    HW124176   4.044   1.236   2.107
 7759SOL    HW224177   3.947   1.346   2.035
 7760SOL     OW24178   4.640   2.851   0.190
 7760SOL    HW124179   4.550   2.807   0.195
 7760SOL    HW224180   4.660   2.876   0.096
 7761SOL     OW24181   5.272   5.445   3.122
 7761SOL    HW124182   5.243   5.359   3.080
 7761SOL    HW224183   5.344   5.427   3.189
 7762SOL     OW24184   4.930   2.010   1.261
 7762SOL    HW124185   4.897   2.042   1.350
 7762SOL    HW224186   4.894   1.919   1.242
 7763SOL     OW24187   1.775   0.541   3.105
 7763SOL    HW124188   1.822   0.460   3.141
 7763SOL    HW224189   1.728   0.588   3.180
 7764SOL     OW24190   3.874   4.934   5.551
 7764SOL    HW124191   3.790   4.980   5.577
 7764SOL    HW224192   3.859   4.880   5.468
 7765SOL     OW24193   5.694   4.039   4.517
 7765SOL    HW124194   5.768   4.039   4.450
 7765SOL    HW224195   5.650   4.129   4.519
 7766SOL     OW24196   6.493   2.104   6.728
 7766SOL    HW124197   6.550   2.048   6.667
 7766SOL    HW224198   6.494   2.198   6.696
 7767SOL     OW24199   4.415   0.119   4.002
 7767SOL    HW124200   4.496   0.064   4.020
 7767SOL    HW224201   4.334   0.069   4.031
 7768SOL     OW24202   3.128   5.762   4.193
 7768SOL    HW124203   3.120   5.663   4.185
 7768SOL    HW224204   3.205   5.784   4.254
 7769SOL     OW24205   3.596   2.523   6.956
 7769SOL    HW124206   3.505   2.531   6.916
 7769SOL    HW224207   3.665   2.534   6.884
 7770SOL     OW24208   0.835   3.778   3.767
 7770SOL    HW124209   0.809   3.800   3.861
 7770SOL    HW224210   0.771   3.823   3.704
 7771SOL     OW24211   1.115   4.159   5.111
 7771SOL    HW124212   1.165   4.076   5.087
 7771SOL    HW224213   1.078   4.150   5.204
 7772SOL     OW24214   5.515   5.817   1.653
 7772SOL    HW124215   5.452   5.778   1.721
 7772SOL    HW224216   5.490   5.786   1.562
 7773SOL     OW24217   2.587   6.985   6.952
 7773SOL    HW124218   2.498   6.978   6.907
 7773SOL    HW224219   2.657   7.009   6.885
 7774SOL     OW24220   5.328   1.362   2.972
 7774SOL    HW124221   5.395   1.374   3.046
 7774SOL    HW224222   5.239   1.397   3.002
 7775SOL     OW24223   3.405   1.523   0.764
 7775SOL    HW124224   3.502   1.511   0.785
 7775SOL    HW224225   3.359   1.435   0.766
 7776SOL     OW24226   3.333   1.161   3.910
 7776SOL    HW124227   3.413   1.211   3.876
 7776SOL    HW224228   3.356   1.114   3.994
 7777SOL     OW24229   5.228   5.194   3.049
 7777SOL    HW124230   5.223   5.116   2.987
 7777SOL    HW224231   5.227   5.162   3.144
 7778SOL     OW24232   1.562   3.845   2.391
 7778SOL    HW124233   1.526   3.903   2.464
 7778SOL    HW224234   1.658   3.822   2.412
 7779SOL     OW24235   3.446   0.386   2.724
 7779SOL    HW124236   3.455   0.315   2.795
 7779SOL    HW224237   3.537   0.420   2.699
 7780SOL     OW24238   6.171   5.550   3.866
 7780SOL    HW124239   6.167   5.487   3.788
 7780SOL    HW224240   6.236   5.515   3.933
 7781SOL     OW24241   2.450   2.516   0.938
 7781SOL    HW124242   2.424   2.515   0.841
 7781SOL    HW224243   2.545   2.488   0.947
 7782SOL     OW24244   5.928   3.984   4.031
 7782SOL    HW124245   5.857   3.958   3.965
 7782SOL    HW224246   5.994   4.044   3.987
 7783SOL     OW24247   1.044   6.108   3.905
 7783SOL    HW124248   1.057   6.011   3.922
 7783SOL    HW224249   0.975   6.121   3.835
 7784SOL     OW24250   1.453   2.584   3.136
 7784SOL    HW124251   1.411   2.596   3.046
 7784SOL    HW224252   1.547   2.619   3.134
 7785SOL     OW24253   6.690   6.351   2.650
 7785SOL    HW124254   6.660   6.299   2.570
 7785SOL    HW224255   6.612   6.393   2.695
 7786SOL     OW24256   5.064   1.146   6.563
 7786SOL    HW124257   5.052   1.240   6.530
 7786SOL    HW224258   5.008   1.131   6.644
 7787SOL     OW24259   1.204   2.758   0.979
 7787SOL    HW124260   1.153   2.830   0.933
 7787SOL    HW224261   1.290   2.741   0.930
 7788SOL     OW24262   0.817   3.702   2.314
 7788SOL    HW124263   0.726   3.678   2.347
 7788SOL    HW224264   0.811   3.734   2.219
 7789SOL     OW24265   3.250   0.301   5.772
 7789SOL    HW124266   3.348   0.298   5.795
 7789SOL    HW224267   3.207   0.378   5.819
 7790SOL     OW24268   4.196   5.305   4.314
 7790SOL    HW124269   4.273   5.289   4.375
 7790SOL    HW224270   4.140   5.222   4.309
 7791SOL     OW24271   2.802   6.395   1.775
 7791SOL    HW124272   2.731   6.428   1.838
 7791SOL    HW224273   2.870   6.344   1.826
 7792SOL     OW24274   1.401   0.618   2.432
 7792SOL    HW124275   1.432   0.674   2.355
 7792SOL    HW224276   1.430   0.523   2.418
 7793SOL     OW24277   4.716   1.936   0.707
 7793SOL    HW124278   4.704   1.888   0.620
 7793SOL    HW224279   4.814   1.939   0.729
 7794SOL     OW24280   1.642   0.846   2.652
 7794SOL    HW124281   1.543   0.858   2.640
 7794SOL    HW224282   1.668   0.875   2.744
 7795SOL     OW24283   4.032   3.528   1.239
 7795SOL    HW124284   4.119   3.528   1.288
 7795SOL    HW224285   4.004   3.622   1.220
 7796SOL     OW24286   4.209   1.333   0.642
 7796SOL    HW124287   4.143   1.338   0.717
 7796SOL    HW224288   4.197   1.412   0.581
 7797SOL     OW24289   1.424   6.250   2.822
 7797SOL    HW124290   1.424   6.170   2.762
 7797SOL    HW224291   1.494   6.315   2.791
 7798SOL     OW24292   1.449   3.126   1.199
 7798SOL    HW124293   1.462   3.028   1.212
 7798SOL    HW224294   1.538   3.171   1.197
 7799SOL     OW24295   2.300   6.437   3.808
 7799SOL    HW124296   2.365   6.455   3.882
 7799SOL    HW224297   2.239   6.516   3.797
 7800SOL     OW24298   1.236   0.882   2.406
 7800SOL    HW124299   1.216   0.788   2.380
 7800SOL    HW224300   1.186   0.904   2.490
 7801SOL     OW24301   1.684   2.221   0.795
 7801SOL    HW124302   1.597   2.179   0.768
 7801SOL    HW224303   1.674   2.321   0.797
 7802SOL     OW24304   5.938   5.269   4.160
 7802SOL    HW124305   5.855   5.236   4.115
 7802SOL    HW224306   6.017   5.249   4.104
 7803SOL     OW24307   3.158   2.179   6.286
 7803SOL    HW124308   3.112   2.177   6.375
 7803SOL    HW224309   3.129   2.100   6.232
 7804SOL     OW24310   2.857   1.387   5.183
 7804SOL    HW124311   2.941   1.430   5.150
 7804SOL    HW224312   2.820   1.441   5.259
 7805SOL     OW24313   5.561   2.886   7.011
 7805SOL    HW124314   5.574   2.935   0.069
 7805SOL    HW224315   5.469   2.848   7.008
 7806SOL     OW24316   6.111   2.093   5.172
 7806SOL    HW124317   6.117   1.993   5.178
 7806SOL    HW224318   6.015   2.120   5.170
 7807SOL     OW24319   1.911   5.169   5.686
 7807SOL    HW124320   1.862   5.249   5.654
 7807SOL    HW224321   1.905   5.163   5.786
 7808SOL     OW24322   0.370   3.163   4.543
 7808SOL    HW124323   0.467   3.138   4.533
 7808SOL    HW224324   0.318   3.127   4.465
 7809SOL     OW24325   4.333   6.689   2.740
 7809SOL    HW124326   4.382   6.761   2.690
 7809SOL    HW224327   4.251   6.662   2.689
 7810SOL     OW24328   1.989   6.646   5.829
 7810SOL    HW124329   1.897   6.664   5.794
 7810SOL    HW224330   1.995   6.550   5.859
 7811SOL     OW24331   1.456   5.752   3.327
 7811SOL    HW124332   1.492   5.660   3.338
 7811SOL    HW224333   1.528   5.819   3.347
 7812SOL     OW24334   2.998   0.894   5.695
 7812SOL    HW124335   2.995   0.855   5.603
 7812SOL    HW224336   2.907   0.925   5.721
 7813SOL     OW24337   5.692   1.519   0.879
 7813SOL    HW124338   5.594   1.498   0.884
 7813SOL    HW224339   5.718   1.537   0.785
 7814SOL     OW24340   6.559   2.898   1.745
 7814SOL    HW124341   6.573   2.803   1.774
 7814SOL    HW224342   6.552   2.956   1.827
 7815SOL     OW24343   4.570   5.272   3.519
 7815SOL    HW124344   4.586   5.185   3.566
 7815SOL    HW224345   4.642   5.288   3.452
 7816SOL     OW24346   1.100   1.340   5.316
 7816SOL    HW124347   1.128   1.387   5.233
 7816SOL    HW224348   1.121   1.398   5.395
 7817SOL     OW24349   4.066   1.556   6.350
 7817SOL    HW124350   4.099   1.475   6.302
 7817SOL    HW224351   4.137   1.589   6.413
 7818SOL     OW24352   5.699   1.282   2.943
 7818SOL    HW124353   5.693   1.280   3.043
 7818SOL    HW224354   5.656   1.200   2.905
 7819SOL     OW24355   2.259   2.742   4.456
 7819SOL    HW124356   2.253   2.837   4.427
 7819SOL    HW224357   2.240   2.682   4.378
 7820SOL     OW24358   1.512   1.347   6.155
 7820SOL    HW124359   1.611   1.353   6.169
 7820SOL    HW224360   1.473   1.439   6.147
 7821SOL     OW24361   3.709   5.959   0.043
 7821SOL    HW124362   3.634   5.907   0.084
 7821SOL    HW224363   3.709   6.052   0.079
 7822SOL     OW24364   0.851   1.487   4.506
 7822SOL    HW124365   0.797   1.465   4.424
 7822SOL    HW224366   0.905   1.569   4.490
 7823SOL     OW24367   2.909   2.887   5.649
 7823SOL    HW124368   2.866   2.977   5.652
 7823SOL    HW224369   2.858   2.823   5.706
 7824SOL     OW24370   5.611   4.068   2.470
 7824SOL    HW124371   5.695   4.025   2.503
 7824SOL    HW224372   5.546   3.997   2.442
 7825SOL     OW24373   3.514   2.975   3.084
 7825SOL    HW124374   3.610   2.997   3.066
 7825SOL    HW224375   3.498   2.970   3.183
 7826SOL     OW24376   6.495   7.010   1.149
 7826SOL    HW124377   6.549   6.949   1.207
 7826SOL    HW224378   6.509   6.987   1.053
 7827SOL     OW24379   4.916   3.627   0.412
 7827SOL    HW124380   4.859   3.608   0.332
 7827SOL    HW224381   4.983   3.698   0.389
 7828SOL     OW24382   1.150   6.558   0.491
 7828SOL    HW124383   1.095   6.496   0.546
 7828SOL    HW224384   1.172   6.515   0.403
 7829SOL     OW24385   3.540   3.815   2.847
 7829SOL    HW124386   3.472   3.881   2.815
 7829SOL    HW224387   3.623   3.864   2.874
 7830SOL     OW24388   6.735   4.086   0.534
 7830SOL    HW124389   6.821   4.084   0.585
 7830SOL    HW224390   6.753   4.116   0.440
 7831SOL     OW24391   2.225   2.133   0.543
 7831SOL    HW124392   2.251   2.079   0.463
 7831SOL    HW224393   2.126   2.143   0.545
 7832SOL     OW24394   3.463   2.702   6.196
 7832SOL    HW124395   3.544   2.753   6.168
 7832SOL    HW224396   3.416   2.666   6.115
 7833SOL     OW24397   6.459   6.891   1.739
 7833SOL    HW124398   6.435   6.811   1.684
 7833SOL    HW224399   6.395   6.965   1.719
 7834SOL     OW24400   5.603   1.195   1.174
 7834SOL    HW124401   5.504   1.206   1.166
 7834SOL    HW224402   5.626   1.162   1.265
 7835SOL     OW24403   2.406   1.952   4.343
 7835SOL    HW124404   2.438   2.004   4.422
 7835SOL    HW224405   2.385   2.015   4.268
 7836SOL     OW24406   2.242   0.843   6.797
 7836SOL    HW124407   2.269   0.829   6.702
 7836SOL    HW224408   2.159   0.900   6.800
 7837SOL     OW24409   6.038   6.243   2.087
 7837SOL    HW124410   6.085   6.320   2.044
 7837SOL    HW224411   5.965   6.278   2.145
 7838SOL     OW24412   3.617   5.464   3.958
 7838SOL    HW124413   3.715   5.444   3.968
 7838SOL    HW224414   3.597   5.555   3.995
 7839SOL     OW24415   6.784   5.059   3.637
 7839SOL    HW124416   6.858   5.027   3.578
 7839SOL    HW224417   6.815   5.138   3.690
 7840SOL     OW24418   4.482   3.033   6.216
 7840SOL    HW124419   4.444   2.942   6.198
 7840SOL    HW224420   4.440   3.099   6.154
 7841SOL     OW24421   1.134   2.253   5.682
 7841SOL    HW124422   1.081   2.305   5.616
 7841SOL    HW224423   1.133   2.300   5.770
 7842SOL     OW24424   2.208   0.830   3.074
 7842SOL    HW124425   2.232   0.775   2.994
 7842SOL    HW224426   2.184   0.923   3.045
 7843SOL     OW24427   0.050   2.436   2.056
 7843SOL    HW124428   0.047   2.448   2.155
 7843SOL    HW224429   0.139   2.466   2.022
 7844SOL     OW24430   4.269   2.324   3.588
 7844SOL    HW124431   4.331   2.261   3.634
 7844SOL    HW224432   4.192   2.273   3.550
 7845SOL     OW24433   0.163   0.767   4.550
 7845SOL    HW124434   0.189   0.794   4.643
 7845SOL    HW224435   0.169   0.667   4.542
 7846SOL     OW24436   4.794   0.744   2.389
 7846SOL    HW124437   4.700   0.760   2.417
 7846SOL    HW224438   4.796   0.670   2.321
 7847SOL     OW24439   0.127   7.003   6.862
 7847SOL    HW124440   0.103   0.026   6.780
 7847SOL    HW224441   0.224   6.980   6.861
 7848SOL     OW24442   3.901   3.726   1.476
 7848SOL    HW124443   4.000   3.715   1.465
 7848SOL    HW224444   3.862   3.641   1.512
 7849SOL     OW24445   5.123   4.209   5.128
 7849SOL    HW124446   5.089   4.159   5.208
 7849SOL    HW224447   5.202   4.161   5.090
 7850SOL     OW24448   0.710   2.957   4.847
 7850SOL    HW124449   0.615   2.941   4.820
 7850SOL    HW224450   0.728   2.910   4.933
 7851SOL     OW24451   3.375   6.640   0.674
 7851SOL    HW124452   3.462   6.662   0.718
 7851SOL    HW224453   3.316   6.591   0.738
 7852SOL     OW24454   2.904   6.961   0.423
 7852SOL    HW124455   2.916   6.873   0.469
 7852SOL    HW224456   2.844   6.950   0.344
 7853SOL     OW24457   1.893   1.868   0.346
 7853SOL    HW124458   1.924   1.963   0.352
 7853SOL    HW224459   1.842   1.855   0.261
 7854SOL     OW24460   4.149   3.448   4.222
 7854SOL    HW124461   4.097   3.368   4.192
 7854SOL    HW224462   4.241   3.445   4.182
 7855SOL     OW24463   2.814   0.158   4.728
 7855SOL    HW124464   2.816   0.257   4.714
 7855SOL    HW224465   2.901   0.119   4.698
 7856SOL     OW24466   3.181   3.112   7.027
 7856SOL    HW124467   3.120   3.034   7.009
 7856SOL    HW224468   3.275   3.078   0.009
 7857SOL     OW24469   0.409   3.021   4.931
 7857SOL    HW124470   0.455   3.103   4.895
 7857SOL    HW224471   0.445   3.000   5.022
 7858SOL     OW24472   5.116   3.066   3.000
 7858SOL    HW124473   5.021   3.061   3.031
 7858SOL    HW224474   5.120   3.056   2.901
 7859SOL     OW24475   0.434   6.750   0.820
 7859SOL    HW124476   0.358   6.809   0.848
 7859SOL    HW224477   0.513   6.806   0.795
 7860SOL     OW24478   4.986   6.565   1.279
 7860SOL    HW124479   4.991   6.663   1.299
 7860SOL    HW224480   5.064   6.538   1.222
 7861SOL     OW24481   5.999   3.561   0.118
 7861SOL    HW124482   6.049   3.590   0.200
 7861SOL    HW224483   5.927   3.497   0.144
 7862SOL     OW24484   2.844   4.735   1.656
 7862SOL    HW124485   2.822   4.647   1.697
 7862SOL    HW224486   2.942   4.754   1.668
 7863SOL     OW24487   4.227   6.079   2.462
 7863SOL    HW124488   4.278   6.061   2.378
 7863SOL    HW224489   4.269   6.030   2.538
 7864SOL     OW24490   1.215   5.542   5.304
 7864SOL    HW124491   1.172   5.459   5.338
 7864SOL    HW224492   1.251   5.595   5.381
 7865SOL     OW24493   4.281   0.717   3.120
 7865SOL    HW124494   4.269   0.675   3.210
 7865SOL    HW224495   4.346   0.793   3.127
 7866SOL     OW24496   2.820   1.875   5.856
 7866SOL    HW124497   2.910   1.912   5.879
 7866SOL    HW224498   2.814   1.863   5.757
 7867SOL     OW24499   6.072   3.512   1.248
 7867SOL    HW124500   6.040   3.488   1.156
 7867SOL    HW224501   6.010   3.472   1.316
 7868SOL     OW24502   4.291   0.002   0.811
 7868SOL    HW124503   4.363   0.013   0.880
 7868SOL    HW224504   4.292   0.082   0.750
 7869SOL     OW24505   6.364   1.599   4.082
 7869SOL    HW124506   6.265   1.585   4.082
 7869SOL    HW224507   6.397   1.605   3.987
 7870SOL     OW24508   6.915   0.527   3.272
 7870SOL    HW124509   6.921   0.601   3.206
 7870SOL    HW224510   6.902   0.564   3.364
 7871SOL     OW24511   5.281   3.238   4.214
 7871SOL    HW124512   5.361   3.186   4.183
 7871SOL    HW224513   5.226   3.265   4.136
 7872SOL     OW24514   6.741   4.342   4.093
 7872SOL    HW124515   6.651   4.384   4.080
 7872SOL    HW224516   6.796   4.401   4.152
 7873SOL     OW24517   0.070   5.480   4.363
 7873SOL    HW124518   0.069   5.554   4.296
 7873SOL    HW224519   7.016   5.485   4.419
 7874SOL     OW24520   5.987   0.012   0.150
 7874SOL    HW124521   6.057   7.020   0.219
 7874SOL    HW224522   5.898   0.016   0.194
 7875SOL     OW24523   5.114   3.405   0.443
 7875SOL    HW124524   5.083   3.318   0.405
 7875SOL    HW224525   5.045   3.476   0.427
 7876SOL     OW24526   0.668   1.612   5.044
 7876SOL    HW124527   0.738   1.674   5.006
 7876SOL    HW224528   0.629   1.557   4.970
 7877SOL     OW24529   6.044   3.642   2.380
 7877SOL    HW124530   6.130   3.690   2.394
 7877SOL    HW224531   5.969   3.707   2.377
 7878SOL     OW24532   3.767   3.859   1.287
 7878SOL    HW124533   3.810   3.808   1.361
 7878SOL    HW224534   3.670   3.836   1.281
 7879SOL     OW24535   0.001   1.019   5.029
 7879SOL    HW124536   0.026   1.031   4.933
 7879SOL    HW224537   0.069   1.064   5.087
 7880SOL     OW24538   1.718   6.040   6.514
 7880SOL    HW124539   1.758   5.999   6.433
 7880SOL    HW224540   1.777   6.022   6.593
 7881SOL     OW24541   1.202   5.395   4.905
 7881SOL    HW124542   1.180   5.480   4.953
 7881SOL    HW224543   1.152   5.319   4.946
 7882SOL     OW24544   1.651   4.788   1.488
 7882SOL    HW124545   1.553   4.798   1.469
 7882SOL    HW224546   1.669   4.814   1.582
 7883SOL     OW24547   3.304   1.864   2.212
 7883SOL    HW124548   3.285   1.955   2.173
 7883SOL    HW224549   3.392   1.832   2.180
 7884SOL     OW24550   1.107   2.721   4.989
 7884SOL    HW124551   1.057   2.635   5.004
 7884SOL    HW224552   1.204   2.701   4.974
 7885SOL     OW24553   6.300   5.661   2.423
 7885SOL    HW124554   6.223   5.597   2.421
 7885SOL    HW224555   6.325   5.679   2.518
 7886SOL     OW24556   4.047   4.798   2.697
 7886SOL    HW124557   4.069   4.872   2.634
 7886SOL    HW224558   4.092   4.714   2.667
 7887SOL     OW24559   0.547   3.179   0.736
 7887SOL    HW124560   0.491   3.121   0.678
 7887SOL    HW224561   0.620   3.125   0.777
 7888SOL     OW24562   6.594   1.626   5.266
 7888SOL    HW124563   6.513   1.569   5.282
 7888SOL    HW224564   6.639   1.596   5.181
 7889SOL     OW24565   5.235   5.323   0.428
 7889SOL    HW124566   5.181   5.296   0.348
 7889SOL    HW224567   5.202   5.275   0.509
 7890SOL     OW24568   2.268   2.834   2.568
 7890SOL    HW124569   2.222   2.890   2.637
 7890SOL    HW224570   2.366   2.833   2.586
 7891SOL     OW24571   6.491   1.471   4.612
 7891SOL    HW124572   6.420   1.535   4.584
 7891SOL    HW224573   6.458   1.377   4.600
 7892SOL     OW24574   1.454   2.281   4.563
 7892SOL    HW124575   1.546   2.320   4.561
 7892SOL    HW224576   1.392   2.343   4.515
 7893SOL     OW24577   6.036   6.058   1.419
 7893SOL    HW124578   6.083   6.146   1.431
 7893SOL    HW224579   6.030   6.012   1.507
 7894SOL     OW24580   3.369   0.704   6.410
 7894SOL    HW124581   3.316   0.775   6.457
 7894SOL    HW224582   3.324   0.616   6.420
 7895SOL     OW24583   5.750   6.434   3.283
 7895SOL    HW124584   5.719   6.380   3.205
 7895SOL    HW224585   5.799   6.375   3.347
 7896SOL     OW24586   2.385   1.783   0.685
 7896SOL    HW124587   2.445   1.859   0.657
 7896SOL    HW224588   2.359   1.730   0.604
 7897SOL     OW24589   4.658   1.331   1.282
 7897SOL    HW124590   4.597   1.257   1.309
 7897SOL    HW224591   4.613   1.387   1.212
 7898SOL     OW24592   4.697   6.222   2.872
 7898SOL    HW124593   4.634   6.220   2.950
 7898SOL    HW224594   4.757   6.302   2.881
 7899SOL     OW24595   6.104   4.374   2.661
 7899SOL    HW124596   6.066   4.312   2.730
 7899SOL    HW224597   6.084   4.469   2.686
 7900SOL     OW24598   0.348   3.284   0.542
 7900SOL    HW124599   0.274   3.331   0.495
 7900SOL    HW224600   0.436   3.316   0.506
 7901SOL     OW24601   0.478   2.487   0.110
 7901SOL    HW124602   0.440   2.424   0.043
 7901SOL    HW224603   0.428   2.479   0.196
 7902SOL     OW24604   1.559   0.333   0.900
 7902SOL    HW124605   1.536   0.347   0.804
 7902SOL    HW224606   1.492   0.380   0.958
 7903SOL     OW24607   3.140   1.519   5.310
 7903SOL    HW124608   3.123   1.570   5.395
 7903SOL    HW224609   3.205   1.445   5.328
 7904SOL     OW24610   5.084   3.203   2.750
 7904SOL    HW124611   4.993   3.244   2.762
 7904SOL    HW224612   5.120   3.229   2.660
 7905SOL     OW24613   6.276   1.694   1.798
 7905SOL    HW124614   6.330   1.693   1.714
 7905SOL    HW224615   6.207   1.622   1.794
 7906SOL     OW24616   0.437   5.846   6.443
 7906SOL    HW124617   0.418   5.836   6.345
 7906SOL    HW224618   0.536   5.853   6.456
 7907SOL     OW24619   5.861   6.232   3.559
 7907SOL    HW124620   5.852   6.218   3.658
 7907SOL    HW224621   5.820   6.154   3.511
 7908SOL     OW24622   2.121   0.426   6.106
 7908SOL    HW124623   2.065   0.408   6.025
 7908SOL    HW224624   2.081   0.380   6.185
 7909SOL     OW24625   6.807   3.430   1.465
 7909SOL    HW124626   6.890   3.391   1.426
 7909SOL    HW224627   6.731   3.368   1.450
 7910SOL     OW24628   1.861   4.843   5.142
 7910SOL    HW124629   1.781   4.892   5.108
 7910SOL    HW224630   1.847   4.745   5.131
 7911SOL     OW24631   6.030   4.394   5.921
 7911SOL    HW124632   6.068   4.430   5.836
 7911SOL    HW224633   6.075   4.438   5.999
 7912SOL     OW24634   5.832   5.933   1.052
 7912SOL    HW124635   5.891   5.891   1.121
 7912SOL    HW224636   5.829   6.032   1.066
 7913SOL     OW24637   1.332   4.900   6.469
 7913SOL    HW124638   1.333   4.832   6.395
 7913SOL    HW224639   1.423   4.905   6.510
 7914SOL     OW24640   0.969   0.197   4.968
 7914SOL    HW124641   1.042   0.141   5.006
 7914SOL    HW224642   0.930   0.152   4.887
 7915SOL     OW24643   2.872   5.071   2.406
 7915SOL    HW124644   2.966   5.100   2.393
 7915SOL    HW224645   2.817   5.149   2.439
 7916SOL     OW24646   1.062   0.299   3.783
 7916SOL    HW124647   1.121   0.289   3.863
 7916SOL    HW224648   1.110   0.263   3.703
 7917SOL     OW24649   4.883   2.052   2.885
 7917SOL    HW124650   4.981   2.033   2.881
 7917SOL    HW224651   4.856   2.104   2.804
 7918SOL     OW24652   1.726   2.826   2.643
 7918SOL    HW124653   1.806   2.800   2.589
 7918SOL    HW224654   1.681   2.744   2.678
 7919SOL     OW24655   1.005   6.610   5.274
 7919SOL    HW124656   1.018   6.592   5.177
 7919SOL    HW224657   1.075   6.673   5.307
 7920SOL     OW24658   5.222   6.913   0.832
 7920SOL    HW124659   5.273   6.849   0.775
 7920SOL    HW224660   5.209   6.999   0.782
 7921SOL     OW24661   5.315   3.195   0.538
 7921SOL    HW124662   5.263   3.230   0.616
 7921SOL    HW224663   5.253   3.146   0.477
 7922SOL     OW24664   2.045   0.035   2.660
 7922SOL    HW124665   2.106   7.008   2.604
 7922SOL    HW224666   2.099   0.097   2.718
 7923SOL     OW24667   4.678   0.743   0.821
 7923SOL    HW124668   4.625   0.801   0.883
 7923SOL    HW224669   4.689   0.652   0.862
 7924SOL     OW24670   5.619   6.080   0.593
 7924SOL    HW124671   5.642   6.156   0.533
 7924SOL    HW224672   5.672   6.086   0.678
 7925SOL     OW24673   1.479   4.373   6.295
 7925SOL    HW124674   1.474   4.466   6.333
 7925SOL    HW224675   1.461   4.377   6.196
 7926SOL     OW24676   4.886   5.753   5.448
 7926SOL    HW124677   4.836   5.736   5.533
 7926SOL    HW224678   4.941   5.672   5.426
 7927SOL     OW24679   4.444   0.502   3.336
 7927SOL    HW124680   4.399   0.413   3.347
 7927SOL    HW224681   4.541   0.487   3.317
 7928SOL     OW24682   5.650   2.187   4.084
 7928SOL    HW124683   5.726   2.241   4.120
 7928SOL    HW224684   5.593   2.246   4.026
 7929SOL     OW24685   4.673   3.935   5.762
 7929SOL    HW124686   4.592   3.880   5.781
 7929SOL    HW224687   4.668   4.021   5.813
 7930SOL     OW24688   4.405   5.824   0.263
 7930SOL    HW124689   4.307   5.830   0.285
 7930SOL    HW224690   4.440   5.735   0.293
 7931SOL     OW24691   5.091   1.165   0.488
 7931SOL    HW124692   5.155   1.241   0.479
 7931SOL    HW224693   5.065   1.131   0.398
 7932SOL     OW24694   1.187   3.558   1.168
 7932SOL    HW124695   1.265   3.504   1.202
 7932SOL    HW224696   1.106   3.500   1.162
 7933SOL     OW24697   1.106   1.722   0.191
 7933SOL    HW124698   1.153   1.706   0.104
 7933SOL    HW224699   1.049   1.804   0.183
 7934SOL     OW24700   6.834   5.308   0.848
 7934SOL    HW124701   6.831   5.381   0.779
 7934SOL    HW224702   6.741   5.286   0.877
 7935SOL     OW24703   6.484   2.943   3.019
 7935SOL    HW124704   6.423   2.971   3.093
 7935SOL    HW224705   6.545   3.018   2.996
 7936SOL     OW24706   2.568   6.328   3.151
 7936SOL    HW124707   2.570   6.328   3.251
 7936SOL    HW224708   2.661   6.334   3.116
 7937SOL     OW24709   4.205   1.275   1.052
 7937SOL    HW124710   4.299   1.248   1.074
 7937SOL    HW224711   4.153   1.195   1.022
 7938SOL     OW24712   2.168   6.967   3.219
 7938SOL    HW124713   2.231   6.985   3.294
 7938SOL    HW224714   2.173   6.870   3.194
 7939SOL     OW24715   1.754   0.439   2.569
 7939SOL    HW124716   1.733   0.450   2.667
 7939SOL    HW224717   1.669   0.425   2.519
 7940SOL     OW24718   6.133   1.824   5.108
 7940SOL    HW124719   6.105   1.772   5.188
 7940SOL    HW224720   6.231   1.809   5.092
 7941SOL     OW24721   3.280   0.052   0.769
 7941SOL    HW124722   3.237   0.003   0.693
 7941SOL    HW224723   3.228   0.036   0.853
 7942SOL     OW24724   1.287   4.040   1.135
 7942SOL    HW124725   1.222   3.982   1.086
 7942SOL    HW224726   1.255   4.054   1.228
 7943SOL     OW24727   1.655   5.699   6.515
 7943SOL    HW124728   1.584   5.649   6.464
 7943SOL    HW224729   1.613   5.743   6.595
 7944SOL     OW24730   1.408   2.098   1.360
 7944SOL    HW124731   1.331   2.036   1.343
 7944SOL    HW224732   1.376   2.178   1.412
 7945SOL     OW24733   6.182   3.298   2.855
 7945SOL    HW124734   6.179   3.230   2.782
 7945SOL    HW224735   6.262   3.282   2.912
 7946SOL     OW24736   4.152   1.319   5.967
 7946SOL    HW124737   4.156   1.219   5.976
 7946SOL    HW224738   4.201   1.348   5.886
 7947SOL     OW24739   0.178   3.206   6.313
 7947SOL    HW124740   0.263   3.154   6.303
 7947SOL    HW224741   0.132   3.212   6.225
 7948SOL     OW24742   1.228   5.674   0.625
 7948SOL    HW124743   1.142   5.634   0.657
 7948SOL    HW224744   1.235   5.768   0.659
 7949SOL     OW24745   2.937   5.621   5.624
 7949SOL    HW124746   2.988   5.586   5.703
 7949SOL    HW224747   2.887   5.546   5.581
 7950SOL     OW24748   6.598   3.827   5.436
 7950SOL    HW124749   6.585   3.728   5.429
 7950SOL    HW224750   6.535   3.864   5.505
 7951SOL     OW24751   4.073   6.925   2.730
 7951SOL    HW124752   4.046   7.020   2.716
 7951SOL    HW224753   4.013   6.883   2.799
 7952SOL     OW24754   6.960   3.241   5.441
 7952SOL    HW124755   6.894   3.167   5.455
 7952SOL    HW224756   6.935   3.320   5.497
 7953SOL     OW24757   1.579   0.154   0.535
 7953SOL    HW124758   1.638   0.098   0.477
 7953SOL    HW224759   1.628   0.238   0.560
 7954SOL     OW24760   3.650   3.250   0.240
 7954SOL    HW124761   3.681   3.275   0.148
 7954SOL    HW224762   3.659   3.151   0.252
 7955SOL     OW24763   0.273   1.081   6.933
 7955SOL    HW124764   0.236   0.991   6.906
 7955SOL    HW224765   0.372   1.075   6.942
 7956SOL     OW24766   0.438   0.307   0.487
 7956SOL    HW124767   0.410   0.403   0.478
 7956SOL    HW224768   0.418   0.275   0.579
 7957SOL     OW24769   5.372   1.313   5.741
 7957SOL    HW124770   5.304   1.299   5.669
 7957SOL    HW224771   5.348   1.258   5.821
 7958SOL     OW24772   4.911   2.250   6.805
 7958SOL    HW124773   4.912   2.166   6.750
 7958SOL    HW224774   4.937   2.327   6.748
 7959SOL     OW24775   4.730   3.002   7.023
 7959SOL    HW124776   4.751   2.993   6.926
 7959SOL    HW224777   4.783   3.078   0.034
 7960SOL     OW24778   1.119   1.772   5.082
 7960SOL    HW124779   1.059   1.796   5.159
 7960SOL    HW224780   1.181   1.848   5.064
 7961SOL     OW24781   6.068   0.640   0.232
 7961SOL    HW124782   6.049   0.728   0.189
 7961SOL    HW224783   6.155   0.604   0.198
 7962SOL     OW24784   5.912   6.591   4.679
 7962SOL    HW124785   5.877   6.557   4.766
 7962SOL    HW224786   5.863   6.674   4.653
 7963SOL     OW24787   5.764   6.006   2.953
 7963SOL    HW124788   5.772   6.103   2.928
 7963SOL    HW224789   5.807   5.950   2.882
 7964SOL     OW24790   6.759   3.679   1.560
 7964SOL    HW124791   6.798   3.589   1.546
 7964SOL    HW224792   6.675   3.672   1.614
 7965SOL     OW24793   4.745   1.907   6.310
 7965SOL    HW124794   4.829   1.860   6.283
 7965SOL    HW224795   4.704   1.859   6.388
 7966SOL     OW24796   5.910   3.302   5.107
 7966SOL    HW124797   5.903   3.237   5.183
 7966SOL    HW224798   5.894   3.395   5.141
 7967SOL     OW24799   1.762   4.214   1.285
 7967SOL    HW124800   1.790   4.141   1.222
 7967SOL    HW224801   1.824   4.215   1.364
 7968SOL     OW24802   2.296   2.860   3.709
 7968SOL    HW124803   2.337   2.846   3.799
 7968SOL    HW224804   2.288   2.958   3.691
 7969SOL     OW24805   3.193   4.600   6.343
 7969SOL    HW124806   3.240   4.688   6.339
 7969SOL    HW224807   3.261   4.527   6.353
 7970SOL     OW24808   6.156   3.044   3.686
 7970SOL    HW124809   6.151   3.007   3.593
 7970SOL    HW224810   6.244   3.021   3.726
 7971SOL     OW24811   3.535   0.834   6.763
 7971SOL    HW124812   3.461   0.861   6.702
 7971SOL    HW224813   3.536   0.894   6.844
 7972SOL     OW24814   4.128   3.413   4.478
 7972SOL    HW124815   4.137   3.509   4.504
 7972SOL    HW224816   4.147   3.403   4.381
 7973SOL     OW24817   0.169   5.131   2.133
 7973SOL    HW124818   0.124   5.168   2.051
 7973SOL    HW224819   0.235   5.062   2.106
 7974SOL     OW24820   0.753   3.476   5.018
 7974SOL    HW124821   0.660   3.443   5.029
 7974SOL    HW224822   0.810   3.403   4.980
 7975SOL     OW24823   4.230   6.970   6.870
 7975SOL    HW124824   4.240   0.041   6.867
 7975SOL    HW224825   4.291   6.932   6.939
 7976SOL     OW24826   0.893   0.448   0.551
 7976SOL    HW124827   0.917   0.388   0.474
 7976SOL    HW224828   0.811   0.414   0.596
 7977SOL     OW24829   4.814   5.500   2.491
 7977SOL    HW124830   4.877   5.449   2.432
 7977SOL    HW224831   4.753   5.555   2.433
 7978SOL     OW24832   0.225   4.169   1.675
 7978SOL    HW124833   0.280   4.115   1.739
 7978SOL    HW224834   0.151   4.113   1.640
 7979SOL     OW24835   2.913   2.184   5.333
 7979SOL    HW124836   2.913   2.274   5.289
 7979SOL    HW224837   2.826   2.138   5.314
 7980SOL     OW24838   3.550   5.393   1.950
 7980SOL    HW124839   3.630   5.361   2.000
 7980SOL    HW224840   3.520   5.321   1.887
 7981SOL     OW24841   1.549   3.315   4.744
 7981SOL    HW124842   1.462   3.354   4.775
 7981SOL    HW224843   1.624   3.375   4.772
 7982SOL     OW24844   6.629   0.633   0.241
 7982SOL    HW124845   6.612   0.665   0.334
 7982SOL    HW224846   6.607   0.705   0.176
 7983SOL     OW24847   3.494   1.186   1.800
 7983SOL    HW124848   3.496   1.127   1.719
 7983SOL    HW224849   3.402   1.225   1.810
 7984SOL     OW24850   6.313   2.689   3.094
 7984SOL    HW124851   6.254   2.760   3.056
 7984SOL    HW224852   6.399   2.730   3.124
 7985SOL     OW24853   3.033   3.495   5.430
 7985SOL    HW124854   3.044   3.564   5.502
 7985SOL    HW224855   3.112   3.435   5.429
 7986SOL     OW24856   3.485   0.720   3.828
 7986SOL    HW124857   3.534   0.805   3.848
 7986SOL    HW224858   3.396   0.722   3.873
 7987SOL     OW24859   1.164   3.029   6.343
 7987SOL    HW124860   1.100   3.048   6.269
 7987SOL    HW224861   1.120   2.971   6.411
 7988SOL     OW24862   6.352   0.846   1.425
 7988SOL    HW124863   6.331   0.750   1.406
 7988SOL    HW224864   6.334   0.901   1.344
 7989SOL     OW24865   0.514   4.722   1.887
 7989SOL    HW124866   0.541   4.806   1.935
 7989SOL    HW224867   0.438   4.742   1.825
 7990SOL     OW24868   4.007   5.209   4.881
 7990SOL    HW124869   3.975   5.201   4.975
 7990SOL    HW224870   4.020   5.117   4.842
 7991SOL     OW24871   5.199   0.694   4.533
 7991SOL    HW124872   5.204   0.690   4.633
 7991SOL    HW224873   5.292   0.696   4.495
 7992SOL     OW24874   2.186   0.822   0.057
 7992SOL    HW124875   2.220   0.806   6.992
 7992SOL    HW224876   2.155   0.735   0.096
 7993SOL     OW24877   6.297   6.441   0.712
 7993SOL    HW124878   6.224   6.490   0.759
 7993SOL    HW224879   6.385   6.485   0.730
 7994SOL     OW24880   0.428   1.074   4.856
 7994SOL    HW124881   0.375   0.989   4.857
 7994SOL    HW224882   0.437   1.106   4.761
 7995SOL     OW24883   0.627   5.723   1.670
 7995SOL    HW124884   0.719   5.738   1.708
 7995SOL    HW224885   0.559   5.739   1.742
 7996SOL     OW24886   2.342   6.855   3.712
 7996SOL    HW124887   2.438   6.877   3.701
 7996SOL    HW224888   2.316   6.863   3.808
 7997SOL     OW24889   2.490   1.566   5.787
 7997SOL    HW124890   2.464   1.553   5.883
 7997SOL    HW224891   2.427   1.631   5.744
 7998SOL     OW24892   1.826   0.933   1.434
 7998SOL    HW124893   1.892   0.940   1.509
 7998SOL    HW224894   1.789   1.023   1.414
 7999SOL     OW24895   0.325   0.600   2.812
 7999SOL    HW124896   0.386   0.675   2.788
 7999SOL    HW224897   0.245   0.636   2.859
 8000SOL     OW24898   4.126   5.752   0.726
 8000SOL    HW124899   4.140   5.792   0.636
 8000SOL    HW224900   4.152   5.655   0.724
 8001SOL     OW24901   5.403   4.183   1.818
 8001SOL    HW124902   5.431   4.224   1.731
 8001SOL    HW224903   5.322   4.230   1.853
 8002SOL     OW24904   1.109   0.568   4.782
 8002SOL    HW124905   1.187   0.513   4.750
 8002SOL    HW224906   1.140   0.662   4.799
 8003SOL     OW24907   2.480   5.499   3.221
 8003SOL    HW124908   2.445   5.578   3.271
 8003SOL    HW224909   2.578   5.489   3.239
 8004SOL     OW24910   1.972   3.426   4.060
 8004SOL    HW124911   2.044   3.431   3.991
 8004SOL    HW224912   2.007   3.462   4.147
 8005SOL     OW24913   2.990   7.027   4.337
 8005SOL    HW124914   3.058   6.958   4.313
 8005SOL    HW224915   2.918   6.985   4.393
 8006SOL     OW24916   4.544   5.444   6.023
 8006SOL    HW124917   4.491   5.369   6.062
 8006SOL    HW224918   4.634   5.410   5.994
 8007SOL     OW24919   6.697   0.548   1.220
 8007SOL    HW124920   6.692   0.636   1.267
 8007SOL    HW224921   6.712   0.563   1.122
 8008SOL     OW24922   4.958   4.716   0.751
 8008SOL    HW124923   4.906   4.671   0.678
 8008SOL    HW224924   5.020   4.650   0.793
 8009SOL     OW24925   6.956   1.213   1.784
 8009SOL    HW124926   6.948   1.114   1.772
 8009SOL    HW224927   0.011   1.245   1.739
 8010SOL     OW24928   3.172   0.485   6.010
 8010SOL    HW124929   3.265   0.460   6.036
 8010SOL    HW224930   3.111   0.472   6.088
 8011SOL     OW24931   3.778   2.152   2.682
 8011SOL    HW124932   3.690   2.104   2.677
 8011SOL    HW224933   3.826   2.143   2.595
 8012SOL     OW24934   6.368   0.728   4.914
 8012SOL    HW124935   6.287   0.683   4.951
 8012SOL    HW224936   6.445   0.664   4.914
 8013SOL     OW24937   3.715   0.100   3.266
 8013SOL    HW124938   3.785   0.147   3.213
 8013SOL    HW224939   3.711   0.139   3.358
 8014SOL     OW24940   2.420   2.798   3.415
 8014SOL    HW124941   2.362   2.862   3.365
 8014SOL    HW224942   2.376   2.772   3.501
 8015SOL     OW24943   3.194   6.356   4.636
 8015SOL    HW124944   3.163   6.308   4.718
 8015SOL    HW224945   3.274   6.310   4.598
 8016SOL     OW24946   3.331   2.763   5.634
 8016SOL    HW124947   3.357   2.704   5.710
 8016SOL    HW224948   3.260   2.827   5.665
 8017SOL     OW24949   5.793   6.433   1.430
 8017SOL    HW124950   5.833   6.508   1.377
 8017SOL    HW224951   5.704   6.460   1.465
 8018SOL     OW24952   2.979   3.314   0.778
 8018SOL    HW124953   2.908   3.364   0.729
 8018SOL    HW224954   3.039   3.378   0.826
 8019SOL     OW24955   2.638   3.619   0.765
 8019SOL    HW124956   2.553   3.636   0.716
 8019SOL    HW224957   2.627   3.644   0.862
 8020SOL     OW24958   0.272   0.273   0.034
 8020SOL    HW124959   0.322   0.246   0.116
 8020SOL    HW224960   0.282   0.202   6.992
 8021SOL     OW24961   0.734   3.366   0.583
 8021SOL    HW124962   0.682   3.376   0.498
 8021SOL    HW224963   0.672   3.378   0.661
 8022SOL     OW24964   4.364   0.364   2.170
 8022SOL    HW124965   4.395   0.453   2.204
 8022SOL    HW224966   4.443   0.304   2.155
 8023SOL     OW24967   3.890   5.148   2.297
 8023SOL    HW124968   3.943   5.063   2.293
 8023SOL    HW224969   3.949   5.223   2.327
 8024SOL     OW24970   2.414   0.991   6.231
 8024SOL    HW124971   2.457   1.020   6.316
 8024SOL    HW224972   2.431   1.059   6.160
 8025SOL     OW24973   0.977   6.662   1.409
 8025SOL    HW124974   1.031   6.628   1.331
 8025SOL    HW224975   0.977   6.593   1.481
 8026SOL     OW24976   0.534   6.860   6.288
 8026SOL    HW124977   0.478   6.939   6.261
 8026SOL    HW224978   0.585   6.883   6.371
 8027SOL     OW24979   4.765   0.189   6.351
 8027SOL    HW124980   4.778   0.129   6.272
 8027SOL    HW224981   4.788   0.139   6.435
 8028SOL     OW24982   3.930   6.024   6.389
 8028SOL    HW124983   3.905   6.114   6.354
 8028SOL    HW224984   3.986   5.976   6.322
 8029SOL     OW24985   0.546   6.982   1.838
 8029SOL    HW124986   0.558   6.883   1.846
 8029SOL    HW224987   0.575   7.027   1.923
 8030SOL     OW24988   0.535   4.208   1.304
 8030SOL    HW124989   0.521   4.173   1.397
 8030SOL    HW224990   0.591   4.291   1.307
 8031SOL     OW24991   6.724   0.531   3.003
 8031SOL    HW124992   6.789   0.565   3.071
 8031SOL    HW224993   6.735   0.432   2.993
 8032SOL     OW24994   0.441   2.904   1.020
 8032SOL    HW124995   0.508   2.889   0.948
 8032SOL    HW224996   0.353   2.930   0.979
 8033SOL     OW24997   3.518   4.510   1.380
 8033SOL    HW124998   3.479   4.530   1.470
 8033SOL    HW224999   3.563   4.592   1.344
 8034SOL     OW25000   0.749   0.643   5.589
 8034SOL    HW125001   0.787   0.553   5.613
 8034SOL    HW225002   0.675   0.665   5.653
 8035SOL     OW25003   5.912   0.071   4.551
 8035SOL    HW125004   5.908   0.132   4.471
 8035SOL    HW225005   5.980   7.027   4.534
 8036SOL     OW25006   4.927   4.153   3.746
 8036SOL    HW125007   4.942   4.125   3.651
 8036SOL    HW225008   4.960   4.081   3.807
 8037SOL     OW25009   2.609   1.775   6.170
 8037SOL    HW125010   2.643   1.681   6.171
 8037SOL    HW225011   2.678   1.835   6.210
 8038SOL     OW25012   6.534   5.560   1.881
 8038SOL    HW125013   6.630   5.588   1.878
 8038SOL    HW225014   6.525   5.468   1.844
 8039SOL     OW25015   2.145   2.568   4.948
 8039SOL    HW125016   2.219   2.635   4.952
 8039SOL    HW225017   2.109   2.553   5.040
 8040SOL     OW25018   1.025   6.403   5.896
 8040SOL    HW125019   1.032   6.310   5.930
 8040SOL    HW225020   1.109   6.453   5.917
 8041SOL     OW25021   2.893   1.332   2.748
 8041SOL    HW125022   2.985   1.369   2.760
 8041SOL    HW225023   2.859   1.297   2.835
 8042SOL     OW25024   3.835   3.915   5.946
 8042SOL    HW125025   3.796   3.997   5.987
 8042SOL    HW225026   3.799   3.834   5.993
 8043SOL     OW25027   5.141   4.889   6.927
 8043SOL    HW125028   5.234   4.858   6.904
 8043SOL    HW225029   5.143   4.987   6.947
 8044SOL     OW25030   1.009   3.036   1.631
 8044SOL    HW125031   1.067   3.021   1.551
 8044SOL    HW225032   1.002   3.134   1.649
 8045SOL     OW25033   6.004   3.581   5.132
 8045SOL    HW125034   5.952   3.630   5.061
 8045SOL    HW225035   6.063   3.645   5.180
 8046SOL     OW25036   0.373   3.956   0.859
 8046SOL    HW125037   0.336   3.870   0.894
 8046SOL    HW225038   0.336   4.032   0.913
 8047SOL     OW25039   3.252   6.630   6.842
 8047SOL    HW125040   3.193   6.693   6.892
 8047SOL    HW225041   3.202   6.592   6.764
 8048SOL     OW25042   4.383   1.657   6.891
 8048SOL    HW125043   4.342   1.603   6.964
 8048SOL    HW225044   4.318   1.726   6.860
 8049SOL     OW25045   1.938   1.415   1.341
 8049SOL    HW125046   1.892   1.471   1.272
 8049SOL    HW225047   1.989   1.342   1.295
 8050SOL     OW25048   0.064   5.571   5.936
 8050SOL    HW125049   0.061   5.648   5.873
 8050SOL    HW225050   0.109   5.600   6.021
 8051SOL     OW25051   4.330   6.395   2.540
 8051SOL    HW125052   4.396   6.345   2.596
 8051SOL    HW225053   4.296   6.336   2.467
 8052SOL     OW25054   3.135   1.389   3.097
 8052SOL    HW125055   3.123   1.484   3.069
 8052SOL    HW225056   3.135   1.383   3.197
 8053SOL     OW25057   0.736   2.458   6.111
 8053SOL    HW125058   0.729   2.433   6.014
 8053SOL    HW225059   0.696   2.386   6.167
 8054SOL     OW25060   5.083   3.631   5.304
 8054SOL    HW125061   5.133   3.582   5.375
 8054SOL    HW225062   5.147   3.678   5.244
 8055SOL     OW25063   6.455   0.100   0.019
 8055SOL    HW125064   6.522   0.120   0.090
 8055SOL    HW225065   6.495   0.117   6.957
 8056SOL     OW25066   2.539   2.144   3.623
 8056SOL    HW125067   2.526   2.047   3.603
 8056SOL    HW225068   2.483   2.199   3.561
 8057SOL     OW25069   3.030   2.129   1.913
 8057SOL    HW125070   3.097   2.156   1.844
 8057SOL    HW225071   2.976   2.209   1.940
 8058SOL     OW25072   3.948   6.319   1.664
 8058SOL    HW125073   3.871   6.351   1.721
 8058SOL    HW225074   3.928   6.226   1.631
 8059SOL     OW25075   3.963   2.964   5.795
 8059SOL    HW125076   3.911   3.047   5.777
 8059SOL    HW225077   3.961   2.905   5.715
 8060SOL     OW25078   0.523   1.160   5.397
 8060SOL    HW125079   0.562   1.078   5.439
 8060SOL    HW225080   0.575   1.240   5.426
 8061SOL     OW25081   6.954   0.979   1.669
 8061SOL    HW125082   6.961   0.969   1.570
 8061SOL    HW225083   7.006   0.906   1.713
 8062SOL     OW25084   4.204   5.069   5.916
 8062SOL    HW125085   4.147   5.078   5.834
 8062SOL    HW225086   4.252   4.981   5.914
 8063SOL     OW25087   2.257   4.799   3.277
 8063SOL    HW125088   2.212   4.741   3.344
 8063SOL    HW225089   2.263   4.893   3.313
 8064SOL     OW25090   6.994   2.934   0.991
 8064SOL    HW125091   0.044   2.950   0.931
 8064SOL    HW225092   6.951   2.847   0.967
 8065SOL     OW25093   4.825   0.040   6.599
 8065SOL    HW125094   4.881   0.092   6.664
 8065SOL    HW225095   4.880   6.996   6.558
 8066SOL     OW25096   0.267   0.487   5.720
 8066SOL    HW125097   0.238   0.393   5.737
 8066SOL    HW225098   0.292   0.497   5.624
 8067SOL     OW25099   4.926   0.793   4.259
 8067SOL    HW125100   4.976   0.879   4.267
 8067SOL    HW225101   4.984   0.718   4.289
 8068SOL     OW25102   6.480   4.486   1.548
 8068SOL    HW125103   6.549   4.492   1.477
 8068SOL    HW225104   6.503   4.412   1.611
 8069SOL     OW25105   1.647   2.616   2.452
 8069SOL    HW125106   1.568   2.572   2.411
 8069SOL    HW225107   1.649   2.598   2.550
 8070SOL     OW25108   5.052   3.892   1.692
 8070SOL    HW125109   5.063   3.900   1.593
 8070SOL    HW225110   5.085   3.802   1.722
 8071SOL     OW25111   2.881   0.474   5.932
 8071SOL    HW125112   2.875   0.457   5.834
 8071SOL    HW225113   2.977   0.480   5.960
 8072SOL     OW25114   2.462   2.051   5.617
 8072SOL    HW125115   2.416   2.067   5.704
 8072SOL    HW225116   2.546   2.105   5.614
 8073SOL     OW25117   5.560   0.261   6.454
 8073SOL    HW125118   5.536   0.297   6.544
 8073SOL    HW225119   5.555   0.161   6.455
 8074SOL     OW25120   6.182   0.890   0.805
 8074SOL    HW125121   6.082   0.889   0.797
 8074SOL    HW225122   6.213   0.984   0.820
 8075SOL     OW25123   0.459   0.562   1.371
 8075SOL    HW125124   0.506   0.478   1.399
 8075SOL    HW225125   0.527   0.632   1.349
 8076SOL     OW25126   6.399   6.033   0.609
 8076SOL    HW125127   6.421   6.076   0.697
 8076SOL    HW225128   6.477   5.977   0.579
 8077SOL     OW25129   5.742   4.227   0.828
 8077SOL    HW125130   5.693   4.150   0.868
 8077SOL    HW225131   5.730   4.308   0.886
 8078SOL     OW25132   6.425   1.336   2.098
 8078SOL    HW125133   6.391   1.402   2.165
 8078SOL    HW225134   6.520   1.312   2.120
 8079SOL     OW25135   0.443   0.895   0.178
 8079SOL    HW125136   0.477   0.801   0.182
 8079SOL    HW225137   0.500   0.948   0.115
 8080SOL     OW25138   1.026   4.049   4.001
 8080SOL    HW125139   1.078   4.064   3.917
 8080SOL    HW225140   0.932   4.025   3.978
 8081SOL     OW25141   6.045   0.601   5.544
 8081SOL    HW125142   5.962   0.566   5.500
 8081SOL    HW225143   6.047   0.570   5.639
 8082SOL     OW25144   4.418   2.429   4.823
 8082SOL    HW125145   4.335   2.375   4.841
 8082SOL    HW225146   4.438   2.488   4.901
 8083SOL     OW25147   6.523   2.859   4.242
 8083SOL    HW125148   6.476   2.911   4.313
 8083SOL    HW225149   6.557   2.922   4.172
 8084SOL     OW25150   5.133   1.838   6.595
 8084SOL    HW125151   5.138   1.906   6.521
 8084SOL    HW225152   5.214   1.779   6.591
 8085SOL     OW25153   1.540   6.174   4.093
 8085SOL    HW125154   1.498   6.256   4.054
 8085SOL    HW225155   1.530   6.098   4.028
 8086SOL     OW25156   0.054   2.491   2.336
 8086SOL    HW125157   0.048   2.394   2.356
 8086SOL    HW225158   6.991   2.533   2.345
 8087SOL     OW25159   6.596   0.893   6.682
 8087SOL    HW125160   6.651   0.866   6.603
 8087SOL    HW225161   6.654   0.938   6.749
 8088SOL     OW25162   0.569   6.710   5.410
 8088SOL    HW125163   0.568   6.742   5.315
 8088SOL    HW225164   0.486   6.657   5.428
 8089SOL     OW25165   6.320   1.468   6.954
 8089SOL    HW125166   6.225   1.448   6.930
 8089SOL    HW225167   6.325   1.494   0.023
 8090SOL     OW25168   4.429   2.380   5.156
 8090SOL    HW125169   4.494   2.455   5.145
 8090SOL    HW225170   4.335   2.415   5.147
 8091SOL     OW25171   0.440   3.762   4.909
 8091SOL    HW125172   0.526   3.782   4.863
 8091SOL    HW225173   0.372   3.830   4.884
 8092SOL     OW25174   4.652   0.265   5.789
 8092SOL    HW125175   4.553   0.252   5.784
 8092SOL    HW225176   4.673   0.341   5.851
 8093SOL     OW25177   2.955   6.611   3.561
 8093SOL    HW125178   2.891   6.629   3.636
 8093SOL    HW225179   3.034   6.673   3.569
 8094SOL     OW25180   2.000   4.017   4.323
 8094SOL    HW125181   2.052   4.100   4.345
 8094SOL    HW225182   1.906   4.027   4.357
 8095SOL     OW25183   1.154   5.633   5.063
 8095SOL    HW125184   1.194   5.721   5.039
 8095SOL    HW225185   1.193   5.600   5.149
 8096SOL     OW25186   0.608   4.904   1.016
 8096SOL    HW125187   0.591   4.904   0.918
 8096SOL    HW225188   0.570   4.987   1.057
 8097SOL     OW25189   4.704   6.331   0.169
 8097SOL    HW125190   4.751   6.418   0.181
 8097SOL    HW225191   4.739   6.264   0.235
 8098SOL     OW25192   2.686   5.941   4.741
 8098SOL    HW125193   2.660   5.845   4.732
 8098SOL    HW225194   2.761   5.961   4.677
 8099SOL     OW25195   2.326   4.172   2.658
 8099SOL    HW125196   2.385   4.094   2.679
 8099SOL    HW225197   2.380   4.256   2.658
 8100SOL     OW25198   0.110   0.065   0.459
 8100SOL    HW125199   0.118   0.162   0.437
 8100SOL    HW225200   0.029   0.027   0.414
 8101SOL     OW25201   2.037   5.612   0.485
 8101SOL    HW125202   1.986   5.680   0.537
 8101SOL    HW225203   2.066   5.652   0.398
 8102SOL     OW25204   0.872   4.535   4.339
 8102SOL    HW125205   0.956   4.499   4.298
 8102SOL    HW225206   0.835   4.469   4.405
 8103SOL     OW25207   4.475   0.789   1.513
 8103SOL    HW125208   4.537   0.867   1.525
 8103SOL    HW225209   4.406   0.790   1.585
 8104SOL     OW25210   0.922   5.482   6.689
 8104SOL    HW125211   0.858   5.540   6.740
 8104SOL    HW225212   0.938   5.398   6.739
 8105SOL     OW25213   6.983   6.870   3.194
 8105SOL    HW125214   6.941   6.796   3.140
 8105SOL    HW225215   6.941   6.874   3.284
 8106SOL     OW25216   2.801   6.713   6.407
 8106SOL    HW125217   2.756   6.802   6.396
 8106SOL    HW225218   2.735   6.648   6.445
 8107SOL     OW25219   0.965   6.703   0.134
 8107SOL    HW125220   0.913   6.768   0.079
 8107SOL    HW225221   1.053   6.744   0.159
 8108SOL     OW25222   1.734   1.353   0.582
 8108SOL    HW125223   1.825   1.368   0.621
 8108SOL    HW225224   1.714   1.425   0.516
 8109SOL     OW25225   0.266   3.616   2.302
 8109SOL    HW125226   0.211   3.672   2.241
 8109SOL    HW225227   0.259   3.520   2.275
 8110SOL     OW25228   4.401   4.397   0.540
 8110SOL    HW125229   4.481   4.339   0.526
 8110SOL    HW225230   4.329   4.370   0.476
 8111SOL     OW25231   5.894   1.755   2.258
 8111SOL    HW125232   5.861   1.848   2.276
 8111SOL    HW225233   5.985   1.759   2.216
 8112SOL     OW25234   1.997   5.123   6.204
 8112SOL    HW125235   1.917   5.080   6.163
 8112SOL    HW225236   2.077   5.110   6.145
 8113SOL     OW25237   4.838   5.068   6.540
 8113SOL    HW125238   4.875   5.069   6.447
 8113SOL    HW225239   4.910   5.042   6.604
 8114SOL     OW25240   2.092   3.515   2.851
 8114SOL    HW125241   2.129   3.539   2.761
 8114SOL    HW225242   2.094   3.596   2.910
 8115SOL     OW25243   2.167   1.905   6.262
 8115SOL    HW125244   2.168   1.979   6.195
 8115SOL    HW225245   2.252   1.906   6.315
 8116SOL     OW25246   4.100   3.170   2.172
 8116SOL    HW125247   4.184   3.116   2.166
 8116SOL    HW225248   4.101   3.241   2.102
 8117SOL     OW25249   1.420   0.064   4.174
 8117SOL    HW125250   1.388   0.042   4.082
 8117SOL    HW225251   1.520   0.063   4.175
 8118SOL     OW25252   6.444   2.496   6.846
 8118SOL    HW125253   6.446   2.438   6.764
 8118SOL    HW225254   6.349   2.520   6.868
 8119SOL     OW25255   4.939   5.631   6.298
 8119SOL    HW125256   4.937   5.617   6.199
 8119SOL    HW225257   4.992   5.558   6.341
 8120SOL     OW25258   2.345   6.317   2.729
 8120SOL    HW125259   2.328   6.233   2.677
 8120SOL    HW225260   2.260   6.371   2.733
 8121SOL     OW25261   2.444   2.564   2.661
 8121SOL    HW125262   2.364   2.542   2.605
 8121SOL    HW225263   2.417   2.624   2.736
 8122SOL     OW25264   0.766   4.716   1.366
 8122SOL    HW125265   0.778   4.794   1.305
 8122SOL    HW225266   0.855   4.675   1.386
 8123SOL     OW25267   6.938   1.680   6.630
 8123SOL    HW125268   6.957   1.696   6.533
 8123SOL    HW225269   6.845   1.711   6.650
 8124SOL     OW25270   6.657   6.331   5.374
 8124SOL    HW125271   6.650   6.385   5.458
 8124SOL    HW225272   6.579   6.269   5.367
 8125SOL     OW25273   1.189   5.976   1.864
 8125SOL    HW125274   1.118   6.023   1.811
 8125SOL    HW225275   1.278   6.016   1.842
 8126SOL     OW25276   3.514   5.597   4.658
 8126SOL    HW125277   3.562   5.509   4.650
 8126SOL    HW225278   3.429   5.593   4.605
 8127SOL     OW25279   3.688   1.642   6.178
 8127SOL    HW125280   3.681   1.713   6.247
 8127SOL    HW225281   3.784   1.632   6.150
 8128SOL     OW25282   3.170   3.453   1.204
 8128SOL    HW125283   3.264   3.448   1.238
 8128SOL    HW225284   3.122   3.368   1.228
 8129SOL     OW25285   0.380   2.491   3.785
 8129SOL    HW125286   0.368   2.392   3.789
 8129SOL    HW225287   0.462   2.513   3.731
 8130SOL     OW25288   6.999   6.136   6.964
 8130SOL    HW125289   6.994   6.053   6.907
 8130SOL    HW225290   7.017   6.215   6.906
 8131SOL     OW25291   1.692   2.295   1.256
 8131SOL    HW125292   1.690   2.198   1.229
 8131SOL    HW225293   1.642   2.307   1.341
 8132SOL     OW25294   6.313   1.672   4.472
 8132SOL    HW125295   6.278   1.688   4.564
 8132SOL    HW225296   6.240   1.636   4.415
 8133SOL     OW25297   3.585   5.192   1.536
 8133SOL    HW125298   3.625   5.196   1.628
 8133SOL    HW225299   3.486   5.209   1.543
 8134SOL     OW25300   5.948   2.392   6.024
 8134SOL    HW125301   5.869   2.406   5.965
 8134SOL    HW225302   5.952   2.296   6.053
 8135SOL     OW25303   2.462   6.129   1.933
 8135SOL    HW125304   2.373   6.173   1.940
 8135SOL    HW225305   2.528   6.175   1.993
 8136SOL     OW25306   4.675   4.732   2.520
 8136SOL    HW125307   4.595   4.784   2.550
 8136SOL    HW225308   4.651   4.635   2.512
 8137SOL     OW25309   4.611   1.285   6.265
 8137SOL    HW125310   4.575   1.377   6.283
 8137SOL    HW225311   4.653   1.283   6.174
 8138SOL     OW25312   5.638   0.969   2.293
 8138SOL    HW125313   5.588   0.892   2.332
 8138SOL    HW225314   5.628   0.968   2.193
 8139SOL     OW25315   0.507   1.320   3.974
 8139SOL    HW125316   0.460   1.341   3.888
 8139SOL    HW225317   0.439   1.307   4.047
 8140SOL     OW25318   5.098   2.687   3.350
 8140SOL    HW125319   5.135   2.608   3.302
 8140SOL    HW225320   5.173   2.745   3.382
 8141SOL     OW25321   6.224   3.629   3.691
 8141SOL    HW125322   6.160   3.632   3.614
 8141SOL    HW225323   6.302   3.571   3.668
 8142SOL     OW25324   7.018   6.688   0.192
 8142SOL    HW125325   0.008   6.592   0.210
 8142SOL    HW225326   7.005   6.702   0.094
 8143SOL     OW25327   6.287   2.973   5.335
 8143SOL    HW125328   6.273   2.876   5.317
 8143SOL    HW225329   6.247   3.027   5.261
 8144SOL     OW25330   4.889   6.270   6.924
 8144SOL    HW125331   4.853   6.338   6.860
 8144SOL    HW225332   4.820   6.199   6.939
 8145SOL     OW25333   4.339   6.444   3.426
 8145SOL    HW125334   4.374   6.476   3.338
 8145SOL    HW225335   4.408   6.386   3.470
 8146SOL     OW25336   3.672   1.759   4.213
 8146SOL    HW125337   3.690   1.699   4.135
 8146SOL    HW225338   3.574   1.757   4.234
 8147SOL     OW25339   5.253   1.209   3.422
 8147SOL    HW125340   5.165   1.161   3.419
 8147SOL    HW225341   5.240   1.303   3.391
 8148SOL     OW25342   0.115   4.508   3.294
 8148SOL    HW125343   0.055   4.450   3.348
 8148SOL    HW225344   0.108   4.483   3.197
 8149SOL     OW25345   3.531   5.377   3.720
 8149SOL    HW125346   3.556   5.451   3.658
 8149SOL    HW225347   3.549   5.405   3.814
 8150SOL     OW25348   1.246   6.594   0.971
 8150SOL    HW125349   1.277   6.520   0.911
 8150SOL    HW225350   1.234   6.678   0.918
 8151SOL     OW25351   0.504   1.354   4.641
 8151SOL    HW125352   0.522   1.299   4.560
 8151SOL    HW225353   0.497   1.451   4.616
 8152SOL     OW25354   0.848   0.605   3.562
 8152SOL    HW125355   0.895   0.683   3.523
 8152SOL    HW225356   0.892   0.578   3.647
 8153SOL     OW25357   1.997   6.853   0.242
 8153SOL    HW125358   2.053   6.788   0.191
 8153SOL    HW225359   1.998   6.829   0.339
 8154SOL     OW25360   2.074   6.457   2.956
 8154SOL    HW125361   2.161   6.443   3.004
 8154SOL    HW225362   2.010   6.385   2.983
 8155SOL     OW25363   3.036   3.771   4.865
 8155SOL    HW125364   3.016   3.867   4.881
 8155SOL    HW225365   3.010   3.746   4.772
 8156SOL     OW25366   0.417   0.124   5.297
 8156SOL    HW125367   0.487   0.115   5.368
 8156SOL    HW225368   0.357   0.044   5.298
 8157SOL     OW25369   5.688   1.967   6.764
 8157SOL    HW125370   5.738   2.036   6.710
 8157SOL    HW225371   5.611   2.010   6.811
 8158SOL     OW25372   1.440   5.431   2.681
 8158SOL    HW125373   1.386   5.362   2.731
 8158SOL    HW225374   1.378   5.501   2.645
 8159SOL     OW25375   0.464   5.738   0.657
 8159SOL    HW125376   0.510   5.703   0.738
 8159SOL    HW225377   0.407   5.816   0.683
 8160SOL     OW25378   4.420   1.908   1.771
 8160SOL    HW125379   4.389   1.889   1.865
 8160SOL    HW225380   4.519   1.923   1.771
 8161SOL     OW25381   4.275   3.203   1.170
 8161SOL    HW125382   4.203   3.140   1.201
 8161SOL    HW225383   4.321   3.242   1.250
 8162SOL     OW25384   6.206   0.936   2.302
 8162SOL    HW125385   6.115   0.916   2.266
 8162SOL    HW225386   6.252   0.851   2.326
 8163SOL     OW25387   2.034   2.887   5.667
 8163SOL    HW125388   1.948   2.885   5.616
 8163SOL    HW225389   2.077   2.977   5.657
 8164SOL     OW25390   4.777   3.608   1.744
 8164SOL    HW125391   4.753   3.705   1.740
 8164SOL    HW225392   4.698   3.553   1.716
 8165SOL     OW25393   1.783   4.467   1.729
 8165SOL    HW125394   1.810   4.451   1.634
 8165SOL    HW225395   1.859   4.442   1.789
 8166SOL     OW25396   3.571   6.974   1.251
 8166SOL    HW125397   3.582   6.940   1.158
 8166SOL    HW225398   3.518   6.909   1.305
 8167SOL     OW25399   5.382   2.541   4.668
 8167SOL    HW125400   5.298   2.515   4.717
 8167SOL    HW225401   5.406   2.469   4.603
 8168SOL     OW25402   2.538   1.907   2.612
 8168SOL    HW125403   2.493   1.966   2.545
 8168SOL    HW225404   2.630   1.942   2.632
 8169SOL     OW25405   5.339   4.058   5.103
 8169SOL    HW125406   5.323   3.960   5.107
 8169SOL    HW225407   5.393   4.081   5.022
 8170SOL     OW25408   2.024   5.188   3.994
 8170SOL    HW125409   2.096   5.128   4.030
 8170SOL    HW225410   2.041   5.206   3.897
 8171SOL     OW25411   1.696   1.104   6.839
 8171SOL    HW125412   1.768   1.092   6.770
 8171SOL    HW225413   1.685   1.018   6.890
 8172SOL     OW25414   0.580   5.939   1.508
 8172SOL    HW125415   0.521   5.993   1.568
 8172SOL    HW225416   0.603   5.852   1.552
 8173SOL     OW25417   6.597   3.331   0.318
 8173SOL    HW125418   6.676   3.285   0.359
 8173SOL    HW225419   6.514   3.307   0.369
 8174SOL     OW25420   5.238   6.589   2.477
 8174SOL    HW125421   5.330   6.551   2.492
 8174SOL    HW225422   5.195   6.542   2.400
 8175SOL     OW25423   2.008   2.798   3.889
 8175SOL    HW125424   2.055   2.727   3.836
 8175SOL    HW225425   1.993   2.878   3.830
 8176SOL     OW25426   3.817   5.864   3.390
 8176SOL    HW125427   3.823   5.948   3.336
 8176SOL    HW225428   3.731   5.864   3.441
 8177SOL     OW25429   1.722   6.264   6.203
 8177SOL    HW125430   1.690   6.348   6.159
 8177SOL    HW225431   1.661   6.240   6.278
 8178SOL     OW25432   2.510   6.426   5.879
 8178SOL    HW125433   2.412   6.434   5.865
 8178SOL    HW225434   2.535   6.467   5.967
 8179SOL     OW25435   4.029   0.526   0.571
 8179SOL    HW125436   4.045   0.470   0.652
 8179SOL    HW225437   3.941   0.501   0.531
 8180SOL     OW25438   4.791   4.771   5.127
 8180SOL    HW125439   4.707   4.803   5.170
 8180SOL    HW225440   4.867   4.832   5.150
 8181SOL     OW25441   2.537   2.294   2.315
 8181SOL    HW125442   2.605   2.261   2.250
 8181SOL    HW225443   2.485   2.369   2.275
 8182SOL     OW25444   5.398   2.787   5.586
 8182SOL    HW125445   5.385   2.884   5.561
 8182SOL    HW225446   5.317   2.735   5.558
 8183SOL     OW25447   2.076   3.511   3.403
 8183SOL    HW125448   2.116   3.503   3.311
 8183SOL    HW225449   2.125   3.581   3.454
 8184SOL     OW25450   6.039   5.782   4.259
 8184SOL    HW125451   6.062   5.879   4.264
 8184SOL    HW225452   6.010   5.759   4.166
 8185SOL     OW25453   0.975   2.434   2.899
 8185SOL    HW125454   0.875   2.441   2.904
 8185SOL    HW225455   1.015   2.523   2.921
 8186SOL     OW25456   4.309   4.092   6.763
 8186SOL    HW125457   4.400   4.064   6.790
 8186SOL    HW225458   4.287   4.180   6.806
 8187SOL     OW25459   2.189   1.865   5.960
 8187SOL    HW125460   2.191   1.827   6.053
 8187SOL    HW225461   2.192   1.790   5.894
 8188SOL     OW25462   4.828   3.094   2.501
 8188SOL    HW125463   4.823   3.193   2.507
 8188SOL    HW225464   4.804   3.053   2.589
 8189SOL     OW25465   6.610   5.123   2.787
 8189SOL    HW125466   6.512   5.136   2.775
 8189SOL    HW225467   6.657   5.209   2.765
 8190SOL     OW25468   6.193   3.429   2.343
 8190SOL    HW125469   6.126   3.502   2.359
 8190SOL    HW225470   6.160   3.344   2.385
 8191SOL     OW25471   5.879   4.941   1.633
 8191SOL    HW125472   5.881   5.007   1.557
 8191SOL    HW225473   5.928   4.979   1.711
 8192SOL     OW25474   1.267   2.376   0.926
 8192SOL    HW125475   1.288   2.463   0.881
 8192SOL    HW225476   1.316   2.371   1.013
 8193SOL     OW25477   3.950   6.858   5.586
 8193SOL    HW125478   3.924   6.922   5.658
 8193SOL    HW225479   3.871   6.803   5.560
 8194SOL     OW25480   2.133   0.912   2.632
 8194SOL    HW125481   2.051   0.859   2.654
 8194SOL    HW225482   2.140   0.991   2.694
 8195SOL     OW25483   5.451   1.406   1.714
 8195SOL    HW125484   5.506   1.426   1.795
 8195SOL    HW225485   5.492   1.329   1.664
 8196SOL     OW25486   1.635   1.405   0.844
 8196SOL    HW125487   1.695   1.485   0.848
 8196SOL    HW225488   1.622   1.378   0.749
 8197SOL     OW25489   0.629   6.972   0.726
 8197SOL    HW125490   0.649   6.886   0.680
 8197SOL    HW225491   0.597   0.011   0.660
 8198SOL     OW25492   3.356   0.785   2.759
 8198SOL    HW125493   3.375   0.853   2.688
 8198SOL    HW225494   3.440   0.764   2.809
 8199SOL     OW25495   5.692   4.771   1.152
 8199SOL    HW125496   5.713   4.780   1.250
 8199SOL    HW225497   5.743   4.693   1.115
 8200SOL     OW25498   4.224   3.576   1.815
 8200SOL    HW125499   4.237   3.521   1.732
 8200SOL    HW225500   4.217   3.673   1.789
 8201SOL     OW25501   0.799   1.396   5.240
 8201SOL    HW125502   0.757   1.367   5.154
 8201SOL    HW225503   0.893   1.361   5.244
 8202SOL     OW25504   1.764   3.533   4.582
 8202SOL    HW125505   1.825   3.479   4.524
 8202SOL    HW225506   1.680   3.553   4.532
 8203SOL     OW25507   6.315   4.692   6.702
 8203SOL    HW125508   6.315   4.598   6.738
 8203SOL    HW225509   6.408   4.729   6.706
 8204SOL     OW25510   3.586   0.363   0.562
 8204SOL    HW125511   3.508   0.419   0.588
 8204SOL    HW225512   3.564   0.266   0.575
 8205SOL     OW25513   4.429   6.523   3.177
 8205SOL    HW125514   4.373   6.514   3.095
 8205SOL    HW225515   4.484   6.606   3.171
 8206SOL     OW25516   3.725   1.784   4.855
 8206SOL    HW125517   3.681   1.714   4.798
 8206SOL    HW225518   3.819   1.757   4.874
 8207SOL     OW25519   2.973   6.028   6.821
 8207SOL    HW125520   3.033   5.958   6.861
 8207SOL    HW225521   3.027   6.109   6.799
 8208SOL     OW25522   1.823   5.699   0.643
 8208SOL    HW125523   1.728   5.680   0.618
 8208SOL    HW225524   1.827   5.731   0.738
 8209SOL     OW25525   0.769   5.369   5.513
 8209SOL    HW125526   0.676   5.377   5.478
 8209SOL    HW225527   0.768   5.326   5.603
 8210SOL     OW25528   2.195   0.818   0.778
 8210SOL    HW125529   2.262   0.828   0.705
 8210SOL    HW225530   2.103   0.834   0.742
 8211SOL     OW25531   3.633   4.107   3.747
 8211SOL    HW125532   3.712   4.062   3.789
 8211SOL    HW225533   3.564   4.125   3.817
 8212SOL     OW25534   4.405   4.788   6.448
 8212SOL    HW125535   4.387   4.713   6.385
 8212SOL    HW225536   4.386   4.759   6.542
 8213SOL     OW25537   4.685   4.455   1.843
 8213SOL    HW125538   4.617   4.399   1.890
 8213SOL    HW225539   4.716   4.407   1.761
 8214SOL     OW25540   3.930   5.528   3.629
 8214SOL    HW125541   3.834   5.539   3.605
 8214SOL    HW225542   3.958   5.601   3.690
 8215SOL     OW25543   2.727   6.266   6.376
 8215SOL    HW125544   2.630   6.289   6.375
 8215SOL    HW225545   2.738   6.167   6.381
 8216SOL     OW25546   5.129   5.123   0.569
 8216SOL    HW125547   5.122   5.040   0.515
 8216SOL    HW225548   5.063   5.120   0.645
 8217SOL     OW25549   3.306   6.414   3.282
 8217SOL    HW125550   3.298   6.391   3.379
 8217SOL    HW225551   3.300   6.331   3.228
 8218SOL     OW25552   1.668   6.695   4.023
 8218SOL    HW125553   1.763   6.724   4.017
 8218SOL    HW225554   1.615   6.736   3.949
 8219SOL     OW25555   3.854   3.246   3.494
 8219SOL    HW125556   3.779   3.262   3.429
 8219SOL    HW225557   3.942   3.258   3.448
 8220SOL     OW25558   4.275   4.095   5.773
 8220SOL    HW125559   4.207   4.023   5.765
 8220SOL    HW225560   4.295   4.112   5.870
 8221SOL     OW25561   6.765   3.904   3.870
 8221SOL    HW125562   6.780   3.821   3.817
 8221SOL    HW225563   6.827   3.905   3.948
 8222SOL     OW25564   5.237   2.470   5.983
 8222SOL    HW125565   5.329   2.473   6.023
 8222SOL    HW225566   5.179   2.408   6.037
 8223SOL     OW25567   1.564   6.030   5.377
 8223SOL    HW125568   1.562   5.986   5.467
 8223SOL    HW225569   1.648   6.006   5.330
 8224SOL     OW25570   5.675   0.845   6.182
 8224SOL    HW125571   5.693   0.878   6.089
 8224SOL    HW225572   5.668   0.922   6.244
 8225SOL     OW25573   6.090   2.752   0.068
 8225SOL    HW125574   6.122   2.828   0.124
 8225SOL    HW225575   6.157   2.733   7.024
 8226SOL     OW25576   4.341   1.301   6.775
 8226SOL    HW125577   4.395   1.340   6.849
 8226SOL    HW225578   4.363   1.204   6.765
 8227SOL     OW25579   5.173   3.654   2.361
 8227SOL    HW125580   5.078   3.683   2.352
 8227SOL    HW225581   5.234   3.725   2.325
 8228SOL     OW25582   2.884   1.251   4.604
 8228SOL    HW125583   2.885   1.151   4.603
 8228SOL    HW225584   2.861   1.286   4.513
 8229SOL     OW25585   4.013   4.683   0.933
 8229SOL    HW125586   4.091   4.724   0.886
 8229SOL    HW225587   3.940   4.752   0.943
 8230SOL     OW25588   6.079   0.808   6.388
 8230SOL    HW125589   5.990   0.775   6.357
 8230SOL    HW225590   6.068   0.863   6.471
 8231SOL     OW25591   3.502   1.701   2.090
 8231SOL    HW125592   3.537   1.770   2.026
 8231SOL    HW225593   3.560   1.620   2.088
 8232SOL     OW25594   4.075   6.603   3.489
 8232SOL    HW125595   4.156   6.546   3.476
 8232SOL    HW225596   4.018   6.565   3.562
 8233SOL     OW25597   2.791   1.240   6.101
 8233SOL    HW125598   2.800   1.160   6.159
 8233SOL    HW225599   2.850   1.313   6.136
 8234SOL     OW25600   1.039   2.957   0.145
 8234SOL    HW125601   0.977   2.961   0.067
 8234SOL    HW225602   1.109   2.887   0.129
 8235SOL     OW25603   0.601   6.628   1.050
 8235SOL    HW125604   0.608   6.533   1.083
 8235SOL    HW225605   0.515   6.639   1.000
 8236SOL     OW25606   1.015   0.595   1.061
 8236SOL    HW125607   1.081   0.666   1.036
 8236SOL    HW225608   1.065   0.515   1.095
 8237SOL     OW25609   4.068   5.074   5.676
 8237SOL    HW125610   4.118   5.151   5.634
 8237SOL    HW225611   4.009   5.032   5.607
 8238SOL     OW25612   6.459   5.315   0.114
 8238SOL    HW125613   6.442   5.216   0.121
 8238SOL    HW225614   6.472   5.353   0.205
 8239SOL     OW25615   4.897   1.966   4.348
 8239SOL    HW125616   4.829   2.000   4.283
 8239SOL    HW225617   4.851   1.916   4.422
 8240SOL     OW25618   3.576   3.756   4.882
 8240SOL    HW125619   3.547   3.794   4.970
 8240SOL    HW225620   3.667   3.791   4.860
 8241SOL     OW25621   0.964   3.175   5.661
 8241SOL    HW125622   0.975   3.083   5.622
 8241SOL    HW225623   1.041   3.232   5.632
 8242SOL     OW25624   0.252   2.628   3.560
 8242SOL    HW125625   0.197   2.549   3.531
 8242SOL    HW225626   0.283   2.613   3.654
 8243SOL     OW25627   1.045   6.154   3.446
 8243SOL    HW125628   1.133   6.115   3.420
 8243SOL    HW225629   1.039   6.247   3.411
 8244SOL     OW25630   5.526   0.981   3.791
 8244SOL    HW125631   5.604   1.017   3.740
 8244SOL    HW225632   5.524   0.881   3.781
 8245SOL     OW25633   5.321   3.848   2.199
 8245SOL    HW125634   5.389   3.857   2.272
 8245SOL    HW225635   5.262   3.929   2.199
 8246SOL     OW25636   2.019   4.291   6.681
 8246SOL    HW125637   2.095   4.352   6.658
 8246SOL    HW225638   2.051   4.219   6.742
 8247SOL     OW25639   2.171   4.611   3.481
 8247SOL    HW125640   2.100   4.589   3.415
 8247SOL    HW225641   2.189   4.532   3.539
 8248SOL     OW25642   6.953   6.259   2.652
 8248SOL    HW125643   6.960   6.179   2.591
 8248SOL    HW225644   6.857   6.287   2.658
 8249SOL     OW25645   3.090   0.784   6.236
 8249SOL    HW125646   3.092   0.859   6.302
 8249SOL    HW225647   3.032   0.809   6.158
 8250SOL     OW25648   1.288   1.700   0.370
 8250SOL    HW125649   1.378   1.734   0.343
 8250SOL    HW225650   1.224   1.710   0.294
 8251SOL     OW25651   1.373   2.127   6.334
 8251SOL    HW125652   1.379   2.028   6.326
 8251SOL    HW225653   1.324   2.164   6.256
 8252SOL     OW25654   0.523   2.167   6.648
 8252SOL    HW125655   0.544   2.163   6.550
 8252SOL    HW225656   0.428   2.138   6.663
 8253SOL     OW25657   6.462   4.870   5.891
 8253SOL    HW125658   6.503   4.845   5.803
 8253SOL    HW225659   6.369   4.833   5.897
 8254SOL     OW25660   5.363   4.782   6.844
 8254SOL    HW125661   5.432   4.810   6.911
 8254SOL    HW225662   5.407   4.736   6.767
 8255SOL     OW25663   1.409   6.879   5.913
 8255SOL    HW125664   1.323   6.845   5.951
 8255SOL    HW225665   1.479   6.879   5.984
 8256SOL     OW25666   1.609   5.968   3.000
 8256SOL    HW125667   1.620   6.045   3.062
 8256SOL    HW225668   1.592   5.884   3.052
 8257SOL     OW25669   4.748   4.139   3.439
 8257SOL    HW125670   4.718   4.063   3.383
 8257SOL    HW225671   4.847   4.150   3.431
 8258SOL     OW25672   0.419   3.589   4.347
 8258SOL    HW125673   0.322   3.588   4.374
 8258SOL    HW225674   0.436   3.668   4.288
 8259SOL     OW25675   5.398   2.966   4.186
 8259SOL    HW125676   5.319   2.910   4.210
 8259SOL    HW225677   5.392   2.992   4.089
 8260SOL     OW25678   4.494   2.062   6.351
 8260SOL    HW125679   4.517   2.132   6.420
 8260SOL    HW225680   4.561   2.066   6.277
 8261SOL     OW25681   5.765   2.324   2.899
 8261SOL    HW125682   5.680   2.355   2.857
 8261SOL    HW225683   5.815   2.402   2.936
 8262SOL     OW25684   5.068   3.856   2.033
 8262SOL    HW125685   5.161   3.878   2.005
 8262SOL    HW225686   5.006   3.867   1.955
 8263SOL     OW25687   6.063   1.434   6.804
 8263SOL    HW125688   5.966   1.451   6.793
 8263SOL    HW225689   6.111   1.452   6.718
 8264SOL     OW25690   3.030   0.934   1.594
 8264SOL    HW125691   3.036   1.030   1.566
 8264SOL    HW225692   2.969   0.885   1.531
 8265SOL     OW25693   4.304   5.422   0.454
 8265SOL    HW125694   4.254   5.479   0.388
 8265SOL    HW225695   4.276   5.326   0.442
 8266SOL     OW25696   4.547   2.250   3.444
 8266SOL    HW125697   4.524   2.336   3.399
 8266SOL    HW225698   4.527   2.174   3.383
 8267SOL     OW25699   1.970   3.138   3.239
 8267SOL    HW125700   2.010   3.228   3.222
 8267SOL    HW225701   1.872   3.149   3.260
 8268SOL     OW25702   2.754   5.229   1.635
 8268SOL    HW125703   2.727   5.198   1.544
 8268SOL    HW225704   2.673   5.263   1.684
 8269SOL     OW25705   6.752   1.292   4.173
 8269SOL    HW125706   6.705   1.342   4.246
 8269SOL    HW225707   6.830   1.243   4.212
 8270SOL     OW25708   3.906   4.395   0.317
 8270SOL    HW125709   3.929   4.427   0.409
 8270SOL    HW225710   3.989   4.366   0.270
 8271SOL     OW25711   3.212   6.914   5.661
 8271SOL    HW125712   3.156   6.997   5.653
 8271SOL    HW225713   3.181   6.860   5.739
 8272SOL     OW25714   0.899   0.293   2.140
 8272SOL    HW125715   0.938   0.291   2.048
 8272SOL    HW225716   0.973   0.293   2.207
 8273SOL     OW25717   4.814   6.884   5.899
 8273SOL    HW125718   4.892   6.931   5.859
 8273SOL    HW225719   4.838   6.788   5.915
 8274SOL     OW25720   5.600   6.577   3.599
 8274SOL    HW125721   5.544   6.610   3.675
 8274SOL    HW225722   5.611   6.478   3.606
 8275SOL     OW25723   4.683   0.758   4.381
 8275SOL    HW125724   4.782   0.768   4.369
 8275SOL    HW225725   4.641   0.738   4.292
 8276SOL     OW25726   5.897   2.828   1.126
 8276SOL    HW125727   5.970   2.893   1.106
 8276SOL    HW225728   5.905   2.796   1.220
 8277SOL     OW25729   1.419   0.012   1.892
 8277SOL    HW125730   1.505   0.009   1.944
 8277SOL    HW225731   1.356   6.972   1.928
 8278SOL     OW25732   1.459   0.633   1.242
 8278SOL    HW125733   1.456   0.538   1.273
 8278SOL    HW225734   1.552   0.668   1.251
 8279SOL     OW25735   5.879   5.018   5.654
 8279SOL    HW125736   5.821   5.040   5.732
 8279SOL    HW225737   5.975   5.031   5.680
 8280SOL     OW25738   6.440   4.280   6.974
 8280SOL    HW125739   6.498   4.214   7.023
 8280SOL    HW225740   6.489   4.313   6.893
 8281SOL     OW25741   3.034   4.522   6.574
 8281SOL    HW125742   3.087   4.527   6.490
 8281SOL    HW225743   2.960   4.589   6.572
 8282SOL     OW25744   4.116   2.635   0.841
 8282SOL    HW125745   4.108   2.724   0.886
 8282SOL    HW225746   4.191   2.583   0.882
 8283SOL     OW25747   0.713   0.941   3.312
 8283SOL    HW125748   0.791   0.889   3.347
 8283SOL    HW225749   0.689   0.908   3.221
 8284SOL     OW25750   4.936   2.157   1.700
 8284SOL    HW125751   4.916   2.246   1.740
 8284SOL    HW225752   4.904   2.156   1.605
 8285SOL     OW25753   0.699   4.811   0.457
 8285SOL    HW125754   0.794   4.801   0.429
 8285SOL    HW225755   0.650   4.865   0.388
 8286SOL     OW25756   6.385   1.569   6.367
 8286SOL    HW125757   6.450   1.502   6.332
 8286SOL    HW225758   6.345   1.619   6.291
 8287SOL     OW25759   0.530   0.637   3.299
 8287SOL    HW125760   0.577   0.702   3.238
 8287SOL    HW225761   0.442   0.611   3.259
 8288SOL     OW25762   2.955   6.706   2.133
 8288SOL    HW125763   2.911   6.717   2.222
 8288SOL    HW225764   3.029   6.772   2.125
 8289SOL     OW25765   6.166   6.954   0.321
 8289SOL    HW125766   6.225   7.020   0.368
 8289SOL    HW225767   6.166   6.868   0.371
 8290SOL     OW25768   4.915   2.774   1.828
 8290SOL    HW125769   4.880   2.790   1.920
 8290SOL    HW225770   4.856   2.821   1.762
 8291SOL     OW25771   5.440   5.575   5.592
 8291SOL    HW125772   5.367   5.637   5.619
 8291SOL    HW225773   5.520   5.589   5.650
 8292SOL     OW25774   6.898   3.585   5.229
 8292SOL    HW125775   6.972   3.518   5.230
 8292SOL    HW225776   6.822   3.551   5.285
 8293SOL     OW25777   2.476   5.536   4.192
 8293SOL    HW125778   2.556   5.534   4.132
 8293SOL    HW225779   2.500   5.495   4.280
 8294SOL     OW25780   6.782   3.297   6.158
 8294SOL    HW125781   6.805   3.318   6.253
 8294SOL    HW225782   6.863   3.262   6.111
 8295SOL     OW25783   4.256   5.042   1.632
 8295SOL    HW125784   4.250   5.095   1.547
 8295SOL    HW225785   4.229   5.099   1.709
 8296SOL     OW25786   3.488   0.463   2.262
 8296SOL    HW125787   3.511   0.518   2.342
 8296SOL    HW225788   3.568   0.412   2.232
 8297SOL     OW25789   5.478   4.283   1.557
 8297SOL    HW125790   5.524   4.216   1.499
 8297SOL    HW225791   5.399   4.320   1.509
 8298SOL     OW25792   0.031   6.757   0.842
 8298SOL    HW125793   6.984   6.787   0.784
 8298SOL    HW225794   0.091   6.834   0.862
 8299SOL     OW25795   0.812   2.636   6.636
 8299SOL    HW125796   0.809   2.631   6.736
 8299SOL    HW225797   0.890   2.584   6.602
 8300SOL     OW25798   5.106   5.693   3.620
 8300SOL    HW125799   5.084   5.603   3.581
 8300SOL    HW225800   5.135   5.682   3.715
 8301SOL     OW25801   6.468   5.405   0.402
 8301SOL    HW125802   6.373   5.375   0.401
 8301SOL    HW225803   6.495   5.426   0.496
 8302SOL     OW25804   3.679   6.625   5.994
 8302SOL    HW125805   3.627   6.661   5.916
 8302SOL    HW225806   3.646   6.534   6.016
 8303SOL     OW25807   1.236   4.920   3.707
 8303SOL    HW125808   1.270   4.901   3.799
 8303SOL    HW225809   1.293   4.990   3.665
 8304SOL     OW25810   5.462   3.079   3.452
 8304SOL    HW125811   5.523   3.049   3.526
 8304SOL    HW225812   5.461   3.179   3.449
 8305SOL     OW25813   4.338   6.543   5.320
 8305SOL    HW125814   4.422   6.503   5.283
 8305SOL    HW225815   4.289   6.591   5.247
 8306SOL     OW25816   4.784   0.899   4.000
 8306SOL    HW125817   4.796   0.998   3.995
 8306SOL    HW225818   4.827   0.864   4.084
 8307SOL     OW25819   6.997   4.814   4.459
 8307SOL    HW125820   6.913   4.840   4.411
 8307SOL    HW225821   0.021   4.897   4.481
 8308SOL     OW25822   1.888   5.118   0.273
 8308SOL    HW125823   1.895   5.172   0.189
 8308SOL    HW225824   1.906   5.177   0.352
 8309SOL     OW25825   6.186   4.803   2.852
 8309SOL    HW125826   6.239   4.769   2.775
 8309SOL    HW225827   6.149   4.893   2.830
 8310SOL     OW25828   1.546   6.204   3.100
 8310SOL    HW125829   1.573   6.287   3.150
 8310SOL    HW225830   1.521   6.228   3.006
 8311SOL     OW25831   4.860   6.432   1.500
 8311SOL    HW125832   4.789   6.494   1.532
 8311SOL    HW225833   4.920   6.480   1.436
 8312SOL     OW25834   6.301   1.537   0.196
 8312SOL    HW125835   6.332   1.489   0.279
 8312SOL    HW225836   6.218   1.589   0.217
 8313SOL     OW25837   4.917   2.605   6.143
 8313SOL    HW125838   4.893   2.617   6.240
 8313SOL    HW225839   4.913   2.508   6.121
 8314SOL     OW25840   4.817   5.504   4.168
 8314SOL    HW125841   4.819   5.469   4.074
 8314SOL    HW225842   4.760   5.586   4.172
 8315SOL     OW25843   3.263   2.333   0.109
 8315SOL    HW125844   3.253   2.238   0.079
 8315SOL    HW225845   3.360   2.356   0.114
 8316SOL     OW25846   1.533   1.336   4.532
 8316SOL    HW125847   1.598   1.411   4.548
 8316SOL    HW225848   1.456   1.370   4.478
 8317SOL     OW25849   1.289   1.919   5.894
 8317SOL    HW125850   1.250   1.978   5.965
 8317SOL    HW225851   1.264   1.955   5.804
 8318SOL     OW25852   4.368   6.743   5.507
 8318SOL    HW125853   4.351   6.672   5.439
 8318SOL    HW225854   4.467   6.748   5.525
 8319SOL     OW25855   2.585   5.911   6.787
 8319SOL    HW125856   2.574   5.912   6.687
 8319SOL    HW225857   2.675   5.948   6.811
 8320SOL     OW25858   4.011   4.747   5.742
 8320SOL    HW125859   4.102   4.747   5.700
 8320SOL    HW225860   3.953   4.813   5.695
 8321SOL     OW25861   0.148   0.735   0.728
 8321SOL    HW125862   0.190   0.672   0.663
 8321SOL    HW225863   0.209   0.812   0.744
 8322SOL     OW25864   1.991   0.982   1.634
 8322SOL    HW125865   2.018   0.910   1.698
 8322SOL    HW225866   2.004   1.071   1.678
 8323SOL     OW25867   5.812   5.395   6.673
 8323SOL    HW125868   5.832   5.466   6.606
 8323SOL    HW225869   5.888   5.329   6.676
 8324SOL     OW25870   5.480   6.245   6.129
 8324SOL    HW125871   5.491   6.243   6.229
 8324SOL    HW225872   5.537   6.317   6.091
 8325SOL     OW25873   1.614   6.518   4.780
 8325SOL    HW125874   1.673   6.442   4.753
 8325SOL    HW225875   1.623   6.593   4.713
 8326SOL     OW25876   2.142   1.983   6.599
 8326SOL    HW125877   2.082   1.956   6.524
 8326SOL    HW225878   2.104   2.063   6.645
 8327SOL     OW25879   0.525   6.231   5.062
 8327SOL    HW125880   0.601   6.237   5.127
 8327SOL    HW225881   0.509   6.320   5.020
 8328SOL     OW25882   1.401   0.457   0.634
 8328SOL    HW125883   1.414   0.446   0.536
 8328SOL    HW225884   1.303   0.455   0.655
 8329SOL     OW25885   1.867   2.647   5.103
 8329SOL    HW125886   1.848   2.625   5.007
 8329SOL    HW225887   1.929   2.579   5.142
 8330SOL     OW25888   3.142   0.054   0.330
 8330SOL    HW125889   3.066   0.011   0.378
 8330SOL    HW225890   3.223   7.024   0.338
 8331SOL     OW25891   2.403   2.099   6.361
 8331SOL    HW125892   2.396   2.150   6.276
 8331SOL    HW225893   2.403   2.162   6.439
 8332SOL     OW25894   5.516   3.769   0.977
 8332SOL    HW125895   5.454   3.724   0.913
 8332SOL    HW225896   5.513   3.721   1.065
 8333SOL     OW25897   3.052   4.327   6.212
 8333SOL    HW125898   2.969   4.273   6.228
 8333SOL    HW225899   3.030   4.404   6.151
 8334SOL     OW25900   3.298   2.583   5.335
 8334SOL    HW125901   3.271   2.505   5.278
 8334SOL    HW225902   3.229   2.598   5.406
 8335SOL     OW25903   5.475   3.704   6.036
 8335SOL    HW125904   5.512   3.614   6.059
 8335SOL    HW225905   5.550   3.768   6.017
 8336SOL     OW25906   1.111   4.720   3.954
 8336SOL    HW125907   1.150   4.801   3.999
 8336SOL    HW225908   1.184   4.656   3.931
 8337SOL     OW25909   6.444   0.585   4.370
 8337SOL    HW125910   6.528   0.531   4.381
 8337SOL    HW225911   6.437   0.616   4.276
 8338SOL     OW25912   2.173   5.989   1.302
 8338SOL    HW125913   2.188   6.054   1.228
 8338SOL    HW225914   2.128   5.907   1.267
 8339SOL     OW25915   6.619   0.617   1.999
 8339SOL    HW125916   6.638   0.646   1.905
 8339SOL    HW225917   6.595   0.697   2.054
 8340SOL     OW25918   5.882   2.506   6.672
 8340SOL    HW125919   5.885   2.445   6.752
 8340SOL    HW225920   5.873   2.601   6.703
 8341SOL     OW25921   3.386   0.418   0.957
 8341SOL    HW125922   3.365   0.392   1.051
 8341SOL    HW225923   3.479   0.388   0.934
 8342SOL     OW25924   4.710   1.102   1.072
 8342SOL    HW125925   4.774   1.132   1.143
 8342SOL    HW225926   4.759   1.090   0.986
 8343SOL     OW25927   4.765   5.951   2.762
 8343SOL    HW125928   4.796   6.004   2.683
 8343SOL    HW225929   4.753   6.012   2.840
 8344SOL     OW25930   2.569   4.441   6.158
 8344SOL    HW125931   2.622   4.467   6.077
 8344SOL    HW225932   2.472   4.438   6.135
 8345SOL     OW25933   6.261   0.093   4.232
 8345SOL    HW125934   6.276   0.185   4.195
 8345SOL    HW225935   6.295   0.025   4.167
 8346SOL     OW25936   6.244   4.065   3.658
 8346SOL    HW125937   6.304   4.134   3.616
 8346SOL    HW225938   6.170   4.043   3.595
 8347SOL     OW25939   1.193   1.729   6.550
 8347SOL    HW125940   1.116   1.667   6.544
 8347SOL    HW225941   1.271   1.682   6.592
 8348SOL     OW25942   3.305   5.789   1.019
 8348SOL    HW125943   3.388   5.832   0.982
 8348SOL    HW225944   3.285   5.707   0.966
 8349SOL     OW25945   4.554   5.670   1.379
 8349SOL    HW125946   4.482   5.665   1.310
 8349SOL    HW225947   4.550   5.590   1.439
 8350SOL     OW25948   1.964   0.640   6.856
 8350SOL    HW125949   2.038   0.574   6.869
 8350SOL    HW225950   1.876   0.596   6.875
 8351SOL     OW25951   6.784   2.883   2.980
 8351SOL    HW125952   6.716   2.817   3.012
 8351SOL    HW225953   6.875   2.843   2.987
 8352SOL     OW25954   3.168   6.516   6.597
 8352SOL    HW125955   3.075   6.525   6.632
 8352SOL    HW225956   3.168   6.530   6.498
 8353SOL     OW25957   0.627   5.707   2.729
 8353SOL    HW125958   0.666   5.623   2.692
 8353SOL    HW225959   0.647   5.784   2.668
 8354SOL     OW25960   4.552   2.138   3.702
 8354SOL    HW125961   4.539   2.170   3.608
 8354SOL    HW225962   4.650   2.120   3.717
 8355SOL     OW25963   3.216   5.244   6.117
 8355SOL    HW125964   3.220   5.159   6.065
 8355SOL    HW225965   3.246   5.226   6.211
 8356SOL     OW25966   2.797   3.737   1.355
 8356SOL    HW125967   2.809   3.645   1.317
 8356SOL    HW225968   2.721   3.736   1.420
 8357SOL     OW25969   2.907   6.774   4.723
 8357SOL    HW125970   2.954   6.687   4.708
 8357SOL    HW225971   2.959   6.829   4.788
 8358SOL     OW25972   0.033   0.119   4.563
 8358SOL    HW125973   7.022   0.115   4.655
 8358SOL    HW225974   0.110   0.183   4.562
 8359SOL     OW25975   5.081   1.907   5.239
 8359SOL    HW125976   5.175   1.922   5.207
 8359SOL    HW225977   5.030   1.993   5.235
 8360SOL     OW25978   3.349   0.303   1.820
 8360SOL    HW125979   3.430   0.248   1.805
 8360SOL    HW225980   3.350   0.382   1.758
 8361SOL     OW25981   4.694   1.192   0.100
 8361SOL    HW125982   4.596   1.174   0.097
 8361SOL    HW225983   4.741   1.134   0.034
 8362SOL     OW25984   0.808   4.084   1.310
 8362SOL    HW125985   0.724   4.126   1.278
 8362SOL    HW225986   0.837   4.127   1.396
 8363SOL     OW25987   2.044   2.238   1.149
 8363SOL    HW125988   2.018   2.226   1.245
 8363SOL    HW225989   2.058   2.148   1.108
 8364SOL     OW25990   0.204   1.614   3.613
 8364SOL    HW125991   0.117   1.634   3.658
 8364SOL    HW225992   0.188   1.597   3.516
 8365SOL     OW25993   2.018   2.920   1.122
 8365SOL    HW125994   2.114   2.893   1.109
 8365SOL    HW225995   1.986   2.886   1.210
 8366SOL     OW25996   5.370   5.835   1.892
 8366SOL    HW125997   5.306   5.761   1.915
 8366SOL    HW225998   5.418   5.865   1.974
 8367SOL     OW25999   1.955   4.263   3.266
 8367SOL    HW126000   1.981   4.234   3.358
 8367SOL    HW226001   2.036   4.296   3.218
 8368SOL     OW26002   0.148   3.494   6.296
 8368SOL    HW126003   0.175   3.398   6.311
 8368SOL    HW226004   0.220   3.542   6.247
 8369SOL     OW26005   1.190   0.186   0.149
 8369SOL    HW126006   1.239   0.153   0.229
 8369SOL    HW226007   1.190   0.117   0.077
 8370SOL     OW26008   3.280   3.159   0.461
 8370SOL    HW126009   3.258   3.078   0.406
 8370SOL    HW226010   3.282   3.135   0.558
 8371SOL     OW26011   2.928   3.908   5.518
 8371SOL    HW126012   2.951   3.998   5.555
 8371SOL    HW226013   3.006   3.846   5.530
 8372SOL     OW26014   1.410   0.049   2.333
 8372SOL    HW126015   1.363   0.082   2.252
 8372SOL    HW226016   1.508   0.044   2.314
 8373SOL     OW26017   5.324   1.176   4.099
 8373SOL    HW126018   5.388   1.225   4.039
 8373SOL    HW226019   5.309   1.084   4.063
 8374SOL     OW26020   0.529   1.756   3.504
 8374SOL    HW126021   0.488   1.800   3.583
 8374SOL    HW226022   0.458   1.737   3.436
 8375SOL     OW26023   1.433   2.493   5.220
 8375SOL    HW126024   1.489   2.453   5.293
 8375SOL    HW226025   1.485   2.565   5.175
 8376SOL     OW26026   0.883   2.035   4.459
 8376SOL    HW126027   0.937   1.977   4.398
 8376SOL    HW226028   0.852   1.981   4.538
 8377SOL     OW26029   3.152   5.490   1.255
 8377SOL    HW126030   3.089   5.423   1.215
 8377SOL    HW226031   3.246   5.467   1.231
 8378SOL     OW26032   4.441   5.317   4.432
 8378SOL    HW126033   4.507   5.313   4.357
 8378SOL    HW226034   4.461   5.395   4.490
 8379SOL     OW26035   5.855   2.658   2.148
 8379SOL    HW126036   5.933   2.624   2.096
 8379SOL    HW226037   5.783   2.688   2.085
 8380SOL     OW26038   1.241   5.611   2.545
 8380SOL    HW126039   1.144   5.589   2.560
 8380SOL    HW226040   1.251   5.710   2.533
 8381SOL     OW26041   1.291   2.148   2.767
 8381SOL    HW126042   1.231   2.218   2.730
 8381SOL    HW226043   1.320   2.087   2.694
 8382SOL     OW26044   0.771   6.768   1.628
 8382SOL    HW126045   0.753   6.866   1.639
 8382SOL    HW226046   0.788   6.748   1.532
 8383SOL     OW26047   2.425   7.020   5.030
 8383SOL    HW126048   2.445   6.970   5.115
 8383SOL    HW226049   2.504   7.014   4.969
 8384SOL     OW26050   0.381   3.316   3.658
 8384SOL    HW126051   0.282   3.310   3.670
 8384SOL    HW226052   0.403   3.395   3.602
 8385SOL     OW26053   4.515   2.487   2.141
 8385SOL    HW126054   4.449   2.411   2.138
 8385SOL    HW226055   4.541   2.512   2.048
 8386SOL     OW26056   0.293   5.466   1.746
 8386SOL    HW126057   0.380   5.417   1.740
 8386SOL    HW226058   0.239   5.449   1.664
 8387SOL     OW26059   0.482   2.060   3.534
 8387SOL    HW126060   0.570   2.020   3.508
 8387SOL    HW226061   0.427   2.076   3.452
 8388SOL     OW26062   3.958   5.588   1.599
 8388SOL    HW126063   3.917   5.501   1.571
 8388SOL    HW226064   3.964   5.591   1.699
 8389SOL     OW26065   1.678   2.728   4.795
 8389SOL    HW126066   1.741   2.650   4.791
 8389SOL    HW226067   1.670   2.769   4.704
 8390SOL     OW26068   2.761   0.248   6.539
 8390SOL    HW126069   2.802   0.213   6.455
 8390SOL    HW226070   2.796   0.340   6.558
 8391SOL     OW26071   4.419   6.374   0.959
 8391SOL    HW126072   4.443   6.472   0.957
 8391SOL    HW226073   4.320   6.365   0.963
 8392SOL     OW26074   4.014   5.483   0.356
 8392SOL    HW126075   3.995   5.386   0.351
 8392SOL    HW226076   3.962   5.524   0.431
 8393SOL     OW26077   1.180   5.746   2.020
 8393SOL    HW126078   1.199   5.825   1.961
 8393SOL    HW226079   1.237   5.669   1.992
 8394SOL     OW26080   1.613   1.391   3.404
 8394SOL    HW126081   1.525   1.437   3.414
 8394SOL    HW226082   1.622   1.356   3.311
 8395SOL     OW26083   1.770   5.963   6.251
 8395SOL    HW126084   1.686   5.909   6.247
 8395SOL    HW226085   1.767   6.035   6.181
 8396SOL     OW26086   4.387   2.575   1.016
 8396SOL    HW126087   4.412   2.671   1.012
 8396SOL    HW226088   4.467   2.520   1.041
 8397SOL     OW26089   1.216   4.455   3.371
 8397SOL    HW126090   1.204   4.428   3.467
 8397SOL    HW226091   1.296   4.514   3.363
 8398SOL     OW26092   5.336   1.649   6.600
 8398SOL    HW126093   5.351   1.557   6.634
 8398SOL    HW226094   5.424   1.691   6.576
 8399SOL     OW26095   5.465   6.313   5.651
 8399SOL    HW126096   5.430   6.392   5.600
 8399SOL    HW226097   5.486   6.239   5.586
 8400SOL     OW26098   6.237   6.365   3.914
 8400SOL    HW126099   6.267   6.461   3.918
 8400SOL    HW226100   6.143   6.358   3.948
 8401SOL     OW26101   2.937   3.762   5.145
 8401SOL    HW126102   2.906   3.855   5.163
 8401SOL    HW226103   2.991   3.760   5.060
 8402SOL     OW26104   4.883   0.778   5.197
 8402SOL    HW126105   4.856   0.701   5.255
 8402SOL    HW226106   4.854   0.759   5.103
 8403SOL     OW26107   0.885   2.633   5.845
 8403SOL    HW126108   0.845   2.547   5.878
 8403SOL    HW226109   0.889   2.699   5.920
 8404SOL     OW26110   4.522   5.305   5.747
 8404SOL    HW126111   4.589   5.372   5.777
 8404SOL    HW226112   4.531   5.221   5.800
 8405SOL     OW26113   1.590   2.383   5.404
 8405SOL    HW126114   1.538   2.366   5.488
 8405SOL    HW226115   1.680   2.339   5.411
 8406SOL     OW26116   5.827   3.280   1.750
 8406SOL    HW126117   5.768   3.248   1.824
 8406SOL    HW226118   5.815   3.222   1.670
 8407SOL     OW26119   4.888   3.748   2.652
 8407SOL    HW126120   4.870   3.666   2.597
 8407SOL    HW226121   4.860   3.731   2.747
 8408SOL     OW26122   5.020   3.975   3.913
 8408SOL    HW126123   4.969   4.019   3.988
 8408SOL    HW226124   5.116   4.005   3.916
 8409SOL     OW26125   1.501   1.590   3.911
 8409SOL    HW126126   1.599   1.579   3.894
 8409SOL    HW226127   1.485   1.671   3.968
 8410SOL     OW26128   2.028   5.186   2.673
 8410SOL    HW126129   2.068   5.139   2.594
 8410SOL    HW226130   2.069   5.277   2.681
 8411SOL     OW26131   1.735   3.230   3.284
 8411SOL    HW126132   1.727   3.330   3.285
 8411SOL    HW226133   1.654   3.190   3.326
 8412SOL     OW26134   6.255   2.810   2.156
 8412SOL    HW126135   6.172   2.801   2.211
 8412SOL    HW226136   6.267   2.906   2.130
 8413SOL     OW26137   2.174   5.122   0.906
 8413SOL    HW126138   2.257   5.070   0.927
 8413SOL    HW226139   2.148   5.177   0.984
 8414SOL     OW26140   5.682   0.597   3.973
 8414SOL    HW126141   5.750   0.636   3.910
 8414SOL    HW226142   5.724   0.579   4.061
 8415SOL     OW26143   0.005   4.652   1.217
 8415SOL    HW126144   0.026   4.661   1.119
 8415SOL    HW226145   0.090   4.653   1.269
 8416SOL     OW26146   4.460   4.471   2.645
 8416SOL    HW126147   4.500   4.442   2.558
 8416SOL    HW226148   4.533   4.492   2.710
 8417SOL     OW26149   1.095   5.202   0.405
 8417SOL    HW126150   1.076   5.118   0.455
 8417SOL    HW226151   1.089   5.280   0.467
 8418SOL     OW26152   5.704   5.494   2.613
 8418SOL    HW126153   5.615   5.476   2.570
 8418SOL    HW226154   5.697   5.574   2.672
 8419SOL     OW26155   4.000   0.816   3.822
 8419SOL    HW126156   4.036   0.907   3.845
 8419SOL    HW226157   3.954   0.777   3.902
 8420SOL     OW26158   4.427   1.768   5.438
 8420SOL    HW126159   4.477   1.854   5.438
 8420SOL    HW226160   4.329   1.786   5.448
 8421SOL     OW26161   0.462   1.326   1.053
 8421SOL    HW126162   0.437   1.315   0.957
 8421SOL    HW226163   0.558   1.299   1.065
 8422SOL     OW26164   2.838   0.246   1.634
 8422SOL    HW126165   2.916   0.298   1.668
 8422SOL    HW226166   2.795   0.197   1.710
 8423SOL     OW26167   2.312   3.782   1.365
 8423SOL    HW126168   2.219   3.774   1.329
 8423SOL    HW226169   2.377   3.775   1.289
 8424SOL     OW26170   2.968   2.451   1.450
 8424SOL    HW126171   2.980   2.390   1.528
 8424SOL    HW226172   2.873   2.483   1.448
 8425SOL     OW26173   0.373   4.590   6.142
 8425SOL    HW126174   0.430   4.559   6.218
 8425SOL    HW226175   0.386   4.529   6.064
 8426SOL     OW26176   3.534   3.153   2.562
 8426SOL    HW126177   3.504   3.075   2.507
 8426SOL    HW226178   3.484   3.235   2.535
 8427SOL     OW26179   1.775   2.397   7.003
 8427SOL    HW126180   1.833   2.322   0.008
 8427SOL    HW226181   1.832   2.462   6.952
 8428SOL     OW26182   6.465   4.125   0.501
 8428SOL    HW126183   6.418   4.078   0.576
 8428SOL    HW226184   6.563   4.101   0.503
 8429SOL     OW26185   1.583   6.784   3.159
 8429SOL    HW126186   1.672   6.779   3.205
 8429SOL    HW226187   1.597   6.783   3.060
 8430SOL     OW26188   4.154   5.411   2.685
 8430SOL    HW126189   4.239   5.364   2.661
 8430SOL    HW226190   4.116   5.371   2.769
 8431SOL     OW26191   3.041   3.519   2.544
 8431SOL    HW126192   2.979   3.515   2.622
 8431SOL    HW226193   3.067   3.426   2.517
 8432SOL     OW26194   4.539   6.402   6.979
 8432SOL    HW126195   4.484   6.328   6.940
 8432SOL    HW226196   4.589   6.367   0.031
 8433SOL     OW26197   0.171   1.291   3.801
 8433SOL    HW126198   0.104   1.330   3.738
 8433SOL    HW226199   0.221   1.216   3.756
 8434SOL     OW26200   5.798   6.852   6.514
 8434SOL    HW126201   5.851   6.893   6.439
 8434SOL    HW226202   5.837   6.881   6.602
 8435SOL     OW26203   4.846   2.609   0.889
 8435SOL    HW126204   4.908   2.536   0.915
 8435SOL    HW226205   4.899   2.692   0.869
 8436SOL     OW26206   2.992   4.298   1.717
 8436SOL    HW126207   2.931   4.345   1.781
 8436SOL    HW226208   3.050   4.366   1.670
 8437SOL     OW26209   0.096   2.150   1.221
 8437SOL    HW126210   0.015   2.137   1.279
 8437SOL    HW226211   0.177   2.155   1.279
 8438SOL     OW26212   2.134   5.351   1.123
 8438SOL    HW126213   2.226   5.390   1.114
 8438SOL    HW226214   2.073   5.394   1.056
 8439SOL     OW26215   5.515   0.719   1.592
 8439SOL    HW126216   5.525   0.740   1.495
 8439SOL    HW226217   5.476   0.628   1.603
 8440SOL     OW26218   1.309   3.237   4.229
 8440SOL    HW126219   1.238   3.178   4.269
 8440SOL    HW226220   1.385   3.180   4.197
 8441SOL     OW26221   4.380   6.051   1.331
 8441SOL    HW126222   4.363   5.957   1.362
 8441SOL    HW226223   4.309   6.111   1.366
 8442SOL     OW26224   2.562   2.243   1.066
 8442SOL    HW126225   2.654   2.282   1.066
 8442SOL    HW226226   2.519   2.259   1.155
 8443SOL     OW26227   0.124   1.717   1.404
 8443SOL    HW126228   0.085   1.752   1.319
 8443SOL    HW226229   0.105   1.619   1.412
 8444SOL     OW26230   4.920   1.786   3.350
 8444SOL    HW126231   4.882   1.715   3.291
 8444SOL    HW226232   4.917   1.874   3.302
 8445SOL     OW26233   5.187   5.651   1.992
 8445SOL    HW126234   5.261   5.624   2.054
 8445SOL    HW226235   5.099   5.639   2.037
 8446SOL     OW26236   6.711   3.726   3.140
 8446SOL    HW126237   6.707   3.663   3.062
 8446SOL    HW226238   6.620   3.732   3.182
 8447SOL     OW26239   4.629   4.376   0.922
 8447SOL    HW126240   4.548   4.318   0.920
 8447SOL    HW226241   4.710   4.320   0.902
 8448SOL     OW26242   1.839   4.236   5.736
 8448SOL    HW126243   1.875   4.152   5.776
 8448SOL    HW226244   1.846   4.231   5.636
 8449SOL     OW26245   1.243   0.701   5.102
 8449SOL    HW126246   1.179   0.645   5.154
 8449SOL    HW226247   1.251   0.791   5.145
 8450SOL     OW26248   1.972   5.423   0.912
 8450SOL    HW126249   2.020   5.488   0.852
 8450SOL    HW226250   1.874   5.443   0.911
 8451SOL     OW26251   3.111   3.585   0.587
 8451SOL    HW126252   3.176   3.634   0.529
 8451SOL    HW226253   3.135   3.488   0.589
 8452SOL     OW26254   0.274   5.912   1.661
 8452SOL    HW126255   0.180   5.931   1.630
 8452SOL    HW226256   0.272   5.844   1.733
 8453SOL     OW26257   6.791   4.813   5.165
 8453SOL    HW126258   6.867   4.878   5.158
 8453SOL    HW226259   6.819   4.726   5.125
 8454SOL     OW26260   2.286   0.234   4.974
 8454SOL    HW126261   2.332   0.150   5.004
 8454SOL    HW226262   2.224   0.213   4.898
 8455SOL     OW26263   6.389   3.219   0.703
 8455SOL    HW126264   6.472   3.164   0.712
 8455SOL    HW226265   6.371   3.266   0.790
 8456SOL     OW26266   5.322   5.085   3.663
 8456SOL    HW126267   5.378   5.008   3.632
 8456SOL    HW226268   5.225   5.060   3.656
 8457SOL     OW26269   6.632   6.475   5.625
 8457SOL    HW126270   6.592   6.502   5.712
 8457SOL    HW226271   6.592   6.528   5.551
 8458SOL     OW26272   1.267   1.852   1.076
 8458SOL    HW126273   1.313   1.815   1.156
 8458SOL    HW226274   1.333   1.859   1.000
 8459SOL     OW26275   2.673   5.179   3.401
 8459SOL    HW126276   2.719   5.248   3.456
 8459SOL    HW226277   2.604   5.223   3.344
 8460SOL     OW26278   3.345   1.511   1.466
 8460SOL    HW126279   3.438   1.546   1.457
 8460SOL    HW226280   3.296   1.564   1.535
 8461SOL     OW26281   5.474   4.266   3.283
 8461SOL    HW126282   5.500   4.357   3.248
 8461SOL    HW226283   5.427   4.215   3.211
 8462SOL     OW26284   1.705   3.883   0.875
 8462SOL    HW126285   1.667   3.905   0.785
 8462SOL    HW226286   1.647   3.816   0.920
 8463SOL     OW26287   0.319   6.976   1.172
 8463SOL    HW126288   0.279   6.933   1.253
 8463SOL    HW226289   0.417   6.961   1.171
 8464SOL     OW26290   7.014   2.784   6.607
 8464SOL    HW126291   7.017   2.884   6.612
 8464SOL    HW226292   6.934   2.756   6.554
 8465SOL     OW26293   5.197   4.274   0.734
 8465SOL    HW126294   5.253   4.355   0.723
 8465SOL    HW226295   5.190   4.225   0.647
 8466SOL     OW26296   0.632   1.455   5.451
 8466SOL    HW126297   0.573   1.535   5.449
 8466SOL    HW226298   0.692   1.455   5.371
 8467SOL     OW26299   3.189   1.290   0.667
 8467SOL    HW126300   3.131   1.356   0.715
 8467SOL    HW226301   3.148   1.199   0.673
 8468SOL     OW26302   5.866   4.271   0.257
 8468SOL    HW126303   5.811   4.287   0.339
 8468SOL    HW226304   5.830   4.193   0.207
 8469SOL     OW26305   3.448   3.017   5.194
 8469SOL    HW126306   3.517   3.044   5.127
 8469SOL    HW226307   3.364   3.069   5.178
 8470SOL     OW26308   1.698   5.562   1.405
 8470SOL    HW126309   1.757   5.502   1.352
 8470SOL    HW226310   1.748   5.597   1.484
 8471SOL     OW26311   3.987   1.458   3.389
 8471SOL    HW126312   3.950   1.375   3.348
 8471SOL    HW226313   4.042   1.435   3.469
 8472SOL     OW26314   5.624   1.948   6.306
 8472SOL    HW126315   5.581   1.996   6.229
 8472SOL    HW226316   5.689   1.881   6.272
 8473SOL     OW26317   4.882   5.108   5.690
 8473SOL    HW126318   4.979   5.134   5.687
 8473SOL    HW226319   4.842   5.122   5.600
 8474SOL     OW26320   3.114   3.723   5.583
 8474SOL    HW126321   3.210   3.703   5.563
 8474SOL    HW226322   3.104   3.746   5.680
 8475SOL     OW26323   0.167   2.503   2.618
 8475SOL    HW126324   0.144   2.478   2.524
 8475SOL    HW226325   0.092   2.479   2.679
 8476SOL     OW26326   6.516   1.090   2.344
 8476SOL    HW126327   6.561   1.146   2.273
 8476SOL    HW226328   6.418   1.106   2.341
 8477SOL     OW26329   5.519   0.385   0.871
 8477SOL    HW126330   5.503   0.307   0.810
 8477SOL    HW226331   5.563   0.458   0.820
 8478SOL     OW26332   1.194   6.631   6.328
 8478SOL    HW126333   1.282   6.645   6.282
 8478SOL    HW226334   1.182   6.702   6.398
 8479SOL     OW26335   0.806   2.739   0.111
 8479SOL    HW126336   0.846   2.809   0.171
 8479SOL    HW226337   0.711   2.722   0.137
 8480SOL     OW26338   3.022   4.274   1.170
 8480SOL    HW126339   3.036   4.371   1.150
 8480SOL    HW226340   2.933   4.262   1.213
 8481SOL     OW26341   4.817   3.002   2.765
 8481SOL    HW126342   4.826   3.039   2.857
 8481SOL    HW226343   4.889   2.935   2.749
 8482SOL     OW26344   4.769   0.505   6.248
 8482SOL    HW126345   4.682   0.488   6.202
 8482SOL    HW226346   4.760   0.484   6.346
 8483SOL     OW26347   4.095   4.971   3.495
 8483SOL    HW126348   3.999   4.969   3.467
 8483SOL    HW226349   4.100   4.973   3.595
 8484SOL     OW26350   6.658   6.573   5.134
 8484SOL    HW126351   6.714   6.491   5.144
 8484SOL    HW226352   6.685   6.623   5.051
 8485SOL     OW26353   4.230   0.503   5.592
 8485SOL    HW126354   4.225   0.475   5.688
 8485SOL    HW226355   4.175   0.440   5.536
 8486SOL     OW26356   5.028   2.211   4.313
 8486SOL    HW126357   5.004   2.115   4.320
 8486SOL    HW226358   5.068   2.229   4.223
 8487SOL     OW26359   6.625   1.901   6.603
 8487SOL    HW126360   6.580   1.812   6.609
 8487SOL    HW226361   6.700   1.896   6.537
 8488SOL     OW26362   3.802   4.847   2.462
 8488SOL    HW126363   3.728   4.896   2.418
 8488SOL    HW226364   3.767   4.798   2.542
 8489SOL     OW26365   6.571   1.803   2.159
 8489SOL    HW126366   6.652   1.842   2.115
 8489SOL    HW226367   6.493   1.811   2.097
 8490SOL     OW26368   3.198   6.838   0.609
 8490SOL    HW126369   3.224   6.847   0.512
 8490SOL    HW226370   3.256   6.769   0.652
 8491SOL     OW26371   3.308   5.446   2.100
 8491SOL    HW126372   3.380   5.428   2.032
 8491SOL    HW226373   3.323   5.536   2.141
 8492SOL     OW26374   5.763   6.235   3.846
 8492SOL    HW126375   5.684   6.241   3.907
 8492SOL    HW226376   5.829   6.170   3.884
 8493SOL     OW26377   5.388   0.566   5.604
 8493SOL    HW126378   5.307   0.572   5.662
 8493SOL    HW226379   5.380   0.487   5.543
 8494SOL     OW26380   0.239   3.458   1.997
 8494SOL    HW126381   0.312   3.450   1.929
 8494SOL    HW226382   0.277   3.439   2.088
 8495SOL     OW26383   5.644   5.974   5.648
 8495SOL    HW126384   5.738   5.999   5.674
 8495SOL    HW226385   5.639   5.876   5.630
 8496SOL     OW26386   4.435   1.809   2.635
 8496SOL    HW126387   4.471   1.721   2.602
 8496SOL    HW226388   4.505   1.854   2.691
 8497SOL     OW26389   6.351   0.983   2.599
 8497SOL    HW126390   6.338   0.990   2.500
 8497SOL    HW226391   6.445   0.955   2.618
 8498SOL     OW26392   4.452   6.327   4.059
 8498SOL    HW126393   4.377   6.366   4.113
 8498SOL    HW226394   4.423   6.239   4.021
 8499SOL     OW26395   6.220   0.101   5.222
 8499SOL    HW126396   6.271   0.172   5.174
 8499SOL    HW226397   6.123   0.108   5.199
 8500SOL     OW26398   1.282   0.402   6.606
 8500SOL    HW126399   1.215   0.355   6.663
 8500SOL    HW226400   1.367   0.413   6.657
 8501SOL     OW26401   3.463   0.990   5.085
 8501SOL    HW126402   3.428   0.907   5.042
 8501SOL    HW226403   3.523   1.038   5.021
 8502SOL     OW26404   6.662   2.884   0.164
 8502SOL    HW126405   6.583   2.933   0.200
 8502SOL    HW226406   6.731   2.949   0.133
 8503SOL     OW26407   4.739   2.417   5.880
 8503SOL    HW126408   4.664   2.353   5.863
 8503SOL    HW226409   4.764   2.413   5.977
 8504SOL     OW26410   1.353   0.000   3.291
 8504SOL    HW126411   1.260   0.034   3.303
 8504SOL    HW226412   1.350   6.938   3.248
 8505SOL     OW26413   5.557   1.941   2.515
 8505SOL    HW126414   5.569   1.885   2.432
 8505SOL    HW226415   5.574   2.037   2.493
 8506SOL     OW26416   1.836   0.817   5.706
 8506SOL    HW126417   1.766   0.859   5.764
 8506SOL    HW226418   1.925   0.855   5.727
 8507SOL     OW26419   4.453   4.424   5.857
 8507SOL    HW126420   4.543   4.457   5.831
 8507SOL    HW226421   4.385   4.494   5.837
 8508SOL     OW26422   3.854   0.735   6.210
 8508SOL    HW126423   3.917   0.757   6.284
 8508SOL    HW226424   3.760   0.740   6.243
 8509SOL     OW26425   4.898   2.473   2.348
 8509SOL    HW126426   4.807   2.487   2.311
 8509SOL    HW226427   4.961   2.447   2.275
 8510SOL     OW26428   1.123   2.160   4.924
 8510SOL    HW126429   1.155   2.246   4.885
 8510SOL    HW226430   1.142   2.085   4.860
 8511SOL     OW26431   5.481   2.351   3.936
 8511SOL    HW126432   5.520   2.443   3.931
 8511SOL    HW226433   5.431   2.332   3.851
 8512SOL     OW26434   1.760   6.744   5.726
 8512SOL    HW126435   1.661   6.754   5.723
 8512SOL    HW226436   1.799   6.768   5.638
 8513SOL     OW26437   4.301   5.291   0.010
 8513SOL    HW126438   4.216   5.259   6.996
 8513SOL    HW226439   4.379   5.255   6.986
 8514SOL     OW26440   3.526   5.776   4.874
 8514SOL    HW126441   3.523   5.876   4.873
 8514SOL    HW226442   3.496   5.741   4.786
 8515SOL     OW26443   5.367   2.919   1.955
 8515SOL    HW126444   5.407   2.930   1.864
 8515SOL    HW226445   5.359   3.009   1.998
 8516SOL     OW26446   6.861   1.602   1.636
 8516SOL    HW126447   6.843   1.510   1.601
 8516SOL    HW226448   6.793   1.666   1.598
 8517SOL     OW26449   1.614   3.779   5.055
 8517SOL    HW126450   1.643   3.794   5.150
 8517SOL    HW226451   1.594   3.682   5.041
 8518SOL     OW26452   3.129   5.997   0.960
 8518SOL    HW126453   3.211   6.052   0.944
 8518SOL    HW226454   3.154   5.908   0.997
 8519SOL     OW26455   2.785   5.350   3.594
 8519SOL    HW126456   2.718   5.359   3.669
 8519SOL    HW226457   2.876   5.337   3.632
 8520SOL     OW26458   3.529   6.365   6.647
 8520SOL    HW126459   3.573   6.284   6.607
 8520SOL    HW226460   3.444   6.337   6.692
 8521SOL     OW26461   1.718   1.324   2.467
 8521SOL    HW126462   1.773   1.242   2.483
 8521SOL    HW226463   1.761   1.403   2.511
 8522SOL     OW26464   1.916   6.711   4.869
 8522SOL    HW126465   1.956   6.689   4.780
 8522SOL    HW226466   1.882   6.627   4.912
 8523SOL     OW26467   1.969   6.283   7.014
 8523SOL    HW126468   2.055   6.330   6.995
 8523SOL    HW226469   1.949   6.220   6.939
 8524SOL     OW26470   1.657   1.654   0.230
 8524SOL    HW126471   1.602   1.598   0.169
 8524SOL    HW226472   1.683   1.738   0.182
 8525SOL     OW26473   5.081   4.215   4.134
 8525SOL    HW126474   5.105   4.148   4.204
 8525SOL    HW226475   5.027   4.289   4.176
 8526SOL     OW26476   0.816   3.493   1.877
 8526SOL    HW126477   0.774   3.572   1.834
 8526SOL    HW226478   0.765   3.468   1.960
 8527SOL     OW26479   4.657   0.246   4.311
 8527SOL    HW126480   4.705   0.234   4.398
 8527SOL    HW226481   4.673   0.338   4.276
 8528SOL     OW26482   5.425   0.785   0.272
 8528SOL    HW126483   5.421   0.850   0.196
 8528SOL    HW226484   5.360   0.710   0.255
 8529SOL     OW26485   0.087   6.954   5.127
 8529SOL    HW126486   0.137   6.909   5.054
 8529SOL    HW226487   0.069   0.021   5.102
 8530SOL     OW26488   2.009   4.753   6.341
 8530SOL    HW126489   1.923   4.705   6.321
 8530SOL    HW226490   2.062   4.764   6.257
 8531SOL     OW26491   4.147   5.209   1.829
 8531SOL    HW126492   4.048   5.195   1.824
 8531SOL    HW226493   4.171   5.293   1.780
 8532SOL     OW26494   1.597   4.062   0.205
 8532SOL    HW126495   1.694   4.052   0.184
 8532SOL    HW226496   1.548   3.979   0.177
 8533SOL     OW26497   3.514   6.689   5.800
 8533SOL    HW126498   3.457   6.623   5.750
 8533SOL    HW226499   3.525   6.772   5.745
 8534SOL     OW26500   1.987   2.195   0.691
 8534SOL    HW126501   2.063   2.219   0.751
 8534SOL    HW226502   1.905   2.177   0.745
 8535SOL     OW26503   0.875   3.414   5.800
 8535SOL    HW126504   0.876   3.384   5.896
 8535SOL    HW226505   0.898   3.337   5.741
 8536SOL     OW26506   6.126   0.255   6.250
 8536SOL    HW126507   6.195   0.234   6.181
 8536SOL    HW226508   6.047   0.299   6.207
 8537SOL     OW26509   4.524   6.248   3.104
 8537SOL    HW126510   4.467   6.213   3.030
 8537SOL    HW226511   4.518   6.348   3.106
 8538SOL     OW26512   4.904   0.287   5.242
 8538SOL    HW126513   4.991   0.330   5.268
 8538SOL    HW226514   4.916   0.236   5.157
 8539SOL     OW26515   0.730   3.098   3.332
 8539SOL    HW126516   0.689   3.177   3.378
 8539SOL    HW226517   0.658   3.048   3.283
 8540SOL     OW26518   4.734   6.328   6.380
 8540SOL    HW126519   4.829   6.336   6.413
 8540SOL    HW226520   4.730   6.261   6.306
 8541SOL     OW26521   2.781   6.009   5.879
 8541SOL    HW126522   2.705   6.059   5.837
 8541SOL    HW226523   2.788   5.919   5.838
 8542SOL     OW26524   1.752   4.739   6.052
 8542SOL    HW126525   1.710   4.815   6.002
 8542SOL    HW226526   1.726   4.745   6.149
 8543SOL     OW26527   3.524   1.998   5.340
 8543SOL    HW126528   3.517   1.915   5.284
 8543SOL    HW226529   3.500   2.078   5.285
 8544SOL     OW26530   5.651   3.853   5.259
 8544SOL    HW126531   5.717   3.843   5.184
 8544SOL    HW226532   5.573   3.793   5.243
 8545SOL     OW26533   2.729   0.495   6.366
 8545SOL    HW126534   2.721   0.478   6.268
 8545SOL    HW226535   2.662   0.439   6.415
 8546SOL     OW26536   3.135   1.002   3.501
 8546SOL    HW126537   3.232   0.980   3.503
 8546SOL    HW226538   3.100   0.990   3.408
 8547SOL     OW26539   5.734   6.436   5.699
 8547SOL    HW126540   5.813   6.382   5.726
 8547SOL    HW226541   5.656   6.376   5.681
 8548SOL     OW26542   1.325   4.265   4.316
 8548SOL    HW126543   1.276   4.188   4.356
 8548SOL    HW226544   1.405   4.286   4.371
 8549SOL     OW26545   2.754   0.460   3.757
 8549SOL    HW126546   2.841   0.502   3.731
 8549SOL    HW226547   2.754   0.440   3.855
 8550SOL     OW26548   0.244   3.951   5.017
 8550SOL    HW126549   0.284   3.972   4.927
 8550SOL    HW226550   0.149   3.922   5.005
 8551SOL     OW26551   3.939   1.472   4.680
 8551SOL    HW126552   3.931   1.424   4.768
 8551SOL    HW226553   3.898   1.415   4.608
 8552SOL     OW26554   4.056   1.915   2.217
 8552SOL    HW126555   3.966   1.959   2.224
 8552SOL    HW226556   4.125   1.973   2.261
 8553SOL     OW26557   5.289   3.615   0.405
 8553SOL    HW126558   5.243   3.527   0.414
 8553SOL    HW226559   5.307   3.633   0.308
 8554SOL     OW26560   1.002   1.365   6.692
 8554SOL    HW126561   1.074   1.390   6.757
 8554SOL    HW226562   0.971   1.446   6.644
 8555SOL     OW26563   3.124   1.935   3.503
 8555SOL    HW126564   3.090   1.913   3.412
 8555SOL    HW226565   3.203   1.878   3.525
 8556SOL     OW26566   0.155   4.708   5.156
 8556SOL    HW126567   0.206   4.757   5.227
 8556SOL    HW226568   0.074   4.666   5.196
 8557SOL     OW26569   6.255   0.937   0.524
 8557SOL    HW126570   6.191   1.014   0.528
 8557SOL    HW226571   6.253   0.887   0.611
 8558SOL     OW26572   2.780   6.485   3.357
 8558SOL    HW126573   2.831   6.517   3.436
 8558SOL    HW226574   2.696   6.539   3.347
 8559SOL     OW26575   1.123   3.365   3.642
 8559SOL    HW126576   1.070   3.287   3.606
 8559SOL    HW226577   1.061   3.432   3.681
 8560SOL     OW26578   3.466   4.068   1.433
 8560SOL    HW126579   3.480   3.979   1.390
 8560SOL    HW226580   3.414   4.057   1.517
 8561SOL     OW26581   4.192   0.569   2.056
 8561SOL    HW126582   4.206   0.471   2.067
 8561SOL    HW226583   4.259   0.619   2.111
 8562SOL     OW26584   5.325   2.582   6.590
 8562SOL    HW126585   5.250   2.641   6.620
 8562SOL    HW226586   5.405   2.598   6.647
 8563SOL     OW26587   1.275   4.558   3.026
 8563SOL    HW126588   1.260   4.539   2.929
 8563SOL    HW226589   1.195   4.606   3.063
 8564SOL     OW26590   3.943   6.722   6.858
 8564SOL    HW126591   3.933   6.626   6.831
 8564SOL    HW226592   4.022   6.731   6.919
 8565SOL     OW26593   0.975   5.428   1.724
 8565SOL    HW126594   0.980   5.442   1.823
 8565SOL    HW226595   0.966   5.330   1.704
 8566SOL     OW26596   3.401   1.004   3.400
 8566SOL    HW126597   3.378   0.926   3.342
 8566SOL    HW226598   3.386   1.089   3.349
 8567SOL     OW26599   1.907   2.872   0.838
 8567SOL    HW126600   1.961   2.909   0.762
 8567SOL    HW226601   1.957   2.885   0.923
 8568SOL     OW26602   5.685   6.710   5.714
 8568SOL    HW126603   5.687   6.612   5.693
 8568SOL    HW226604   5.651   6.761   5.635
 8569SOL     OW26605   4.958   1.609   6.551
 8569SOL    HW126606   4.999   1.700   6.550
 8569SOL    HW226607   5.027   1.541   6.526
 8570SOL     OW26608   1.530   1.791   3.543
 8570SOL    HW126609   1.473   1.796   3.625
 8570SOL    HW226610   1.571   1.881   3.525
 8571SOL     OW26611   1.178   0.986   3.554
 8571SOL    HW126612   1.109   0.925   3.593
 8571SOL    HW226613   1.160   1.080   3.584
 8572SOL     OW26614   2.718   3.496   5.593
 8572SOL    HW126615   2.700   3.443   5.510
 8572SOL    HW226616   2.688   3.591   5.578
 8573SOL     OW26617   1.515   5.843   6.217
 8573SOL    HW126618   1.505   5.900   6.135
 8573SOL    HW226619   1.444   5.867   6.283
 8574SOL     OW26620   5.578   1.393   5.416
 8574SOL    HW126621   5.489   1.377   5.375
 8574SOL    HW226622   5.588   1.334   5.497
 8575SOL     OW26623   2.638   6.130   4.450
 8575SOL    HW126624   2.719   6.178   4.484
 8575SOL    HW226625   2.601   6.072   4.522
 8576SOL     OW26626   1.643   3.398   5.322
 8576SOL    HW126627   1.666   3.302   5.305
 8576SOL    HW226628   1.641   3.448   5.235
 8577SOL     OW26629   1.551   0.862   0.469
 8577SOL    HW126630   1.601   0.948   0.477
 8577SOL    HW226631   1.574   0.802   0.546
 8578SOL     OW26632   1.237   0.348   5.926
 8578SOL    HW126633   1.218   0.427   5.984
 8578SOL    HW226634   1.191   0.359   5.838
 8579SOL     OW26635   3.844   7.006   2.099
 8579SOL    HW126636   3.906   0.055   2.114
 8579SOL    HW226637   3.755   0.013   2.069
 8580SOL     OW26638   2.320   0.516   1.841
 8580SOL    HW126639   2.226   0.488   1.819
 8580SOL    HW226640   2.344   0.485   1.933
 8581SOL     OW26641   4.051   3.828   2.667
 8581SOL    HW126642   4.136   3.783   2.637
 8581SOL    HW226643   4.000   3.766   2.726
 8582SOL     OW26644   4.468   5.722   5.679
 8582SOL    HW126645   4.368   5.726   5.688
 8582SOL    HW226646   4.492   5.666   5.600
 8583SOL     OW26647   3.360   6.793   3.243
 8583SOL    HW126648   3.411   6.875   3.216
 8583SOL    HW226649   3.422   6.725   3.280
 8584SOL     OW26650   6.127   2.387   5.061
 8584SOL    HW126651   6.064   2.463   5.046
 8584SOL    HW226652   6.078   2.312   5.106
 8585SOL     OW26653   4.906   2.224   2.631
 8585SOL    HW126654   4.965   2.301   2.654
 8585SOL    HW226655   4.824   2.257   2.584
 8586SOL     OW26656   6.832   6.354   5.154
 8586SOL    HW126657   6.779   6.283   5.107
 8586SOL    HW226658   6.827   6.340   5.252
 8587SOL     OW26659   6.614   1.170   0.707
 8587SOL    HW126660   6.625   1.159   0.608
 8587SOL    HW226661   6.703   1.188   0.748
 8588SOL     OW26662   1.679   1.248   5.526
 8588SOL    HW126663   1.597   1.293   5.489
 8588SOL    HW226664   1.661   1.151   5.539
 8589SOL     OW26665   5.819   2.778   6.741
 8589SOL    HW126666   5.904   2.829   6.751
 8589SOL    HW226667   5.741   2.838   6.758
 8590SOL     OW26668   1.473   1.219   3.149
 8590SOL    HW126669   1.433   1.309   3.159
 8590SOL    HW226670   1.477   1.195   3.051
 8591SOL     OW26671   1.451   4.003   5.447
 8591SOL    HW126672   1.431   4.078   5.511
 8591SOL    HW226673   1.501   3.931   5.494
 8592SOL     OW26674   0.414   2.022   5.020
 8592SOL    HW126675   0.444   1.947   5.078
 8592SOL    HW226676   0.390   2.101   5.077
 8593SOL     OW26677   6.390   1.340   0.649
 8593SOL    HW126678   6.451   1.265   0.673
 8593SOL    HW226679   6.377   1.399   0.729
 8594SOL     OW26680   6.063   4.291   6.246
 8594SOL    HW126681   6.082   4.193   6.241
 8594SOL    HW226682   5.974   4.306   6.290
 8595SOL     OW26683   5.464   6.160   2.625
 8595SOL    HW126684   5.426   6.074   2.660
 8595SOL    HW226685   5.389   6.221   2.599
 8596SOL     OW26686   0.097   1.658   5.801
 8596SOL    HW126687   0.061   1.726   5.863
 8596SOL    HW226688   0.024   1.626   5.740
 8597SOL     OW26689   6.178   2.362   5.890
 8597SOL    HW126690   6.200   2.326   5.800
 8597SOL    HW226691   6.079   2.353   5.906
 8598SOL     OW26692   0.018   0.895   6.215
 8598SOL    HW126693   7.004   0.912   6.125
 8598SOL    HW226694   0.100   0.950   6.224
 8599SOL     OW26695   5.755   3.900   5.024
 8599SOL    HW126696   5.723   3.963   4.953
 8599SOL    HW226697   5.854   3.911   5.036
 8600SOL     OW26698   4.245   2.822   1.377
 8600SOL    HW126699   4.193   2.862   1.302
 8600SOL    HW226700   4.289   2.737   1.346
 8601SOL     OW26701   4.682   5.660   2.310
 8601SOL    HW126702   4.671   5.632   2.214
 8601SOL    HW226703   4.597   5.699   2.343
 8602SOL     OW26704   2.152   6.497   5.013
 8602SOL    HW126705   2.053   6.500   5.022
 8602SOL    HW226706   2.190   6.430   5.076
 8603SOL     OW26707   0.773   1.188   6.712
 8603SOL    HW126708   0.851   1.250   6.721
 8603SOL    HW226709   0.782   1.113   6.777
 8604SOL     OW26710   1.429   5.033   6.241
 8604SOL    HW126711   1.411   5.022   6.338
 8604SOL    HW226712   1.528   5.031   6.225
 8605SOL     OW26713   6.208   4.406   3.887
 8605SOL    HW126714   6.298   4.362   3.891
 8605SOL    HW226715   6.175   4.424   3.980
 8606SOL     OW26716   1.113   0.403   6.309
 8606SOL    HW126717   1.167   0.357   6.380
 8606SOL    HW226718   1.174   0.458   6.251
 8607SOL     OW26719   2.715   3.015   1.413
 8607SOL    HW126720   2.718   3.104   1.367
 8607SOL    HW226721   2.670   3.024   1.501
 8608SOL     OW26722   2.199   5.826   1.783
 8608SOL    HW126723   2.232   5.878   1.704
 8608SOL    HW226724   2.251   5.853   1.864
 8609SOL     OW26725   5.460   2.284   4.541
 8609SOL    HW126726   5.442   2.198   4.493
 8609SOL    HW226727   5.516   2.267   4.622
 8610SOL     OW26728   6.956   5.296   2.266
 8610SOL    HW126729   7.012   5.271   2.345
 8610SOL    HW226730   6.861   5.270   2.282
 8611SOL     OW26731   1.932   1.531   5.167
 8611SOL    HW126732   1.902   1.592   5.239
 8611SOL    HW226733   2.032   1.529   5.164
 8612SOL     OW26734   3.421   3.132   5.553
 8612SOL    HW126735   3.352   3.098   5.490
 8612SOL    HW226736   3.510   3.134   5.508
 8613SOL     OW26737   3.009   3.267   3.592
 8613SOL    HW126738   3.064   3.187   3.613
 8613SOL    HW226739   2.995   3.322   3.675
 8614SOL     OW26740   0.544   2.537   4.214
 8614SOL    HW126741   0.597   2.572   4.137
 8614SOL    HW226742   0.592   2.559   4.299
 8615SOL     OW26743   4.046   0.863   5.416
 8615SOL    HW126744   4.105   0.944   5.414
 8615SOL    HW226745   4.016   0.841   5.323
 8616SOL     OW26746   5.992   4.187   5.606
 8616SOL    HW126747   5.937   4.154   5.681
 8616SOL    HW226748   6.085   4.206   5.638
 8617SOL     OW26749   1.041   6.746   3.316
 8617SOL    HW126750   1.131   6.726   3.279
 8617SOL    HW226751   1.040   6.727   3.414
 8618SOL     OW26752   6.154   4.568   0.488
 8618SOL    HW126753   6.177   4.491   0.429
 8618SOL    HW226754   6.133   4.648   0.431
 8619SOL     OW26755   5.198   5.512   6.832
 8619SOL    HW126756   5.164   5.480   6.743
 8619SOL    HW226757   5.289   5.551   6.821
 8620SOL     OW26758   1.401   6.637   3.773
 8620SOL    HW126759   1.451   6.723   3.780
 8620SOL    HW226760   1.307   6.650   3.803
 8621SOL     OW26761   6.310   3.588   1.358
 8621SOL    HW126762   6.222   3.566   1.316
 8621SOL    HW226763   6.295   3.625   1.449
 8622SOL     OW26764   1.054   5.730   1.432
 8622SOL    HW126765   1.141   5.779   1.438
 8622SOL    HW226766   0.986   5.774   1.490
 8623SOL     OW26767   2.027   1.876   3.322
 8623SOL    HW126768   1.937   1.833   3.323
 8623SOL    HW226769   2.098   1.806   3.329
 8624SOL     OW26770   3.495   3.748   5.211
 8624SOL    HW126771   3.514   3.662   5.258
 8624SOL    HW226772   3.397   3.766   5.211
 8625SOL     OW26773   4.423   3.203   6.009
 8625SOL    HW126774   4.386   3.137   5.943
 8625SOL    HW226775   4.349   3.236   6.068
 8626SOL     OW26776   5.175   2.170   1.282
 8626SOL    HW126777   5.194   2.153   1.379
 8626SOL    HW226778   5.079   2.149   1.263
 8627SOL     OW26779   0.730   7.014   3.095
 8627SOL    HW126780   0.778   0.073   3.112
 8627SOL    HW226781   0.651   7.008   3.156
 8628SOL     OW26782   1.326   6.894   0.845
 8628SOL    HW126783   1.334   6.901   0.944
 8628SOL    HW226784   1.411   6.855   0.807
 8629SOL     OW26785   6.889   0.550   4.587
 8629SOL    HW126786   6.947   0.528   4.509
 8629SOL    HW226787   6.929   0.513   4.670
 8630SOL     OW26788   5.197   2.893   1.542
 8630SOL    HW126789   5.155   2.892   1.452
 8630SOL    HW226790   5.283   2.944   1.539
 8631SOL     OW26791   1.598   6.246   6.605
 8631SOL    HW126792   1.629   6.159   6.567
 8631SOL    HW226793   1.653   6.320   6.568
 8632SOL     OW26794   6.210   5.989   4.046
 8632SOL    HW126795   6.253   5.899   4.051
 8632SOL    HW226796   6.261   6.047   3.982
 8633SOL     OW26797   6.540   3.017   5.423
 8633SOL    HW126798   6.601   3.044   5.348
 8633SOL    HW226799   6.447   3.009   5.388
 8634SOL     OW26800   5.151   4.821   6.193
 8634SOL    HW126801   5.077   4.770   6.237
 8634SOL    HW226802   5.209   4.861   6.264
 8635SOL     OW26803   4.968   2.103   6.065
 8635SOL    HW126804   5.008   2.012   6.061
 8635SOL    HW226805   4.868   2.096   6.060
 8636SOL     OW26806   3.978   6.305   1.267
 8636SOL    HW126807   3.988   6.404   1.263
 8636SOL    HW226808   3.978   6.268   1.174
 8637SOL     OW26809   3.043   2.372   0.819
 8637SOL    HW126810   2.977   2.410   0.754
 8637SOL    HW226811   3.097   2.300   0.774
 8638SOL     OW26812   5.102   2.793   4.768
 8638SOL    HW126813   5.019   2.770   4.817
 8638SOL    HW226814   5.135   2.713   4.718
 8639SOL     OW26815   3.004   4.520   0.532
 8639SOL    HW126816   3.040   4.514   0.439
 8639SOL    HW226817   2.904   4.518   0.530
 8640SOL     OW26818   3.661   2.378   6.537
 8640SOL    HW126819   3.575   2.327   6.536
 8640SOL    HW226820   3.673   2.426   6.449
 8641SOL     OW26821   3.421   4.950   3.695
 8641SOL    HW126822   3.436   4.974   3.599
 8641SOL    HW226823   3.509   4.947   3.742
 8642SOL     OW26824   2.211   6.095   3.112
 8642SOL    HW126825   2.238   6.170   3.053
 8642SOL    HW226826   2.283   6.025   3.112
 8643SOL     OW26827   3.898   6.709   1.395
 8643SOL    HW126828   3.914   6.751   1.305
 8643SOL    HW226829   3.973   6.646   1.415
 8644SOL     OW26830   5.796   2.514   6.255
 8644SOL    HW126831   5.856   2.460   6.196
 8644SOL    HW226832   5.770   2.460   6.335
 8645SOL     OW26833   4.789   4.865   2.749
 8645SOL    HW126834   4.709   4.865   2.810
 8645SOL    HW226835   4.760   4.841   2.656
 8646SOL     OW26836   0.004   1.884   5.022
 8646SOL    HW126837   6.966   1.937   4.968
 8646SOL    HW226838   0.096   1.902   4.987
 8647SOL     OW26839   1.788   4.888   1.722
 8647SOL    HW126840   1.888   4.882   1.730
 8647SOL    HW226841   1.756   4.967   1.775
 8648SOL     OW26842   5.543   5.399   6.577
 8648SOL    HW126843   5.535   5.495   6.604
 8648SOL    HW226844   5.636   5.381   6.546
 8649SOL     OW26845   5.324   2.102   1.890
 8649SOL    HW126846   5.286   2.187   1.854
 8649SOL    HW226847   5.251   2.036   1.906
 8650SOL     OW26848   1.861   0.680   5.465
 8650SOL    HW126849   1.832   0.734   5.543
 8650SOL    HW226850   1.783   0.631   5.426
 8651SOL     OW26851   4.665   2.034   1.744
 8651SOL    HW126852   4.615   2.121   1.752
 8651SOL    HW226853   4.761   2.050   1.763
 8652SOL     OW26854   6.500   2.245   4.290
 8652SOL    HW126855   6.421   2.227   4.349
 8652SOL    HW226856   6.582   2.203   4.330
 8653SOL     OW26857   5.600   0.599   0.712
 8653SOL    HW126858   5.531   0.669   0.697
 8653SOL    HW226859   5.687   0.629   0.673
 8654SOL     OW26860   0.582   4.853   3.022
 8654SOL    HW126861   0.569   4.914   3.100
 8654SOL    HW226862   0.632   4.771   3.051
 8655SOL     OW26863   1.487   0.068   5.124
 8655SOL    HW126864   1.510   0.043   5.218
 8655SOL    HW226865   1.553   0.136   5.090
 8656SOL     OW26866   4.521   5.936   0.977
 8656SOL    HW126867   4.547   6.009   1.041
 8656SOL    HW226868   4.506   5.975   0.886
 8657SOL     OW26869   3.446   1.632   2.567
 8657SOL    HW126870   3.500   1.680   2.498
 8657SOL    HW226871   3.508   1.586   2.631
 8658SOL     OW26872   6.328   4.095   0.767
 8658SOL    HW126873   6.335   4.030   0.842
 8658SOL    HW226874   6.333   4.188   0.802
 8659SOL     OW26875   3.676   0.449   2.949
 8659SOL    HW126876   3.603   0.397   2.995
 8659SOL    HW226877   3.688   0.537   2.995
 8660SOL     OW26878   0.093   3.709   1.438
 8660SOL    HW126879   0.072   3.696   1.341
 8660SOL    HW226880   0.078   3.805   1.463
 8661SOL     OW26881   6.448   3.998   2.319
 8661SOL    HW126882   6.481   3.904   2.326
 8661SOL    HW226883   6.522   4.061   2.343
 8662SOL     OW26884   1.598   2.334   3.061
 8662SOL    HW126885   1.696   2.353   3.061
 8662SOL    HW226886   1.549   2.411   3.102
 8663SOL     OW26887   3.273   4.918   2.914
 8663SOL    HW126888   3.219   4.968   2.846
 8663SOL    HW226889   3.223   4.913   3.000
 8664SOL     OW26890   3.021   6.147   4.038
 8664SOL    HW126891   3.000   6.242   4.015
 8664SOL    HW226892   2.972   6.122   4.122
 8665SOL     OW26893   6.769   3.582   6.397
 8665SOL    HW126894   6.794   3.493   6.436
 8665SOL    HW226895   6.852   3.635   6.378
 8666SOL     OW26896   5.007   0.227   2.808
 8666SOL    HW126897   4.943   0.162   2.848
 8666SOL    HW226898   5.061   0.270   2.881
 8667SOL     OW26899   5.137   2.331   1.942
 8667SOL    HW126900   5.054   2.339   1.886
 8667SOL    HW226901   5.127   2.386   2.024
 8668SOL     OW26902   3.891   1.971   3.697
 8668SOL    HW126903   3.935   1.906   3.759
 8668SOL    HW226904   3.816   1.925   3.648
 8669SOL     OW26905   0.445   6.294   6.013
 8669SOL    HW126906   0.397   6.307   5.926
 8669SOL    HW226907   0.541   6.318   6.002
 8670SOL     OW26908   0.260   5.348   5.334
 8670SOL    HW126909   0.291   5.283   5.265
 8670SOL    HW226910   0.324   5.425   5.338
 8671SOL     OW26911   7.016   3.145   3.896
 8671SOL    HW126912   6.979   3.238   3.895
 8671SOL    HW226913   0.056   3.137   3.970
 8672SOL     OW26914   6.557   1.344   2.529
 8672SOL    HW126915   6.569   1.286   2.610
 8672SOL    HW226916   6.641   1.342   2.474
 8673SOL     OW26917   0.994   1.136   1.744
 8673SOL    HW126918   0.917   1.072   1.754
 8673SOL    HW226919   1.065   1.113   1.810
 8674SOL     OW26920   0.197   3.590   3.722
 8674SOL    HW126921   0.238   3.552   3.806
 8674SOL    HW226922   0.256   3.569   3.644
 8675SOL     OW26923   4.589   2.587   5.081
 8675SOL    HW126924   4.679   2.595   5.038
 8675SOL    HW226925   4.583   2.649   5.159
 8676SOL     OW26926   4.748   2.363   0.547
 8676SOL    HW126927   4.719   2.444   0.495
 8676SOL    HW226928   4.718   2.371   0.642
 8677SOL     OW26929   2.800   0.604   6.971
 8677SOL    HW126930   2.850   0.518   6.966
 8677SOL    HW226931   2.709   0.593   6.929
 8678SOL     OW26932   3.120   1.810   0.415
 8678SOL    HW126933   3.176   1.761   0.482
 8678SOL    HW226934   3.090   1.897   0.454
 8679SOL     OW26935   1.593   2.001   6.623
 8679SOL    HW126936   1.581   1.911   6.582
 8679SOL    HW226937   1.601   2.070   6.551
 8680SOL     OW26938   0.042   0.353   1.069
 8680SOL    HW126939   6.982   0.344   1.117
 8680SOL    HW226940   0.030   0.412   0.989
 8681SOL     OW26941   5.271   5.360   0.908
 8681SOL    HW126942   5.292   5.430   0.840
 8681SOL    HW226943   5.172   5.342   0.907
 8682SOL     OW26944   2.075   1.061   2.996
 8682SOL    HW126945   2.006   1.111   2.943
 8682SOL    HW226946   2.115   1.121   3.064
 8683SOL     OW26947   2.594   4.590   4.102
 8683SOL    HW126948   2.607   4.677   4.149
 8683SOL    HW226949   2.539   4.529   4.159
 8684SOL     OW26950   2.393   4.309   3.348
 8684SOL    HW126951   2.466   4.376   3.334
 8684SOL    HW226952   2.365   4.309   3.444
 8685SOL     OW26953   5.441   3.586   5.448
 8685SOL    HW126954   5.535   3.554   5.431
 8685SOL    HW226955   5.405   3.541   5.529
 8686SOL     OW26956   1.492   4.670   3.137
 8686SOL    HW126957   1.449   4.721   3.211
 8686SOL    HW226958   1.423   4.612   3.093
 8687SOL     OW26959   5.769   4.513   5.755
 8687SOL    HW126960   5.734   4.495   5.663
 8687SOL    HW226961   5.820   4.434   5.788
 8688SOL     OW26962   0.702   4.236   5.237
 8688SOL    HW126963   0.636   4.310   5.224
 8688SOL    HW226964   0.671   4.154   5.189
 8689SOL     OW26965   4.744   3.458   0.728
 8689SOL    HW126966   4.647   3.435   0.714
 8689SOL    HW226967   4.800   3.378   0.706
 8690SOL     OW26968   1.791   2.331   2.592
 8690SOL    HW126969   1.715   2.266   2.585
 8690SOL    HW226970   1.859   2.295   2.656
 8691SOL     OW26971   3.329   1.447   6.913
 8691SOL    HW126972   3.245   1.451   6.967
 8691SOL    HW226973   3.349   1.537   6.875
 8692SOL     OW26974   5.409   2.025   4.402
 8692SOL    HW126975   5.390   2.025   4.304
 8692SOL    HW226976   5.323   2.033   4.453
 8693SOL     OW26977   0.611   0.426   5.835
 8693SOL    HW126978   0.528   0.371   5.828
 8693SOL    HW226979   0.611   0.475   5.922
 8694SOL     OW26980   4.536   3.731   5.394
 8694SOL    HW126981   4.512   3.689   5.306
 8694SOL    HW226982   4.457   3.781   5.430
 8695SOL     OW26983   4.374   4.780   1.250
 8695SOL    HW126984   4.300   4.789   1.317
 8695SOL    HW226985   4.369   4.690   1.207
 8696SOL     OW26986   3.077   6.274   6.755
 8696SOL    HW126987   3.013   6.287   6.830
 8696SOL    HW226988   3.037   6.308   6.670
 8697SOL     OW26989   1.498   3.125   4.947
 8697SOL    HW126990   1.411   3.154   4.987
 8697SOL    HW226991   1.517   3.179   4.865
 8698SOL     OW26992   5.620   4.259   0.018
 8698SOL    HW126993   5.625   4.352   7.009
 8698SOL    HW226994   5.647   4.259   0.114
 8699SOL     OW26995   2.664   2.129   1.430
 8699SOL    HW126996   2.698   2.136   1.524
 8699SOL    HW226997   2.693   2.042   1.390
 8700SOL     OW26998   0.027   1.670   4.349
 8700SOL    HW126999   6.963   1.673   4.309
 8700SOL    HW227000   0.056   1.763   4.372
 8701SOL     OW27001   2.044   2.947   6.487
 8701SOL    HW127002   2.029   2.909   6.396
 8701SOL    HW227003   2.021   2.879   6.556
 8702SOL     OW27004   5.509   4.006   1.380
 8702SOL    HW127005   5.531   3.940   1.452
 8702SOL    HW227006   5.411   4.003   1.361
 8703SOL     OW27007   2.373   5.549   1.894
 8703SOL    HW127008   2.298   5.594   1.944
 8703SOL    HW227009   2.347   5.536   1.799
 8704SOL     OW27010   5.931   0.811   3.550
 8704SOL    HW127011   5.977   0.898   3.568
 8704SOL    HW227012   5.992   0.735   3.574
 8705SOL     OW27013   3.695   2.013   0.252
 8705SOL    HW127014   3.675   2.040   0.158
 8705SOL    HW227015   3.658   2.081   0.315
 8706SOL     OW27016   4.937   2.858   5.625
 8706SOL    HW127017   4.932   2.958   5.633
 8706SOL    HW227018   4.848   2.818   5.647
 8707SOL     OW27019   0.715   1.063   3.755
 8707SOL    HW127020   0.624   1.024   3.771
 8707SOL    HW227021   0.707   1.156   3.719
 8708SOL     OW27022   5.896   2.456   0.686
 8708SOL    HW127023   5.907   2.537   0.629
 8708SOL    HW227024   5.813   2.465   0.742
 8709SOL     OW27025   6.500   6.503   3.948
 8709SOL    HW127026   6.535   6.418   3.986
 8709SOL    HW227027   6.541   6.581   3.995
 8710SOL     OW27028   2.274   2.596   4.035
 8710SOL    HW127029   2.299   2.693   4.030
 8710SOL    HW227030   2.257   2.561   3.943
 8711SOL     OW27031   1.283   1.362   1.988
 8711SOL    HW127032   1.325   1.416   1.915
 8711SOL    HW227033   1.184   1.382   1.991
 8712SOL     OW27034   1.615   3.682   4.364
 8712SOL    HW127035   1.654   3.753   4.306
 8712SOL    HW227036   1.609   3.597   4.311
 8713SOL     OW27037   0.489   4.393   3.286
 8713SOL    HW127038   0.427   4.325   3.326
 8713SOL    HW227039   0.462   4.484   3.315
 8714SOL     OW27040   6.860   3.952   6.255
 8714SOL    HW127041   6.906   3.883   6.311
 8714SOL    HW227042   6.899   3.953   6.163
 8715SOL     OW27043   2.405   5.423   1.124
 8715SOL    HW127044   2.397   5.426   1.024
 8715SOL    HW227045   2.411   5.517   1.159
 8716SOL     OW27046   5.836   0.164   2.486
 8716SOL    HW127047   5.823   0.233   2.415
 8716SOL    HW227048   5.861   0.077   2.444
 8717SOL     OW27049   3.731   2.159   7.023
 8717SOL    HW127050   3.764   2.079   6.973
 8717SOL    HW227051   3.654   2.199   6.973
 8718SOL     OW27052   2.921   5.336   6.152
 8718SOL    HW127053   2.912   5.360   6.055
 8718SOL    HW227054   3.005   5.283   6.166
 8719SOL     OW27055   3.244   1.925   4.617
 8719SOL    HW127056   3.344   1.921   4.604
 8719SOL    HW227057   3.219   2.014   4.655
 8720SOL     OW27058   0.485   6.215   5.358
 8720SOL    HW127059   0.479   6.233   5.456
 8720SOL    HW227060   0.406   6.255   5.311
 8721SOL     OW27061   1.245   0.685   1.363
 8721SOL    HW127062   1.336   0.682   1.322
 8721SOL    HW227063   1.197   0.767   1.331
 8722SOL     OW27064   4.074   1.394   0.134
 8722SOL    HW127065   4.131   1.476   0.125
 8722SOL    HW227066   4.081   1.340   0.050
 8723SOL     OW27067   4.051   6.006   2.778
 8723SOL    HW127068   3.979   6.007   2.847
 8723SOL    HW227069   4.018   6.050   2.694
 8724SOL     OW27070   3.363   0.581   5.257
 8724SOL    HW127071   3.349   0.675   5.229
 8724SOL    HW227072   3.276   0.539   5.282
 8725SOL     OW27073   6.713   0.993   2.494
 8725SOL    HW127074   6.779   1.053   2.537
 8725SOL    HW227075   6.647   1.047   2.442
 8726SOL     OW27076   6.870   1.450   0.446
 8726SOL    HW127077   6.905   1.369   0.494
 8726SOL    HW227078   6.851   1.522   0.513
 8727SOL     OW27079   4.696   5.449   6.593
 8727SOL    HW127080   4.707   5.422   6.498
 8727SOL    HW227081   4.705   5.548   6.601
 8728SOL     OW27082   6.205   6.574   4.728
 8728SOL    HW127083   6.107   6.588   4.713
 8728SOL    HW227084   6.256   6.653   4.694
 8729SOL     OW27085   6.114   6.079   5.509
 8729SOL    HW127086   6.111   6.173   5.545
 8729SOL    HW227087   6.143   6.017   5.581
 8730SOL     OW27088   3.947   4.710   1.813
 8730SOL    HW127089   3.987   4.658   1.737
 8730SOL    HW227090   4.019   4.736   1.877
 8731SOL     OW27091   6.983   2.126   4.421
 8731SOL    HW127092   6.987   2.162   4.328
 8731SOL    HW227093   0.046   2.091   4.447
 8732SOL     OW27094   5.133   6.158   5.315
 8732SOL    HW127095   5.193   6.093   5.362
 8732SOL    HW227096   5.144   6.249   5.357
 8733SOL     OW27097   5.967   4.633   1.692
 8733SOL    HW127098   5.971   4.639   1.593
 8733SOL    HW227099   5.873   4.649   1.723
 8734SOL     OW27100   0.901   5.701   1.180
 8734SOL    HW127101   0.940   5.679   1.269
 8734SOL    HW227102   0.821   5.644   1.164
 8735SOL     OW27103   1.008   2.565   6.205
 8735SOL    HW127104   0.919   2.532   6.173
 8735SOL    HW227105   1.027   2.653   6.162
 8736SOL     OW27106   1.435   6.249   3.693
 8736SOL    HW127107   1.415   6.310   3.617
 8736SOL    HW227108   1.478   6.300   3.767
 8737SOL     OW27109   0.106   5.230   6.711
 8737SOL    HW127110   0.014   5.201   6.738
 8737SOL    HW227111   0.172   5.204   6.782
 8738SOL     OW27112   2.191   2.873   2.319
 8738SOL    HW127113   2.220   2.882   2.415
 8738SOL    HW227114   2.136   2.952   2.293
 8739SOL     OW27115   4.141   4.732   3.262
 8739SOL    HW127116   4.148   4.636   3.236
 8739SOL    HW227117   4.046   4.754   3.284
 8740SOL     OW27118   2.818   1.504   3.345
 8740SOL    HW127119   2.812   1.505   3.445
 8740SOL    HW227120   2.845   1.413   3.314
 8741SOL     OW27121   1.851   2.213   2.829
 8741SOL    HW127122   1.944   2.176   2.818
 8741SOL    HW227123   1.785   2.139   2.821
 8742SOL     OW27124   1.829   3.462   1.488
 8742SOL    HW127125   1.824   3.522   1.568
 8742SOL    HW227126   1.752   3.399   1.489
 8743SOL     OW27127   1.296   3.711   6.913
 8743SOL    HW127128   1.280   3.634   6.852
 8743SOL    HW227129   1.343   3.679   6.996
 8744SOL     OW27130   3.023   3.965   6.248
 8744SOL    HW127131   2.979   4.052   6.272
 8744SOL    HW227132   3.011   3.948   6.151
 8745SOL     OW27133   5.568   1.712   6.472
 8745SOL    HW127134   5.660   1.707   6.512
 8745SOL    HW227135   5.551   1.804   6.438
 8746SOL     OW27136   4.675   4.821   4.876
 8746SOL    HW127137   4.748   4.784   4.933
 8746SOL    HW227138   4.604   4.751   4.865
 8747SOL     OW27139   0.576   6.735   1.964
 8747SOL    HW127140   0.661   6.691   1.937
 8747SOL    HW227141   0.578   6.755   2.062
 8748SOL     OW27142   5.830   1.306   4.232
 8748SOL    HW127143   5.892   1.262   4.296
 8748SOL    HW227144   5.736   1.279   4.252
 8749SOL     OW27145   3.090   1.401   3.786
 8749SOL    HW127146   2.992   1.385   3.768
 8749SOL    HW227147   3.135   1.313   3.802
 8750SOL     OW27148   3.836   3.457   1.552
 8750SOL    HW127149   3.801   3.378   1.502
 8750SOL    HW227150   3.837   3.436   1.650
 8751SOL     OW27151   1.843   0.042   0.484
 8751SOL    HW127152   1.941   0.035   0.463
 8751SOL    HW227153   1.822   7.011   0.562
 8752SOL     OW27154   0.438   3.074   6.315
 8752SOL    HW127155   0.405   2.983   6.289
 8752SOL    HW227156   0.538   3.071   6.321
 8753SOL     OW27157   1.822   1.747   1.329
 8753SOL    HW127158   1.826   1.672   1.264
 8753SOL    HW227159   1.849   1.832   1.284
 8754SOL     OW27160   1.526   5.997   5.977
 8754SOL    HW127161   1.468   6.068   6.016
 8754SOL    HW227162   1.469   5.934   5.923
 8755SOL     OW27163   0.822   2.092   1.689
 8755SOL    HW127164   0.743   2.098   1.627
 8755SOL    HW227165   0.824   2.172   1.748
 8756SOL     OW27166   1.744   1.569   2.607
 8756SOL    HW127167   1.814   1.585   2.538
 8756SOL    HW227168   1.667   1.631   2.591
 8757SOL     OW27169   5.330   5.784   4.574
 8757SOL    HW127170   5.391   5.826   4.641
 8757SOL    HW227171   5.359   5.810   4.482
 8758SOL     OW27172   3.584   5.393   6.791
 8758SOL    HW127173   3.593   5.491   6.805
 8758SOL    HW227174   3.559   5.349   6.877
 8759SOL     OW27175   0.039   1.433   2.050
 8759SOL    HW127176   0.050   1.467   1.957
 8759SOL    HW227177   0.038   1.333   2.049
 8760SOL     OW27178   1.865   2.825   4.326
 8760SOL    HW127179   1.853   2.763   4.249
 8760SOL    HW227180   1.897   2.914   4.294
 8761SOL     OW27181   4.776   3.048   3.398
 8761SOL    HW127182   4.823   2.968   3.360
 8761SOL    HW227183   4.700   3.018   3.456
 8762SOL     OW27184   4.301   5.904   2.690
 8762SOL    HW127185   4.237   5.971   2.727
 8762SOL    HW227186   4.252   5.820   2.668
 8763SOL     OW27187   6.794   1.305   5.449
 8763SOL    HW127188   6.871   1.329   5.508
 8763SOL    HW227189   6.807   1.213   5.412
 8764SOL     OW27190   3.362   5.261   6.340
 8764SOL    HW127191   3.393   5.240   6.433
 8764SOL    HW227192   3.425   5.326   6.297
 8765SOL     OW27193   4.651   0.196   3.493
 8765SOL    HW127194   4.629   0.141   3.412
 8765SOL    HW227195   4.725   0.152   3.544
 8766SOL     OW27196   6.197   0.005   4.692
 8766SOL    HW127197   6.116   0.030   4.744
 8766SOL    HW227198   6.226   0.084   4.637
 8767SOL     OW27199   2.019   1.058   4.511
 8767SOL    HW127200   2.007   1.131   4.579
 8767SOL    HW227201   2.100   1.076   4.456
 8768SOL     OW27202   6.986   1.692   1.059
 8768SOL    HW127203   0.018   1.772   1.057
 8768SOL    HW227204   0.008   1.612   1.029
 8769SOL     OW27205   6.475   6.744   6.526
 8769SOL    HW127206   6.451   6.655   6.565
 8769SOL    HW227207   6.541   6.732   6.452
 8770SOL     OW27208   4.998   1.423   0.533
 8770SOL    HW127209   4.909   1.392   0.500
 8770SOL    HW227210   5.043   1.350   0.584
 8771SOL     OW27211   0.328   2.844   6.238
 8771SOL    HW127212   0.382   2.788   6.175
 8771SOL    HW227213   0.270   2.785   6.294
 8772SOL     OW27214   0.558   6.554   3.707
 8772SOL    HW127215   0.506   6.472   3.683
 8772SOL    HW227216   0.598   6.594   3.625
 8773SOL     OW27217   6.569   1.274   3.974
 8773SOL    HW127218   6.495   1.302   4.036
 8773SOL    HW227219   6.655   1.270   4.025
 8774SOL     OW27220   1.514   2.426   6.922
 8774SOL    HW127221   1.610   2.431   6.950
 8774SOL    HW227222   1.500   2.344   6.867
 8775SOL     OW27223   5.444   2.039   2.939
 8775SOL    HW127224   5.431   2.102   2.862
 8775SOL    HW227225   5.522   2.070   2.994
 8776SOL     OW27226   4.956   3.180   1.520
 8776SOL    HW127227   5.032   3.135   1.567
 8776SOL    HW227228   4.966   3.279   1.526
 8777SOL     OW27229   6.720   2.099   4.359
 8777SOL    HW127230   6.806   2.111   4.408
 8777SOL    HW227231   6.735   2.037   4.281
 8778SOL     OW27232   1.657   4.167   6.731
 8778SOL    HW127233   1.704   4.119   6.804
 8778SOL    HW227234   1.649   4.108   6.651
 8779SOL     OW27235   4.221   5.976   3.010
 8779SOL    HW127236   4.262   5.889   3.038
 8779SOL    HW227237   4.167   5.963   2.927
 8780SOL     OW27238   0.923   3.756   4.275
 8780SOL    HW127239   0.876   3.697   4.341
 8780SOL    HW227240   0.999   3.706   4.234
 8781SOL     OW27241   3.644   1.695   1.836
 8781SOL    HW127242   3.633   1.756   1.758
 8781SOL    HW227243   3.652   1.601   1.805
 8782SOL     OW27244   6.624   2.607   0.329
 8782SOL    HW127245   6.596   2.522   0.285
 8782SOL    HW227246   6.658   2.671   0.259
 8783SOL     OW27247   3.840   3.638   5.563
 8783SOL    HW127248   3.776   3.561   5.572
 8783SOL    HW227249   3.789   3.724   5.561
 8784SOL     OW27250   4.081   1.296   6.222
 8784SOL    HW127251   4.123   1.337   6.141
 8784SOL    HW227252   4.112   1.202   6.232
 8785SOL     OW27253   0.018   5.754   6.393
 8785SOL    HW127254   6.969   5.769   6.331
 8785SOL    HW227255   0.103   5.783   6.349
 8786SOL     OW27256   5.874   2.280   3.417
 8786SOL    HW127257   5.822   2.348   3.365
 8786SOL    HW227258   5.970   2.308   3.420
 8787SOL     OW27259   3.355   4.872   2.520
 8787SOL    HW127260   3.424   4.873   2.592
 8787SOL    HW227261   3.393   4.910   2.436
 8788SOL     OW27262   0.140   6.070   3.778
 8788SOL    HW127263   0.057   6.103   3.734
 8788SOL    HW227264   0.181   5.997   3.723
 8789SOL     OW27265   1.429   3.579   0.072
 8789SOL    HW127266   1.507   3.527   0.036
 8789SOL    HW227267   1.378   3.522   0.136
 8790SOL     OW27268   5.170   3.103   5.271
 8790SOL    HW127269   5.174   3.180   5.207
 8790SOL    HW227270   5.193   3.018   5.222
 8791SOL     OW27271   4.314   6.168   4.967
 8791SOL    HW127272   4.394   6.125   5.010
 8791SOL    HW227273   4.241   6.101   4.958
 8792SOL     OW27274   5.829   5.134   0.464
 8792SOL    HW127275   5.738   5.100   0.443
 8792SOL    HW227276   5.839   5.227   0.431
 8793SOL     OW27277   6.322   6.971   5.593
 8793SOL    HW127278   6.272   0.028   5.611
 8793SOL    HW227279   6.418   6.983   5.619
 8794SOL     OW27280   7.003   2.632   3.226
 8794SOL    HW127281   6.951   2.624   3.141
 8794SOL    HW227282   6.966   2.708   3.280
 8795SOL     OW27283   1.456   0.304   6.819
 8795SOL    HW127284   1.527   0.325   6.886
 8795SOL    HW227285   1.476   0.215   6.777
 8796SOL     OW27286   5.736   4.534   4.203
 8796SOL    HW127287   5.641   4.527   4.233
 8796SOL    HW227288   5.787   4.589   4.268
 8797SOL     OW27289   5.316   6.173   5.091
 8797SOL    HW127290   5.235   6.142   5.141
 8797SOL    HW227291   5.392   6.186   5.155
 8798SOL     OW27292   1.892   5.737   6.123
 8798SOL    HW127293   1.965   5.684   6.165
 8798SOL    HW227294   1.868   5.814   6.182
 8799SOL     OW27295   1.913   6.394   1.921
 8799SOL    HW127296   1.860   6.446   1.854
 8799SOL    HW227297   1.916   6.298   1.893
 8800SOL     OW27298   6.584   6.021   4.073
 8800SOL    HW127299   6.612   6.049   3.981
 8800SOL    HW227300   6.533   5.935   4.068
 8801SOL     OW27301   4.900   3.126   5.683
 8801SOL    HW127302   4.906   3.209   5.737
 8801SOL    HW227303   4.948   3.139   5.596
 8802SOL     OW27304   1.214   6.606   6.876
 8802SOL    HW127305   1.226   6.507   6.868
 8802SOL    HW227306   1.147   6.637   6.808
 8803SOL     OW27307   5.445   5.278   5.170
 8803SOL    HW127308   5.430   5.318   5.261
 8803SOL    HW227309   5.464   5.180   5.179
 8804SOL     OW27310   1.848   6.716   1.969
 8804SOL    HW127311   1.945   6.727   1.993
 8804SOL    HW227312   1.799   6.681   2.049
 8805SOL     OW27313   5.017   4.813   1.851
 8805SOL    HW127314   5.046   4.721   1.879
 8805SOL    HW227315   5.094   4.877   1.861
 8806SOL     OW27316   1.262   0.854   2.000
 8806SOL    HW127317   1.300   0.839   2.091
 8806SOL    HW227318   1.323   0.813   1.932
 8807SOL     OW27319   6.010   2.244   1.743
 8807SOL    HW127320   5.962   2.175   1.689
 8807SOL    HW227321   5.945   2.293   1.800
 8808SOL     OW27322   1.425   1.952   0.523
 8808SOL    HW127323   1.441   1.872   0.581
 8808SOL    HW227324   1.345   2.001   0.556
 8809SOL     OW27325   1.153   3.301   3.319
 8809SOL    HW127326   1.223   3.330   3.385
 8809SOL    HW227327   1.088   3.375   3.305
 8810SOL     OW27328   6.054   2.192   4.229
 8810SOL    HW127329   6.010   2.113   4.273
 8810SOL    HW227330   6.116   2.159   4.157
 8811SOL     OW27331   3.702   5.336   2.191
 8811SOL    HW127332   3.610   5.332   2.230
 8811SOL    HW227333   3.753   5.253   2.214
 8812SOL     OW27334   5.607   0.449   0.474
 8812SOL    HW127335   5.579   0.458   0.570
 8812SOL    HW227336   5.633   0.538   0.438
 8813SOL     OW27337   1.631   2.958   1.615
 8813SOL    HW127338   1.605   3.052   1.635
 8813SOL    HW227339   1.703   2.929   1.678
 8814SOL     OW27340   5.636   7.019   4.919
 8814SOL    HW127341   5.723   0.040   4.906
 8814SOL    HW227342   5.568   0.053   4.958
 8815SOL     OW27343   4.936   0.850   1.170
 8815SOL    HW127344   5.031   0.822   1.182
 8815SOL    HW227345   4.907   0.830   1.076
 8816SOL     OW27346   0.174   0.688   3.394
 8816SOL    HW127347   0.194   0.618   3.326
 8816SOL    HW227348   0.236   0.766   3.380
 8817SOL     OW27349   1.019   2.307   4.010
 8817SOL    HW127350   1.037   2.345   4.101
 8817SOL    HW227351   0.939   2.246   4.015
 8818SOL     OW27352   1.207   6.356   6.613
 8818SOL    HW127353   1.125   6.400   6.651
 8818SOL    HW227354   1.244   6.291   6.680
 8819SOL     OW27355   5.096   6.145   5.799
 8819SOL    HW127356   5.103   6.221   5.864
 8819SOL    HW227357   5.185   6.127   5.758
 8820SOL     OW27358   3.765   6.399   5.693
 8820SOL    HW127359   3.731   6.421   5.601
 8820SOL    HW227360   3.744   6.475   5.755
 8821SOL     OW27361   0.910   5.623   5.592
 8821SOL    HW127362   0.863   5.554   5.536
 8821SOL    HW227363   0.881   5.714   5.564
 8822SOL     OW27364   6.612   0.185   4.472
 8822SOL    HW127365   6.644   0.280   4.473
 8822SOL    HW227366   6.691   0.124   4.475
 8823SOL     OW27367   4.505   1.938   3.449
 8823SOL    HW127368   4.439   1.863   3.441
 8823SOL    HW227369   4.547   1.936   3.539
 8824SOL     OW27370   1.622   6.996   4.489
 8824SOL    HW127371   1.657   0.062   4.486
 8824SOL    HW227372   1.639   6.951   4.402
 8825SOL     OW27373   1.458   6.896   0.255
 8825SOL    HW127374   1.521   6.827   0.292
 8825SOL    HW227375   1.368   6.855   0.242
 8826SOL     OW27376   0.414   3.672   0.415
 8826SOL    HW127377   0.328   3.689   0.463
 8826SOL    HW227378   0.480   3.744   0.439
 8827SOL     OW27379   4.663   5.897   3.432
 8827SOL    HW127380   4.760   5.905   3.452
 8827SOL    HW227381   4.641   5.802   3.410
 8828SOL     OW27382   5.279   2.337   5.314
 8828SOL    HW127383   5.299   2.376   5.404
 8828SOL    HW227384   5.355   2.279   5.285
 8829SOL     OW27385   6.255   1.217   3.026
 8829SOL    HW127386   6.254   1.122   3.058
 8829SOL    HW227387   6.263   1.218   2.926
 8830SOL     OW27388   3.097   0.675   2.754
 8830SOL    HW127389   3.189   0.702   2.780
 8830SOL    HW227390   3.091   0.665   2.655
 8831SOL     OW27391   0.600   2.894   2.751
 8831SOL    HW127392   0.551   2.898   2.664
 8831SOL    HW227393   0.691   2.856   2.736
 8832SOL     OW27394   6.032   0.296   5.065
 8832SOL    HW127395   6.030   0.238   4.983
 8832SOL    HW227396   5.956   0.271   5.124
 8833SOL     OW27397   4.830   2.962   0.873
 8833SOL    HW127398   4.878   2.926   0.793
 8833SOL    HW227399   4.826   3.062   0.867
 8834SOL     OW27400   5.796   4.372   6.074
 8834SOL    HW127401   5.776   4.460   6.116
 8834SOL    HW227402   5.868   4.383   6.006
 8835SOL     OW27403   6.594   0.869   5.137
 8835SOL    HW127404   6.658   0.854   5.062
 8835SOL    HW227405   6.524   0.935   5.109
 8836SOL     OW27406   4.104   1.666   1.188
 8836SOL    HW127407   4.198   1.647   1.215
 8836SOL    HW227408   4.074   1.599   1.120
 8837SOL     OW27409   4.967   4.880   0.273
 8837SOL    HW127410   4.909   4.915   0.346
 8837SOL    HW227411   4.933   4.911   0.184
 8838SOL     OW27412   2.089   4.058   2.519
 8838SOL    HW127413   2.019   4.062   2.590
 8838SOL    HW227414   2.176   4.090   2.555
 8839SOL     OW27415   4.452   4.617   1.534
 8839SOL    HW127416   4.519   4.623   1.460
 8839SOL    HW227417   4.499   4.631   1.622
 8840SOL     OW27418   0.263   0.509   1.665
 8840SOL    HW127419   0.206   0.587   1.691
 8840SOL    HW227420   0.238   0.480   1.572
 8841SOL     OW27421   3.763   1.604   0.771
 8841SOL    HW127422   3.848   1.627   0.725
 8841SOL    HW227423   3.725   1.520   0.730
 8842SOL     OW27424   3.488   3.182   3.729
 8842SOL    HW127425   3.424   3.259   3.725
 8842SOL    HW227426   3.457   3.109   3.669
 8843SOL     OW27427   2.759   5.975   5.318
 8843SOL    HW127428   2.762   6.031   5.401
 8843SOL    HW227429   2.852   5.965   5.282
 8844SOL     OW27430   4.015   2.873   5.345
 8844SOL    HW127431   4.036   2.789   5.294
 8844SOL    HW227432   4.076   2.879   5.424
 8845SOL     OW27433   0.768   3.315   2.357
 8845SOL    HW127434   0.766   3.231   2.302
 8845SOL    HW227435   0.714   3.385   2.312
 8846SOL     OW27436   6.021   5.391   4.400
 8846SOL    HW127437   6.015   5.304   4.448
 8846SOL    HW227438   6.000   5.377   4.303
 8847SOL     OW27439   0.795   2.151   3.976
 8847SOL    HW127440   0.699   2.124   3.971
 8847SOL    HW227441   0.853   2.070   3.966
 8848SOL     OW27442   6.375   2.428   1.026
 8848SOL    HW127443   6.451   2.404   1.086
 8848SOL    HW227444   6.352   2.350   0.968
 8849SOL     OW27445   3.237   5.237   4.382
 8849SOL    HW127446   3.168   5.168   4.362
 8849SOL    HW227447   3.229   5.266   4.477
 8850SOL     OW27448   3.785   2.283   0.852
 8850SOL    HW127449   3.883   2.300   0.843
 8850SOL    HW227450   3.754   2.309   0.943
 8851SOL     OW27451   0.101   5.398   2.859
 8851SOL    HW127452   0.047   5.451   2.795
 8851SOL    HW227453   0.041   5.361   2.931
 8852SOL     OW27454   5.254   3.690   4.831
 8852SOL    HW127455   5.240   3.763   4.763
 8852SOL    HW227456   5.223   3.603   4.793
 8853SOL     OW27457   4.810   1.806   4.553
 8853SOL    HW127458   4.720   1.821   4.594
 8853SOL    HW227459   4.825   1.707   4.542
 8854SOL     OW27460   3.222   0.773   5.996
 8854SOL    HW127461   3.176   0.766   6.084
 8854SOL    HW227462   3.176   0.713   5.930
 8855SOL     OW27463   6.103   4.969   6.020
 8855SOL    HW127464   6.143   4.877   6.021
 8855SOL    HW227465   6.011   4.965   6.059
 8856SOL     OW27466   5.270   1.537   5.443
 8856SOL    HW127467   5.338   1.573   5.379
 8856SOL    HW227468   5.179   1.566   5.414
 8857SOL     OW27469   2.030   3.506   4.313
 8857SOL    HW127470   2.045   3.603   4.295
 8857SOL    HW227471   2.046   3.487   4.410
 8858SOL     OW27472   0.742   3.835   5.581
 8858SOL    HW127473   0.683   3.844   5.661
 8858SOL    HW227474   0.819   3.775   5.604
 8859SOL     OW27475   2.392   6.795   5.232
 8859SOL    HW127476   2.486   6.827   5.227
 8859SOL    HW227477   2.367   6.780   5.328
 8860SOL     OW27478   2.033   1.470   1.594
 8860SOL    HW127479   1.993   1.472   1.502
 8860SOL    HW227480   2.071   1.560   1.615
 8861SOL     OW27481   1.921   2.329   0.439
 8861SOL    HW127482   1.950   2.301   0.530
 8861SOL    HW227483   1.962   2.269   0.371
 8862SOL     OW27484   0.127   2.306   4.728
 8862SOL    HW127485   0.030   2.330   4.731
 8862SOL    HW227486   0.169   2.327   4.816
 8863SOL     OW27487   2.327   5.628   5.143
 8863SOL    HW127488   2.279   5.715   5.135
 8863SOL    HW227489   2.272   5.563   5.195
 8864SOL     OW27490   1.896   4.636   5.844
 8864SOL    HW127491   1.837   4.672   5.916
 8864SOL    HW227492   1.965   4.576   5.884
 8865SOL     OW27493   2.910   1.991   5.539
 8865SOL    HW127494   2.906   2.062   5.468
 8865SOL    HW227495   2.955   1.909   5.501
 8866SOL     OW27496   4.964   0.090   5.450
 8866SOL    HW127497   4.897   0.087   5.524
 8866SOL    HW227498   4.934   0.153   5.379
 8867SOL     OW27499   6.184   0.775   3.294
 8867SOL    HW127500   6.167   0.707   3.224
 8867SOL    HW227501   6.138   0.748   3.379
 8868SOL     OW27502   5.743   3.297   0.632
 8868SOL    HW127503   5.707   3.389   0.617
 8868SOL    HW227504   5.843   3.300   0.634
 8869SOL     OW27505   3.089   1.893   3.187
 8869SOL    HW127506   3.082   1.882   3.088
 8869SOL    HW227507   3.042   1.818   3.233
 8870SOL     OW27508   5.199   0.429   1.660
 8870SOL    HW127509   5.249   0.409   1.744
 8870SOL    HW227510   5.135   0.354   1.641
 8871SOL     OW27511   1.194   2.212   3.835
 8871SOL    HW127512   1.183   2.268   3.753
 8871SOL    HW227513   1.131   2.243   3.906
 8872SOL     OW27514   1.273   1.913   2.262
 8872SOL    HW127515   1.211   1.928   2.339
 8872SOL    HW227516   1.333   1.835   2.283
 8873SOL     OW27517   6.928   5.659   5.201
 8873SOL    HW127518   6.937   5.699   5.292
 8873SOL    HW227519   7.019   5.644   5.162
 8874SOL     OW27520   1.354   1.463   6.442
 8874SOL    HW127521   1.280   1.431   6.382
 8874SOL    HW227522   1.406   1.535   6.395
 8875SOL     OW27523   1.381   0.925   3.982
 8875SOL    HW127524   1.426   0.844   3.942
 8875SOL    HW227525   1.434   1.007   3.958
 8876SOL     OW27526   2.442   0.926   4.811
 8876SOL    HW127527   2.386   0.872   4.874
 8876SOL    HW227528   2.383   0.968   4.742
 8877SOL     OW27529   3.209   6.719   4.419
 8877SOL    HW127530   3.219   6.623   4.391
 8877SOL    HW227531   3.159   6.769   4.349
 8878SOL     OW27532   5.880   4.364   5.014
 8878SOL    HW127533   5.905   4.337   4.921
 8878SOL    HW227534   5.910   4.294   5.078
 8879SOL     OW27535   5.105   5.462   4.331
 8879SOL    HW127536   5.138   5.437   4.422
 8879SOL    HW227537   5.014   5.502   4.338
 8880SOL     OW27538   1.284   6.394   5.338
 8880SOL    HW127539   1.275   6.431   5.431
 8880SOL    HW227540   1.291   6.470   5.273
 8881SOL     OW27541   6.954   2.159   2.650
 8881SOL    HW127542   6.893   2.081   2.661
 8881SOL    HW227543   0.001   2.153   2.716
 8882SOL     OW27544   5.667   3.066   0.181
 8882SOL    HW127545   5.747   3.007   0.168
 8882SOL    HW227546   5.660   3.092   0.277
 8883SOL     OW27547   5.641   1.174   5.577
 8883SOL    HW127548   5.693   1.197   5.660
 8883SOL    HW227549   5.607   1.080   5.584
 8884SOL     OW27550   0.121   1.334   6.513
 8884SOL    HW127551   0.043   1.361   6.568
 8884SOL    HW227552   0.190   1.291   6.572
 8885SOL     OW27553   5.468   3.740   1.253
 8885SOL    HW127554   5.500   3.689   1.333
 8885SOL    HW227555   5.498   3.835   1.260
 8886SOL     OW27556   2.964   5.456   5.915
 8886SOL    HW127557   3.017   5.533   5.952
 8886SOL    HW227558   3.026   5.384   5.885
 8887SOL     OW27559   1.528   1.606   1.036
 8887SOL    HW127560   1.441   1.588   1.081
 8887SOL    HW227561   1.543   1.539   0.964
 8888SOL     OW27562   2.755   1.928   2.797
 8888SOL    HW127563   2.699   1.917   2.879
 8888SOL    HW227564   2.849   1.900   2.818
 8889SOL     OW27565   3.417   0.980   4.119
 8889SOL    HW127566   3.460   1.014   4.203
 8889SOL    HW227567   3.487   0.967   4.049
 8890SOL     OW27568   6.955   4.988   3.431
 8890SOL    HW127569   6.929   4.892   3.440
 8890SOL    HW227570   6.944   5.018   3.336
 8891SOL     OW27571   3.397   1.356   6.306
 8891SOL    HW127572   3.429   1.400   6.222
 8891SOL    HW227573   3.306   1.319   6.292
 8892SOL     OW27574   1.105   0.038   2.931
 8892SOL    HW127575   1.186   0.067   2.982
 8892SOL    HW227576   1.049   7.006   2.987
 8893SOL     OW27577   0.389   1.334   0.794
 8893SOL    HW127578   0.295   1.315   0.765
 8893SOL    HW227579   0.453   1.302   0.724
 8894SOL     OW27580   4.790   2.335   6.127
 8894SOL    HW127581   4.741   2.250   6.111
 8894SOL    HW227582   4.785   2.361   6.223
 8895SOL     OW27583   1.754   1.349   3.151
 8895SOL    HW127584   1.761   1.305   3.062
 8895SOL    HW227585   1.728   1.445   3.139
 8896SOL     OW27586   1.986   4.490   5.442
 8896SOL    HW127587   2.041   4.422   5.491
 8896SOL    HW227588   1.935   4.444   5.369
 8897SOL     OW27589   1.014   2.487   1.961
 8897SOL    HW127590   0.968   2.485   2.050
 8897SOL    HW227591   1.018   2.581   1.928
 8898SOL     OW27592   0.031   2.805   5.158
 8898SOL    HW127593   0.008   2.892   5.115
 8898SOL    HW227594   0.119   2.812   5.204
 8899SOL     OW27595   3.338   5.229   1.552
 8899SOL    HW127596   3.253   5.190   1.516
 8899SOL    HW227597   3.345   5.325   1.524
 8900SOL     OW27598   6.809   1.919   3.528
 8900SOL    HW127599   6.896   1.964   3.548
 8900SOL    HW227600   6.747   1.984   3.485
 8901SOL     OW27601   1.797   0.097   1.728
 8901SOL    HW127602   1.819   0.180   1.779
 8901SOL    HW227603   1.881   0.052   1.699
 8902SOL     OW27604   3.726   6.461   5.407
 8902SOL    HW127605   3.717   6.362   5.421
 8902SOL    HW227606   3.808   6.480   5.354
 8903SOL     OW27607   6.803   0.826   2.880
 8903SOL    HW127608   6.703   0.822   2.891
 8903SOL    HW227609   6.835   0.918   2.903
 8904SOL     OW27610   1.184   4.414   3.637
 8904SOL    HW127611   1.086   4.432   3.645
 8904SOL    HW227612   1.235   4.483   3.689
 8905SOL     OW27613   2.286   4.256   4.835
 8905SOL    HW127614   2.246   4.250   4.927
 8905SOL    HW227615   2.373   4.207   4.834
 8906SOL     OW27616   2.414   5.531   4.789
 8906SOL    HW127617   2.433   5.442   4.831
 8906SOL    HW227618   2.360   5.518   4.706
 8907SOL     OW27619   3.536   2.742   6.499
 8907SOL    HW127620   3.520   2.830   6.545
 8907SOL    HW227621   3.600   2.756   6.423
 8908SOL     OW27622   1.014   3.202   2.775
 8908SOL    HW127623   0.925   3.180   2.815
 8908SOL    HW227624   1.052   3.284   2.818
 8909SOL     OW27625   3.451   6.828   5.552
 8909SOL    HW127626   3.378   6.880   5.597
 8909SOL    HW227627   3.411   6.768   5.483
 8910SOL     OW27628   4.376   2.707   0.203
 8910SOL    HW127629   4.337   2.799   0.205
 8910SOL    HW227630   4.311   2.645   0.159
 8911SOL     OW27631   5.117   2.503   3.741
 8911SOL    HW127632   5.101   2.506   3.840
 8911SOL    HW227633   5.069   2.580   3.698
 8912SOL     OW27634   4.562   0.880   6.814
 8912SOL    HW127635   4.649   0.901   6.857
 8912SOL    HW227636   4.577   0.815   6.739
 8913SOL     OW27637   4.355   4.088   1.081
 8913SOL    HW127638   4.404   4.121   0.999
 8913SOL    HW227639   4.399   4.005   1.114
 8914SOL     OW27640   4.766   2.614   4.021
 8914SOL    HW127641   4.854   2.619   4.068
 8914SOL    HW227642   4.765   2.537   3.958
 8915SOL     OW27643   0.764   5.185   2.511
 8915SOL    HW127644   0.779   5.198   2.609
 8915SOL    HW227645   0.693   5.248   2.480
 8916SOL     OW27646   5.983   3.444   2.020
 8916SOL    HW127647   5.944   3.476   2.106
 8916SOL    HW227648   5.979   3.345   2.016
 8917SOL     OW27649   5.458   4.491   5.364
 8917SOL    HW127650   5.467   4.583   5.326
 8917SOL    HW227651   5.534   4.473   5.426
 8918SOL     OW27652   4.936   3.840   6.262
 8918SOL    HW127653   4.839   3.860   6.251
 8918SOL    HW227654   4.969   3.789   6.183
 8919SOL     OW27655   2.061   3.336   1.744
 8919SOL    HW127656   2.040   3.282   1.662
 8919SOL    HW227657   2.007   3.301   1.821
 8920SOL     OW27658   6.566   5.485   5.714
 8920SOL    HW127659   6.640   5.429   5.679
 8920SOL    HW227660   6.601   5.548   5.783
 8921SOL     OW27661   0.955   5.701   3.867
 8921SOL    HW127662   0.982   5.625   3.925
 8921SOL    HW227663   0.970   5.677   3.771
 8922SOL     OW27664   0.092   3.306   6.589
 8922SOL    HW127665   0.127   3.396   6.614
 8922SOL    HW227666   0.127   3.280   6.499
 8923SOL     OW27667   2.667   4.657   4.549
 8923SOL    HW127668   2.696   4.615   4.635
 8923SOL    HW227669   2.578   4.619   4.523
 8924SOL     OW27670   2.209   6.662   4.557
 8924SOL    HW127671   2.274   6.636   4.628
 8924SOL    HW227672   2.116   6.643   4.588
 8925SOL     OW27673   4.374   5.557   1.226
 8925SOL    HW127674   4.342   5.553   1.131
 8925SOL    HW227675   4.372   5.466   1.266
 8926SOL     OW27676   5.739   0.091   6.837
 8926SOL    HW127677   5.738   0.184   6.799
 8926SOL    HW227678   5.831   0.054   6.832
 8927SOL     OW27679   2.623   1.557   4.559
 8927SOL    HW127680   2.557   1.630   4.573
 8927SOL    HW227681   2.662   1.530   4.648
 8928SOL     OW27682   0.912   0.361   5.381
 8928SOL    HW127683   0.895   0.357   5.480
 8928SOL    HW227684   0.985   0.296   5.357
 8929SOL     OW27685   5.020   4.154   3.250
 8929SOL    HW127686   5.049   4.250   3.260
 8929SOL    HW227687   4.951   4.148   3.179
 8930SOL     OW27688   0.212   5.748   5.213
 8930SOL    HW127689   0.289   5.734   5.150
 8930SOL    HW227690   0.214   5.842   5.247
 8931SOL     OW27691   4.653   1.003   1.507
 8931SOL    HW127692   4.613   1.091   1.533
 8931SOL    HW227693   4.714   1.017   1.428
 8932SOL     OW27694   4.916   0.694   0.550
 8932SOL    HW127695   4.933   0.677   0.453
 8932SOL    HW227696   4.873   0.614   0.591
 8933SOL     OW27697   1.682   6.880   5.360
 8933SOL    HW127698   1.624   6.801   5.383
 8933SOL    HW227699   1.724   6.865   5.271
 8934SOL     OW27700   3.799   6.587   3.909
 8934SOL    HW127701   3.866   6.652   3.945
 8934SOL    HW227702   3.714   6.594   3.961
 8935SOL     OW27703   5.774   1.899   3.001
 8935SOL    HW127704   5.800   1.990   3.035
 8935SOL    HW227705   5.841   1.868   2.934
 8936SOL     OW27706   1.435   4.095   2.209
 8936SOL    HW127707   1.463   4.104   2.113
 8936SOL    HW227708   1.506   4.048   2.260
 8937SOL     OW27709   3.247   6.757   4.910
 8937SOL    HW127710   3.198   6.842   4.892
 8937SOL    HW227711   3.226   6.690   4.839
 8938SOL     OW27712   5.412   6.445   1.713
 8938SOL    HW127713   5.445   6.355   1.740
 8938SOL    HW227714   5.452   6.471   1.625
 8939SOL     OW27715   6.790   2.641   4.332
 8939SOL    HW127716   6.809   2.681   4.421
 8939SOL    HW227717   6.691   2.629   4.322
 8940SOL     OW27718   6.433   3.456   2.189
 8940SOL    HW127719   6.482   3.537   2.221
 8940SOL    HW227720   6.337   3.463   2.214
 8941SOL     OW27721   5.609   2.467   3.423
 8941SOL    HW127722   5.586   2.564   3.436
 8941SOL    HW227723   5.642   2.429   3.509
 8942SOL     OW27724   4.500   5.046   3.758
 8942SOL    HW127725   4.455   5.023   3.672
 8942SOL    HW227726   4.432   5.074   3.825
 8943SOL     OW27727   4.141   3.697   0.444
 8943SOL    HW127728   4.071   3.756   0.484
 8943SOL    HW227729   4.193   3.652   0.517
 8944SOL     OW27730   4.787   6.154   4.863
 8944SOL    HW127731   4.734   6.191   4.787
 8944SOL    HW227732   4.883   6.146   4.836
 8945SOL     OW27733   6.356   4.694   1.389
 8945SOL    HW127734   6.370   4.615   1.449
 8945SOL    HW227735   6.423   4.692   1.315
 8946SOL     OW27736   3.630   1.346   4.561
 8946SOL    HW127737   3.531   1.341   4.548
 8946SOL    HW227738   3.672   1.260   4.529
 8947SOL     OW27739   2.435   5.317   0.661
 8947SOL    HW127740   2.434   5.371   0.577
 8947SOL    HW227741   2.375   5.238   0.650
 8948SOL     OW27742   5.385   0.372   2.725
 8948SOL    HW127743   5.378   0.446   2.792
 8948SOL    HW227744   5.449   0.399   2.653
 8949SOL     OW27745   3.914   6.605   0.782
 8949SOL    HW127746   3.957   6.551   0.855
 8949SOL    HW227747   3.984   6.634   0.717
 8950SOL     OW27748   3.637   4.072   3.464
 8950SOL    HW127749   3.731   4.066   3.430
 8950SOL    HW227750   3.638   4.081   3.563
 8951SOL     OW27751   0.657   0.492   3.830
 8951SOL    HW127752   0.753   0.515   3.845
 8951SOL    HW227753   0.620   0.549   3.757
 8952SOL     OW27754   1.631   3.877   4.805
 8952SOL    HW127755   1.609   3.862   4.902
 8952SOL    HW227756   1.699   3.810   4.776
 8953SOL     OW27757   0.298   5.008   0.604
 8953SOL    HW127758   0.272   5.104   0.598
 8953SOL    HW227759   0.217   4.953   0.626
 8954SOL     OW27760   2.486   4.548   5.555
 8954SOL    HW127761   2.473   4.635   5.508
 8954SOL    HW227762   2.539   4.486   5.497
 8955SOL     OW27763   6.023   3.254   5.936
 8955SOL    HW127764   6.027   3.180   5.869
 8955SOL    HW227765   6.101   3.248   5.998
 8956SOL     OW27766   0.899   6.069   1.032
 8956SOL    HW127767   0.859   6.157   1.008
 8956SOL    HW227768   0.974   6.049   0.969
 8957SOL     OW27769   0.818   0.049   3.758
 8957SOL    HW127770   0.819   6.983   3.722
 8957SOL    HW227771   0.911   0.076   3.782
 8958SOL     OW27772   6.817   3.429   4.910
 8958SOL    HW127773   6.817   3.520   4.951
 8958SOL    HW227774   6.853   3.363   4.976
 8959SOL     OW27775   5.013   1.376   4.054
 8959SOL    HW127776   5.075   1.366   4.131
 8959SOL    HW227777   4.929   1.420   4.084
 8960SOL     OW27778   5.156   5.397   2.494
 8960SOL    HW127779   5.115   5.353   2.574
 8960SOL    HW227780   5.091   5.393   2.418
 8961SOL     OW27781   2.500   1.872   5.426
 8961SOL    HW127782   2.530   1.800   5.488
 8961SOL    HW227783   2.469   1.951   5.478
 8962SOL     OW27784   6.954   6.400   1.707
 8962SOL    HW127785   6.932   6.310   1.744
 8962SOL    HW227786   6.945   6.470   1.778
 8963SOL     OW27787   2.205   5.555   5.812
 8963SOL    HW127788   2.191   5.456   5.818
 8963SOL    HW227789   2.225   5.580   5.717
 8964SOL     OW27790   0.872   2.488   3.855
 8964SOL    HW127791   0.934   2.566   3.865
 8964SOL    HW227792   0.916   2.406   3.892
 8965SOL     OW27793   3.516   5.863   0.219
 8965SOL    HW127794   3.583   5.829   0.285
 8965SOL    HW227795   3.434   5.807   0.223
 8966SOL     OW27796   4.754   0.097   5.625
 8966SOL    HW127797   4.692   0.124   5.552
 8966SOL    HW227798   4.730   0.146   5.709
 8967SOL     OW27799   2.724   0.473   3.168
 8967SOL    HW127800   2.726   0.475   3.068
 8967SOL    HW227801   2.817   0.467   3.203
 8968SOL     OW27802   2.940   5.393   2.674
 8968SOL    HW127803   2.992   5.310   2.696
 8968SOL    HW227804   2.890   5.379   2.588
 8969SOL     OW27805   6.996   0.791   2.697
 8969SOL    HW127806   6.947   0.775   2.611
 8969SOL    HW227807   6.931   0.797   2.772
 8970SOL     OW27808   2.056   1.646   4.300
 8970SOL    HW127809   2.045   1.547   4.307
 8970SOL    HW227810   2.005   1.680   4.222
 8971SOL     OW27811   3.205   4.615   1.342
 8971SOL    HW127812   3.273   4.688   1.338
 8971SOL    HW227813   3.114   4.652   1.322
 8972SOL     OW27814   6.129   4.002   6.292
 8972SOL    HW127815   6.165   4.022   6.383
 8972SOL    HW227816   6.151   3.908   6.266
 8973SOL     OW27817   2.581   1.882   3.728
 8973SOL    HW127818   2.674   1.877   3.766
 8973SOL    HW227819   2.522   1.932   3.791
 8974SOL     OW27820   1.575   4.861   5.279
 8974SOL    HW127821   1.635   4.936   5.308
 8974SOL    HW227822   1.627   4.776   5.276
 8975SOL     OW27823   0.645   3.518   6.172
 8975SOL    HW127824   0.634   3.577   6.092
 8975SOL    HW227825   0.556   3.477   6.196
 8976SOL     OW27826   6.181   0.441   1.591
 8976SOL    HW127827   6.200   0.476   1.683
 8976SOL    HW227828   6.112   0.369   1.597
 8977SOL     OW27829   0.357   5.133   5.967
 8977SOL    HW127830   0.393   5.124   5.875
 8977SOL    HW227831   0.331   5.228   5.984
 8978SOL     OW27832   6.694   5.156   5.344
 8978SOL    HW127833   6.643   5.175   5.428
 8978SOL    HW227834   6.732   5.242   5.308
 8979SOL     OW27835   1.609   4.356   3.804
 8979SOL    HW127836   1.560   4.403   3.878
 8979SOL    HW227837   1.542   4.315   3.742
 8980SOL     OW27838   4.455   0.855   0.976
 8980SOL    HW127839   4.422   0.942   0.940
 8980SOL    HW227840   4.507   0.871   1.060
 8981SOL     OW27841   4.049   2.019   0.050
 8981SOL    HW127842   4.040   1.996   0.147
 8981SOL    HW227843   4.073   2.116   0.041
 8982SOL     OW27844   0.499   1.024   2.438
 8982SOL    HW127845   0.599   1.033   2.446
 8982SOL    HW227846   0.475   0.927   2.433
 8983SOL     OW27847   1.338   6.445   2.544
 8983SOL    HW127848   1.385   6.527   2.578
 8983SOL    HW227849   1.242   6.466   2.527
 8984SOL     OW27850   6.004   1.085   3.712
 8984SOL    HW127851   6.090   1.046   3.744
 8984SOL    HW227852   5.986   1.171   3.759
 8985SOL     OW27853   5.094   0.084   1.939
 8985SOL    HW127854   5.157   0.159   1.956
 8985SOL    HW227855   5.131   7.027   1.978
 8986SOL     OW27856   0.607   6.701   6.948
 8986SOL    HW127857   0.548   6.699   6.867
 8986SOL    HW227858   0.690   6.648   6.929
 8987SOL     OW27859   3.331   6.274   2.424
 8987SOL    HW127860   3.319   6.190   2.371
 8987SOL    HW227861   3.322   6.353   2.364
 8988SOL     OW27862   2.278   0.153   0.657
 8988SOL    HW127863   2.297   0.218   0.583
 8988SOL    HW227864   2.333   0.176   0.737
 8989SOL     OW27865   6.054   1.069   1.932
 8989SOL    HW127866   6.100   1.101   2.015
 8989SOL    HW227867   6.085   1.123   1.854
 8990SOL     OW27868   3.717   1.312   2.354
 8990SOL    HW127869   3.740   1.402   2.392
 8990SOL    HW227870   3.630   1.281   2.391
 8991SOL     OW27871   0.997   2.122   0.849
 8991SOL    HW127872   0.998   2.220   0.869
 8991SOL    HW227873   0.968   2.072   0.930
 8992SOL     OW27874   0.678   5.239   5.735
 8992SOL    HW127875   0.744   5.168   5.762
 8992SOL    HW227876   0.598   5.196   5.694
 8993SOL     OW27877   5.276   4.135   3.943
 8993SOL    HW127878   5.307   4.054   3.993
 8993SOL    HW227879   5.206   4.182   3.997
 8994SOL     OW27880   1.626   6.142   2.063
 8994SOL    HW127881   1.708   6.091   2.086
 8994SOL    HW227882   1.639   6.239   2.085
 8995SOL     OW27883   2.166   3.873   3.557
 8995SOL    HW127884   2.234   3.941   3.583
 8995SOL    HW227885   2.171   3.856   3.459
 8996SOL     OW27886   2.826   3.931   1.133
 8996SOL    HW127887   2.740   3.938   1.082
 8996SOL    HW227888   2.822   3.851   1.193
 8997SOL     OW27889   4.264   1.510   4.955
 8997SOL    HW127890   4.279   1.489   4.859
 8997SOL    HW227891   4.349   1.545   4.995
 8998SOL     OW27892   0.825   1.814   6.686
 8998SOL    HW127893   0.740   1.819   6.738
 8998SOL    HW227894   0.900   1.791   6.748
 8999SOL     OW27895   5.779   2.989   5.589
 8999SOL    HW127896   5.718   3.052   5.540
 8999SOL    HW227897   5.727   2.909   5.620
 9000SOL     OW27898   4.693   4.640   1.351
 9000SOL    HW127899   4.638   4.603   1.276
 9000SOL    HW227900   4.789   4.617   1.336
 9001SOL     OW27901   0.827   3.488   4.145
 9001SOL    HW127902   0.924   3.513   4.141
 9001SOL    HW227903   0.818   3.397   4.185
 9002SOL     OW27904   5.172   2.676   5.471
 9002SOL    HW127905   5.099   2.739   5.446
 9002SOL    HW227906   5.133   2.597   5.518
 9003SOL     OW27907   6.778   2.873   6.781
 9003SOL    HW127908   6.746   2.875   6.876
 9003SOL    HW227909   6.730   2.944   6.728
 9004SOL     OW27910   4.774   5.703   0.377
 9004SOL    HW127911   4.701   5.641   0.346
 9004SOL    HW227912   4.861   5.654   0.380
 9005SOL     OW27913   4.990   3.327   3.849
 9005SOL    HW127914   4.943   3.240   3.839
 9005SOL    HW227915   4.925   3.402   3.832
 9006SOL     OW27916   3.069   6.611   1.775
 9006SOL    HW127917   3.021   6.563   1.849
 9006SOL    HW227918   3.121   6.687   1.813
 9007SOL     OW27919   1.783   6.232   5.479
 9007SOL    HW127920   1.741   6.205   5.566
 9007SOL    HW227921   1.774   6.158   5.413
 9008SOL     OW27922   0.234   4.214   2.067
 9008SOL    HW127923   0.281   4.241   1.983
 9008SOL    HW227924   0.199   4.121   2.057
 9009SOL     OW27925   4.054   6.447   0.031
 9009SOL    HW127926   4.117   6.525   0.037
 9009SOL    HW227927   3.996   6.458   6.979
 9010SOL     OW27928   6.850   5.783   4.510
 9010SOL    HW127929   6.924   5.821   4.455
 9010SOL    HW227930   6.849   5.683   4.500
 9011SOL     OW27931   4.609   2.523   1.894
 9011SOL    HW127932   4.621   2.457   1.820
 9011SOL    HW227933   4.616   2.616   1.857
 9012SOL     OW27934   4.204   5.114   2.614
 9012SOL    HW127935   4.141   5.069   2.551
 9012SOL    HW227936   4.294   5.122   2.573
 9013SOL     OW27937   4.294   5.885   1.564
 9013SOL    HW127938   4.306   5.939   1.648
 9013SOL    HW227939   4.205   5.904   1.524
 9014SOL     OW27940   2.567   1.025   1.887
 9014SOL    HW127941   2.642   0.959   1.900
 9014SOL    HW227942   2.487   0.977   1.852
 9015SOL     OW27943   6.530   2.187   4.799
 9015SOL    HW127944   6.556   2.272   4.753
 9015SOL    HW227945   6.430   2.182   4.804
 9016SOL     OW27946   0.260   6.143   6.935
 9016SOL    HW127947   0.178   6.155   6.992
 9016SOL    HW227948   0.250   6.195   6.851
 9017SOL     OW27949   6.460   3.464   3.115
 9017SOL    HW127950   6.507   3.506   3.192
 9017SOL    HW227951   6.375   3.514   3.098
 9018SOL     OW27952   4.455   1.559   6.642
 9018SOL    HW127953   4.388   1.497   6.601
 9018SOL    HW227954   4.427   1.580   6.735
 9019SOL     OW27955   1.910   5.257   0.035
 9019SOL    HW127956   1.871   5.215   6.980
 9019SOL    HW227957   1.876   5.350   0.044
 9020SOL     OW27958   0.874   5.005   4.850
 9020SOL    HW127959   0.872   5.042   4.757
 9020SOL    HW227960   0.830   4.915   4.851
 9021SOL     OW27961   6.298   5.420   5.774
 9021SOL    HW127962   6.236   5.400   5.698
 9021SOL    HW227963   6.390   5.438   5.738
 9022SOL     OW27964   2.180   0.037   6.075
 9022SOL    HW127965   2.100   0.097   6.069
 9022SOL    HW227966   2.217   0.041   6.168
 9023SOL     OW27967   3.533   4.041   4.002
 9023SOL    HW127968   3.623   4.057   4.041
 9023SOL    HW227969   3.493   3.959   4.044
 9024SOL     OW27970   1.117   0.133   6.521
 9024SOL    HW127971   1.213   0.118   6.495
 9024SOL    HW227972   1.114   0.166   6.615
 9025SOL     OW27973   0.098   3.098   0.188
 9025SOL    HW127974   0.089   3.002   0.162
 9025SOL    HW227975   0.093   3.106   0.288
 9026SOL     OW27976   2.750   3.157   5.607
 9026SOL    HW127977   2.652   3.141   5.614
 9026SOL    HW227978   2.771   3.249   5.639
 9027SOL     OW27979   1.612   3.397   2.775
 9027SOL    HW127980   1.602   3.433   2.682
 9027SOL    HW227981   1.699   3.428   2.813
 9028SOL     OW27982   2.264   4.556   4.995
 9028SOL    HW127983   2.208   4.473   4.998
 9028SOL    HW227984   2.207   4.634   4.971
 9029SOL     OW27985   5.538   4.946   2.625
 9029SOL    HW127986   5.537   5.021   2.691
 9029SOL    HW227987   5.459   4.956   2.564
 9030SOL     OW27988   4.434   2.468   3.093
 9030SOL    HW127989   4.433   2.493   3.190
 9030SOL    HW227990   4.348   2.423   3.069
 9031SOL     OW27991   2.518   1.465   2.062
 9031SOL    HW127992   2.470   1.461   1.975
 9031SOL    HW227993   2.557   1.375   2.083
 9032SOL     OW27994   0.346   3.342   2.243
 9032SOL    HW127995   0.403   3.306   2.317
 9032SOL    HW227996   0.251   3.314   2.257
 9033SOL     OW27997   1.212   3.558   2.984
 9033SOL    HW127998   1.270   3.598   2.913
 9033SOL    HW227999   1.169   3.630   3.037
 9034SOL     OW28000   1.664   6.916   6.753
 9034SOL    HW128001   1.712   6.829   6.767
 9034SOL    HW228002   1.633   6.952   6.841
 9035SOL     OW28003   6.106   1.136   4.174
 9035SOL    HW128004   6.193   1.094   4.199
 9035SOL    HW228005   6.043   1.065   4.141
 9036SOL     OW28006   0.775   1.408   4.760
 9036SOL    HW128007   0.676   1.401   4.763
 9036SOL    HW228008   0.804   1.436   4.668
 9037SOL     OW28009   2.390   4.220   5.909
 9037SOL    HW128010   2.426   4.163   5.984
 9037SOL    HW228011   2.366   4.310   5.944
 9038SOL     OW28012   4.442   5.257   5.373
 9038SOL    HW128013   4.392   5.206   5.302
 9038SOL    HW228014   4.446   5.353   5.348
 9039SOL     OW28015   2.617   4.998   6.916
 9039SOL    HW128016   2.617   4.967   7.011
 9039SOL    HW228017   2.711   5.011   6.885
 9040SOL     OW28018   3.086   1.113   2.408
 9040SOL    HW128019   3.058   1.199   2.452
 9040SOL    HW228020   3.026   1.039   2.438
 9041SOL     OW28021   2.386   2.511   5.973
 9041SOL    HW128022   2.375   2.524   5.875
 9041SOL    HW228023   2.300   2.531   6.020
 9042SOL     OW28024   1.683   5.577   2.455
 9042SOL    HW128025   1.586   5.564   2.432
 9042SOL    HW228026   1.712   5.505   2.519
 9043SOL     OW28027   0.341   1.798   6.879
 9043SOL    HW128028   0.266   1.861   6.896
 9043SOL    HW228029   0.349   1.780   6.781
 9044SOL     OW28030   0.713   4.288   0.281
 9044SOL    HW128031   0.802   4.253   0.310
 9044SOL    HW228032   0.648   4.212   0.271
 9045SOL     OW28033   2.171   4.912   4.707
 9045SOL    HW128034   2.199   4.916   4.803
 9045SOL    HW228035   2.174   5.004   4.667
 9046SOL     OW28036   3.637   4.223   6.375
 9046SOL    HW128037   3.668   4.143   6.426
 9046SOL    HW228038   3.613   4.297   6.438
 9047SOL     OW28039   0.935   3.976   4.450
 9047SOL    HW128040   0.933   3.900   4.384
 9047SOL    HW228041   0.853   4.032   4.437
 9048SOL     OW28042   1.584   2.710   5.110
 9048SOL    HW128043   1.556   2.805   5.124
 9048SOL    HW228044   1.680   2.708   5.083
 9049SOL     OW28045   4.759   6.358   5.937
 9049SOL    HW128046   4.739   6.262   5.960
 9049SOL    HW228047   4.770   6.367   5.838
 9050SOL     OW28048   6.790   4.334   6.017
 9050SOL    HW128049   6.828   4.305   6.105
 9050SOL    HW228050   6.776   4.434   6.018
 9051SOL     OW28051   6.174   6.305   6.332
 9051SOL    HW128052   6.241   6.302   6.258
 9051SOL    HW228053   6.212   6.262   6.413
 9052SOL     OW28054   2.788   5.211   4.831
 9052SOL    HW128055   2.873   5.203   4.778
 9052SOL    HW228056   2.722   5.144   4.798
 9053SOL     OW28057   2.537   1.203   2.988
 9053SOL    HW128058   2.509   1.254   2.907
 9053SOL    HW228059   2.498   1.246   3.070
 9054SOL     OW28060   1.483   7.028   1.359
 9054SOL    HW128061   1.414   0.051   1.411
 9054SOL    HW228062   1.542   6.977   1.421
 9055SOL     OW28063   1.375   2.636   4.915
 9055SOL    HW128064   1.435   2.653   4.993
 9055SOL    HW228065   1.410   2.686   4.835
 9056SOL     OW28066   5.013   2.502   1.474
 9056SOL    HW128067   5.035   2.544   1.563
 9056SOL    HW228068   5.098   2.480   1.426
 9057SOL     OW28069   3.682   6.794   6.844
 9057SOL    HW128070   3.616   6.735   6.796
 9057SOL    HW228071   3.774   6.755   6.834
 9058SOL     OW28072   2.614   2.099   4.005
 9058SOL    HW128073   2.664   2.018   3.976
 9058SOL    HW228074   2.657   2.181   3.968
 9059SOL     OW28075   6.902   0.592   2.338
 9059SOL    HW128076   6.951   0.568   2.422
 9059SOL    HW228077   6.894   0.511   2.280
 9060SOL     OW28078   6.691   5.100   0.403
 9060SOL    HW128079   6.728   5.188   0.372
 9060SOL    HW228080   6.724   5.081   0.495
 9061SOL     OW28081   4.700   4.234   2.252
 9061SOL    HW128082   4.652   4.257   2.168
 9061SOL    HW228083   4.720   4.136   2.253
 9062SOL     OW28084   0.223   5.753   3.035
 9062SOL    HW128085   0.188   5.686   3.101
 9062SOL    HW228086   0.161   5.831   3.030
 9063SOL     OW28087   5.056   0.108   1.057
 9063SOL    HW128088   5.032   0.022   1.013
 9063SOL    HW228089   5.010   0.184   1.009
 9064SOL     OW28090   1.443   5.735   3.069
 9064SOL    HW128091   1.353   5.721   3.026
 9064SOL    HW228092   1.430   5.748   3.167
 9065SOL     OW28093   3.264   4.180   6.720
 9065SOL    HW128094   3.311   4.225   6.795
 9065SOL    HW228095   3.181   4.231   6.696
 9066SOL     OW28096   5.280   4.697   3.614
 9066SOL    HW128097   5.262   4.623   3.549
 9066SOL    HW228098   5.193   4.737   3.643
 9067SOL     OW28099   2.152   6.796   4.101
 9067SOL    HW128100   2.201   6.863   4.045
 9067SOL    HW228101   2.060   6.830   4.121
 9068SOL     OW28102   4.913   0.294   6.081
 9068SOL    HW128103   4.879   0.380   6.117
 9068SOL    HW228104   4.841   0.225   6.085
 9069SOL     OW28105   4.927   2.417   1.773
 9069SOL    HW128106   4.906   2.442   1.867
 9069SOL    HW228107   4.850   2.442   1.713
 9070SOL     OW28108   1.389   0.722   6.297
 9070SOL    HW128109   1.374   0.818   6.321
 9070SOL    HW228110   1.476   0.712   6.248
 9071SOL     OW28111   4.798   2.700   6.824
 9071SOL    HW128112   4.823   2.637   6.898
 9071SOL    HW228113   4.870   2.769   6.814
 9072SOL     OW28114   6.498   0.836   2.129
 9072SOL    HW128115   6.539   0.923   2.155
 9072SOL    HW228116   6.433   0.808   2.200
 9073SOL     OW28117   4.546   2.771   5.929
 9073SOL    HW128118   4.627   2.746   5.876
 9073SOL    HW228119   4.507   2.855   5.891
 9074SOL     OW28120   2.203   1.017   3.700
 9074SOL    HW128121   2.224   0.977   3.611
 9074SOL    HW228122   2.250   1.105   3.709
 9075SOL     OW28123   5.048   5.555   0.357
 9075SOL    HW128124   5.141   5.520   0.344
 9075SOL    HW228125   4.983   5.481   0.341
 9076SOL     OW28126   1.616   5.746   2.682
 9076SOL    HW128127   1.613   5.699   2.770
 9076SOL    HW228128   1.657   5.685   2.613
 9077SOL     OW28129   6.071   1.362   6.302
 9077SOL    HW128130   6.158   1.408   6.283
 9077SOL    HW228131   6.089   1.271   6.339
 9078SOL     OW28132   5.052   6.649   0.205
 9078SOL    HW128133   5.074   6.630   0.301
 9078SOL    HW228134   4.978   6.717   0.201
 9079SOL     OW28135   1.396   1.306   6.686
 9079SOL    HW128136   1.338   1.300   6.768
 9079SOL    HW228137   1.368   1.384   6.631
 9080SOL     OW28138   6.265   4.342   1.385
 9080SOL    HW128139   6.194   4.351   1.455
 9080SOL    HW228140   6.354   4.363   1.424
 9081SOL     OW28141   5.338   1.548   0.292
 9081SOL    HW128142   5.314   1.492   0.212
 9081SOL    HW228143   5.261   1.606   0.317
 9082SOL     OW28144   3.186   4.759   6.748
 9082SOL    HW128145   3.144   4.796   6.831
 9082SOL    HW228146   3.169   4.661   6.743
 9083SOL     OW28147   4.005   0.866   0.740
 9083SOL    HW128148   4.090   0.906   0.708
 9083SOL    HW228149   3.946   0.845   0.662
 9084SOL     OW28150   6.629   4.550   4.430
 9084SOL    HW128151   6.545   4.542   4.484
 9084SOL    HW228152   6.615   4.507   4.341
 9085SOL     OW28153   2.690   4.419   1.066
 9085SOL    HW128154   2.597   4.389   1.086
 9085SOL    HW228155   2.744   4.341   1.034
 9086SOL     OW28156   6.779   2.417   0.653
 9086SOL    HW128157   6.693   2.367   0.660
 9086SOL    HW228158   6.760   2.514   0.637
 9087SOL     OW28159   5.030   1.105   1.593
 9087SOL    HW128160   4.977   1.039   1.646
 9087SOL    HW228161   5.098   1.148   1.652
 9088SOL     OW28162   5.621   6.258   6.732
 9088SOL    HW128163   5.672   6.173   6.747
 9088SOL    HW228164   5.636   6.289   6.638
 9089SOL     OW28165   5.277   5.052   2.473
 9089SOL    HW128166   5.305   4.969   2.425
 9089SOL    HW228167   5.229   5.112   2.409
 9090SOL     OW28168   6.369   5.755   5.502
 9090SOL    HW128169   6.391   5.658   5.495
 9090SOL    HW228170   6.296   5.768   5.570
 9091SOL     OW28171   2.801   2.072   1.747
 9091SOL    HW128172   2.869   2.061   1.819
 9091SOL    HW228173   2.772   2.168   1.743
 9092SOL     OW28174   2.564   1.684   5.095
 9092SOL    HW128175   2.512   1.761   5.133
 9092SOL    HW228176   2.513   1.644   5.019
 9093SOL     OW28177   2.165   3.665   0.251
 9093SOL    HW128178   2.090   3.604   0.277
 9093SOL    HW228179   2.244   3.610   0.223
 9094SOL     OW28180   6.472   2.685   0.624
 9094SOL    HW128181   6.571   2.677   0.614
 9094SOL    HW228182   6.447   2.680   0.721
 9095SOL     OW28183   1.665   2.733   6.990
 9095SOL    HW128184   1.612   2.683   0.030
 9095SOL    HW228185   1.613   2.812   6.958
 9096SOL     OW28186   6.503   4.829   2.905
 9096SOL    HW128187   6.547   4.775   2.977
 9096SOL    HW228188   6.406   4.805   2.899
 9097SOL     OW28189   6.404   6.033   5.979
 9097SOL    HW128190   6.479   6.085   5.939
 9097SOL    HW228191   6.416   5.936   5.956
 9098SOL     OW28192   3.766   3.586   5.031
 9098SOL    HW128193   3.747   3.679   5.062
 9098SOL    HW228194   3.695   3.524   5.064
 9099SOL     OW28195   1.688   2.468   6.710
 9099SOL    HW128196   1.628   2.504   6.782
 9099SOL    HW228197   1.782   2.465   6.744
 9100SOL     OW28198   1.327   2.837   0.327
 9100SOL    HW128199   1.240   2.820   0.373
 9100SOL    HW228200   1.401   2.794   0.378
 9101SOL     OW28201   1.993   2.483   6.831
 9101SOL    HW128202   2.022   2.388   6.825
 9101SOL    HW228203   2.057   2.534   6.890
 9102SOL     OW28204   4.630   6.241   1.879
 9102SOL    HW128205   4.709   6.228   1.939
 9102SOL    HW228206   4.549   6.261   1.934
 9103SOL     OW28207   0.723   4.234   6.331
 9103SOL    HW128208   0.672   4.211   6.414
 9103SOL    HW228209   0.713   4.161   6.264
 9104SOL     OW28210   4.828   0.259   3.133
 9104SOL    HW128211   4.863   0.169   3.107
 9104SOL    HW228212   4.783   0.301   3.054
 9105SOL     OW28213   3.026   1.839   6.391
 9105SOL    HW128214   2.988   1.806   6.478
 9105SOL    HW228215   3.116   1.800   6.377
 9106SOL     OW28216   6.395   5.532   2.105
 9106SOL    HW128217   6.440   5.598   2.165
 9106SOL    HW228218   6.435   5.537   2.014
 9107SOL     OW28219   4.996   6.320   6.474
 9107SOL    HW128220   5.025   6.236   6.520
 9107SOL    HW228221   5.076   6.379   6.460
 9108SOL     OW28222   3.450   6.111   0.134
 9108SOL    HW128223   3.467   6.015   0.160
 9108SOL    HW228224   3.377   6.115   0.067
 9109SOL     OW28225   3.128   1.417   4.050
 9109SOL    HW128226   3.115   1.420   3.951
 9109SOL    HW228227   3.072   1.487   4.093
 9110SOL     OW28228   1.259   3.695   3.343
 9110SOL    HW128229   1.197   3.708   3.266
 9110SOL    HW228230   1.331   3.764   3.340
 9111SOL     OW28231   4.364   3.752   1.404
 9111SOL    HW128232   4.454   3.795   1.410
 9111SOL    HW228233   4.310   3.776   1.484
 9112SOL     OW28234   0.953   5.645   2.180
 9112SOL    HW128235   0.881   5.707   2.148
 9112SOL    HW228236   1.041   5.676   2.144
 9113SOL     OW28237   2.793   5.531   6.776
 9113SOL    HW128238   2.783   5.565   6.683
 9113SOL    HW228239   2.703   5.525   6.819
 9114SOL     OW28240   2.583   3.686   1.522
 9114SOL    HW128241   2.511   3.753   1.537
 9114SOL    HW228242   2.589   3.625   1.601
 9115SOL     OW28243   1.932   4.164   4.729
 9115SOL    HW128244   1.986   4.242   4.698
 9115SOL    HW228245   1.991   4.098   4.776
 9116SOL     OW28246   2.436   1.836   6.379
 9116SOL    HW128247   2.430   1.932   6.354
 9116SOL    HW228248   2.497   1.789   6.314
 9117SOL     OW28249   0.264   3.608   0.173
 9117SOL    HW128250   0.190   3.543   0.156
 9117SOL    HW228251   0.306   3.589   0.262
 9118SOL     OW28252   0.870   5.945   1.523
 9118SOL    HW128253   0.907   5.945   1.430
 9118SOL    HW228254   0.770   5.953   1.519
 9119SOL     OW28255   6.215   0.250   1.257
 9119SOL    HW128256   6.310   0.255   1.225
 9119SOL    HW228257   6.212   0.206   1.347
 9120SOL     OW28258   6.011   0.721   6.963
 9120SOL    HW128259   6.041   0.653   6.896
 9120SOL    HW228260   5.936   0.683   7.018
 9121SOL     OW28261   1.628   1.798   6.419
 9121SOL    HW128262   1.624   1.700   6.437
 9121SOL    HW228263   1.633   1.814   6.320
 9122SOL     OW28264   1.217   2.692   1.239
 9122SOL    HW128265   1.222   2.717   1.142
 9122SOL    HW228266   1.135   2.638   1.255
 9123SOL     OW28267   2.403   6.693   6.808
 9123SOL    HW128268   2.408   6.757   6.885
 9123SOL    HW228269   2.392   6.600   6.843
 9124SOL     OW28270   6.668   4.583   5.683
 9124SOL    HW128271   6.728   4.601   5.761
 9124SOL    HW228272   6.642   4.486   5.684
 9125SOL     OW28273   4.774   5.842   0.761
 9125SOL    HW128274   4.774   5.869   0.857
 9125SOL    HW228275   4.824   5.757   0.750
 9126SOL     OW28276   6.014   6.790   2.972
 9126SOL    HW128277   6.085   6.777   2.903
 9126SOL    HW228278   5.974   6.701   2.996
 9127SOL     OW28279   5.653   5.684   5.720
 9127SOL    HW128280   5.699   5.607   5.762
 9127SOL    HW228281   5.573   5.710   5.776
 9128SOL     OW28282   4.825   2.377   5.386
 9128SOL    HW128283   4.726   2.375   5.380
 9128SOL    HW228284   4.854   2.350   5.478
 9129SOL     OW28285   2.156   1.899   0.089
 9129SOL    HW128286   2.211   1.943   0.018
 9129SOL    HW228287   2.074   1.860   0.047
 9130SOL     OW28288   6.226   5.948   1.173
 9130SOL    HW128289   6.239   6.009   1.095
 9130SOL    HW228290   6.197   6.000   1.253
 9131SOL     OW28291   1.336   4.845   4.198
 9131SOL    HW128292   1.276   4.922   4.219
 9131SOL    HW228293   1.334   4.780   4.274
 9132SOL     OW28294   2.019   2.974   4.133
 9132SOL    HW128295   2.066   3.052   4.091
 9132SOL    HW228296   2.008   2.901   4.066
 9133SOL     OW28297   1.569   5.164   1.491
 9133SOL    HW128298   1.533   5.215   1.413
 9133SOL    HW228299   1.610   5.079   1.459
 9134SOL     OW28300   2.962   4.682   6.172
 9134SOL    HW128301   3.043   4.635   6.207
 9134SOL    HW228302   2.889   4.677   6.241
 9135SOL     OW28303   0.919   6.539   4.373
 9135SOL    HW128304   0.858   6.494   4.439
 9135SOL    HW228305   0.906   6.638   4.377
 9136SOL     OW28306   3.850   5.245   5.457
 9136SOL    HW128307   3.788   5.184   5.409
 9136SOL    HW228308   3.804   5.283   5.538
 9137SOL     OW28309   4.076   0.850   1.610
 9137SOL    HW128310   4.039   0.896   1.530
 9137SOL    HW228311   4.008   0.786   1.646
 9138SOL     OW28312   3.143   4.074   1.027
 9138SOL    HW128313   3.176   4.015   1.101
 9138SOL    HW228314   3.118   4.163   1.063
 9139SOL     OW28315   3.264   0.943   5.774
 9139SOL    HW128316   3.175   0.972   5.740
 9139SOL    HW228317   3.253   0.894   5.860
 9140SOL     OW28318   6.659   2.549   3.718
 9140SOL    HW128319   6.573   2.501   3.697
 9140SOL    HW228320   6.644   2.611   3.795
 9141SOL     OW28321   5.640   0.449   5.800
 9141SOL    HW128322   5.557   0.488   5.841
 9141SOL    HW228323   5.672   0.509   5.727
 9142SOL     OW28324   0.925   4.327   6.664
 9142SOL    HW128325   0.939   4.422   6.691
 9142SOL    HW228326   0.981   4.307   6.583
 9143SOL     OW28327   5.577   4.377   0.672
 9143SOL    HW128328   5.618   4.328   0.749
 9143SOL    HW228329   5.622   4.465   0.661
 9144SOL     OW28330   1.411   5.234   4.811
 9144SOL    HW128331   1.381   5.141   4.831
 9144SOL    HW228332   1.337   5.298   4.833
 9145SOL     OW28333   0.461   3.998   6.351
 9145SOL    HW128334   0.543   3.965   6.305
 9145SOL    HW228335   0.449   3.949   6.437
 9146SOL     OW28336   0.536   1.984   1.303
 9146SOL    HW128337   0.587   1.971   1.217
 9146SOL    HW228338   0.561   1.911   1.367
 9147SOL     OW28339   4.621   6.107   5.967
 9147SOL    HW128340   4.558   6.066   6.034
 9147SOL    HW228341   4.581   6.103   5.876
 9148SOL     OW28342   3.385   5.401   3.304
 9148SOL    HW128343   3.337   5.473   3.254
 9148SOL    HW228344   3.382   5.316   3.253
 9149SOL     OW28345   6.124   2.699   4.704
 9149SOL    HW128346   6.030   2.681   4.675
 9149SOL    HW228347   6.187   2.671   4.631
 9150SOL     OW28348   4.313   1.370   2.802
 9150SOL    HW128349   4.350   1.319   2.881
 9150SOL    HW228350   4.309   1.467   2.824
 9151SOL     OW28351   0.953   3.228   2.097
 9151SOL    HW128352   1.046   3.207   2.128
 9151SOL    HW228353   0.921   3.312   2.142
 9152SOL     OW28354   2.390   5.218   3.669
 9152SOL    HW128355   2.389   5.305   3.618
 9152SOL    HW228356   2.442   5.229   3.753
 9153SOL     OW28357   1.246   3.126   6.706
 9153SOL    HW128358   1.210   3.040   6.670
 9153SOL    HW228359   1.249   3.194   6.632
 9154SOL     OW28360   1.748   5.446   0.392
 9154SOL    HW128361   1.678   5.383   0.425
 9154SOL    HW228362   1.837   5.418   0.428
 9155SOL     OW28363   1.426   4.276   0.147
 9155SOL    HW128364   1.481   4.213   0.202
 9155SOL    HW228365   1.455   4.370   0.166
 9156SOL     OW28366   5.411   2.593   1.676
 9156SOL    HW128367   5.387   2.500   1.651
 9156SOL    HW228368   5.328   2.645   1.694
 9157SOL     OW28369   5.374   3.734   5.765
 9157SOL    HW128370   5.376   3.692   5.856
 9157SOL    HW228371   5.399   3.665   5.696
 9158SOL     OW28372   0.453   4.068   3.568
 9158SOL    HW128373   0.410   4.115   3.645
 9158SOL    HW228374   0.396   4.078   3.487
 9159SOL     OW28375   7.021   4.914   2.481
 9159SOL    HW128376   6.965   4.987   2.520
 9159SOL    HW228377   7.020   4.923   2.381
 9160SOL     OW28378   0.146   0.090   0.740
 9160SOL    HW128379   0.062   0.127   0.782
 9160SOL    HW228380   0.124   0.052   0.651
 9161SOL     OW28381   5.288   3.956   2.650
 9161SOL    HW128382   5.218   3.885   2.640
 9161SOL    HW228383   5.247   4.039   2.688
 9162SOL     OW28384   5.264   2.154   2.554
 9162SOL    HW128385   5.293   2.058   2.549
 9162SOL    HW228386   5.164   2.158   2.562
 9163SOL     OW28387   3.051   0.875   4.812
 9163SOL    HW128388   3.132   0.928   4.787
 9163SOL    HW228389   3.007   0.916   4.892
 9164SOL     OW28390   2.723   0.477   0.837
 9164SOL    HW128391   2.805   0.461   0.893
 9164SOL    HW228392   2.678   0.389   0.820
 9165SOL     OW28393   4.589   5.997   0.261
 9165SOL    HW128394   4.512   5.936   0.278
 9165SOL    HW228395   4.652   5.993   0.339
 9166SOL     OW28396   2.544   5.451   1.477
 9166SOL    HW128397   2.537   5.392   1.557
 9166SOL    HW228398   2.622   5.421   1.421
 9167SOL     OW28399   0.410   4.027   4.806
 9167SOL    HW128400   0.347   4.063   4.737
 9167SOL    HW228401   0.480   4.095   4.826
 9168SOL     OW28402   3.241   0.692   0.083
 9168SOL    HW128403   3.222   0.620   0.016
 9168SOL    HW228404   3.291   0.766   0.038
 9169SOL     OW28405   0.466   7.013   2.871
 9169SOL    HW128406   0.417   0.010   2.954
 9169SOL    HW228407   0.401   6.993   2.798
 9170SOL     OW28408   6.501   6.206   0.129
 9170SOL    HW128409   6.494   6.247   0.220
 9170SOL    HW228410   6.583   6.149   0.125
 9171SOL     OW28411   2.999   5.762   5.371
 9171SOL    HW128412   2.954   5.693   5.314
 9171SOL    HW228413   3.026   5.720   5.458
 9172SOL     OW28414   2.710   2.361   3.939
 9172SOL    HW128415   2.678   2.442   3.989
 9172SOL    HW228416   2.794   2.328   3.981
 9173SOL     OW28417   0.790   5.205   5.179
 9173SOL    HW128418   0.710   5.230   5.233
 9173SOL    HW228419   0.815   5.281   5.119
 9174SOL     OW28420   0.356   5.840   6.823
 9174SOL    HW128421   0.289   5.795   6.764
 9174SOL    HW228422   0.328   5.936   6.836
 9175SOL     OW28423   1.626   6.493   6.033
 9175SOL    HW128424   1.712   6.544   6.031
 9175SOL    HW228425   1.589   6.485   5.941
 9176SOL     OW28426   1.462   2.066   5.533
 9176SOL    HW128427   1.548   2.109   5.562
 9176SOL    HW228428   1.482   1.981   5.484
 9177SOL     OW28429   1.391   4.675   3.421
 9177SOL    HW128430   1.416   4.769   3.399
 9177SOL    HW228431   1.371   4.669   3.519
 9178SOL     OW28432   2.109   4.350   0.215
 9178SOL    HW128433   2.038   4.365   0.146
 9178SOL    HW228434   2.196   4.386   0.182
 9179SOL     OW28435   2.283   5.027   5.020
 9179SOL    HW128436   2.276   5.054   5.116
 9179SOL    HW228437   2.379   5.017   4.996
 9180SOL     OW28438   5.863   2.152   3.100
 9180SOL    HW128439   5.833   2.239   3.061
 9180SOL    HW228440   5.931   2.169   3.171
 9181SOL     OW28441   4.051   1.520   1.989
 9181SOL    HW128442   4.029   1.566   1.903
 9181SOL    HW228443   4.122   1.451   1.973
 9182SOL     OW28444   2.099   6.761   2.034
 9182SOL    HW128445   2.139   6.703   1.964
 9182SOL    HW228446   2.116   6.721   2.124
 9183SOL     OW28447   4.882   5.532   6.046
 9183SOL    HW128448   4.974   5.503   6.018
 9183SOL    HW228449   4.818   5.514   5.972
 9184SOL     OW28450   4.771   6.562   7.008
 9184SOL    HW128451   4.809   6.551   6.916
 9184SOL    HW228452   4.679   6.523   7.010
 9185SOL     OW28453   4.719   1.543   4.781
 9185SOL    HW128454   4.806   1.537   4.733
 9185SOL    HW228455   4.722   1.487   4.864
 9186SOL     OW28456   5.318   7.001   6.621
 9186SOL    HW128457   5.375   6.964   6.547
 9186SOL    HW228458   5.285   0.064   6.595
 9187SOL     OW28459   2.841   6.573   2.444
 9187SOL    HW128460   2.894   6.533   2.519
 9187SOL    HW228461   2.797   6.500   2.391
 9188SOL     OW28462   2.137   6.175   1.086
 9188SOL    HW128463   2.134   6.253   1.023
 9188SOL    HW228464   2.148   6.091   1.033
 9189SOL     OW28465   5.279   4.910   1.883
 9189SOL    HW128466   5.370   4.869   1.894
 9189SOL    HW228467   5.288   5.009   1.873
 9190SOL     OW28468   0.833   5.759   0.678
 9190SOL    HW128469   0.763   5.823   0.711
 9190SOL    HW228470   0.896   5.736   0.752
 9191SOL     OW28471   6.743   0.431   6.288
 9191SOL    HW128472   6.699   0.521   6.295
 9191SOL    HW228473   6.823   0.438   6.229
 9192SOL     OW28474   1.226   3.950   4.872
 9192SOL    HW128475   1.290   3.999   4.813
 9192SOL    HW228476   1.150   3.915   4.817
 9193SOL     OW28477   2.626   3.526   0.333
 9193SOL    HW128478   2.705   3.519   0.394
 9193SOL    HW228479   2.600   3.622   0.323
 9194SOL     OW28480   2.781   0.425   4.317
 9194SOL    HW128481   2.853   0.494   4.317
 9194SOL    HW228482   2.822   0.334   4.314
 9195SOL     OW28483   1.542   0.709   3.921
 9195SOL    HW128484   1.488   0.628   3.946
 9195SOL    HW228485   1.637   0.693   3.945
 9196SOL     OW28486   4.979   1.542   5.822
 9196SOL    HW128487   4.957   1.544   5.920
 9196SOL    HW228488   4.899   1.575   5.770
 9197SOL     OW28489   2.418   3.900   0.550
 9197SOL    HW128490   2.371   3.896   0.638
 9197SOL    HW228491   2.447   3.994   0.533
 9198SOL     OW28492   0.838   4.783   4.195
 9198SOL    HW128493   0.833   4.715   4.267
 9198SOL    HW228494   0.904   4.754   4.126
 9199SOL     OW28495   5.966   4.213   5.225
 9199SOL    HW128496   5.929   4.206   5.317
 9199SOL    HW228497   6.057   4.173   5.222
 9200SOL     OW28498   3.195   0.523   0.328
 9200SOL    HW128499   3.149   0.438   0.302
 9200SOL    HW228500   3.167   0.596   0.267
 9201SOL     OW28501   1.863   4.192   0.676
 9201SOL    HW128502   1.822   4.239   0.598
 9201SOL    HW228503   1.820   4.223   0.761
 9202SOL     OW28504   2.423   0.885   3.909
 9202SOL    HW128505   2.344   0.918   3.858
 9202SOL    HW228506   2.471   0.816   3.854
 9203SOL     OW28507   6.533   6.762   0.555
 9203SOL    HW128508   6.562   6.702   0.630
 9203SOL    HW228509   6.606   6.827   0.535
 9204SOL     OW28510   5.565   0.154   5.196
 9204SOL    HW128511   5.629   0.175   5.270
 9204SOL    HW228512   5.513   0.072   5.220
 9205SOL     OW28513   6.961   5.311   1.449
 9205SOL    HW128514   7.027   5.271   1.512
 9205SOL    HW228515   6.874   5.324   1.497
 9206SOL     OW28516   3.481   6.439   0.320
 9206SOL    HW128517   3.504   6.494   0.239
 9206SOL    HW228518   3.384   6.446   0.339
 9207SOL     OW28519   5.296   5.547   6.308
 9207SOL    HW128520   5.294   5.638   6.267
 9207SOL    HW228521   5.355   5.547   6.388
 9208SOL     OW28522   1.357   3.702   2.786
 9208SOL    HW128523   1.339   3.634   2.715
 9208SOL    HW228524   1.320   3.791   2.757
 9209SOL     OW28525   2.349   7.012   6.792
 9209SOL    HW128526   2.293   0.041   6.851
 9209SOL    HW228527   2.305   6.924   6.777
 9210SOL     OW28528   6.721   0.893   3.549
 9210SOL    HW128529   6.729   0.912   3.647
 9210SOL    HW228530   6.805   0.850   3.516
 9211SOL     OW28531   0.527   1.732   2.649
 9211SOL    HW128532   0.512   1.661   2.581
 9211SOL    HW228533   0.439   1.768   2.679
 9212SOL     OW28534   3.618   5.276   4.527
 9212SOL    HW128535   3.712   5.295   4.556
 9212SOL    HW228536   3.608   5.297   4.430
 9213SOL     OW28537   6.173   4.469   6.461
 9213SOL    HW128538   6.201   4.443   6.369
 9213SOL    HW228539   6.088   4.423   6.484
 9214SOL     OW28540   0.240   5.042   0.130
 9214SOL    HW128541   0.330   5.023   0.091
 9214SOL    HW228542   0.169   5.003   0.071
 9215SOL     OW28543   1.165   1.604   0.956
 9215SOL    HW128544   1.096   1.543   0.996
 9215SOL    HW228545   1.195   1.670   1.025
 9216SOL     OW28546   2.254   0.202   3.693
 9216SOL    HW128547   2.223   0.139   3.765
 9216SOL    HW228548   2.348   0.231   3.713
 9217SOL     OW28549   0.491   2.849   0.491
 9217SOL    HW128550   0.506   2.765   0.543
 9217SOL    HW228551   0.408   2.895   0.523
 9218SOL     OW28552   2.094   1.382   0.717
 9218SOL    HW128553   2.118   1.423   0.629
 9218SOL    HW228554   2.170   1.394   0.782
 9219SOL     OW28555   6.851   1.636   0.196
 9219SOL    HW128556   6.942   1.606   0.223
 9219SOL    HW228557   6.829   1.723   0.240
 9220SOL     OW28558   3.546   5.918   0.933
 9220SOL    HW128559   3.560   5.927   1.032
 9220SOL    HW228560   3.601   5.986   0.886
 9221SOL     OW28561   2.673   4.798   4.923
 9221SOL    HW128562   2.749   4.757   4.973
 9221SOL    HW228563   2.609   4.727   4.894
 9222SOL     OW28564   3.010   2.087   6.564
 9222SOL    HW128565   2.986   1.994   6.536
 9222SOL    HW228566   2.937   2.150   6.537
 9223SOL     OW28567   2.791   3.077   5.308
 9223SOL    HW128568   2.701   3.068   5.265
 9223SOL    HW228569   2.784   3.136   5.388
 9224SOL     OW28570   2.264   4.893   5.367
 9224SOL    HW128571   2.261   4.992   5.352
 9224SOL    HW228572   2.171   4.856   5.359
 9225SOL     OW28573   2.117   6.701   0.051
 9225SOL    HW128574   2.204   6.749   0.066
 9225SOL    HW228575   2.135   6.610   0.014
 9226SOL     OW28576   4.173   6.480   0.721
 9226SOL    HW128577   4.234   6.429   0.660
 9226SOL    HW228578   4.206   6.574   0.731
 9227SOL     OW28579   1.493   6.758   1.999
 9227SOL    HW128580   1.405   6.799   1.978
 9227SOL    HW228581   1.511   6.682   1.936
 9228SOL     OW28582   0.924   6.906   6.939
 9228SOL    HW128583   0.843   6.949   6.978
 9228SOL    HW228584   0.925   6.920   6.840
 9229SOL     OW28585   0.643   5.827   5.740
 9229SOL    HW128586   0.655   5.777   5.826
 9229SOL    HW228587   0.607   5.918   5.758
 9230SOL     OW28588   5.005   1.071   3.437
 9230SOL    HW128589   4.946   1.077   3.517
 9230SOL    HW228590   4.974   1.135   3.367
 9231SOL     OW28591   2.041   3.304   3.589
 9231SOL    HW128592   1.945   3.277   3.599
 9231SOL    HW228593   2.050   3.369   3.514
 9232SOL     OW28594   4.601   4.955   0.981
 9232SOL    HW128595   4.559   4.866   0.966
 9232SOL    HW228596   4.546   5.006   1.047
 9233SOL     OW28597   4.918   4.366   0.756
 9233SOL    HW128598   5.003   4.320   0.728
 9233SOL    HW228599   4.941   4.454   0.798
 9234SOL     OW28600   1.648   6.089   3.633
 9234SOL    HW128601   1.576   6.150   3.667
 9234SOL    HW228602   1.665   6.017   3.700
 9235SOL     OW28603   0.757   2.192   3.647
 9235SOL    HW128604   0.716   2.284   3.644
 9235SOL    HW228605   0.799   2.177   3.736
 9236SOL     OW28606   4.152   2.516   5.905
 9236SOL    HW128607   4.188   2.452   5.973
 9236SOL    HW228608   4.110   2.594   5.951
 9237SOL     OW28609   1.681   3.642   3.623
 9237SOL    HW128610   1.604   3.589   3.658
 9237SOL    HW228611   1.748   3.655   3.696
 9238SOL     OW28612   4.326   3.452   6.577
 9238SOL    HW128613   4.332   3.384   6.650
 9238SOL    HW228614   4.381   3.532   6.602
 9239SOL     OW28615   1.500   3.589   6.299
 9239SOL    HW128616   1.440   3.546   6.365
 9239SOL    HW228617   1.589   3.608   6.341
 9240SOL     OW28618   4.898   0.974   1.781
 9240SOL    HW128619   4.817   1.019   1.743
 9240SOL    HW228620   4.878   0.943   1.874
 9241SOL     OW28621   0.595   5.342   6.640
 9241SOL    HW128622   0.573   5.252   6.602
 9241SOL    HW228623   0.655   5.391   6.578
 9242SOL     OW28624   6.089   6.193   1.737
 9242SOL    HW128625   6.186   6.199   1.763
 9242SOL    HW228626   6.073   6.246   1.654
 9243SOL     OW28627   5.594   6.352   4.338
 9243SOL    HW128628   5.651   6.273   4.316
 9243SOL    HW228629   5.650   6.435   4.339
 9244SOL     OW28630   3.615   5.449   0.201
 9244SOL    HW128631   3.663   5.385   0.261
 9244SOL    HW228632   3.674   5.527   0.181
 9245SOL     OW28633   0.699   6.610   1.347
 9245SOL    HW128634   0.646   6.673   1.289
 9245SOL    HW228635   0.796   6.634   1.342
 9246SOL     OW28636   6.718   4.803   4.397
 9246SOL    HW128637   6.663   4.730   4.437
 9246SOL    HW228638   6.659   4.862   4.342
 9247SOL     OW28639   1.654   6.842   3.553
 9247SOL    HW128640   1.704   6.901   3.488
 9247SOL    HW228641   1.720   6.800   3.615
 9248SOL     OW28642   3.763   1.951   6.073
 9248SOL    HW128643   3.747   2.025   6.138
 9248SOL    HW228644   3.805   1.873   6.119
 9249SOL     OW28645   4.058   6.270   3.439
 9249SOL    HW128646   4.047   6.243   3.535
 9249SOL    HW228647   4.012   6.358   3.424
 9250SOL     OW28648   5.366   3.832   3.327
 9250SOL    HW128649   5.295   3.865   3.265
 9250SOL    HW228650   5.324   3.797   3.410
 9251SOL     OW28651   4.015   2.191   2.861
 9251SOL    HW128652   3.948   2.166   2.790
 9251SOL    HW228653   3.976   2.170   2.951
 9252SOL     OW28654   1.372   6.748   4.220
 9252SOL    HW128655   1.363   6.753   4.319
 9252SOL    HW228656   1.395   6.839   4.184
 9253SOL     OW28657   1.483   6.707   5.710
 9253SOL    HW128658   1.463   6.610   5.728
 9253SOL    HW228659   1.440   6.763   5.780
 9254SOL     OW28660   5.566   2.817   1.353
 9254SOL    HW128661   5.581   2.752   1.427
 9254SOL    HW228662   5.513   2.774   1.281
 9255SOL     OW28663   7.027   5.145   0.550
 9255SOL    HW128664   0.029   5.087   0.475
 9255SOL    HW228665   6.975   5.223   0.514
 9256SOL     OW28666   3.930   4.937   2.021
 9256SOL    HW128667   3.904   4.917   2.116
 9256SOL    HW228668   4.023   4.901   2.005
 9257SOL     OW28669   0.697   3.529   0.868
 9257SOL    HW128670   0.603   3.521   0.834
 9257SOL    HW228671   0.713   3.622   0.900
 9258SOL     OW28672   3.072   3.441   3.824
 9258SOL    HW128673   3.040   3.384   3.899
 9258SOL    HW228674   3.093   3.533   3.858
 9259SOL     OW28675   1.163   2.258   0.506
 9259SOL    HW128676   1.256   2.295   0.511
 9259SOL    HW228677   1.160   2.170   0.554
 9260SOL     OW28678   6.654   3.737   0.030
 9260SOL    HW128679   6.601   3.657   0.057
 9260SOL    HW228680   6.595   3.802   7.010
 9261SOL     OW28681   3.642   7.015   6.531
 9261SOL    HW128682   3.603   0.017   6.618
 9261SOL    HW228683   3.577   6.955   6.485
 9262SOL     OW28684   5.106   0.581   5.846
 9262SOL    HW128685   5.073   0.675   5.837
 9262SOL    HW228686   5.205   0.582   5.864
 9263SOL     OW28687   5.903   3.936   2.132
 9263SOL    HW128688   5.823   3.993   2.151
 9263SOL    HW228689   5.881   3.871   2.059
 9264SOL     OW28690   5.912   2.320   0.149
 9264SOL    HW128691   5.821   2.287   0.175
 9264SOL    HW228692   5.977   2.297   0.221
 9265SOL     OW28693   1.491   1.811   5.428
 9265SOL    HW128694   1.499   1.712   5.434
 9265SOL    HW228695   1.528   1.843   5.341
 9266SOL     OW28696   2.974   6.203   1.888
 9266SOL    HW128697   2.992   6.288   1.937
 9266SOL    HW228698   2.944   6.132   1.952
 9267SOL     OW28699   2.791   5.144   5.784
 9267SOL    HW128700   2.886   5.162   5.809
 9267SOL    HW228701   2.786   5.066   5.722
 9268SOL     OW28702   0.772   1.332   2.801
 9268SOL    HW128703   0.762   1.431   2.795
 9268SOL    HW228704   0.828   1.309   2.880
 9269SOL     OW28705   4.161   1.678   5.917
 9269SOL    HW128706   4.164   1.758   5.856
 9269SOL    HW228707   4.201   1.702   6.005
 9270SOL     OW28708   1.243   0.088   6.094
 9270SOL    HW128709   1.182   0.068   6.017
 9270SOL    HW228710   1.291   0.174   6.077
 9271SOL     OW28711   0.711   5.020   6.343
 9271SOL    HW128712   0.712   4.923   6.317
 9271SOL    HW228713   0.618   5.048   6.366
 9272SOL     OW28714   2.213   5.176   6.684
 9272SOL    HW128715   2.151   5.102   6.709
 9272SOL    HW228716   2.221   5.240   6.761
 9273SOL     OW28717   4.154   5.789   5.607
 9273SOL    HW128718   4.067   5.744   5.587
 9273SOL    HW228719   4.208   5.795   5.524
 9274SOL     OW28720   5.601   2.117   1.924
 9274SOL    HW128721   5.614   2.069   2.011
 9274SOL    HW228722   5.503   2.136   1.911
 9275SOL     OW28723   0.159   0.646   6.167
 9275SOL    HW128724   0.104   0.728   6.183
 9275SOL    HW228725   0.207   0.622   6.251
 9276SOL     OW28726   4.914   6.652   3.662
 9276SOL    HW128727   4.914   6.607   3.752
 9276SOL    HW228728   4.855   6.600   3.599
 9277SOL     OW28729   3.206   2.498   0.476
 9277SOL    HW128730   3.172   2.591   0.493
 9277SOL    HW228731   3.295   2.487   0.520
 9278SOL     OW28732   1.715   2.870   1.295
 9278SOL    HW128733   1.631   2.895   1.247
 9278SOL    HW228734   1.754   2.788   1.253
 9279SOL     OW28735   2.298   6.699   0.900
 9279SOL    HW128736   2.288   6.787   0.946
 9279SOL    HW228737   2.395   6.675   0.893
 9280SOL     OW28738   1.981   0.558   2.897
 9280SOL    HW128739   1.907   0.582   2.960
 9280SOL    HW228740   2.007   0.463   2.911
 9281SOL     OW28741   2.260   2.741   0.442
 9281SOL    HW128742   2.293   2.663   0.496
 9281SOL    HW228743   2.178   2.714   0.392
 9282SOL     OW28744   4.255   1.712   6.476
 9282SOL    HW128745   4.330   1.660   6.517
 9282SOL    HW228746   4.253   1.803   6.516
 9283SOL     OW28747   5.483   2.205   2.724
 9283SOL    HW128748   5.398   2.197   2.671
 9283SOL    HW228749   5.508   2.302   2.733
 9284SOL     OW28750   3.499   3.944   1.867
 9284SOL    HW128751   3.519   4.027   1.920
 9284SOL    HW228752   3.580   3.917   1.815
 9285SOL     OW28753   6.206   2.401   0.003
 9285SOL    HW128754   6.160   2.468   0.061
 9285SOL    HW228755   6.144   2.324   7.014
 9286SOL     OW28756   5.825   5.386   4.673
 9286SOL    HW128757   5.875   5.329   4.738
 9286SOL    HW228758   5.819   5.479   4.709
 9287SOL     OW28759   2.719   0.184   1.886
 9287SOL    HW128760   2.684   0.239   1.962
 9287SOL    HW228761   2.785   0.118   1.921
 9288SOL     OW28762   5.021   1.912   5.740
 9288SOL    HW128763   5.073   1.836   5.701
 9288SOL    HW228764   5.039   1.995   5.688
 9289SOL     OW28765   5.653   3.648   2.327
 9289SOL    HW128766   5.629   3.577   2.261
 9289SOL    HW228767   5.692   3.605   2.409
 9290SOL     OW28768   4.301   2.034   4.367
 9290SOL    HW128769   4.292   1.972   4.445
 9290SOL    HW228770   4.219   2.030   4.311
 9291SOL     OW28771   0.885   1.772   4.942
 9291SOL    HW128772   0.973   1.766   4.991
 9291SOL    HW228773   0.901   1.810   4.851
 9292SOL     OW28774   0.069   3.426   0.120
 9292SOL    HW128775   0.101   3.347   0.068
 9292SOL    HW228776   6.998   3.421   0.132
 9293SOL     OW28777   6.401   3.782   6.166
 9293SOL    HW128778   6.304   3.782   6.141
 9293SOL    HW228779   6.424   3.697   6.213
 9294SOL     OW28780   5.478   5.975   6.409
 9294SOL    HW128781   5.472   6.073   6.392
 9294SOL    HW228782   5.574   5.946   6.405
 9295SOL     OW28783   4.493   1.874   3.775
 9295SOL    HW128784   4.507   1.966   3.738
 9295SOL    HW228785   4.557   1.858   3.850
 9296SOL     OW28786   6.878   6.642   5.342
 9296SOL    HW128787   6.896   6.678   5.250
 9296SOL    HW228788   6.793   6.590   5.342
 9297SOL     OW28789   0.743   0.530   1.544
 9297SOL    HW128790   0.786   0.505   1.457
 9297SOL    HW228791   0.782   0.615   1.578
 9298SOL     OW28792   0.588   6.367   4.783
 9298SOL    HW128793   0.515   6.423   4.745
 9298SOL    HW228794   0.673   6.420   4.785
 9299SOL     OW28795   2.008   3.055   3.771
 9299SOL    HW128796   2.064   3.127   3.731
 9299SOL    HW228797   1.924   3.094   3.807
 9300SOL     OW28798   5.909   4.261   3.701
 9300SOL    HW128799   5.845   4.327   3.739
 9300SOL    HW228800   5.993   4.308   3.673
 9301SOL     OW28801   6.216   4.234   1.870
 9301SOL    HW128802   6.276   4.212   1.947
 9301SOL    HW228803   6.158   4.155   1.849
 9302SOL     OW28804   2.254   2.322   2.755
 9302SOL    HW128805   2.233   2.298   2.850
 9302SOL    HW228806   2.349   2.297   2.735
 9303SOL     OW28807   4.268   4.045   0.673
 9303SOL    HW128808   4.225   4.089   0.594
 9303SOL    HW228809   4.330   3.973   0.641
 9304SOL     OW28810   4.276   3.357   0.095
 9304SOL    HW128811   4.220   3.404   0.027
 9304SOL    HW228812   4.332   3.288   0.050
 9305SOL     OW28813   4.994   3.621   2.121
 9305SOL    HW128814   4.975   3.557   2.047
 9305SOL    HW228815   5.039   3.703   2.084
 9306SOL     OW28816   6.219   4.864   4.256
 9306SOL    HW128817   6.223   4.843   4.158
 9306SOL    HW228818   6.258   4.954   4.272
 9307SOL     OW28819   2.346   0.803   6.529
 9307SOL    HW128820   2.388   0.814   6.439
 9307SOL    HW228821   2.282   0.726   6.527
 9308SOL     OW28822   6.840   1.967   0.352
 9308SOL    HW128823   6.748   1.930   0.341
 9308SOL    HW228824   6.897   1.901   0.402
 9309SOL     OW28825   4.955   2.998   6.325
 9309SOL    HW128826   4.990   3.089   6.351
 9309SOL    HW228827   4.917   3.002   6.233
 9310SOL     OW28828   4.037   6.115   0.908
 9310SOL    HW128829   3.993   6.125   0.818
 9310SOL    HW228830   4.091   6.196   0.928
 9311SOL     OW28831   6.844   3.263   1.898
 9311SOL    HW128832   6.834   3.190   1.830
 9311SOL    HW228833   6.769   3.328   1.887
 9312SOL     OW28834   1.876   4.568   5.091
 9312SOL    HW128835   1.824   4.590   5.009
 9312SOL    HW228836   1.816   4.523   5.158
 9313SOL     OW28837   6.426   6.642   2.467
 9313SOL    HW128838   6.467   6.687   2.388
 9313SOL    HW228839   6.326   6.636   2.454
 9314SOL     OW28840   5.468   4.428   6.816
 9314SOL    HW128841   5.481   4.329   6.807
 9314SOL    HW228842   5.542   4.466   6.871
 9315SOL     OW28843   0.609   6.731   6.560
 9315SOL    HW128844   0.542   6.661   6.534
 9315SOL    HW228845   0.564   6.801   6.616
 9316SOL     OW28846   3.290   5.962   4.578
 9316SOL    HW128847   3.232   5.932   4.654
 9316SOL    HW228848   3.287   5.893   4.506
 9317SOL     OW28849   4.845   4.341   5.563
 9317SOL    HW128850   4.880   4.388   5.482
 9317SOL    HW228851   4.810   4.251   5.537
 9318SOL     OW28852   6.502   6.560   6.202
 9318SOL    HW128853   6.477   6.497   6.129
 9318SOL    HW228854   6.498   6.512   6.290
 9319SOL     OW28855   6.786   2.784   4.564
 9319SOL    HW128856   6.768   2.746   4.655
 9319SOL    HW228857   6.726   2.863   4.549
 9320SOL     OW28858   4.057   2.956   6.171
 9320SOL    HW128859   4.076   2.987   6.264
 9320SOL    HW228860   4.069   3.032   6.107
 9321SOL     OW28861   5.738   5.998   4.052
 9321SOL    HW128862   5.650   6.033   4.019
 9321SOL    HW228863   5.804   5.997   3.977
 9322SOL     OW28864   0.803   6.732   0.356
 9322SOL    HW128865   0.860   6.718   0.276
 9322SOL    HW228866   0.843   6.803   0.414
 9323SOL     OW28867   0.578   1.246   6.538
 9323SOL    HW128868   0.655   1.241   6.601
 9323SOL    HW228869   0.587   1.175   6.468
 9324SOL     OW28870   1.689   5.448   6.891
 9324SOL    HW128871   1.657   5.354   6.905
 9324SOL    HW228872   1.629   5.511   6.938
 9325SOL     OW28873   0.281   3.014   0.602
 9325SOL    HW128874   0.201   2.972   0.559
 9325SOL    HW228875   0.282   3.112   0.582
 9326SOL     OW28876   2.101   5.413   1.384
 9326SOL    HW128877   2.169   5.485   1.393
 9326SOL    HW228878   2.101   5.378   1.291
 9327SOL     OW28879   3.696   0.720   3.399
 9327SOL    HW128880   3.671   0.796   3.458
 9327SOL    HW228881   3.744   0.754   3.318
 9328SOL     OW28882   3.297   0.654   2.148
 9328SOL    HW128883   3.371   0.612   2.201
 9328SOL    HW228884   3.322   0.748   2.125
 9329SOL     OW28885   1.045   4.048   2.003
 9329SOL    HW128886   1.077   4.016   2.091
 9329SOL    HW228887   1.123   4.069   1.944
 9330SOL     OW28888   5.548   6.779   6.596
 9330SOL    HW128889   5.635   6.768   6.548
 9330SOL    HW228890   5.564   6.825   6.683
 9331SOL     OW28891   0.684   1.763   0.072
 9331SOL    HW128892   0.742   1.828   0.121
 9331SOL    HW228893   0.678   1.789   7.004
 9332SOL     OW28894   3.783   3.862   5.152
 9332SOL    HW128895   3.852   3.832   5.218
 9332SOL    HW228896   3.704   3.900   5.201
 9333SOL     OW28897   5.417   5.699   1.192
 9333SOL    HW128898   5.324   5.734   1.199
 9333SOL    HW228899   5.443   5.692   1.096
 9334SOL     OW28900   2.805   6.799   4.983
 9334SOL    HW128901   2.815   6.761   4.891
 9334SOL    HW228902   2.890   6.785   5.034
 9335SOL     OW28903   0.798   0.993   1.852
 9335SOL    HW128904   0.812   0.939   1.935
 9335SOL    HW228905   0.704   0.981   1.820
 9336SOL     OW28906   3.230   6.829   5.172
 9336SOL    HW128907   3.239   6.780   5.085
 9336SOL    HW228908   3.269   6.921   5.164
 9337SOL     OW28909   4.493   6.476   2.843
 9337SOL    HW128910   4.440   6.558   2.822
 9337SOL    HW228911   4.439   6.394   2.822
 9338SOL     OW28912   3.489   6.896   1.959
 9338SOL    HW128913   3.415   6.917   2.022
 9338SOL    HW228914   3.549   6.975   1.949
 9339SOL     OW28915   3.706   5.462   1.522
 9339SOL    HW128916   3.633   5.394   1.524
 9339SOL    HW228917   3.693   5.526   1.598
 9340SOL     OW28918   6.382   3.370   0.929
 9340SOL    HW128919   6.416   3.452   0.974
 9340SOL    HW228920   6.310   3.329   0.985
 9341SOL     OW28921   6.753   4.313   5.710
 9341SOL    HW128922   6.847   4.346   5.702
 9341SOL    HW228923   6.751   4.235   5.773
 9342SOL     OW28924   1.152   6.967   6.295
 9342SOL    HW128925   1.103   0.007   6.349
 9342SOL    HW228926   1.205   7.013   6.223
 9343SOL     OW28927   6.113   6.221   4.217
 9343SOL    HW128928   6.172   6.298   4.192
 9343SOL    HW228929   6.144   6.139   4.170
 9344SOL     OW28930   4.486   6.670   0.926
 9344SOL    HW128931   4.540   6.750   0.952
 9344SOL    HW228932   4.438   6.689   0.840
 9345SOL     OW28933   0.397   3.242   1.202
 9345SOL    HW128934   0.417   3.155   1.247
 9345SOL    HW228935   0.483   3.293   1.191
 9346SOL     OW28936   6.081   0.342   0.523
 9346SOL    HW128937   6.001   0.315   0.469
 9346SOL    HW228938   6.074   0.438   0.548
 9347SOL     OW28939   2.177   6.570   1.853
 9347SOL    HW128940   2.263   6.530   1.823
 9347SOL    HW228941   2.116   6.498   1.885
 9348SOL     OW28942   2.888   5.023   0.562
 9348SOL    HW128943   2.831   5.035   0.481
 9348SOL    HW228944   2.897   4.926   0.583
 9349SOL     OW28945   1.829   5.776   2.308
 9349SOL    HW128946   1.769   5.707   2.349
 9349SOL    HW228947   1.864   5.836   2.379
 9350SOL     OW28948   0.043   2.877   5.870
 9350SOL    HW128949   6.996   2.943   5.869
 9350SOL    HW228950   0.114   2.910   5.932
 9351SOL     OW28951   3.203   0.912   6.541
 9351SOL    HW128952   3.114   0.946   6.510
 9351SOL    HW228953   3.194   0.871   6.631
 9352SOL     OW28954   2.619   5.016   6.003
 9352SOL    HW128955   2.634   5.076   6.080
 9352SOL    HW228956   2.686   5.035   5.931
 9353SOL     OW28957   5.702   1.075   0.935
 9353SOL    HW128958   5.624   1.057   0.875
 9353SOL    HW228959   5.677   1.146   1.000
 9354SOL     OW28960   0.928   1.582   6.543
 9354SOL    HW128961   0.919   1.584   6.443
 9354SOL    HW228962   0.866   1.649   6.583
 9355SOL     OW28963   0.805   1.682   5.294
 9355SOL    HW128964   0.797   1.593   5.249
 9355SOL    HW228965   0.723   1.736   5.275
 9356SOL     OW28966   4.797   0.031   3.728
 9356SOL    HW128967   4.895   0.043   3.709
 9356SOL    HW228968   4.769   0.095   3.800
 9357SOL     OW28969   0.971   2.214   0.284
 9357SOL    HW128970   1.029   2.191   0.362
 9357SOL    HW228971   1.028   2.242   0.206
 9358SOL     OW28972   1.393   2.512   1.342
 9358SOL    HW128973   1.329   2.581   1.310
 9358SOL    HW228974   1.465   2.555   1.396
 9359SOL     OW28975   1.068   0.164   5.312
 9359SOL    HW128976   1.106   0.113   5.235
 9359SOL    HW228977   1.134   0.167   5.386
 9360SOL     OW28978   0.569   0.587   6.096
 9360SOL    HW128979   0.563   0.599   6.195
 9360SOL    HW228980   0.483   0.614   6.053
 9361SOL     OW28981   2.608   5.630   4.489
 9361SOL    HW128982   2.683   5.666   4.433
 9361SOL    HW228983   2.609   5.530   4.484
 9362SOL     OW28984   2.384   0.730   2.499
 9362SOL    HW128985   2.450   0.763   2.567
 9362SOL    HW228986   2.324   0.805   2.471
 9363SOL     OW28987   1.838   3.814   2.371
 9363SOL    HW128988   1.817   3.756   2.292
 9363SOL    HW228989   1.851   3.908   2.341
 9364SOL     OW28990   6.789   2.326   0.100
 9364SOL    HW128991   6.726   2.403   0.101
 9364SOL    HW228992   6.859   2.340   0.170
 9365SOL     OW28993   2.490   0.732   5.304
 9365SOL    HW128994   2.445   0.812   5.266
 9365SOL    HW228995   2.580   0.721   5.261
 9366SOL     OW28996   3.977   6.486   2.426
 9366SOL    HW128997   4.023   6.457   2.341
 9366SOL    HW228998   3.912   6.558   2.405
 9367SOL     OW28999   6.687   0.791   1.326
 9367SOL    HW129000   6.651   0.822   1.415
 9367SOL    HW229001   6.698   0.869   1.266
 9368SOL     OW29002   2.507   0.676   2.826
 9368SOL    HW129003   2.412   0.652   2.807
 9368SOL    HW229004   2.521   0.677   2.925
 9369SOL     OW29005   3.674   5.136   0.907
 9369SOL    HW129006   3.709   5.225   0.936
 9369SOL    HW229007   3.593   5.113   0.961
 9370SOL     OW29008   4.278   2.103   5.155
 9370SOL    HW129009   4.238   2.032   5.096
 9370SOL    HW229010   4.378   2.097   5.150
 9371SOL     OW29011   4.282   4.564   0.741
 9371SOL    HW129012   4.328   4.523   0.663
 9371SOL    HW229013   4.220   4.636   0.710
 9372SOL     OW29014   4.131   6.185   1.470
 9372SOL    HW129015   4.098   6.243   1.545
 9372SOL    HW229016   4.084   6.209   1.386
 9373SOL     OW29017   6.976   2.648   1.283
 9373SOL    HW129018   0.027   2.658   1.344
 9373SOL    HW229019   6.999   2.684   1.193
 9374SOL     OW29020   6.731   5.458   6.320
 9374SOL    HW129021   6.758   5.524   6.390
 9374SOL    HW229022   6.646   5.488   6.277
 9375SOL     OW29023   1.219   1.288   6.898
 9375SOL    HW129024   1.191   1.192   6.898
 9375SOL    HW229025   1.217   1.323   6.992
 9376SOL     OW29026   2.772   3.439   0.636
 9376SOL    HW129027   2.807   3.514   0.580
 9376SOL    HW229028   2.705   3.475   0.701
 9377SOL     OW29029   1.381   0.817   3.256
 9377SOL    HW129030   1.460   0.879   3.254
 9377SOL    HW229031   1.399   0.742   3.320
 9378SOL     OW29032   3.305   0.958   4.731
 9378SOL    HW129033   3.285   0.978   4.636
 9378SOL    HW229034   3.392   1.000   4.757
 9379SOL     OW29035   4.083   0.509   4.325
 9379SOL    HW129036   4.108   0.491   4.230
 9379SOL    HW229037   4.165   0.503   4.383
 9380SOL     OW29038   4.696   5.923   0.512
 9380SOL    HW129039   4.694   5.838   0.460
 9380SOL    HW229040   4.725   5.905   0.606
 9381SOL     OW29041   5.767   0.892   5.105
 9381SOL    HW129042   5.730   0.977   5.066
 9381SOL    HW229043   5.697   0.847   5.160
 9382SOL     OW29044   3.171   5.746   6.223
 9382SOL    HW129045   3.185   5.664   6.168
 9382SOL    HW229046   3.191   5.827   6.167
 9383SOL     OW29047   5.671   3.909   1.659
 9383SOL    HW129048   5.688   3.977   1.730
 9383SOL    HW229049   5.572   3.896   1.649
 9384SOL     OW29050   3.598   6.971   0.965
 9384SOL    HW129051   3.613   6.935   0.873
 9384SOL    HW229052   3.518   0.004   0.964
 9385SOL     OW29053   3.932   2.153   4.385
 9385SOL    HW129054   3.917   2.081   4.453
 9385SOL    HW229055   3.931   2.242   4.431
 9386SOL     OW29056   5.731   0.007   1.560
 9386SOL    HW129057   5.738   0.039   1.466
 9386SOL    HW229058   5.668   0.066   1.611
 9387SOL     OW29059   1.924   1.871   6.463
 9387SOL    HW129060   1.829   1.846   6.444
 9387SOL    HW229061   1.973   1.885   6.377
 9388SOL     OW29062   2.810   6.890   4.510
 9388SOL    HW129063   2.833   6.842   4.595
 9388SOL    HW229064   2.714   6.919   4.513
 9389SOL     OW29065   2.328   4.065   1.880
 9389SOL    HW129066   2.385   4.147   1.888
 9389SOL    HW229067   2.247   4.076   1.938
 9390SOL     OW29068   5.552   5.153   3.810
 9390SOL    HW129069   5.569   5.105   3.896
 9390SOL    HW229070   5.461   5.130   3.776
 9391SOL     OW29071   1.749   4.027   4.551
 9391SOL    HW129072   1.820   4.076   4.602
 9391SOL    HW229073   1.752   3.930   4.575
 9392SOL     OW29074   4.965   4.464   2.262
 9392SOL    HW129075   4.956   4.453   2.163
 9392SOL    HW229076   4.939   4.558   2.287
 9393SOL     OW29077   1.676   5.289   6.250
 9393SOL    HW129078   1.757   5.304   6.307
 9393SOL    HW229079   1.637   5.378   6.223
 9394SOL     OW29080   4.381   0.487   0.593
 9394SOL    HW129081   4.338   0.577   0.593
 9394SOL    HW229082   4.425   0.470   0.505
 9395SOL     OW29083   1.531   1.217   1.652
 9395SOL    HW129084   1.458   1.152   1.675
 9395SOL    HW229085   1.620   1.174   1.665
 9396SOL     OW29086   1.072   0.852   6.137
 9396SOL    HW129087   0.984   0.804   6.130
 9396SOL    HW229088   1.116   0.828   6.223
 9397SOL     OW29089   3.322   1.046   4.465
 9397SOL    HW129090   3.257   1.085   4.400
 9397SOL    HW229091   3.408   1.026   4.417
 9398SOL     OW29092   0.253   1.873   0.374
 9398SOL    HW129093   0.334   1.848   0.322
 9398SOL    HW229094   0.198   1.938   0.321
 9399SOL     OW29095   1.272   2.391   4.879
 9399SOL    HW129096   1.297   2.488   4.881
 9399SOL    HW229097   1.343   2.337   4.923
 9400SOL     OW29098   5.863   1.793   1.316
 9400SOL    HW129099   5.801   1.871   1.314
 9400SOL    HW229100   5.833   1.725   1.248
 9401SOL     OW29101   0.373   2.205   3.725
 9401SOL    HW129102   0.298   2.141   3.743
 9401SOL    HW229103   0.421   2.177   3.642
 9402SOL     OW29104   3.325   6.075   5.227
 9402SOL    HW129105   3.271   6.045   5.306
 9402SOL    HW229106   3.351   5.996   5.171
 9403SOL     OW29107   5.895   2.318   1.101
 9403SOL    HW129108   5.839   2.268   1.034
 9403SOL    HW229109   5.992   2.297   1.085
 9404SOL     OW29110   2.264   2.806   1.066
 9404SOL    HW129111   2.249   2.715   1.105
 9404SOL    HW229112   2.253   2.802   0.967
 9405SOL     OW29113   6.472   5.900   5.271
 9405SOL    HW129114   6.429   5.849   5.345
 9405SOL    HW229115   6.565   5.866   5.255
 9406SOL     OW29116   1.485   1.846   0.901
 9406SOL    HW129117   1.463   1.792   0.820
 9406SOL    HW229118   1.527   1.786   0.970
 9407SOL     OW29119   1.695   4.256   4.855
 9407SOL    HW129120   1.787   4.229   4.829
 9407SOL    HW229121   1.648   4.296   4.777
 9408SOL     OW29122   5.565   4.200   3.922
 9408SOL    HW129123   5.532   4.256   3.998
 9408SOL    HW229124   5.488   4.155   3.879
 9409SOL     OW29125   5.798   5.785   1.443
 9409SOL    HW129126   5.730   5.723   1.405
 9409SOL    HW229127   5.764   5.879   1.436
 9410SOL     OW29128   4.366   0.325   1.017
 9410SOL    HW129129   4.427   0.299   0.942
 9410SOL    HW229130   4.299   0.392   0.983
 9411SOL     OW29131   3.313   4.129   3.564
 9411SOL    HW129132   3.282   4.146   3.657
 9411SOL    HW229133   3.385   4.195   3.541
 9412SOL     OW29134   4.758   0.081   1.794
 9412SOL    HW129135   4.786   0.073   1.698
 9412SOL    HW229136   4.702   0.002   1.818
 9413SOL     OW29137   3.843   4.859   3.323
 9413SOL    HW129138   3.867   4.946   3.279
 9413SOL    HW229139   3.835   4.872   3.421
 9414SOL     OW29140   2.621   1.926   2.171
 9414SOL    HW129141   2.665   1.844   2.135
 9414SOL    HW229142   2.690   1.986   2.211
 9415SOL     OW29143   5.438   0.342   1.244
 9415SOL    HW129144   5.386   0.287   1.179
 9415SOL    HW229145   5.457   0.431   1.203
 9416SOL     OW29146   6.309   5.179   5.562
 9416SOL    HW129147   6.258   5.144   5.640
 9416SOL    HW229148   6.266   5.150   5.477
 9417SOL     OW29149   3.653   5.611   2.194
 9417SOL    HW129150   3.581   5.641   2.257
 9417SOL    HW229151   3.664   5.512   2.202
 9418SOL     OW29152   3.380   2.070   4.916
 9418SOL    HW129153   3.343   1.987   4.957
 9418SOL    HW229154   3.319   2.147   4.936
 9419SOL     OW29155   2.251   2.410   6.305
 9419SOL    HW129156   2.250   2.505   6.274
 9419SOL    HW229157   2.308   2.356   6.243
 9420SOL     OW29158   5.661   3.635   5.750
 9420SOL    HW129159   5.654   3.732   5.727
 9420SOL    HW229160   5.733   3.623   5.819
 9421SOL     OW29161   4.258   6.415   6.729
 9421SOL    HW129162   4.262   6.366   6.816
 9421SOL    HW229163   4.287   6.510   6.743
 9422SOL     OW29164   2.639   6.620   5.619
 9422SOL    HW129165   2.653   6.524   5.641
 9422SOL    HW229166   2.541   6.638   5.611
 9423SOL     OW29167   4.544   5.459   1.539
 9423SOL    HW129168   4.611   5.449   1.613
 9423SOL    HW229169   4.472   5.523   1.568
 9424SOL     OW29170   6.461   0.329   4.032
 9424SOL    HW129171   6.491   0.377   3.949
 9424SOL    HW229172   6.385   0.378   4.074
 9425SOL     OW29173   0.073   4.802   0.726
 9425SOL    HW129174   0.064   4.742   0.646
 9425SOL    HW229175   7.010   4.826   0.760
 9426SOL     OW29176   4.248   3.005   6.367
 9426SOL    HW129177   4.250   2.912   6.403
 9426SOL    HW229178   4.340   3.033   6.340
 9427SOL     OW29179   3.875   5.350   1.934
 9427SOL    HW129180   3.878   5.343   2.034
 9427SOL    HW229181   3.909   5.439   1.906
 9428SOL     OW29182   1.023   6.245   5.629
 9428SOL    HW129183   0.997   6.303   5.706
 9428SOL    HW229184   1.023   6.299   5.545
 9429SOL     OW29185   3.151   2.128   4.143
 9429SOL    HW129186   3.158   2.195   4.217
 9429SOL    HW229187   3.084   2.058   4.168
 9430SOL     OW29188   1.362   0.402   4.732
 9430SOL    HW129189   1.383   0.312   4.695
 9430SOL    HW229190   1.443   0.438   4.779
 9431SOL     OW29191   1.414   4.540   4.814
 9431SOL    HW129192   1.338   4.604   4.825
 9431SOL    HW229193   1.383   4.448   4.840
 9432SOL     OW29194   7.005   1.248   3.432
 9432SOL    HW129195   6.974   1.338   3.461
 9432SOL    HW229196   0.064   1.256   3.383
 9433SOL     OW29197   4.347   5.621   1.634
 9433SOL    HW129198   4.289   5.581   1.562
 9433SOL    HW229199   4.351   5.721   1.622
 9434SOL     OW29200   4.626   5.909   4.851
 9434SOL    HW129201   4.682   5.989   4.870
 9434SOL    HW229202   4.595   5.869   4.937
 9435SOL     OW29203   5.992   4.079   7.010
 9435SOL    HW129204   5.968   4.013   0.052
 9435SOL    HW229205   6.041   4.033   6.936
 9436SOL     OW29206   3.453   1.155   2.776
 9436SOL    HW129207   3.536   1.113   2.811
 9436SOL    HW229208   3.440   1.244   2.819
 9437SOL     OW29209   5.142   1.154   4.410
 9437SOL    HW129210   5.232   1.120   4.437
 9437SOL    HW229211   5.094   1.085   4.356
 9438SOL     OW29212   5.055   0.387   2.597
 9438SOL    HW129213   5.121   0.330   2.548
 9438SOL    HW229214   5.036   0.346   2.686
 9439SOL     OW29215   2.259   4.133   1.084
 9439SOL    HW129216   2.355   4.110   1.100
 9439SOL    HW229217   2.203   4.051   1.090
 9440SOL     OW29218   1.883   5.683   5.126
 9440SOL    HW129219   1.866   5.688   5.027
 9440SOL    HW229220   1.937   5.602   5.147
 9441SOL     OW29221   0.297   6.199   4.534
 9441SOL    HW129222   0.341   6.116   4.567
 9441SOL    HW229223   0.364   6.255   4.485
 9442SOL     OW29224   6.136   3.081   1.323
 9442SOL    HW129225   6.053   3.056   1.374
 9442SOL    HW229226   6.194   3.138   1.381
 9443SOL     OW29227   2.660   4.456   1.436
 9443SOL    HW129228   2.700   4.365   1.421
 9443SOL    HW229229   2.646   4.469   1.534
 9444SOL     OW29230   1.899   5.288   6.414
 9444SOL    HW129231   1.929   5.274   6.508
 9444SOL    HW229232   1.960   5.238   6.352
 9445SOL     OW29233   0.045   0.782   3.950
 9445SOL    HW129234   0.004   0.719   4.016
 9445SOL    HW229235   0.112   0.840   3.995
 9446SOL     OW29236   6.253   4.764   4.518
 9446SOL    HW129237   6.349   4.746   4.538
 9446SOL    HW229238   6.246   4.811   4.430
 9447SOL     OW29239   5.667   5.557   1.691
 9447SOL    HW129240   5.603   5.629   1.662
 9447SOL    HW229241   5.736   5.596   1.752
 9448SOL     OW29242   5.227   2.093   6.914
 9448SOL    HW129243   5.259   2.183   6.883
 9448SOL    HW229244   5.153   2.062   6.853
 9449SOL     OW29245   4.816   6.472   2.398
 9449SOL    HW129246   4.790   6.497   2.491
 9449SOL    HW229247   4.914   6.486   2.386
 9450SOL     OW29248   0.950   0.239   2.804
 9450SOL    HW129249   1.004   0.155   2.813
 9450SOL    HW229250   0.989   0.297   2.733
 9451SOL     OW29251   3.986   5.183   0.297
 9451SOL    HW129252   4.086   5.176   0.298
 9451SOL    HW229253   3.947   5.094   0.271
 9452SOL     OW29254   5.883   4.053   6.556
 9452SOL    HW129255   5.969   4.091   6.523
 9452SOL    HW229256   5.807   4.110   6.524
 9453SOL     OW29257   6.997   4.963   2.212
 9453SOL    HW129258   7.001   4.909   2.127
 9453SOL    HW229259   0.021   5.047   2.200
 9454SOL     OW29260   5.672   5.542   0.673
 9454SOL    HW129261   5.737   5.480   0.717
 9454SOL    HW229262   5.674   5.631   0.720
 9455SOL     OW29263   4.688   0.401   1.410
 9455SOL    HW129264   4.676   0.473   1.342
 9455SOL    HW229265   4.601   0.354   1.426
 9456SOL     OW29266   6.820   2.384   2.774
 9456SOL    HW129267   6.858   2.302   2.731
 9456SOL    HW229268   6.734   2.360   2.821
 9457SOL     OW29269   6.628   6.320   4.118
 9457SOL    HW129270   6.566   6.351   4.191
 9457SOL    HW229271   6.639   6.221   4.123
 9458SOL     OW29272   6.505   3.539   0.152
 9458SOL    HW129273   6.540   3.462   0.205
 9458SOL    HW229274   6.446   3.595   0.210
 9459SOL     OW29275   5.237   4.505   4.738
 9459SOL    HW129276   5.293   4.502   4.821
 9459SOL    HW229277   5.188   4.592   4.733
 9460SOL     OW29278   1.911   2.651   2.929
 9460SOL    HW129279   1.984   2.639   2.862
 9460SOL    HW229280   1.868   2.740   2.915
 9461SOL     OW29281   2.378   2.120   1.763
 9461SOL    HW129282   2.435   2.045   1.729
 9461SOL    HW229283   2.432   2.177   1.824
 9462SOL     OW29284   6.932   1.417   5.920
 9462SOL    HW129285   6.877   1.448   5.998
 9462SOL    HW229286   7.002   1.485   5.900
 9463SOL     OW29287   6.579   4.908   0.672
 9463SOL    HW129288   6.673   4.938   0.657
 9463SOL    HW229289   6.577   4.808   0.681
 9464SOL     OW29290   1.159   6.878   1.498
 9464SOL    HW129291   1.217   6.922   1.430
 9464SOL    HW229292   1.096   6.815   1.452
 9465SOL     OW29293   6.589   5.631   0.335
 9465SOL    HW129294   6.549   5.546   0.368
 9465SOL    HW229295   6.560   5.648   0.241
 9466SOL     OW29296   4.203   4.045   5.381
 9466SOL    HW129297   4.126   4.078   5.435
 9466SOL    HW229298   4.257   4.123   5.349
 9467SOL     OW29299   0.892   4.027   1.057
 9467SOL    HW129300   0.971   3.968   1.073
 9467SOL    HW229301   0.857   4.060   1.145
 9468SOL     OW29302   6.080   1.375   1.576
 9468SOL    HW129303   6.060   1.416   1.665
 9468SOL    HW229304   6.179   1.365   1.566
 9469SOL     OW29305   6.728   6.880   1.891
 9469SOL    HW129306   6.801   6.867   1.824
 9469SOL    HW229307   6.643   6.904   1.844
 9470SOL     OW29308   3.267   3.002   1.006
 9470SOL    HW129309   3.194   2.967   1.065
 9470SOL    HW229310   3.348   3.020   1.061
 9471SOL     OW29311   6.405   2.968   4.454
 9471SOL    HW129312   6.465   2.956   4.532
 9471SOL    HW229313   6.316   3.001   4.485
 9472SOL     OW29314   2.032   3.260   6.318
 9472SOL    HW129315   1.949   3.219   6.356
 9472SOL    HW229316   2.112   3.224   6.367
 9473SOL     OW29317   2.875   3.501   1.246
 9473SOL    HW129318   2.971   3.488   1.220
 9473SOL    HW229319   2.820   3.513   1.163
 9474SOL     OW29320   5.723   4.609   0.631
 9474SOL    HW129321   5.679   4.690   0.671
 9474SOL    HW229322   5.818   4.604   0.661
 9475SOL     OW29323   5.789   3.619   6.777
 9475SOL    HW129324   5.733   3.674   6.839
 9475SOL    HW229325   5.830   3.678   6.708
 9476SOL     OW29326   4.198   3.892   0.975
 9476SOL    HW129327   4.141   3.868   1.054
 9476SOL    HW229328   4.245   3.978   0.993
 9477SOL     OW29329   1.572   4.787   0.984
 9477SOL    HW129330   1.618   4.734   0.913
 9477SOL    HW229331   1.616   4.770   1.072
 9478SOL     OW29332   6.770   3.349   5.716
 9478SOL    HW129333   6.769   3.366   5.814
 9478SOL    HW229334   6.854   3.385   5.676
 9479SOL     OW29335   4.401   0.642   2.231
 9479SOL    HW129336   4.438   0.700   2.304
 9479SOL    HW229337   4.456   0.653   2.148
 9480SOL     OW29338   5.547   0.133   0.713
 9480SOL    HW129339   5.525   0.149   0.617
 9480SOL    HW229340   5.581   0.040   0.724
 9481SOL     OW29341   4.786   6.975   3.364
 9481SOL    HW129342   4.704   6.988   3.307
 9481SOL    HW229343   4.852   0.020   3.344
 9482SOL     OW29344   5.856   5.057   5.151
 9482SOL    HW129345   5.943   5.042   5.104
 9482SOL    HW229346   5.814   4.969   5.173
 9483SOL     OW29347   5.561   4.934   6.670
 9483SOL    HW129348   5.540   5.026   6.706
 9483SOL    HW229349   5.624   4.888   6.733
 9484SOL     OW29350   1.848   6.522   4.201
 9484SOL    HW129351   1.776   6.570   4.152
 9484SOL    HW229352   1.935   6.535   4.153
 9485SOL     OW29353   0.473   1.313   4.981
 9485SOL    HW129354   0.467   1.223   4.936
 9485SOL    HW229355   0.403   1.373   4.943
 9486SOL     OW29356   6.690   5.884   6.870
 9486SOL    HW129357   6.599   5.846   6.883
 9486SOL    HW229358   6.685   5.984   6.867
 9487SOL     OW29359   3.361   3.807   3.239
 9487SOL    HW129360   3.357   3.816   3.339
 9487SOL    HW229361   3.432   3.742   3.214
 9488SOL     OW29362   2.119   0.817   1.836
 9488SOL    HW129363   2.110   0.719   1.851
 9488SOL    HW229364   2.054   0.866   1.894
 9489SOL     OW29365   6.149   4.302   6.966
 9489SOL    HW129366   6.247   4.281   6.965
 9489SOL    HW229367   6.097   4.218   6.983
 9490SOL     OW29368   5.729   3.587   4.745
 9490SOL    HW129369   5.721   3.597   4.845
 9490SOL    HW229370   5.689   3.668   4.701
 9491SOL     OW29371   5.528   0.151   2.836
 9491SOL    HW129372   5.487   0.235   2.801
 9491SOL    HW229373   5.626   0.165   2.850
 9492SOL     OW29374   4.545   2.403   4.318
 9492SOL    HW129375   4.600   2.332   4.272
 9492SOL    HW229376   4.561   2.399   4.416
 9493SOL     OW29377   2.924   6.149   2.208
 9493SOL    HW129378   3.001   6.213   2.203
 9493SOL    HW229379   2.943   6.070   2.151
 9494SOL     OW29380   4.994   2.484   2.591
 9494SOL    HW129381   4.931   2.548   2.637
 9494SOL    HW229382   4.965   2.472   2.496
 9495SOL     OW29383   5.201   2.955   1.165
 9495SOL    HW129384   5.198   2.967   1.066
 9495SOL    HW229385   5.110   2.969   1.203
 9496SOL     OW29386   5.768   3.056   1.497
 9496SOL    HW129387   5.702   2.991   1.459
 9496SOL    HW229388   5.855   3.009   1.512
 9497SOL     OW29389   5.200   4.789   5.215
 9497SOL    HW129390   5.198   4.786   5.315
 9497SOL    HW229391   5.283   4.744   5.183
 9498SOL     OW29392   0.764   5.479   6.110
 9498SOL    HW129393   0.738   5.501   6.204
 9498SOL    HW229394   0.779   5.381   6.101
 9499SOL     OW29395   5.219   6.041   3.961
 9499SOL    HW129396   5.270   5.993   3.890
 9499SOL    HW229397   5.127   6.063   3.927
 9500SOL     OW29398   2.821   1.208   0.717
 9500SOL    HW129399   2.787   1.224   0.624
 9500SOL    HW229400   2.854   1.294   0.756
 9501SOL     OW29401   2.022   3.869   5.439
 9501SOL    HW129402   2.085   3.814   5.494
 9501SOL    HW229403   2.068   3.900   5.356
 9502SOL     OW29404   5.672   4.500   3.371
 9502SOL    HW129405   5.711   4.409   3.363
 9502SOL    HW229406   5.648   4.519   3.466
 9503SOL     OW29407   5.560   1.125   0.419
 9503SOL    HW129408   5.524   1.164   0.503
 9503SOL    HW229409   5.649   1.164   0.399
 9504SOL     OW29410   6.409   5.790   2.662
 9504SOL    HW129411   6.459   5.876   2.647
 9504SOL    HW229412   6.311   5.810   2.671
 9505SOL     OW29413   4.749   3.380   6.573
 9505SOL    HW129414   4.771   3.447   6.501
 9505SOL    HW229415   4.680   3.316   6.539
 9506SOL     OW29416   3.240   1.274   1.883
 9506SOL    HW129417   3.251   1.373   1.869
 9506SOL    HW229418   3.143   1.254   1.897
 9507SOL     OW29419   6.735   6.279   1.416
 9507SOL    HW129420   6.722   6.306   1.511
 9507SOL    HW229421   6.791   6.196   1.412
 9508SOL     OW29422   5.347   0.956   1.832
 9508SOL    HW129423   5.418   0.932   1.766
 9508SOL    HW229424   5.329   1.054   1.827
 9509SOL     OW29425   5.895   1.579   3.971
 9509SOL    HW129426   5.900   1.666   3.922
 9509SOL    HW229427   5.819   1.580   4.035
 9510SOL     OW29428   1.493   3.172   2.659
 9510SOL    HW129429   1.541   3.254   2.693
 9510SOL    HW229430   1.462   3.118   2.737
 9511SOL     OW29431   1.013   1.960   1.079
 9511SOL    HW129432   1.110   1.949   1.101
 9511SOL    HW229433   0.959   1.894   1.132
 9512SOL     OW29434   6.476   2.397   1.805
 9512SOL    HW129435   6.549   2.387   1.738
 9512SOL    HW229436   6.462   2.310   1.853
 9513SOL     OW29437   4.849   3.906   5.256
 9513SOL    HW129438   4.917   3.962   5.304
 9513SOL    HW229439   4.759   3.948   5.266
 9514SOL     OW29440   3.586   2.975   1.405
 9514SOL    HW129441   3.505   3.010   1.358
 9514SOL    HW229442   3.558   2.915   1.480
 9515SOL     OW29443   0.001   5.944   2.843
 9515SOL    HW129444   0.046   5.992   2.919
 9515SOL    HW229445   6.933   5.929   2.866
 9516SOL     OW29446   0.513   4.039   6.022
 9516SOL    HW129447   0.581   4.031   6.095
 9516SOL    HW229448   0.469   4.129   6.028
 9517SOL     OW29449   0.998   6.150   1.668
 9517SOL    HW129450   0.928   6.216   1.696
 9517SOL    HW229451   0.962   6.093   1.594
 9518SOL     OW29452   0.668   0.750   1.026
 9518SOL    HW129453   0.755   0.792   1.055
 9518SOL    HW229454   0.600   0.761   1.098
 9519SOL     OW29455   1.846   2.213   5.131
 9519SOL    HW129456   1.791   2.182   5.209
 9519SOL    HW229457   1.806   2.179   5.046
 9520SOL     OW29458   4.446   0.032   1.596
 9520SOL    HW129459   4.504   0.101   1.639
 9520SOL    HW229460   4.392   7.013   1.666
 9521SOL     OW29461   5.456   4.500   3.135
 9521SOL    HW129462   5.425   4.595   3.131
 9521SOL    HW229463   5.544   4.491   3.090
 9522SOL     OW29464   3.295   4.777   6.068
 9522SOL    HW129465   3.231   4.707   6.036
 9522SOL    HW229466   3.387   4.754   6.037
 9523SOL     OW29467   2.226   0.388   5.175
 9523SOL    HW129468   2.243   0.332   5.095
 9523SOL    HW229469   2.297   0.371   5.244
 9524SOL     OW29470   5.877   3.351   0.282
 9524SOL    HW129471   5.850   3.326   0.189
 9524SOL    HW229472   5.797   3.383   0.333
 9525SOL     OW29473   4.192   0.081   4.647
 9525SOL    HW129474   4.258   0.037   4.586
 9525SOL    HW229475   4.225   0.172   4.672
 9526SOL     OW29476   4.882   5.361   0.404
 9526SOL    HW129477   4.794   5.358   0.355
 9526SOL    HW229478   4.892   5.278   0.459
 9527SOL     OW29479   0.179   2.286   0.488
 9527SOL    HW129480   0.267   2.258   0.528
 9527SOL    HW229481   0.105   2.233   0.529
 9528SOL     OW29482   6.360   0.923   1.875
 9528SOL    HW129483   6.360   0.837   1.825
 9528SOL    HW229484   6.407   0.911   1.963
 9529SOL     OW29485   2.078   2.502   5.191
 9529SOL    HW129486   2.074   2.412   5.233
 9529SOL    HW229487   2.129   2.565   5.249
 9530SOL     OW29488   2.746   1.140   3.703
 9530SOL    HW129489   2.691   1.119   3.622
 9530SOL    HW229490   2.815   1.069   3.715
 9531SOL     OW29491   2.984   6.807   3.950
 9531SOL    HW129492   2.939   6.896   3.962
 9531SOL    HW229493   3.060   6.817   3.887
 9532SOL     OW29494   3.352   1.506   1.825
 9532SOL    HW129495   3.320   1.578   1.764
 9532SOL    HW229496   3.452   1.501   1.820
 9533SOL     OW29497   0.717   1.578   4.054
 9533SOL    HW129498   0.686   1.483   4.062
 9533SOL    HW229499   0.651   1.639   4.096
 9534SOL     OW29500   5.900   1.474   4.512
 9534SOL    HW129501   5.815   1.478   4.460
 9534SOL    HW229502   5.971   1.525   4.465
 9535SOL     OW29503   3.004   1.743   4.547
 9535SOL    HW129504   3.084   1.804   4.542
 9535SOL    HW229505   2.966   1.745   4.639
 9536SOL     OW29506   2.159   6.689   6.338
 9536SOL    HW129507   2.201   6.678   6.428
 9536SOL    HW229508   2.076   6.634   6.332
 9537SOL     OW29509   1.684   1.099   0.467
 9537SOL    HW129510   1.701   1.177   0.527
 9537SOL    HW229511   1.769   1.073   0.420
 9538SOL     OW29512   5.843   3.990   2.578
 9538SOL    HW129513   5.883   3.934   2.505
 9538SOL    HW229514   5.798   3.930   2.644
 9539SOL     OW29515   0.127   3.764   6.823
 9539SOL    HW129516   0.032   3.777   6.854
 9539SOL    HW229517   0.189   3.803   6.891
 9540SOL     OW29518   5.846   3.610   5.945
 9540SOL    HW129519   5.841   3.604   6.045
 9540SOL    HW229520   5.854   3.519   5.906
 9541SOL     OW29521   6.704   2.132   3.408
 9541SOL    HW129522   6.625   2.141   3.469
 9541SOL    HW229523   6.675   2.148   3.314
 9542SOL     OW29524   4.660   4.271   4.658
 9542SOL    HW129525   4.715   4.344   4.697
 9542SOL    HW229526   4.653   4.196   4.723
 9543SOL     OW29527   3.787   2.384   0.599
 9543SOL    HW129528   3.856   2.456   0.591
 9543SOL    HW229529   3.775   2.361   0.696
 9544SOL     OW29530   4.683   0.436   1.018
 9544SOL    HW129531   4.766   0.386   1.044
 9544SOL    HW229532   4.654   0.493   1.094
 9545SOL     OW29533   1.527   6.931   4.810
 9545SOL    HW129534   1.428   6.929   4.794
 9545SOL    HW229535   1.565   7.016   4.774
 9546SOL     OW29536   2.534   4.605   1.968
 9546SOL    HW129537   2.500   4.683   1.915
 9546SOL    HW229538   2.633   4.598   1.955
 9547SOL     OW29539   5.143   6.123   3.249
 9547SOL    HW129540   5.081   6.148   3.175
 9547SOL    HW229541   5.167   6.204   3.302
 9548SOL     OW29542   5.491   6.461   2.436
 9548SOL    HW129543   5.440   6.447   2.350
 9548SOL    HW229544   5.585   6.487   2.415
 9549SOL     OW29545   2.087   5.753   6.909
 9549SOL    HW129546   2.158   5.760   6.839
 9549SOL    HW229547   2.000   5.728   6.866
 9550SOL     OW29548   1.941   1.075   0.374
 9550SOL    HW129549   1.977   1.096   0.283
 9550SOL    HW229550   2.013   1.086   0.442
 9551SOL     OW29551   1.494   5.753   5.176
 9551SOL    HW129552   1.500   5.843   5.133
 9551SOL    HW229553   1.565   5.745   5.246
 9552SOL     OW29554   6.970   5.489   2.657
 9552SOL    HW129555   6.998   5.573   2.610
 9552SOL    HW229556   6.982   5.411   2.597
 9553SOL     OW29557   5.354   4.687   6.510
 9553SOL    HW129558   5.345   4.591   6.481
 9553SOL    HW229559   5.448   4.718   6.494
 9554SOL     OW29560   2.335   1.799   2.329
 9554SOL    HW129561   2.414   1.854   2.304
 9554SOL    HW229562   2.254   1.833   2.280
 9555SOL     OW29563   6.431   2.358   6.600
 9555SOL    HW129564   6.523   2.380   6.568
 9555SOL    HW229565   6.370   2.345   6.522
 9556SOL     OW29566   6.528   0.865   0.940
 9556SOL    HW129567   6.546   0.924   1.019
 9556SOL    HW229568   6.445   0.897   0.893
 9557SOL     OW29569   4.975   1.393   1.674
 9557SOL    HW129570   5.062   1.354   1.704
 9557SOL    HW229571   4.971   1.395   1.575
 9558SOL     OW29572   0.360   3.742   1.349
 9558SOL    HW129573   0.279   3.706   1.397
 9558SOL    HW229574   0.334   3.824   1.298
 9559SOL     OW29575   0.764   4.262   2.982
 9559SOL    HW129576   0.806   4.202   3.050
 9559SOL    HW229577   0.699   4.324   3.027
 9560SOL     OW29578   3.532   2.041   5.601
 9560SOL    HW129579   3.574   2.042   5.510
 9560SOL    HW229580   3.603   2.050   5.671
 9561SOL     OW29581   3.394   5.299   6.977
 9561SOL    HW129582   3.377   5.306   0.048
 9561SOL    HW229583   3.394   5.203   6.950
 9562SOL     OW29584   6.367   5.320   3.958
 9562SOL    HW129585   6.295   5.256   3.982
 9562SOL    HW229586   6.436   5.273   3.902
 9563SOL     OW29587   0.483   6.964   6.661
 9563SOL    HW129588   0.493   7.004   6.753
 9563SOL    HW229589   0.550   7.006   6.599
 9564SOL     OW29590   1.026   0.576   5.934
 9564SOL    HW129591   1.041   0.596   5.837
 9564SOL    HW229592   0.944   0.624   5.965
 9565SOL     OW29593   2.725   5.738   5.763
 9565SOL    HW129594   2.645   5.691   5.726
 9565SOL    HW229595   2.807   5.708   5.715
 9566SOL     OW29596   2.902   5.611   5.181
 9566SOL    HW129597   2.812   5.640   5.150
 9566SOL    HW229598   2.949   5.562   5.108
 9567SOL     OW29599   5.474   4.591   4.326
 9567SOL    HW129600   5.558   4.600   4.379
 9567SOL    HW229601   5.440   4.682   4.303
 9568SOL     OW29602   5.717   3.507   5.341
 9568SOL    HW129603   5.781   3.445   5.388
 9568SOL    HW229604   5.762   3.595   5.327
 9569SOL     OW29605   5.699   0.114   1.297
 9569SOL    HW129606   5.691   0.210   1.320
 9569SOL    HW229607   5.669   0.100   1.202
 9570SOL     OW29608   0.792   2.253   6.674
 9570SOL    HW129609   0.814   2.345   6.642
 9570SOL    HW229610   0.693   2.241   6.675
 9571SOL     OW29611   3.469   1.849   0.130
 9571SOL    HW129612   3.497   1.759   0.098
 9571SOL    HW229613   3.500   1.863   0.224
 9572SOL     OW29614   0.680   4.154   0.762
 9572SOL    HW129615   0.634   4.080   0.714
 9572SOL    HW229616   0.632   4.173   0.848
 9573SOL     OW29617   4.879   1.981   2.252
 9573SOL    HW129618   4.926   1.990   2.341
 9573SOL    HW229619   4.829   1.894   2.249
 9574SOL     OW29620   2.952   1.804   3.692
 9574SOL    HW129621   3.006   1.819   3.609
 9574SOL    HW229622   2.892   1.724   3.679
 9575SOL     OW29623   3.698   1.820   3.052
 9575SOL    HW129624   3.672   1.907   3.009
 9575SOL    HW229625   3.730   1.756   2.982
 9576SOL     OW29626   3.375   3.563   5.721
 9576SOL    HW129627   3.390   3.464   5.727
 9576SOL    HW229628   3.298   3.588   5.779
 9577SOL     OW29629   0.436   5.005   3.920
 9577SOL    HW129630   0.517   5.054   3.886
 9577SOL    HW229631   0.359   5.020   3.858
 9578SOL     OW29632   0.173   4.344   1.440
 9578SOL    HW129633   0.153   4.269   1.503
 9578SOL    HW229634   0.087   4.383   1.406
 9579SOL     OW29635   1.710   4.522   3.177
 9579SOL    HW129636   1.625   4.566   3.149
 9579SOL    HW229637   1.736   4.453   3.109
 9580SOL     OW29638   4.322   3.553   5.310
 9580SOL    HW129639   4.251   3.528   5.244
 9580SOL    HW229640   4.282   3.608   5.383
 9581SOL     OW29641   1.382   6.163   6.124
 9581SOL    HW129642   1.315   6.237   6.121
 9581SOL    HW229643   1.447   6.180   6.198
 9582SOL     OW29644   3.577   5.730   3.136
 9582SOL    HW129645   3.611   5.776   3.055
 9582SOL    HW229646   3.634   5.649   3.154
 9583SOL     OW29647   1.312   5.134   2.185
 9583SOL    HW129648   1.225   5.095   2.213
 9583SOL    HW229649   1.301   5.182   2.098
 9584SOL     OW29650   5.183   4.038   6.826
 9584SOL    HW129651   5.169   3.947   6.787
 9584SOL    HW229652   5.222   4.098   6.756
 9585SOL     OW29653   5.724   1.226   3.221
 9585SOL    HW129654   5.817   1.196   3.199
 9585SOL    HW229655   5.685   1.164   3.290
 9586SOL     OW29656   4.871   4.017   2.183
 9586SOL    HW129657   4.950   3.973   2.141
 9586SOL    HW229658   4.866   3.990   2.279
 9587SOL     OW29659   4.585   6.287   1.610
 9587SOL    HW129660   4.671   6.321   1.572
 9587SOL    HW229661   4.591   6.285   1.710
 9588SOL     OW29662   5.640   1.045   3.394
 9588SOL    HW129663   5.670   1.034   3.489
 9588SOL    HW229664   5.648   0.957   3.347
 9589SOL     OW29665   4.153   1.829   5.433
 9589SOL    HW129666   4.097   1.889   5.490
 9589SOL    HW229667   4.097   1.791   5.359
 9590SOL     OW29668   6.881   4.623   4.611
 9590SOL    HW129669   6.935   4.686   4.555
 9590SOL    HW229670   6.803   4.590   4.558
 9591SOL     OW29671   0.124   4.407   2.539
 9591SOL    HW129672   0.106   4.349   2.460
 9591SOL    HW229673   0.074   4.493   2.529
 9592SOL     OW29674   4.137   5.765   0.327
 9592SOL    HW129675   4.076   5.814   0.265
 9592SOL    HW229676   4.100   5.674   0.347
 9593SOL     OW29677   2.068   2.031   3.558
 9593SOL    HW129678   1.987   2.089   3.566
 9593SOL    HW229679   2.073   1.993   3.465
 9594SOL     OW29680   5.597   0.111   1.020
 9594SOL    HW129681   5.503   0.117   1.051
 9594SOL    HW229682   5.608   0.161   0.934
 9595SOL     OW29683   2.375   5.185   5.920
 9595SOL    HW129684   2.468   5.150   5.926
 9595SOL    HW229685   2.310   5.114   5.948
 9596SOL     OW29686   5.740   5.151   2.325
 9596SOL    HW129687   5.722   5.248   2.306
 9596SOL    HW229688   5.783   5.142   2.415
 9597SOL     OW29689   2.385   4.979   1.610
 9597SOL    HW129690   2.451   5.050   1.585
 9597SOL    HW229691   2.413   4.937   1.697
 9598SOL     OW29692   0.793   6.086   5.902
 9598SOL    HW129693   0.704   6.043   5.886
 9598SOL    HW229694   0.857   6.059   5.831
 9599SOL     OW29695   3.852   1.953   5.308
 9599SOL    HW129696   3.798   1.877   5.345
 9599SOL    HW229697   3.791   2.023   5.273
 9600SOL     OW29698   1.340   6.130   6.724
 9600SOL    HW129699   1.340   6.069   6.803
 9600SOL    HW229700   1.433   6.139   6.689
 9601SOL     OW29701   1.563   6.705   4.971
 9601SOL    HW129702   1.574   6.630   4.906
 9601SOL    HW229703   1.562   6.792   4.921
 9602SOL     OW29704   1.214   5.525   6.304
 9602SOL    HW129705   1.204   5.579   6.220
 9602SOL    HW229706   1.127   5.526   6.354
 9603SOL     OW29707   0.801   5.530   1.548
 9603SOL    HW129708   0.740   5.608   1.564
 9603SOL    HW229709   0.856   5.514   1.629
 9604SOL     OW29710   6.797   0.802   6.500
 9604SOL    HW129711   6.785   0.774   6.405
 9604SOL    HW229712   6.889   0.838   6.514
 9605SOL     OW29713   3.849   4.542   1.334
 9605SOL    HW129714   3.819   4.451   1.305
 9605SOL    HW229715   3.830   4.554   1.431
 9606SOL     OW29716   0.384   1.356   5.240
 9606SOL    HW129717   0.422   1.340   5.148
 9606SOL    HW229718   0.419   1.286   5.303
 9607SOL     OW29719   6.848   2.744   3.919
 9607SOL    HW129720   6.851   2.819   3.853
 9607SOL    HW229721   6.940   2.704   3.928
 9608SOL     OW29722   6.148   0.928   1.587
 9608SOL    HW129723   6.215   0.864   1.550
 9608SOL    HW229724   6.194   1.001   1.637
 9609SOL     OW29725   1.638   2.175   4.359
 9609SOL    HW129726   1.589   2.256   4.326
 9609SOL    HW229727   1.697   2.141   4.287
 9610SOL     OW29728   4.973   0.820   5.856
 9610SOL    HW129729   4.876   0.837   5.839
 9610SOL    HW229730   5.011   0.897   5.907
 9611SOL     OW29731   4.621   5.327   0.757
 9611SOL    HW129732   4.571   5.294   0.836
 9611SOL    HW229733   4.576   5.409   0.721
 9612SOL     OW29734   5.833   4.031   3.544
 9612SOL    HW129735   5.919   3.999   3.504
 9612SOL    HW229736   5.851   4.112   3.600
 9613SOL     OW29737   5.586   0.626   4.843
 9613SOL    HW129738   5.564   0.530   4.825
 9613SOL    HW229739   5.517   0.685   4.800
 9614SOL     OW29740   2.871   2.690   0.432
 9614SOL    HW129741   2.864   2.790   0.430
 9614SOL    HW229742   2.878   2.655   0.339
 9615SOL     OW29743   0.047   5.638   3.791
 9615SOL    HW129744   7.017   5.683   3.723
 9615SOL    HW229745   7.019   5.599   3.863
 9616SOL     OW29746   0.986   2.379   0.995
 9616SOL    HW129747   0.986   2.364   1.094
 9616SOL    HW229748   1.080   2.377   0.961
 9617SOL     OW29749   0.166   2.983   3.750
 9617SOL    HW129750   0.109   3.034   3.814
 9617SOL    HW229751   0.143   3.011   3.656
 9618SOL     OW29752   4.986   3.456   1.815
 9618SOL    HW129753   4.915   3.525   1.808
 9618SOL    HW229754   4.947   3.370   1.848
 9619SOL     OW29755   0.725   0.341   0.732
 9619SOL    HW129756   0.630   0.317   0.751
 9619SOL    HW229757   0.755   0.411   0.798
 9620SOL     OW29758   4.160   1.041   6.251
 9620SOL    HW129759   4.259   1.051   6.236
 9620SOL    HW229760   4.141   1.037   6.349
 9621SOL     OW29761   0.231   1.068   1.486
 9621SOL    HW129762   0.214   1.141   1.552
 9621SOL    HW229763   0.151   1.057   1.427
 9622SOL     OW29764   6.906   6.573   4.875
 9622SOL    HW129765   6.924   6.475   4.865
 9622SOL    HW229766   6.916   6.619   4.787
 9623SOL     OW29767   2.327   6.149   5.990
 9623SOL    HW129768   2.403   6.121   6.049
 9623SOL    HW229769   2.253   6.082   5.997
 9624SOL     OW29770   4.601   5.176   6.465
 9624SOL    HW129771   4.693   5.162   6.503
 9624SOL    HW229772   4.537   5.191   6.540
 9625SOL     OW29773   5.401   4.557   5.691
 9625SOL    HW129774   5.395   4.470   5.740
 9625SOL    HW229775   5.336   4.556   5.614
 9626SOL     OW29776   2.399   2.785   6.669
 9626SOL    HW129777   2.334   2.777   6.745
 9626SOL    HW229778   2.485   2.824   6.703
 9627SOL     OW29779   6.802   6.377   0.652
 9627SOL    HW129780   6.753   6.295   0.683
 9627SOL    HW229781   6.835   6.363   0.559
 9628SOL     OW29782   5.439   1.100   5.387
 9628SOL    HW129783   5.522   1.142   5.424
 9628SOL    HW229784   5.419   1.015   5.437
 9629SOL     OW29785   0.439   5.076   4.188
 9629SOL    HW129786   0.342   5.101   4.195
 9629SOL    HW229787   0.458   5.047   4.094
 9630SOL     OW29788   6.025   0.173   6.973
 9630SOL    HW129789   6.059   0.125   6.892
 9630SOL    HW229790   6.009   0.107   0.018
 9631SOL     OW29791   5.157   6.014   0.570
 9631SOL    HW129792   5.242   5.962   0.569
 9631SOL    HW229793   5.117   6.011   0.661
 9632SOL     OW29794   2.737   5.237   2.888
 9632SOL    HW129795   2.754   5.183   2.805
 9632SOL    HW229796   2.747   5.179   2.968
 9633SOL     OW29797   3.190   3.068   5.389
 9633SOL    HW129798   3.150   3.114   5.310
 9633SOL    HW229799   3.195   2.970   5.371
 9634SOL     OW29800   6.332   4.703   2.636
 9634SOL    HW129801   6.425   4.725   2.606
 9634SOL    HW229802   6.280   4.668   2.558
 9635SOL     OW29803   0.575   5.614   4.572
 9635SOL    HW129804   0.614   5.706   4.577
 9635SOL    HW229805   0.611   5.567   4.491
 9636SOL     OW29806   5.320   3.669   3.829
 9636SOL    HW129807   5.259   3.604   3.875
 9636SOL    HW229808   5.411   3.628   3.818
 9637SOL     OW29809   2.607   2.575   6.781
 9637SOL    HW129810   2.563   2.623   6.706
 9637SOL    HW229811   2.564   2.600   6.867
 9638SOL     OW29812   0.197   4.499   5.420
 9638SOL    HW129813   0.235   4.419   5.373
 9638SOL    HW229814   0.121   4.535   5.366
 9639SOL     OW29815   4.834   2.789   1.410
 9639SOL    HW129816   4.876   2.705   1.445
 9639SOL    HW229817   4.794   2.840   1.486
 9640SOL     OW29818   3.129   6.641   3.181
 9640SOL    HW129819   3.144   6.558   3.234
 9640SOL    HW229820   3.204   6.704   3.195
 9641SOL     OW29821   0.504   3.246   4.790
 9641SOL    HW129822   0.573   3.318   4.786
 9641SOL    HW229823   0.478   3.220   4.697
 9642SOL     OW29824   0.467   3.346   5.031
 9642SOL    HW129825   0.397   3.417   5.016
 9642SOL    HW229826   0.474   3.288   4.950
 9643SOL     OW29827   5.577   5.222   4.255
 9643SOL    HW129828   5.574   5.321   4.266
 9643SOL    HW229829   5.599   5.199   4.160
 9644SOL     OW29830   0.881   4.690   3.823
 9644SOL    HW129831   0.953   4.698   3.892
 9644SOL    HW229832   0.793   4.673   3.867
 9645SOL     OW29833   1.192   4.647   6.978
 9645SOL    HW129834   1.203   4.548   6.977
 9645SOL    HW229835   1.208   4.681   0.043
 9646SOL     OW29836   2.812   5.082   1.051
 9646SOL    HW129837   2.755   5.164   1.062
 9646SOL    HW229838   2.754   5.002   1.038
 9647SOL     OW29839   5.793   6.893   3.345
 9647SOL    HW129840   5.798   6.803   3.389
 9647SOL    HW229841   5.734   6.887   3.265
 9648SOL     OW29842   3.610   2.372   1.050
 9648SOL    HW129843   3.588   2.418   1.136
 9648SOL    HW229844   3.528   2.367   0.993
 9649SOL     OW29845   6.815   6.267   1.158
 9649SOL    HW129846   6.797   6.257   1.255
 9649SOL    HW229847   6.913   6.285   1.143
 9650SOL     OW29848   0.684   5.435   4.748
 9650SOL    HW129849   0.650   5.508   4.688
 9650SOL    HW229850   0.777   5.410   4.721
 9651SOL     OW29851   4.485   1.392   7.020
 9651SOL    HW129852   4.573   1.438   0.007
 9651SOL    HW229853   4.457   1.346   0.076
 9652SOL     OW29854   0.084   3.622   0.800
 9652SOL    HW129855   0.021   3.552   0.832
 9652SOL    HW229856   0.166   3.622   0.857
 9653SOL     OW29857   5.251   4.047   5.531
 9653SOL    HW129858   5.288   4.050   5.624
 9653SOL    HW229859   5.326   4.051   5.465
 9654SOL     OW29860   3.805   2.976   4.466
 9654SOL    HW129861   3.736   2.917   4.426
 9654SOL    HW229862   3.890   2.968   4.414
 9655SOL     OW29863   4.794   0.464   0.598
 9655SOL    HW129864   4.874   0.411   0.568
 9655SOL    HW229865   4.714   0.437   0.544
 9656SOL     OW29866   5.598   4.607   6.196
 9656SOL    HW129867   5.527   4.633   6.131
 9656SOL    HW229868   5.630   4.689   6.244
 9657SOL     OW29869   4.743   5.305   2.637
 9657SOL    HW129870   4.781   5.380   2.583
 9657SOL    HW229871   4.681   5.341   2.706
 9658SOL     OW29872   5.510   0.725   2.646
 9658SOL    HW129873   5.499   0.687   2.738
 9658SOL    HW229874   5.524   0.824   2.652
 9659SOL     OW29875   3.133   2.783   0.508
 9659SOL    HW129876   3.033   2.776   0.498
 9659SOL    HW229877   3.170   2.839   0.434
 9660SOL     OW29878   2.344   0.135   1.503
 9660SOL    HW129879   2.414   0.065   1.516
 9660SOL    HW229880   2.369   0.217   1.554
 9661SOL     OW29881   4.089   3.674   2.049
 9661SOL    HW129882   4.011   3.629   2.008
 9661SOL    HW229883   4.173   3.645   2.004
 9662SOL     OW29884   4.494   0.534   5.436
 9662SOL    HW129885   4.412   0.532   5.493
 9662SOL    HW229886   4.523   0.441   5.416
 9663SOL     OW29887   0.982   5.668   2.605
 9663SOL    HW129888   0.994   5.765   2.623
 9663SOL    HW229889   0.929   5.627   2.680
 9664SOL     OW29890   1.860   4.789   3.484
 9664SOL    HW129891   1.790   4.751   3.544
 9664SOL    HW229892   1.907   4.715   3.436
 9665SOL     OW29893   6.732   4.418   6.341
 9665SOL    HW129894   6.646   4.439   6.295
 9665SOL    HW229895   6.780   4.346   6.291
 9666SOL     OW29896   5.435   3.307   0.796
 9666SOL    HW129897   5.347   3.346   0.767
 9666SOL    HW229898   5.482   3.269   0.716
 9667SOL     OW29899   5.516   6.257   6.398
 9667SOL    HW129900   5.442   6.309   6.440
 9667SOL    HW229901   5.604   6.287   6.437
 9668SOL     OW29902   2.378   0.259   0.174
 9668SOL    HW129903   2.304   0.266   0.107
 9668SOL    HW229904   2.421   0.349   0.185
 9669SOL     OW29905   3.626   0.476   6.672
 9669SOL    HW129906   3.691   0.420   6.722
 9669SOL    HW229907   3.644   0.470   6.574
 9670SOL     OW29908   1.011   0.371   1.887
 9670SOL    HW129909   1.076   0.307   1.847
 9670SOL    HW229910   0.934   0.384   1.825
 9671SOL     OW29911   0.784   6.270   6.450
 9671SOL    HW129912   0.782   6.356   6.501
 9671SOL    HW229913   0.757   6.195   6.511
 9672SOL     OW29914   1.004   3.860   4.706
 9672SOL    HW129915   0.964   3.887   4.618
 9672SOL    HW229916   0.946   3.893   4.780
 9673SOL     OW29917   2.848   3.126   6.115
 9673SOL    HW129918   2.749   3.123   6.098
 9673SOL    HW229919   2.870   3.066   6.191
 9674SOL     OW29920   2.116   0.052   3.940
 9674SOL    HW129921   2.020   0.031   3.921
 9674SOL    HW229922   2.126   0.076   4.037
 9675SOL     OW29923   5.859   4.069   5.804
 9675SOL    HW129924   5.763   4.081   5.829
 9675SOL    HW229925   5.909   4.031   5.881
 9676SOL     OW29926   1.215   3.196   6.025
 9676SOL    HW129927   1.217   3.260   5.948
 9676SOL    HW229928   1.291   3.131   6.016
 9677SOL     OW29929   0.563   4.592   2.640
 9677SOL    HW129930   0.470   4.599   2.677
 9677SOL    HW229931   0.590   4.496   2.635
 9678SOL     OW29932   4.474   2.764   6.206
 9678SOL    HW129933   4.544   2.785   6.275
 9678SOL    HW229934   4.515   2.771   6.115
 9679SOL     OW29935   1.085   0.901   3.970
 9679SOL    HW129936   1.182   0.920   3.956
 9679SOL    HW229937   1.058   0.928   4.062
 9680SOL     OW29938   4.980   0.433   1.914
 9680SOL    HW129939   5.039   0.353   1.919
 9680SOL    HW229940   4.897   0.411   1.863
 9681SOL     OW29941   0.762   3.428   1.317
 9681SOL    HW129942   0.703   3.384   1.250
 9681SOL    HW229943   0.811   3.358   1.370
 9682SOL     OW29944   3.964   6.529   5.279
 9682SOL    HW129945   4.014   6.464   5.336
 9682SOL    HW229946   4.028   6.576   5.218
 9683SOL     OW29947   3.301   6.050   4.025
 9683SOL    HW129948   3.203   6.047   4.003
 9683SOL    HW229949   3.350   6.094   3.950
 9684SOL     OW29950   0.612   2.704   6.257
 9684SOL    HW129951   0.633   2.608   6.240
 9684SOL    HW229952   0.593   2.750   6.170
 9685SOL     OW29953   3.616   4.400   1.744
 9685SOL    HW129954   3.599   4.495   1.770
 9685SOL    HW229955   3.540   4.366   1.689
 9686SOL     OW29956   0.426   1.709   6.089
 9686SOL    HW129957   0.443   1.775   6.017
 9686SOL    HW229958   0.332   1.676   6.084
 9687SOL     OW29959   5.048   1.778   3.981
 9687SOL    HW129960   5.028   1.754   4.076
 9687SOL    HW229961   4.986   1.727   3.921
 9688SOL     OW29962   0.080   5.232   1.669
 9688SOL    HW129963   0.148   5.189   1.728
 9688SOL    HW229964   0.019   5.290   1.724
 9689SOL     OW29965   1.912   5.552   1.592
 9689SOL    HW129966   1.884   5.456   1.599
 9689SOL    HW229967   1.982   5.561   1.522
 9690SOL     OW29968   5.961   4.649   5.056
 9690SOL    HW129969   5.964   4.551   5.038
 9690SOL    HW229970   6.024   4.671   5.131
 9691SOL     OW29971   3.820   3.212   2.230
 9691SOL    HW129972   3.916   3.211   2.200
 9691SOL    HW229973   3.770   3.281   2.179
 9692SOL     OW29974   4.898   4.589   0.504
 9692SOL    HW129975   4.911   4.495   0.537
 9692SOL    HW229976   4.899   4.589   0.404
 9693SOL     OW29977   4.526   3.001   6.559
 9693SOL    HW129978   4.576   2.943   6.494
 9693SOL    HW229979   4.517   3.093   6.521
 9694SOL     OW29980   2.415   6.280   1.163
 9694SOL    HW129981   2.507   6.250   1.138
 9694SOL    HW229982   2.414   6.313   1.257
 9695SOL     OW29983   2.111   2.724   3.576
 9695SOL    HW129984   2.046   2.794   3.546
 9695SOL    HW229985   2.177   2.765   3.639
 9696SOL     OW29986   4.906   3.293   3.309
 9696SOL    HW129987   4.995   3.306   3.353
 9696SOL    HW229988   4.861   3.214   3.349
 9697SOL     OW29989   6.956   6.839   1.735
 9697SOL    HW129990   0.019   6.881   1.741
 9697SOL    HW229991   6.939   6.811   1.641
 9698SOL     OW29992   6.647   3.463   1.879
 9698SOL    HW129993   6.593   3.494   1.801
 9698SOL    HW229994   6.586   3.446   1.957
 9699SOL     OW29995   1.684   6.716   2.207
 9699SOL    HW129996   1.606   6.699   2.147
 9699SOL    HW229997   1.656   6.780   2.279
 9700SOL     OW29998   6.694   0.779   5.998
 9700SOL    HW129999   6.788   0.812   5.988
 9700SOL    HW230000   6.659   0.752   5.908
 9701SOL     OW30001   5.458   3.852   6.729
 9701SOL    HW130002   5.359   3.843   6.731
 9701SOL    HW230003   5.492   3.836   6.637
 9702SOL     OW30004   3.316   4.050   1.671
 9702SOL    HW130005   3.368   4.028   1.754
 9702SOL    HW230006   3.250   3.977   1.653
 9703SOL     OW30007   6.418   5.329   2.940
 9703SOL    HW130008   6.412   5.417   2.892
 9703SOL    HW230009   6.368   5.259   2.889
 9704SOL     OW30010   0.859   4.224   1.958
 9704SOL    HW130011   0.871   4.311   2.005
 9704SOL    HW230012   0.928   4.159   1.990
 9705SOL     OW30013   0.289   3.917   6.128
 9705SOL    HW130014   0.347   3.961   6.059
 9705SOL    HW230015   0.337   3.917   6.216
 9706SOL     OW30016   1.331   6.375   2.046
 9706SOL    HW130017   1.269   6.297   2.035
 9706SOL    HW230018   1.322   6.412   2.138
 9707SOL     OW30019   1.013   5.115   2.415
 9707SOL    HW130020   1.067   5.125   2.499
 9707SOL    HW230021   0.918   5.138   2.433
 9708SOL     OW30022   2.727   1.671   2.071
 9708SOL    HW130023   2.649   1.609   2.060
 9708SOL    HW230024   2.810   1.617   2.083
 9709SOL     OW30025   4.677   1.353   1.613
 9709SOL    HW130026   4.736   1.392   1.542
 9709SOL    HW230027   4.583   1.385   1.600
 9710SOL     OW30028   4.593   4.470   4.466
 9710SOL    HW130029   4.684   4.513   4.463
 9710SOL    HW230030   4.594   4.395   4.532
 9711SOL     OW30031   2.842   0.886   6.722
 9711SOL    HW130032   2.800   0.807   6.678
 9711SOL    HW230033   2.940   0.869   6.735
 9712SOL     OW30034   5.025   6.665   5.240
 9712SOL    HW130035   5.055   6.760   5.231
 9712SOL    HW230036   4.995   6.632   5.150
 9713SOL     OW30037   1.433   0.773   2.973
 9713SOL    HW130038   1.416   0.868   2.948
 9713SOL    HW230039   1.411   0.759   3.069
 9714SOL     OW30040   2.217   2.535   4.289
 9714SOL    HW130041   2.235   2.577   4.200
 9714SOL    HW230042   2.282   2.460   4.304
 9715SOL     OW30043   0.093   1.855   6.010
 9715SOL    HW130044   0.146   1.935   6.035
 9715SOL    HW230045   0.116   1.779   6.070
 9716SOL     OW30046   2.118   6.734   1.224
 9716SOL    HW130047   2.049   6.665   1.246
 9716SOL    HW230048   2.193   6.729   1.290
 9717SOL     OW30049   3.794   2.474   6.014
 9717SOL    HW130050   3.770   2.546   5.949
 9717SOL    HW230051   3.789   2.385   5.969
 9718SOL     OW30052   3.356   2.538   6.823
 9718SOL    HW130053   3.350   2.506   6.728
 9718SOL    HW230054   3.266   2.565   6.856
 9719SOL     OW30055   3.921   6.936   5.285
 9719SOL    HW130056   3.951   0.001   5.266
 9719SOL    HW230057   3.938   6.914   5.381
 9720SOL     OW30058   1.858   2.952   2.364
 9720SOL    HW130059   1.819   2.893   2.293
 9720SOL    HW230060   1.882   2.897   2.444
 9721SOL     OW30061   1.312   2.166   1.634
 9721SOL    HW130062   1.345   2.079   1.598
 9721SOL    HW230063   1.237   2.150   1.698
 9722SOL     OW30064   3.524   2.743   5.285
 9722SOL    HW130065   3.477   2.659   5.260
 9722SOL    HW230066   3.473   2.822   5.249
 9723SOL     OW30067   5.755   0.269   4.957
 9723SOL    HW130068   5.778   0.366   4.949
 9723SOL    HW230069   5.712   0.253   5.046
 9724SOL     OW30070   1.907   5.063   1.038
 9724SOL    HW130071   1.982   5.126   1.016
 9724SOL    HW230072   1.935   5.004   1.114
 9725SOL     OW30073   5.433   5.432   3.794
 9725SOL    HW130074   5.494   5.370   3.845
 9725SOL    HW230075   5.427   5.402   3.699
 9726SOL     OW30076   0.077   0.218   3.319
 9726SOL    HW130077   0.054   0.196   3.224
 9726SOL    HW230078   0.015   0.170   3.380
 9727SOL     OW30079   6.311   2.814   1.659
 9727SOL    HW130080   6.329   2.768   1.572
 9727SOL    HW230081   6.395   2.858   1.691
 9728SOL     OW30082   5.828   2.114   4.908
 9728SOL    HW130083   5.863   2.021   4.917
 9728SOL    HW230084   5.875   2.159   4.833
 9729SOL     OW30085   0.361   3.536   2.852
 9729SOL    HW130086   0.367   3.553   2.754
 9729SOL    HW230087   0.413   3.606   2.901
 9730SOL     OW30088   1.028   5.268   3.548
 9730SOL    HW130089   0.985   5.190   3.594
 9730SOL    HW230090   1.080   5.235   3.469
 9731SOL     OW30091   6.708   1.849   1.481
 9731SOL    HW130092   6.808   1.852   1.479
 9731SOL    HW230093   6.675   1.803   1.399
 9732SOL     OW30094   0.561   2.946   3.571
 9732SOL    HW130095   0.497   3.004   3.520
 9732SOL    HW230096   0.613   3.002   3.635
 9733SOL     OW30097   5.782   5.473   0.990
 9733SOL    HW130098   5.720   5.395   0.985
 9733SOL    HW230099   5.845   5.471   0.913
 9734SOL     OW30100   4.023   4.288   7.016
 9734SOL    HW130101   4.026   4.205   0.044
 9734SOL    HW230102   3.959   4.276   6.941
 9735SOL     OW30103   1.133   1.753   0.578
 9735SOL    HW130104   1.143   1.677   0.642
 9735SOL    HW230105   1.189   1.736   0.497
 9736SOL     OW30106   5.028   2.202   5.243
 9736SOL    HW130107   5.123   2.230   5.255
 9736SOL    HW230108   4.967   2.266   5.289
 9737SOL     OW30109   5.358   3.320   4.846
 9737SOL    HW130110   5.453   3.314   4.815
 9737SOL    HW230111   5.304   3.373   4.780
 9738SOL     OW30112   2.006   6.389   1.532
 9738SOL    HW130113   1.985   6.485   1.549
 9738SOL    HW230114   2.032   6.378   1.436
 9739SOL     OW30115   5.415   6.812   0.007
 9739SOL    HW130116   5.490   6.766   0.054
 9739SOL    HW230117   5.449   6.859   6.954
 9740SOL     OW30118   6.751   1.018   1.184
 9740SOL    HW130119   6.841   0.988   1.154
 9740SOL    HW230120   6.758   1.060   1.274
 9741SOL     OW30121   2.488   2.579   3.585
 9741SOL    HW130122   2.557   2.514   3.617
 9741SOL    HW230123   2.532   2.657   3.541
 9742SOL     OW30124   4.322   0.985   6.744
 9742SOL    HW130125   4.269   0.951   6.821
 9742SOL    HW230126   4.419   0.962   6.757
 9743SOL     OW30127   6.685   3.358   4.678
 9743SOL    HW130128   6.692   3.385   4.774
 9743SOL    HW230129   6.745   3.280   4.661
 9744SOL     OW30130   1.679   2.531   2.726
 9744SOL    HW130131   1.638   2.523   2.817
 9744SOL    HW230132   1.723   2.444   2.701
 9745SOL     OW30133   1.208   6.369   6.339
 9745SOL    HW130134   1.182   6.464   6.320
 9745SOL    HW230135   1.200   6.353   6.438
 9746SOL     OW30136   3.214   6.444   6.328
 9746SOL    HW130137   3.157   6.364   6.307
 9746SOL    HW230138   3.175   6.524   6.283
 9747SOL     OW30139   4.039   1.642   3.193
 9747SOL    HW130140   4.023   1.596   3.280
 9747SOL    HW230141   4.037   1.575   3.119
 9748SOL     OW30142   0.757   2.077   3.142
 9748SOL    HW130143   0.693   2.153   3.154
 9748SOL    HW230144   0.816   2.070   3.222
 9749SOL     OW30145   6.648   0.290   1.356
 9749SOL    HW130146   6.641   0.385   1.326
 9749SOL    HW230147   6.740   0.272   1.390
 9750SOL     OW30148   5.469   2.281   4.937
 9750SOL    HW130149   5.475   2.378   4.914
 9750SOL    HW230150   5.488   2.226   4.855
 9751SOL     OW30151   2.846   6.324   0.898
 9751SOL    HW130152   2.802   6.407   0.865
 9751SOL    HW230153   2.844   6.254   0.826
 9752SOL     OW30154   3.575   3.421   0.784
 9752SOL    HW130155   3.638   3.490   0.818
 9752SOL    HW230156   3.626   3.350   0.735
 9753SOL     OW30157   6.693   6.059   3.193
 9753SOL    HW130158   6.756   6.132   3.221
 9753SOL    HW230159   6.635   6.092   3.119
 9754SOL     OW30160   3.658   1.494   2.093
 9754SOL    HW130161   3.701   1.424   2.149
 9754SOL    HW230162   3.703   1.498   2.004
 9755SOL     OW30163   3.307   3.857   1.156
 9755SOL    HW130164   3.354   3.921   1.097
 9755SOL    HW230165   3.278   3.777   1.103
 9756SOL     OW30166   5.543   6.933   6.812
 9756SOL    HW130167   5.470   6.981   6.762
 9756SOL    HW230168   5.627   6.987   6.808
 9757SOL     OW30169   5.413   3.957   4.486
 9757SOL    HW130170   5.346   4.010   4.435
 9757SOL    HW230171   5.503   4.000   4.477
 9758SOL     OW30172   3.290   0.886   2.481
 9758SOL    HW130173   3.226   0.844   2.416
 9758SOL    HW230174   3.273   0.984   2.485
 9759SOL     OW30175   0.071   2.135   0.935
 9759SOL    HW130176   0.040   2.043   0.909
 9759SOL    HW230177   0.066   2.145   1.035
 9760SOL     OW30178   4.532   0.427   6.122
 9760SOL    HW130179   4.444   0.468   6.146
 9760SOL    HW230180   4.574   0.480   6.049
 9761SOL     OW30181   0.954   1.927   1.527
 9761SOL    HW130182   0.926   2.002   1.586
 9761SOL    HW230183   0.894   1.849   1.542
 9762SOL     OW30184   3.800   1.197   6.240
 9762SOL    HW130185   3.887   1.247   6.231
 9762SOL    HW230186   3.731   1.257   6.280
 9763SOL     OW30187   6.201   2.100   0.898
 9763SOL    HW130188   6.195   2.001   0.901
 9763SOL    HW230189   6.152   2.139   0.977
 9764SOL     OW30190   0.394   2.814   2.933
 9764SOL    HW130191   0.336   2.738   2.903
 9764SOL    HW230192   0.463   2.833   2.863
 9765SOL     OW30193   6.416   1.922   1.289
 9765SOL    HW130194   6.324   1.949   1.319
 9765SOL    HW230195   6.423   1.931   1.190
 9766SOL     OW30196   0.127   2.716   2.882
 9766SOL    HW130197   0.121   2.789   2.813
 9766SOL    HW230198   0.036   2.692   2.914
 9767SOL     OW30199   3.811   1.255   5.129
 9767SOL    HW130200   3.748   1.327   5.157
 9767SOL    HW230201   3.843   1.205   5.209
 9768SOL     OW30202   4.993   1.965   6.828
 9768SOL    HW130203   5.004   1.902   6.905
 9768SOL    HW230204   5.014   1.917   6.743
 9769SOL     OW30205   3.856   1.098   5.348
 9769SOL    HW130206   3.917   1.165   5.391
 9769SOL    HW230207   3.871   1.009   5.389
 9770SOL     OW30208   1.943   3.249   5.095
 9770SOL    HW130209   1.844   3.237   5.099
 9770SOL    HW230210   1.982   3.182   5.031
 9771SOL     OW30211   3.325   0.929   2.181
 9771SOL    HW130212   3.400   0.938   2.246
 9771SOL    HW230213   3.245   0.977   2.215
 9772SOL     OW30214   0.272   0.426   2.050
 9772SOL    HW130215   0.230   0.498   2.105
 9772SOL    HW230216   0.200   0.369   2.010
 9773SOL     OW30217   5.878   6.617   2.105
 9773SOL    HW130218   5.944   6.668   2.050
 9773SOL    HW230219   5.815   6.568   2.045
 9774SOL     OW30220   1.890   6.081   4.591
 9774SOL    HW130221   1.867   6.135   4.510
 9774SOL    HW230222   1.977   6.035   4.577
 9775SOL     OW30223   1.104   1.466   2.891
 9775SOL    HW130224   1.014   1.427   2.915
 9775SOL    HW230225   1.133   1.529   2.963
 9776SOL     OW30226   1.912   5.909   1.696
 9776SOL    HW130227   1.996   5.872   1.735
 9776SOL    HW230228   1.833   5.859   1.731
 9777SOL     OW30229   4.348   1.809   5.190
 9777SOL    HW130230   4.265   1.845   5.232
 9777SOL    HW230231   4.387   1.738   5.248
 9778SOL     OW30232   1.525   3.586   2.978
 9778SOL    HW130233   1.466   3.658   2.941
 9778SOL    HW230234   1.530   3.510   2.913
 9779SOL     OW30235   2.993   0.414   3.212
 9779SOL    HW130236   3.086   0.441   3.237
 9779SOL    HW230237   2.988   0.395   3.114
 9780SOL     OW30238   0.840   1.449   0.819
 9780SOL    HW130239   0.877   1.423   0.730
 9780SOL    HW230240   0.750   1.407   0.831
 9781SOL     OW30241   1.322   1.119   2.248
 9781SOL    HW130242   1.407   1.072   2.224
 9781SOL    HW230243   1.269   1.062   2.310
 9782SOL     OW30244   7.009   2.667   0.481
 9782SOL    HW130245   7.011   2.649   0.383
 9782SOL    HW230246   0.066   2.636   0.522
 9783SOL     OW30247   5.006   2.010   2.487
 9783SOL    HW130248   4.982   2.061   2.569
 9783SOL    HW230249   5.053   1.926   2.513
 9784SOL     OW30250   1.957   1.641   0.593
 9784SOL    HW130251   1.988   1.618   0.501
 9784SOL    HW230252   2.018   1.711   0.631
 9785SOL     OW30253   1.773   3.470   4.841
 9785SOL    HW130254   1.804   3.491   4.748
 9785SOL    HW230255   1.849   3.482   4.904
 9786SOL     OW30256   2.810   4.685   0.008
 9786SOL    HW130257   2.816   4.743   6.955
 9786SOL    HW230258   2.768   4.736   0.083
 9787SOL     OW30259   2.658   3.545   1.064
 9787SOL    HW130260   2.569   3.591   1.064
 9787SOL    HW230261   2.647   3.451   1.030
 9788SOL     OW30262   2.988   6.954   2.598
 9788SOL    HW130263   2.922   6.879   2.604
 9788SOL    HW230264   3.040   6.960   2.684
 9789SOL     OW30265   4.330   1.613   0.897
 9789SOL    HW130266   4.344   1.711   0.913
 9789SOL    HW230267   4.390   1.582   0.824
 9790SOL     OW30268   4.743   5.803   4.616
 9790SOL    HW130269   4.681   5.830   4.690
 9790SOL    HW230270   4.837   5.807   4.649
 9791SOL     OW30271   0.652   0.749   1.317
 9791SOL    HW130272   0.742   0.756   1.274
 9791SOL    HW230273   0.633   0.834   1.367
 9792SOL     OW30274   3.541   3.972   0.714
 9792SOL    HW130275   3.623   4.026   0.698
 9792SOL    HW230276   3.468   4.002   0.652
 9793SOL     OW30277   6.024   1.251   2.495
 9793SOL    HW130278   6.116   1.233   2.460
 9793SOL    HW230279   6.020   1.344   2.532
 9794SOL     OW30280   3.904   5.367   4.623
 9794SOL    HW130281   3.995   5.365   4.581
 9794SOL    HW230282   3.873   5.462   4.631
 9795SOL     OW30283   1.899   3.991   3.261
 9795SOL    HW130284   1.843   3.978   3.342
 9795SOL    HW230285   1.924   4.087   3.252
 9796SOL     OW30286   3.441   3.873   4.354
 9796SOL    HW130287   3.513   3.822   4.403
 9796SOL    HW230288   3.449   3.856   4.256
 9797SOL     OW30289   3.365   5.604   7.006
 9797SOL    HW130290   3.413   5.527   0.020
 9797SOL    HW230291   3.425   5.648   6.939
 9798SOL     OW30292   6.914   4.239   6.247
 9798SOL    HW130293   7.002   4.256   6.293
 9798SOL    HW230294   6.882   4.148   6.271
 9799SOL     OW30295   4.027   6.373   6.591
 9799SOL    HW130296   4.118   6.384   6.630
 9799SOL    HW230297   3.996   6.279   6.603
 9800SOL     OW30298   6.412   4.564   5.046
 9800SOL    HW130299   6.350   4.616   4.987
 9800SOL    HW230300   6.437   4.618   5.125
 9801SOL     OW30301   3.982   6.879   0.547
 9801SOL    HW130302   4.066   6.873   0.493
 9801SOL    HW230303   3.924   6.952   0.510
 9802SOL     OW30304   4.012   3.227   0.272
 9802SOL    HW130305   4.050   3.246   0.181
 9802SOL    HW230306   3.938   3.292   0.291
 9803SOL     OW30307   2.296   3.325   6.710
 9803SOL    HW130308   2.311   3.323   6.809
 9803SOL    HW230309   2.356   3.394   6.669
 9804SOL     OW30310   1.390   4.301   2.715
 9804SOL    HW130311   1.339   4.251   2.785
 9804SOL    HW230312   1.400   4.396   2.743
 9805SOL     OW30313   0.206   5.697   4.560
 9805SOL    HW130314   0.245   5.637   4.489
 9805SOL    HW230315   0.142   5.761   4.517
 9806SOL     OW30316   3.281   1.358   6.657
 9806SOL    HW130317   3.187   1.345   6.624
 9806SOL    HW230318   3.278   1.383   6.754
 9807SOL     OW30319   3.821   2.949   3.888
 9807SOL    HW130320   3.828   2.886   3.810
 9807SOL    HW230321   3.724   2.968   3.907
 9808SOL     OW30322   3.358   5.729   2.370
 9808SOL    HW130323   3.352   5.648   2.427
 9808SOL    HW230324   3.275   5.738   2.315
 9809SOL     OW30325   5.785   2.583   1.058
 9809SOL    HW130326   5.839   2.666   1.075
 9809SOL    HW230327   5.816   2.511   1.120
 9810SOL     OW30328   2.956   3.061   0.671
 9810SOL    HW130329   2.904   3.010   0.740
 9810SOL    HW230330   2.959   3.158   0.697
 9811SOL     OW30331   5.025   3.732   4.032
 9811SOL    HW130332   5.019   3.806   3.965
 9811SOL    HW230333   5.106   3.744   4.089
 9812SOL     OW30334   3.488   5.780   6.583
 9812SOL    HW130335   3.559   5.844   6.613
 9812SOL    HW230336   3.525   5.687   6.582
 9813SOL     OW30337   4.488   1.255   2.216
 9813SOL    HW130338   4.433   1.182   2.259
 9813SOL    HW230339   4.491   1.241   2.117
 9814SOL     OW30340   6.526   1.839   6.177
 9814SOL    HW130341   6.532   1.896   6.259
 9814SOL    HW230342   6.607   1.780   6.173
 9815SOL     OW30343   4.807   2.630   4.648
 9815SOL    HW130344   4.826   2.656   4.743
 9815SOL    HW230345   4.779   2.710   4.596
 9816SOL     OW30346   2.971   0.726   0.153
 9816SOL    HW130347   2.923   0.711   0.067
 9816SOL    HW230348   3.069   0.731   0.136
 9817SOL     OW30349   6.892   0.542   1.425
 9817SOL    HW130350   6.907   0.613   1.495
 9817SOL    HW230351   6.809   0.564   1.373
 9818SOL     OW30352   3.552   2.527   5.483
 9818SOL    HW130353   3.460   2.528   5.445
 9818SOL    HW230354   3.610   2.591   5.433
 9819SOL     OW30355   3.061   0.431   1.738
 9819SOL    HW130356   3.083   0.527   1.755
 9819SOL    HW230357   3.145   0.380   1.722
 9820SOL     OW30358   3.761   2.517   6.745
 9820SOL    HW130359   3.728   2.454   6.674
 9820SOL    HW230360   3.861   2.519   6.743
 9821SOL     OW30361   6.759   5.378   0.172
 9821SOL    HW130362   6.747   5.465   0.124
 9821SOL    HW230363   6.755   5.303   0.106
 9822SOL     OW30364   0.044   0.547   2.547
 9822SOL    HW130365   0.123   0.598   2.582
 9822SOL    HW230366   7.019   0.512   2.624
 9823SOL     OW30367   3.630   6.818   2.185
 9823SOL    HW130368   3.712   6.876   2.191
 9823SOL    HW230369   3.583   6.837   2.098
 9824SOL     OW30370   1.938   3.999   5.861
 9824SOL    HW130371   1.902   3.940   5.788
 9824SOL    HW230372   1.921   3.956   5.949
 9825SOL     OW30373   4.263   5.324   4.833
 9825SOL    HW130374   4.271   5.383   4.913
 9825SOL    HW230375   4.168   5.293   4.823
 9826SOL     OW30376   5.724   6.367   5.171
 9826SOL    HW130377   5.634   6.336   5.204
 9826SOL    HW230378   5.787   6.289   5.170
 9827SOL     OW30379   0.908   4.977   5.170
 9827SOL    HW130380   0.886   5.074   5.179
 9827SOL    HW230381   0.864   4.940   5.088
 9828SOL     OW30382   1.938   2.182   0.007
 9828SOL    HW130383   2.035   2.176   7.010
 9828SOL    HW230384   1.883   2.137   6.965
 9829SOL     OW30385   2.326   4.545   1.440
 9829SOL    HW130386   2.343   4.617   1.373
 9829SOL    HW230387   2.352   4.577   1.531
 9830SOL     OW30388   6.851   1.287   0.781
 9830SOL    HW130389   6.782   1.353   0.813
 9830SOL    HW230390   6.905   1.255   0.859
 9831SOL     OW30391   5.824   6.719   1.318
 9831SOL    HW130392   5.868   6.808   1.332
 9831SOL    HW230393   5.781   6.717   1.228
 9832SOL     OW30394   3.824   4.284   1.013
 9832SOL    HW130395   3.902   4.342   0.993
 9832SOL    HW230396   3.745   4.315   0.960
 9833SOL     OW30397   4.717   4.342   6.103
 9833SOL    HW130398   4.620   4.366   6.113
 9833SOL    HW230399   4.749   4.300   6.188
 9834SOL     OW30400   2.125   2.109   3.811
 9834SOL    HW130401   2.217   2.146   3.806
 9834SOL    HW230402   2.099   2.072   3.722
 9835SOL     OW30403   5.763   1.102   4.878
 9835SOL    HW130404   5.717   1.142   4.957
 9835SOL    HW230405   5.781   1.173   4.810
 9836SOL     OW30406   4.940   5.273   1.458
 9836SOL    HW130407   4.882   5.205   1.502
 9836SOL    HW230408   4.936   5.358   1.510
 9837SOL     OW30409   2.412   6.228   5.580
 9837SOL    HW130410   2.355   6.303   5.613
 9837SOL    HW230411   2.438   6.245   5.485
 9838SOL     OW30412   6.784   5.963   4.942
 9838SOL    HW130413   6.784   5.863   4.945
 9838SOL    HW230414   6.820   5.994   4.854
 9839SOL     OW30415   6.055   2.991   2.397
 9839SOL    HW130416   5.968   3.041   2.402
 9839SOL    HW230417   6.037   2.893   2.399
 9840SOL     OW30418   5.837   0.261   0.416
 9840SOL    HW130419   5.816   0.223   0.326
 9840SOL    HW230420   5.761   0.320   0.445
 9841SOL     OW30421   2.241   2.955   4.305
 9841SOL    HW130422   2.242   3.055   4.310
 9841SOL    HW230423   2.166   2.925   4.246
 9842SOL     OW30424   3.183   3.670   3.960
 9842SOL    HW130425   3.251   3.722   3.907
 9842SOL    HW230426   3.094   3.716   3.953
 9843SOL     OW30427   6.060   4.622   3.017
 9843SOL    HW130428   5.993   4.570   2.964
 9843SOL    HW230429   6.120   4.673   2.954
 9844SOL     OW30430   5.275   0.309   1.931
 9844SOL    HW130431   5.261   0.315   2.030
 9844SOL    HW230432   5.365   0.347   1.909
 9845SOL     OW30433   1.397   1.490   3.151
 9845SOL    HW130434   1.485   1.510   3.110
 9845SOL    HW230435   1.358   1.573   3.189
 9846SOL     OW30436   3.116   3.777   3.575
 9846SOL    HW130437   3.182   3.751   3.646
 9846SOL    HW230438   3.159   3.840   3.511
 9847SOL     OW30439   2.096   4.348   5.030
 9847SOL    HW130440   2.046   4.416   5.083
 9847SOL    HW230441   2.070   4.256   5.061
 9848SOL     OW30442   5.762   3.813   0.408
 9848SOL    HW130443   5.826   3.878   0.366
 9848SOL    HW230444   5.701   3.862   0.471
 9849SOL     OW30445   6.986   6.204   5.477
 9849SOL    HW130446   0.002   6.192   5.388
 9849SOL    HW230447   7.020   6.134   5.541
 9850SOL     OW30448   4.399   7.027   2.878
 9850SOL    HW130449   4.381   0.090   2.915
 9850SOL    HW230450   4.349   6.959   2.931
 9851SOL     OW30451   5.543   3.092   5.012
 9851SOL    HW130452   5.471   3.151   4.976
 9851SOL    HW230453   5.631   3.140   5.004
 9852SOL     OW30454   5.701   1.618   4.363
 9852SOL    HW130455   5.692   1.717   4.361
 9852SOL    HW230456   5.680   1.580   4.273
 9853SOL     OW30457   0.473   4.723   1.454
 9853SOL    HW130458   0.472   4.813   1.412
 9853SOL    HW230459   0.564   4.682   1.445
 9854SOL     OW30460   3.963   6.059   3.627
 9854SOL    HW130461   3.997   5.982   3.573
 9854SOL    HW230462   3.877   6.091   3.588
 9855SOL     OW30463   1.976   3.662   0.672
 9855SOL    HW130464   2.049   3.665   0.604
 9855SOL    HW230465   1.900   3.608   0.636
 9856SOL     OW30466   3.450   3.117   1.162
 9856SOL    HW130467   3.383   3.190   1.174
 9856SOL    HW230468   3.517   3.144   1.093
 9857SOL     OW30469   6.654   4.525   2.932
 9857SOL    HW130470   6.697   4.590   2.870
 9857SOL    HW230471   6.564   4.501   2.897
 9858SOL     OW30472   3.590   1.594   1.416
 9858SOL    HW130473   3.606   1.689   1.389
 9858SOL    HW230474   3.660   1.535   1.375
 9859SOL     OW30475   0.130   0.147   1.333
 9859SOL    HW130476   0.033   0.133   1.352
 9859SOL    HW230477   0.151   0.113   1.242
 9860SOL     OW30478   0.774   0.735   2.430
 9860SOL    HW130479   0.800   0.678   2.352
 9860SOL    HW230480   0.675   0.735   2.440
 9861SOL     OW30481   2.849   6.290   4.496
 9861SOL    HW130482   2.799   6.376   4.511
 9861SOL    HW230483   2.918   6.304   4.424
 9862SOL     OW30484   0.363   2.162   0.864
 9862SOL    HW130485   0.368   2.120   0.774
 9862SOL    HW230486   0.275   2.140   0.906
 9863SOL     OW30487   3.326   6.906   0.335
 9863SOL    HW130488   3.337   6.855   0.249
 9863SOL    HW230489   3.413   6.906   0.384
 9864SOL     OW30490   4.608   5.777   3.006
 9864SOL    HW130491   4.624   5.804   2.911
 9864SOL    HW230492   4.574   5.856   3.058
 9865SOL     OW30493   1.630   2.741   3.951
 9865SOL    HW130494   1.573   2.812   3.910
 9865SOL    HW230495   1.591   2.713   4.039
 9866SOL     OW30496   3.305   5.241   3.725
 9866SOL    HW130497   3.327   5.145   3.712
 9866SOL    HW230498   3.390   5.295   3.728
 9867SOL     OW30499   3.936   0.399   6.439
 9867SOL    HW130500   3.950   0.311   6.393
 9867SOL    HW230501   4.024   0.438   6.463
 9868SOL     OW30502   0.824   5.020   5.890
 9868SOL    HW130503   0.808   4.931   5.933
 9868SOL    HW230504   0.914   5.020   5.846
 9869SOL     OW30505   1.311   4.157   2.931
 9869SOL    HW130506   1.274   4.206   3.010
 9869SOL    HW230507   1.406   4.132   2.950
 9870SOL     OW30508   4.546   4.522   2.137
 9870SOL    HW130509   4.459   4.472   2.138
 9870SOL    HW230510   4.613   4.471   2.085
 9871SOL     OW30511   1.717   2.162   5.645
 9871SOL    HW130512   1.804   2.182   5.602
 9871SOL    HW230513   1.687   2.241   5.699
 9872SOL     OW30514   1.400   4.212   3.680
 9872SOL    HW130515   1.405   4.188   3.583
 9872SOL    HW230516   1.309   4.246   3.701
 9873SOL     OW30517   1.413   2.100   0.267
 9873SOL    HW130518   1.436   2.041   0.344
 9873SOL    HW230519   1.486   2.094   0.199
 9874SOL     OW30520   1.172   3.664   4.677
 9874SOL    HW130521   1.266   3.698   4.669
 9874SOL    HW230522   1.111   3.740   4.699
 9875SOL     OW30523   0.896   1.105   2.706
 9875SOL    HW130524   0.834   1.182   2.722
 9875SOL    HW230525   0.990   1.134   2.720
 9876SOL     OW30526   7.008   5.221   1.963
 9876SOL    HW130527   6.939   5.162   1.922
 9876SOL    HW230528   6.991   5.229   2.061
 9877SOL     OW30529   3.275   6.939   1.516
 9877SOL    HW130530   3.362   6.911   1.558
 9877SOL    HW230531   3.281   0.007   1.489
 9878SOL     OW30532   0.783   0.223   5.187
 9878SOL    HW130533   0.850   0.234   5.113
 9878SOL    HW230534   0.814   0.272   5.268
 9879SOL     OW30535   5.706   5.921   5.136
 9879SOL    HW130536   5.771   5.963   5.199
 9879SOL    HW230537   5.698   5.823   5.156
 9880SOL     OW30538   1.761   1.550   3.939
 9880SOL    HW130539   1.787   1.461   3.902
 9880SOL    HW230540   1.723   1.538   4.031
 9881SOL     OW30541   7.021   1.242   6.284
 9881SOL    HW130542   0.025   1.260   6.377
 9881SOL    HW230543   0.052   1.288   6.218
 9882SOL     OW30544   2.160   2.022   3.101
 9882SOL    HW130545   2.123   1.987   3.187
 9882SOL    HW230546   2.232   1.961   3.068
 9883SOL     OW30547   2.638   1.262   2.389
 9883SOL    HW130548   2.621   1.255   2.291
 9883SOL    HW230549   2.735   1.280   2.404
 9884SOL     OW30550   3.420   0.552   4.212
 9884SOL    HW130551   3.496   0.592   4.263
 9884SOL    HW230552   3.445   0.545   4.116
 9885SOL     OW30553   6.444   4.237   4.293
 9885SOL    HW130554   6.386   4.166   4.253
 9885SOL    HW230555   6.511   4.195   4.354
 9886SOL     OW30556   0.905   3.268   1.740
 9886SOL    HW130557   0.879   3.358   1.776
 9886SOL    HW230558   0.847   3.198   1.779
 9887SOL     OW30559   4.328   6.790   6.175
 9887SOL    HW130560   4.277   6.797   6.261
 9887SOL    HW230561   4.268   6.815   6.099
 9888SOL     OW30562   6.208   5.274   0.004
 9888SOL    HW130563   6.294   5.319   0.027
 9888SOL    HW230564   6.207   5.183   0.046
 9889SOL     OW30565   0.386   4.808   0.415
 9889SOL    HW130566   0.370   4.719   0.457
 9889SOL    HW230567   0.359   4.880   0.479
 9890SOL     OW30568   1.366   3.227   0.445
 9890SOL    HW130569   1.296   3.168   0.405
 9890SOL    HW230570   1.331   3.320   0.452
 9891SOL     OW30571   5.031   1.683   1.957
 9891SOL    HW130572   4.946   1.651   1.916
 9891SOL    HW230573   5.059   1.769   1.913
 9892SOL     OW30574   0.883   6.594   6.880
 9892SOL    HW130575   0.927   6.592   6.969
 9892SOL    HW230576   0.912   6.676   6.830
 9893SOL     OW30577   2.353   1.628   0.888
 9893SOL    HW130578   2.341   1.694   0.814
 9893SOL    HW230579   2.326   1.670   0.975
 9894SOL     OW30580   2.085   1.223   1.701
 9894SOL    HW130581   2.168   1.173   1.677
 9894SOL    HW230582   2.084   1.311   1.653
 9895SOL     OW30583   4.444   2.847   5.465
 9895SOL    HW130584   4.523   2.803   5.507
 9895SOL    HW230585   4.385   2.887   5.535
 9896SOL     OW30586   6.981   6.551   6.417
 9896SOL    HW130587   7.011   6.530   6.324
 9896SOL    HW230588   6.900   6.497   6.440
 9897SOL     OW30589   5.460   4.991   4.334
 9897SOL    HW130590   5.450   5.004   4.432
 9897SOL    HW230591   5.532   5.051   4.299
 9898SOL     OW30592   2.785   6.775   5.804
 9898SOL    HW130593   2.744   6.766   5.894
 9898SOL    HW230594   2.743   6.710   5.741
 9899SOL     OW30595   6.995   4.929   7.009
 9899SOL    HW130596   6.911   4.887   0.015
 9899SOL    HW230597   6.973   4.992   6.934
 9900SOL     OW30598   2.270   4.287   3.600
 9900SOL    HW130599   2.320   4.369   3.629
 9900SOL    HW230600   2.290   4.212   3.664
 9901SOL     OW30601   2.516   3.026   5.636
 9901SOL    HW130602   2.525   2.957   5.565
 9901SOL    HW230603   2.424   3.066   5.632
 9902SOL     OW30604   2.851   4.122   0.427
 9902SOL    HW130605   2.807   4.203   0.389
 9902SOL    HW230606   2.805   4.094   0.511
 9903SOL     OW30607   5.437   0.716   4.436
 9903SOL    HW130608   5.535   0.703   4.444
 9903SOL    HW230609   5.402   0.663   4.359
 9904SOL     OW30610   6.281   2.654   0.842
 9904SOL    HW130611   6.184   2.629   0.837
 9904SOL    HW230612   6.333   2.576   0.877
 9905SOL     OW30613   5.210   0.612   0.266
 9905SOL    HW130614   5.220   0.521   0.224
 9905SOL    HW230615   5.151   0.669   0.209
 9906SOL     OW30616   3.191   2.913   5.039
 9906SOL    HW130617   3.117   2.847   5.052
 9906SOL    HW230618   3.245   2.919   5.123
 9907SOL     OW30619   1.251   6.821   1.905
 9907SOL    HW130620   1.191   6.900   1.899
 9907SOL    HW230621   1.245   6.766   1.822
 9908SOL     OW30622   4.889   3.645   2.369
 9908SOL    HW130623   4.874   3.741   2.390
 9908SOL    HW230624   4.902   3.634   2.270
 9909SOL     OW30625   2.396   0.568   4.951
 9909SOL    HW130626   2.340   0.491   4.981
 9909SOL    HW230627   2.431   0.550   4.860
 9910SOL     OW30628   0.110   5.256   3.639
 9910SOL    HW130629   0.121   5.226   3.544
 9910SOL    HW230630   0.160   5.341   3.653
 9911SOL     OW30631   3.134   5.645   2.535
 9911SOL    HW130632   3.114   5.740   2.557
 9911SOL    HW230633   3.082   5.585   2.595
 9912SOL     OW30634   5.002   0.669   6.864
 9912SOL    HW130635   5.102   0.672   6.870
 9912SOL    HW230636   4.974   0.588   6.812
 9913SOL     OW30637   4.598   3.240   6.828
 9913SOL    HW130638   4.591   3.286   6.916
 9913SOL    HW230639   4.690   3.201   6.819
 9914SOL     OW30640   0.079   4.125   4.217
 9914SOL    HW130641   0.067   4.169   4.306
 9914SOL    HW230642   7.027   4.067   4.198
 9915SOL     OW30643   5.227   1.211   3.693
 9915SOL    HW130644   5.306   1.218   3.754
 9915SOL    HW230645   5.247   1.258   3.607
 9916SOL     OW30646   1.560   3.217   2.181
 9916SOL    HW130647   1.490   3.147   2.193
 9916SOL    HW230648   1.619   3.193   2.104
 9917SOL     OW30649   6.246   4.164   5.266
 9917SOL    HW130650   6.243   4.109   5.182
 9917SOL    HW230651   6.341   4.178   5.293
 9918SOL     OW30652   4.721   2.764   2.384
 9918SOL    HW130653   4.765   2.755   2.474
 9918SOL    HW230654   4.705   2.861   2.364
 9919SOL     OW30655   5.999   6.249   0.836
 9919SOL    HW130656   6.067   6.230   0.766
 9919SOL    HW230657   5.920   6.295   0.796
 9920SOL     OW30658   4.684   1.552   2.796
 9920SOL    HW130659   4.728   1.639   2.816
 9920SOL    HW230660   4.612   1.535   2.862
 9921SOL     OW30661   3.631   4.807   6.258
 9921SOL    HW130662   3.705   4.830   6.321
 9921SOL    HW230663   3.543   4.813   6.306
 9922SOL     OW30664   0.056   5.174   0.823
 9922SOL    HW130665   0.058   5.131   0.733
 9922SOL    HW230666   6.992   5.209   0.841
 9923SOL     OW30667   5.432   4.697   1.042
 9923SOL    HW130668   5.525   4.726   1.066
 9923SOL    HW230669   5.367   4.736   1.108
 9924SOL     OW30670   1.343   3.469   4.836
 9924SOL    HW130671   1.300   3.484   4.925
 9924SOL    HW230672   1.314   3.541   4.773
 9925SOL     OW30673   5.533   2.071   3.386
 9925SOL    HW130674   5.586   1.992   3.355
 9925SOL    HW230675   5.585   2.120   3.456
 9926SOL     OW30676   2.710   5.082   0.325
 9926SOL    HW130677   2.626   5.125   0.359
 9926SOL    HW230678   2.743   5.131   0.245
 9927SOL     OW30679   5.551   0.180   3.721
 9927SOL    HW130680   5.494   0.148   3.646
 9927SOL    HW230681   5.612   0.107   3.751
 9928SOL     OW30682   4.719   5.034   2.175
 9928SOL    HW130683   4.819   5.040   2.169
 9928SOL    HW230684   4.682   5.123   2.202
 9929SOL     OW30685   1.097   4.677   2.701
 9929SOL    HW130686   1.054   4.587   2.707
 9929SOL    HW230687   1.183   4.669   2.651
 9930SOL     OW30688   5.940   0.421   3.520
 9930SOL    HW130689   5.975   0.327   3.510
 9930SOL    HW230690   5.841   0.421   3.510
 9931SOL     OW30691   0.512   5.315   6.183
 9931SOL    HW130692   0.511   5.256   6.102
 9931SOL    HW230693   0.550   5.404   6.159
 9932SOL     OW30694   0.717   6.427   5.549
 9932SOL    HW130695   0.707   6.454   5.645
 9932SOL    HW230696   0.652   6.353   5.528
 9933SOL     OW30697   0.331   5.833   2.234
 9933SOL    HW130698   0.279   5.757   2.274
 9933SOL    HW230699   0.429   5.812   2.238
 9934SOL     OW30700   6.880   1.874   5.506
 9934SOL    HW130701   6.781   1.881   5.503
 9934SOL    HW230702   6.906   1.782   5.538
 9935SOL     OW30703   2.807   0.166   6.289
 9935SOL    HW130704   2.893   0.212   6.268
 9935SOL    HW230705   2.765   0.132   6.205
 9936SOL     OW30706   1.224   4.023   4.411
 9936SOL    HW130707   1.127   4.047   4.419
 9936SOL    HW230708   1.239   3.974   4.325
 9937SOL     OW30709   6.536   2.493   6.236
 9937SOL    HW130710   6.533   2.400   6.274
 9937SOL    HW230711   6.598   2.495   6.158
 9938SOL     OW30712   0.182   6.107   2.453
 9938SOL    HW130713   0.110   6.038   2.461
 9938SOL    HW230714   0.272   6.062   2.456
 9939SOL     OW30715   3.283   3.176   2.706
 9939SOL    HW130716   3.184   3.184   2.711
 9939SOL    HW230717   3.317   3.221   2.623
 9940SOL     OW30718   0.031   0.698   1.137
 9940SOL    HW130719   0.010   0.650   1.051
 9940SOL    HW230720   0.107   0.651   1.183
 9941SOL     OW30721   3.369   5.523   4.997
 9941SOL    HW130722   3.431   5.494   4.924
 9941SOL    HW230723   3.418   5.528   5.083
 9942SOL     OW30724   2.437   5.899   3.910
 9942SOL    HW130725   2.388   5.856   3.985
 9942SOL    HW230726   2.459   5.994   3.934
 9943SOL     OW30727   0.704   7.000   5.139
 9943SOL    HW130728   0.751   0.052   5.176
 9943SOL    HW230729   0.615   7.027   5.102
 9944SOL     OW30730   1.430   4.259   6.870
 9944SOL    HW130731   1.432   4.271   6.969
 9944SOL    HW230732   1.500   4.193   6.843
 9945SOL     OW30733   0.016   5.748   0.060
 9945SOL    HW130734   0.085   5.679   0.080
 9945SOL    HW230735   6.976   5.749   0.134
 9946SOL     OW30736   5.905   1.818   4.961
 9946SOL    HW130737   6.000   1.820   4.992
 9946SOL    HW230738   5.884   1.727   4.925
 9947SOL     OW30739   6.087   4.600   3.433
 9947SOL    HW130740   6.030   4.568   3.358
 9947SOL    HW230741   6.030   4.617   3.513
 9948SOL     OW30742   5.595   3.719   4.093
 9948SOL    HW130743   5.676   3.714   4.034
 9948SOL    HW230744   5.624   3.730   4.188
 9949SOL     OW30745   6.107   4.825   1.910
 9949SOL    HW130746   6.205   4.808   1.915
 9949SOL    HW230747   6.064   4.756   1.852
 9950SOL     OW30748   2.893   6.386   6.593
 9950SOL    HW130749   2.827   6.450   6.633
 9950SOL    HW230750   2.852   6.342   6.513
 9951SOL     OW30751   6.122   2.325   3.374
 9951SOL    HW130752   6.123   2.404   3.436
 9951SOL    HW230753   6.155   2.353   3.284
 9952SOL     OW30754   6.886   5.041   6.060
 9952SOL    HW130755   6.879   5.130   6.105
 9952SOL    HW230756   6.878   4.968   6.128
 9953SOL     OW30757   5.666   2.971   3.702
 9953SOL    HW130758   5.761   2.974   3.735
 9953SOL    HW230759   5.604   2.962   3.780
 9954SOL     OW30760   4.041   0.439   4.611
 9954SOL    HW130761   4.042   0.394   4.701
 9954SOL    HW230762   3.946   0.447   4.580
 9955SOL     OW30763   0.705   4.797   4.542
 9955SOL    HW130764   0.739   4.890   4.558
 9955SOL    HW230765   0.609   4.801   4.513
 9956SOL     OW30766   1.025   6.236   0.034
 9956SOL    HW130767   0.977   6.183   0.105
 9956SOL    HW230768   0.977   6.227   6.975
 9957SOL     OW30769   5.825   5.532   2.075
 9957SOL    HW130770   5.900   5.470   2.097
 9957SOL    HW230771   5.832   5.561   1.979
 9958SOL     OW30772   2.707   4.407   0.773
 9958SOL    HW130773   2.694   4.455   0.860
 9958SOL    HW230774   2.766   4.327   0.788
 9959SOL     OW30775   3.501   3.787   1.373
 9959SOL    HW130776   3.428   3.779   1.305
 9959SOL    HW230777   3.482   3.728   1.450
 9960SOL     OW30778   0.741   1.495   2.407
 9960SOL    HW130779   0.753   1.407   2.362
 9960SOL    HW230780   0.825   1.520   2.454
 9961SOL     OW30781   2.126   3.964   4.804
 9961SOL    HW130782   2.060   3.906   4.850
 9961SOL    HW230783   2.184   4.010   4.872
 9962SOL     OW30784   4.984   6.560   4.022
 9962SOL    HW130785   4.948   6.649   3.993
 9962SOL    HW230786   4.983   6.497   3.945
 9963SOL     OW30787   3.494   1.006   1.011
 9963SOL    HW130788   3.455   0.946   0.942
 9963SOL    HW230789   3.421   1.046   1.066
 9964SOL     OW30790   5.142   6.520   4.740
 9964SOL    HW130791   5.102   6.522   4.648
 9964SOL    HW230792   5.193   6.435   4.752
 9965SOL     OW30793   4.592   6.851   0.682
 9965SOL    HW130794   4.686   6.836   0.651
 9965SOL    HW230795   4.559   6.939   0.647
 9966SOL     OW30796   6.431   0.905   3.247
 9966SOL    HW130797   6.345   0.860   3.270
 9966SOL    HW230798   6.504   0.869   3.307
 9967SOL     OW30799   0.960   4.968   0.948
 9967SOL    HW130800   0.914   5.054   0.924
 9967SOL    HW230801   0.924   4.894   0.891
 9968SOL     OW30802   3.069   3.730   3.258
 9968SOL    HW130803   3.167   3.710   3.250
 9968SOL    HW230804   3.056   3.829   3.264
 9969SOL     OW30805   1.421   3.389   1.298
 9969SOL    HW130806   1.358   3.391   1.376
 9969SOL    HW230807   1.426   3.296   1.263
 9970SOL     OW30808   6.144   4.385   1.663
 9970SOL    HW130809   6.105   4.469   1.701
 9970SOL    HW230810   6.177   4.327   1.738
 9971SOL     OW30811   2.759   0.045   6.715
 9971SOL    HW130812   2.774   0.124   6.655
 9971SOL    HW230813   2.760   6.990   6.660
 9972SOL     OW30814   6.391   5.116   1.131
 9972SOL    HW130815   6.464   5.085   1.192
 9972SOL    HW230816   6.430   5.173   1.059
 9973SOL     OW30817   5.442   0.132   3.489
 9973SOL    HW130818   5.452   0.032   3.490
 9973SOL    HW230819   5.407   0.160   3.400
 9974SOL     OW30820   2.464   0.031   4.416
 9974SOL    HW130821   2.469   6.970   4.462
 9974SOL    HW230822   2.485   0.103   4.482
 9975SOL     OW30823   6.906   4.299   0.769
 9975SOL    HW130824   6.958   4.227   0.723
 9975SOL    HW230825   6.811   4.271   0.779
 9976SOL     OW30826   2.938   6.580   5.246
 9976SOL    HW130827   2.953   6.487   5.212
 9976SOL    HW230828   2.884   6.576   5.330
 9977SOL     OW30829   6.432   4.217   3.549
 9977SOL    HW130830   6.480   4.136   3.516
 9977SOL    HW230831   6.439   4.291   3.482
 9978SOL     OW30832   0.234   2.355   4.987
 9978SOL    HW130833   0.195   2.303   5.063
 9978SOL    HW230834   0.195   2.447   4.987
 9979SOL     OW30835   0.686   3.835   4.802
 9979SOL    HW130836   0.770   3.817   4.853
 9979SOL    HW230837   0.660   3.931   4.813
 9980SOL     OW30838   2.697   6.330   5.670
 9980SOL    HW130839   2.622   6.336   5.736
 9980SOL    HW230840   2.784   6.343   5.718
 9981SOL     OW30841   4.133   1.954   4.141
 9981SOL    HW130842   4.125   2.054   4.137
 9981SOL    HW230843   4.206   1.924   4.078
 9982SOL     OW30844   6.537   6.323   3.040
 9982SOL    HW130845   6.626   6.352   3.077
 9982SOL    HW230846   6.471   6.397   3.051
 9983SOL     OW30847   6.265   1.123   0.907
 9983SOL    HW130848   6.334   1.179   0.862
 9983SOL    HW230849   6.204   1.181   0.960
 9984SOL     OW30850   2.967   0.988   6.366
 9984SOL    HW130851   2.889   0.969   6.308
 9984SOL    HW230852   2.938   1.045   6.443
 9985SOL     OW30853   2.183   1.709   1.642
 9985SOL    HW130854   2.267   1.669   1.605
 9985SOL    HW230855   2.191   1.718   1.742
 9986SOL     OW30856   4.917   4.269   4.924
 9986SOL    HW130857   4.994   4.282   4.986
 9986SOL    HW230858   4.935   4.191   4.864
 9987SOL     OW30859   0.306   4.333   5.662
 9987SOL    HW130860   0.389   4.388   5.676
 9987SOL    HW230861   0.242   4.384   5.605
 9988SOL     OW30862   6.685   0.447   4.405
 9988SOL    HW130863   6.748   0.426   4.330
 9988SOL    HW230864   6.728   0.513   4.467
 9989SOL     OW30865   1.335   3.102   4.662
 9989SOL    HW130866   1.241   3.111   4.693
 9989SOL    HW230867   1.393   3.166   4.712
 9990SOL     OW30868   1.400   5.147   1.725
 9990SOL    HW130869   1.438   5.117   1.637
 9990SOL    HW230870   1.474   5.163   1.789
 9991SOL     OW30871   4.220   1.904   3.223
 9991SOL    HW130872   4.124   1.917   3.197
 9991SOL    HW230873   4.276   1.892   3.141
 9992SOL     OW30874   6.472   5.514   6.214
 9992SOL    HW130875   6.429   5.523   6.125
 9992SOL    HW230876   6.403   5.492   6.283
 9993SOL     OW30877   1.227   0.584   1.952
 9993SOL    HW130878   1.168   0.665   1.954
 9993SOL    HW230879   1.171   0.502   1.948
 9994SOL     OW30880   6.297   4.946   3.226
 9994SOL    HW130881   6.359   4.870   3.208
 9994SOL    HW230882   6.336   5.003   3.299
 9995SOL     OW30883   5.091   1.415   4.904
 9995SOL    HW130884   5.147   1.378   4.830
 9995SOL    HW230885   5.062   1.507   4.880
 9996SOL     OW30886   2.482   3.058   7.022
 9996SOL    HW130887   2.543   3.126   6.981
 9996SOL    HW230888   2.446   3.093   0.081
 9997SOL     OW30889   2.013   0.295   4.194
 9997SOL    HW130890   2.002   0.314   4.096
 9997SOL    HW230891   2.010   0.382   4.244
 9998SOL     OW30892   5.823   5.934   4.862
 9998SOL    HW130893   5.855   6.029   4.861
 9998SOL    HW230894   5.769   5.918   4.945
 9999SOL     OW30895   0.019   0.804   5.202
 9999SOL    HW130896   7.015   0.837   5.113
 9999SOL    HW230897   0.104   0.853   5.226
10000SOL     OW30898   6.788   4.624   0.406
10000SOL    HW130899   6.811   4.580   0.319
10000SOL    HW230900   6.791   4.724   0.394
10001SOL     OW30901   3.709   6.764   3.424
10001SOL    HW130902   3.685   6.696   3.354
10001SOL    HW230903   3.797   6.805   3.401
10002SOL     OW30904   1.689   2.020   1.763
10002SOL    HW130905   1.788   2.007   1.770
10002SOL    HW230906   1.644   1.971   1.837
10003SOL     OW30907   4.866   3.375   2.834
10003SOL    HW130908   4.940   3.400   2.897
10003SOL    HW230909   4.790   3.335   2.886
10004SOL     OW30910   6.828   2.985   3.777
10004SOL    HW130911   6.742   3.026   3.747
10004SOL    HW230912   6.873   3.047   3.841
10005SOL     OW30913   4.835   0.173   3.986
10005SOL    HW130914   4.767   0.124   4.039
10005SOL    HW230915   4.806   0.268   3.975
10006SOL     OW30916   4.738   1.682   4.205
10006SOL    HW130917   4.740   1.591   4.164
10006SOL    HW230918   4.832   1.713   4.221
10007SOL     OW30919   6.058   4.472   4.155
10007SOL    HW130920   5.965   4.436   4.160
10007SOL    HW230921   6.055   4.572   4.162
10008SOL     OW30922   3.312   0.154   3.822
10008SOL    HW130923   3.218   0.159   3.789
10008SOL    HW230924   3.374   0.149   3.744
10009SOL     OW30925   2.452   4.409   1.180
10009SOL    HW130926   2.364   4.447   1.152
10009SOL    HW230927   2.440   4.357   1.264
10010SOL     OW30928   5.813   0.846   6.451
10010SOL    HW130929   5.757   0.763   6.453
10010SOL    HW230930   5.863   0.855   6.537
10011SOL     OW30931   6.886   6.506   3.601
10011SOL    HW130932   6.960   6.573   3.597
10011SOL    HW230933   6.802   6.551   3.631
10012SOL     OW30934   5.829   0.291   4.403
10012SOL    HW130935   5.802   0.266   4.310
10012SOL    HW230936   5.895   0.366   4.399
10013SOL     OW30937   1.494   0.771   2.176
10013SOL    HW130938   1.517   0.715   2.096
10013SOL    HW230939   1.532   0.862   2.164
10014SOL     OW30940   1.665   4.845   5.625
10014SOL    HW130941   1.717   4.764   5.597
10014SOL    HW230942   1.615   4.825   5.709
10015SOL     OW30943   2.327   5.900   6.408
10015SOL    HW130944   2.241   5.862   6.440
10015SOL    HW230945   2.354   5.856   6.323
10016SOL     OW30946   2.131   1.290   5.038
10016SOL    HW130947   2.135   1.389   5.052
10016SOL    HW230948   2.209   1.261   4.983
10017SOL     OW30949   0.183   1.870   3.343
10017SOL    HW130950   0.174   1.937   3.269
10017SOL    HW230951   0.252   1.802   3.319
10018SOL     OW30952   4.909   6.635   5.958
10018SOL    HW130953   4.874   6.542   5.972
10018SOL    HW230954   4.953   6.641   5.868
10019SOL     OW30955   1.142   0.919   2.680
10019SOL    HW130956   1.199   0.941   2.759
10019SOL    HW230957   1.050   0.955   2.695
10020SOL     OW30958   0.101   2.795   0.146
10020SOL    HW130959   0.178   2.775   0.206
10020SOL    HW230960   0.047   2.711   0.132
10021SOL     OW30961   4.983   3.006   1.327
10021SOL    HW130962   4.926   2.925   1.342
10021SOL    HW230963   4.966   3.073   1.400
10022SOL     OW30964   1.822   0.949   6.060
10022SOL    HW130965   1.802   1.036   6.014
10022SOL    HW230966   1.918   0.924   6.043
10023SOL     OW30967   0.595   3.374   1.103
10023SOL    HW130968   0.652   3.372   1.021
10023SOL    HW230969   0.541   3.459   1.104
10024SOL     OW30970   1.093   3.760   3.120
10024SOL    HW130971   1.031   3.770   3.197
10024SOL    HW230972   1.091   3.843   3.064
10025SOL     OW30973   0.644   1.113   0.910
10025SOL    HW130974   0.720   1.100   0.847
10025SOL    HW230975   0.558   1.091   0.864
10026SOL     OW30976   6.778   0.798   4.658
10026SOL    HW130977   6.681   0.780   4.642
10026SOL    HW230978   6.832   0.724   4.619
10027SOL     OW30979   6.033   3.059   5.764
10027SOL    HW130980   6.101   3.060   5.691
10027SOL    HW230981   5.947   3.022   5.728
10028SOL     OW30982   1.947   0.988   1.984
10028SOL    HW130983   1.926   1.069   2.039
10028SOL    HW230984   1.971   0.912   2.044
10029SOL     OW30985   3.575   1.297   3.884
10029SOL    HW130986   3.568   1.277   3.982
10029SOL    HW230987   3.647   1.241   3.843
10030SOL     OW30988   1.516   1.204   2.884
10030SOL    HW130989   1.584   1.132   2.876
10030SOL    HW230990   1.497   1.243   2.794
10031SOL     OW30991   6.340   4.735   3.757
10031SOL    HW130992   6.319   4.729   3.659
10031SOL    HW230993   6.332   4.645   3.799
10032SOL     OW30994   4.012   1.744   5.210
10032SOL    HW130995   4.017   1.716   5.114
10032SOL    HW230996   3.966   1.832   5.217
10033SOL     OW30997   5.535   3.342   3.930
10033SOL    HW130998   5.546   3.424   3.875
10033SOL    HW230999   5.528   3.368   4.027
10034SOL     OW31000   4.182   6.794   5.956
10034SOL    HW131001   4.178   6.787   5.857
10034SOL    HW231002   4.136   6.714   5.997
10035SOL     OW31003   0.892   6.786   3.879
10035SOL    HW131004   0.918   6.818   3.970
10035SOL    HW231005   0.812   6.726   3.887
10036SOL     OW31006   6.324   0.532   0.204
10036SOL    HW131007   6.401   0.540   0.141
10036SOL    HW231008   6.346   0.466   0.276
10037SOL     OW31009   0.127   6.831   1.319
10037SOL    HW131010   0.085   6.909   1.365
10037SOL    HW231011   0.149   6.761   1.386
10038SOL     OW31012   6.208   6.958   1.356
10038SOL    HW131013   6.207   6.934   1.259
10038SOL    HW231014   6.286   7.017   1.376
10039SOL     OW31015   4.247   0.620   2.717
10039SOL    HW131016   4.272   0.524   2.711
10039SOL    HW231017   4.329   0.677   2.708
10040SOL     OW31018   0.726   2.249   0.747
10040SOL    HW131019   0.812   2.279   0.708
10040SOL    HW231020   0.740   2.226   0.843
10041SOL     OW31021   1.348   6.726   0.574
10041SOL    HW131022   1.280   6.675   0.521
10041SOL    HW231023   1.305   6.806   0.615
10042SOL     OW31024   5.876   2.003   3.390
10042SOL    HW131025   5.807   1.952   3.339
10042SOL    HW231026   5.837   2.090   3.420
10043SOL     OW31027   1.751   2.631   5.550
10043SOL    HW131028   1.772   2.724   5.519
10043SOL    HW231029   1.656   2.610   5.528
10044SOL     OW31030   4.881   0.919   6.623
10044SOL    HW131031   4.890   0.959   6.714
10044SOL    HW231032   4.972   0.905   6.584
10045SOL     OW31033   2.051   1.235   1.171
10045SOL    HW131034   2.116   1.200   1.238
10045SOL    HW231035   2.027   1.163   1.106
10046SOL     OW31036   0.583   5.636   0.877
10046SOL    HW131037   0.586   5.584   0.962
10046SOL    HW231038   0.621   5.727   0.893
10047SOL     OW31039   1.580   3.318   0.722
10047SOL    HW131040   1.492   3.276   0.743
10047SOL    HW231041   1.618   3.360   0.804
10048SOL     OW31042   5.760   3.745   1.962
10048SOL    HW131043   5.696   3.813   1.998
10048SOL    HW231044   5.722   3.653   1.973
10049SOL     OW31045   6.302   1.311   5.068
10049SOL    HW131046   6.324   1.317   5.165
10049SOL    HW231047   6.248   1.390   5.041
10050SOL     OW31048   6.586   2.225   6.327
10050SOL    HW131049   6.625   2.185   6.244
10050SOL    HW231050   6.659   2.253   6.389
10051SOL     OW31051   2.054   1.426   3.715
10051SOL    HW131052   1.994   1.370   3.773
10051SOL    HW231053   2.100   1.495   3.771
10052SOL     OW31054   0.929   0.529   3.799
10052SOL    HW131055   0.985   0.446   3.792
10052SOL    HW231056   0.950   0.577   3.884
10053SOL     OW31057   6.099   5.350   2.789
10053SOL    HW131058   6.198   5.342   2.778
10053SOL    HW231059   6.072   5.310   2.877
10054SOL     OW31060   6.333   3.865   3.814
10054SOL    HW131061   6.287   3.787   3.773
10054SOL    HW231062   6.305   3.949   3.767
10055SOL     OW31063   1.923   1.863   6.955
10055SOL    HW131064   1.888   1.941   6.902
10055SOL    HW231065   1.953   1.791   6.892
10056SOL     OW31066   5.382   2.045   4.125
10056SOL    HW131067   5.347   1.975   4.063
10056SOL    HW231068   5.472   2.074   4.094
10057SOL     OW31069   6.079   4.447   5.378
10057SOL    HW131070   6.062   4.423   5.474
10057SOL    HW231071   6.144   4.383   5.338
10058SOL     OW31072   6.541   4.042   3.902
10058SOL    HW131073   6.476   3.968   3.888
10058SOL    HW231074   6.633   4.010   3.882
10059SOL     OW31075   4.780   5.874   6.344
10059SOL    HW131076   4.837   5.792   6.342
10059SOL    HW231077   4.797   5.924   6.429
10060SOL     OW31078   2.866   2.022   2.247
10060SOL    HW131079   2.926   1.948   2.218
10060SOL    HW231080   2.892   2.051   2.339
10061SOL     OW31081   3.790   6.526   3.259
10061SOL    HW131082   3.822   6.476   3.179
10061SOL    HW231083   3.693   6.546   3.249
10062SOL     OW31084   6.722   6.952   4.480
10062SOL    HW131085   6.693   6.963   4.575
10062SOL    HW231086   6.675   6.874   4.438
10063SOL     OW31087   3.620   2.108   4.560
10063SOL    HW131088   3.707   2.079   4.598
10063SOL    HW231089   3.559   2.028   4.555
10064SOL     OW31090   3.329   6.491   2.270
10064SOL    HW131091   3.346   6.552   2.192
10064SOL    HW231092   3.368   6.531   2.353
10065SOL     OW31093   7.010   1.880   2.044
10065SOL    HW131094   6.989   1.859   1.949
10065SOL    HW231095   6.938   1.844   2.103
10066SOL     OW31096   6.536   3.850   3.583
10066SOL    HW131097   6.625   3.806   3.599
10066SOL    HW231098   6.479   3.840   3.665
10067SOL     OW31099   5.446   3.582   5.172
10067SOL    HW131100   5.414   3.577   5.266
10067SOL    HW231101   5.456   3.490   5.134
10068SOL     OW31102   2.017   3.289   2.517
10068SOL    HW131103   2.070   3.285   2.432
10068SOL    HW231104   1.920   3.273   2.496
10069SOL     OW31105   2.865   5.215   1.890
10069SOL    HW131106   2.817   5.198   1.804
10069SOL    HW231107   2.872   5.130   1.942
10070SOL     OW31108   4.667   6.879   0.395
10070SOL    HW131109   4.670   6.974   0.427
10070SOL    HW231110   4.745   6.828   0.433
10071SOL     OW31111   5.368   0.798   5.440
10071SOL    HW131112   5.370   0.726   5.509
10071SOL    HW231113   5.285   0.853   5.451
10072SOL     OW31114   5.788   3.092   2.368
10072SOL    HW131115   5.723   3.099   2.444
10072SOL    HW231116   5.745   3.045   2.291
10073SOL     OW31117   5.543   6.174   5.234
10073SOL    HW131118   5.534   6.140   5.328
10073SOL    HW231119   5.578   6.101   5.176
10074SOL     OW31120   1.856   4.397   0.937
10074SOL    HW131121   1.882   4.454   1.016
10074SOL    HW231122   1.776   4.437   0.893
10075SOL     OW31123   1.237   3.270   2.183
10075SOL    HW131124   1.256   3.271   2.281
10075SOL    HW231125   1.164   3.336   2.163
10076SOL     OW31126   5.820   4.283   3.067
10076SOL    HW131127   5.814   4.345   3.146
10076SOL    HW231128   5.882   4.207   3.088
10077SOL     OW31129   4.110   3.603   6.500
10077SOL    HW131130   4.179   3.538   6.533
10077SOL    HW231131   4.114   3.687   6.554
10078SOL     OW31132   5.696   5.430   4.014
10078SOL    HW131133   5.737   5.461   4.100
10078SOL    HW231134   5.731   5.487   3.939
10079SOL     OW31135   5.405   4.883   2.873
10079SOL    HW131136   5.472   4.860   2.802
10079SOL    HW231137   5.339   4.949   2.835
10080SOL     OW31138   5.532   2.405   5.566
10080SOL    HW131139   5.609   2.443   5.515
10080SOL    HW231140   5.493   2.475   5.626
10081SOL     OW31141   1.615   4.943   0.580
10081SOL    HW131142   1.671   4.986   0.651
10081SOL    HW231143   1.614   5.001   0.499
10082SOL     OW31144   1.006   5.148   1.689
10082SOL    HW131145   1.077   5.097   1.640
10082SOL    HW231146   1.014   5.130   1.787
10083SOL     OW31147   2.886   6.212   2.530
10083SOL    HW131148   2.809   6.208   2.594
10083SOL    HW231149   2.853   6.195   2.438
10084SOL     OW31150   1.664   3.161   5.193
10084SOL    HW131151   1.604   3.172   5.114
10084SOL    HW231152   1.695   3.066   5.199
10085SOL     OW31153   3.678   7.027   1.643
10085SOL    HW131154   3.737   0.051   1.705
10085SOL    HW231155   3.726   7.011   1.557
10086SOL     OW31156   3.185   0.422   2.781
10086SOL    HW131157   3.143   0.506   2.746
10086SOL    HW231158   3.282   0.419   2.755
10087SOL     OW31159   2.204   5.011   6.034
10087SOL    HW131160   2.218   4.961   5.948
10087SOL    HW231161   2.213   4.948   6.111
10088SOL     OW31162   6.534   1.695   1.050
10088SOL    HW131163   6.489   1.757   0.986
10088SOL    HW231164   6.469   1.667   1.120
10089SOL     OW31165   3.898   6.780   1.922
10089SOL    HW131166   3.911   6.833   1.839
10089SOL    HW231167   3.898   6.841   2.001
10090SOL     OW31168   2.829   5.467   2.009
10090SOL    HW131169   2.907   5.526   1.987
10090SOL    HW231170   2.836   5.381   1.959
10091SOL     OW31171   5.532   5.076   3.071
10091SOL    HW131172   5.579   4.988   3.075
10091SOL    HW231173   5.495   5.099   3.161
10092SOL     OW31174   0.343   1.082   2.648
10092SOL    HW131175   0.414   1.069   2.579
10092SOL    HW231176   0.364   1.164   2.701
10093SOL     OW31177   4.659   3.896   6.160
10093SOL    HW131178   4.684   3.962   6.090
10093SOL    HW231179   4.579   3.929   6.210
10094SOL     OW31180   3.453   2.459   0.591
10094SOL    HW131181   3.516   2.418   0.526
10094SOL    HW231182   3.499   2.533   0.640
10095SOL     OW31183   4.307   2.609   5.370
10095SOL    HW131184   4.285   2.615   5.272
10095SOL    HW231185   4.341   2.697   5.401
10096SOL     OW31186   6.580   4.802   2.001
10096SOL    HW131187   6.594   4.703   1.995
10096SOL    HW231188   6.509   4.829   1.936
10097SOL     OW31189   1.167   1.273   1.293
10097SOL    HW131190   1.123   1.263   1.382
10097SOL    HW231191   1.265   1.286   1.305
10098SOL     OW31192   3.948   5.400   0.001
10098SOL    HW131193   3.868   5.343   0.018
10098SOL    HW231194   3.980   5.440   0.087
10099SOL     OW31195   6.899   6.221   3.311
10099SOL    HW131196   6.944   6.295   3.260
10099SOL    HW231197   6.948   6.205   3.396
10100SOL     OW31198   5.015   5.161   3.744
10100SOL    HW131199   4.934   5.108   3.770
10100SOL    HW231200   5.079   5.162   3.821
10101SOL     OW31201   0.053   2.457   0.067
10101SOL    HW131202   6.988   2.491   0.053
10101SOL    HW231203   0.072   2.383   0.003
10102SOL     OW31204   6.931   4.860   2.815
10102SOL    HW131205   6.956   4.782   2.872
10102SOL    HW231206   6.998   4.934   2.827
10103SOL     OW31207   6.848   0.278   6.954
10103SOL    HW131208   6.929   0.307   7.006
10103SOL    HW231209   6.868   0.284   6.856
10104SOL     OW31210   2.370   1.251   4.792
10104SOL    HW131211   2.338   1.261   4.698
10104SOL    HW231212   2.466   1.225   4.793
10105SOL     OW31213   2.887   1.399   4.356
10105SOL    HW131214   2.853   1.490   4.334
10105SOL    HW231215   2.870   1.337   4.279
10106SOL     OW31216   5.705   3.965   0.978
10106SOL    HW131217   5.631   3.900   0.993
10106SOL    HW231218   5.792   3.916   0.975
10107SOL     OW31219   5.373   5.802   6.190
10107SOL    HW131220   5.352   5.893   6.154
10107SOL    HW231221   5.459   5.806   6.241
10108SOL     OW31222   2.524   2.206   4.955
10108SOL    HW131223   2.480   2.287   4.916
10108SOL    HW231224   2.527   2.214   5.054
10109SOL     OW31225   0.990   2.886   1.192
10109SOL    HW131226   1.052   2.886   1.113
10109SOL    HW231227   1.037   2.928   1.270
10110SOL     OW31228   6.215   6.558   2.200
10110SOL    HW131229   6.269   6.474   2.194
10110SOL    HW231230   6.143   6.546   2.269
10111SOL     OW31231   0.139   3.066   1.662
10111SOL    HW131232   0.045   3.098   1.649
10111SOL    HW231233   0.184   3.057   1.573
10112SOL     OW31234   6.845   2.936   4.283
10112SOL    HW131235   6.929   2.955   4.333
10112SOL    HW231236   6.838   2.838   4.265
10113SOL     OW31237   6.933   6.112   6.515
10113SOL    HW131238   6.862   6.046   6.538
10113SOL    HW231239   7.021   6.065   6.507
10114SOL     OW31240   5.200   4.027   1.500
10114SOL    HW131241   5.167   4.019   1.406
10114SOL    HW231242   5.170   4.114   1.539
10115SOL     OW31243   3.668   1.870   6.329
10115SOL    HW131244   3.678   1.936   6.403
10115SOL    HW231245   3.594   1.899   6.268
10116SOL     OW31246   0.281   0.068   6.516
10116SOL    HW131247   0.357   0.006   6.538
10116SOL    HW231248   0.247   0.111   6.600
10117SOL     OW31249   0.465   4.318   1.629
10117SOL    HW131250   0.457   4.378   1.549
10117SOL    HW231251   0.378   4.272   1.644
10118SOL     OW31252   4.034   5.244   3.679
10118SOL    HW131253   4.039   5.197   3.591
10118SOL    HW231254   3.990   5.333   3.667
10119SOL     OW31255   5.928   6.157   6.912
10119SOL    HW131256   5.900   6.083   6.972
10119SOL    HW231257   5.908   6.245   6.955
10120SOL     OW31258   2.566   2.350   3.043
10120SOL    HW131259   2.617   2.371   3.126
10120SOL    HW231260   2.631   2.332   2.968
10121SOL     OW31261   6.544   5.715   1.510
10121SOL    HW131262   6.466   5.669   1.553
10121SOL    HW231263   6.591   5.651   1.449
10122SOL     OW31264   1.789   0.280   3.202
10122SOL    HW131265   1.781   0.232   3.115
10122SOL    HW231266   1.765   0.217   3.276
10123SOL     OW31267   6.201   6.104   6.827
10123SOL    HW131268   6.243   6.041   6.892
10123SOL    HW231269   6.121   6.147   6.868
10124SOL     OW31270   1.247   4.319   3.150
10124SOL    HW131271   1.224   4.403   3.101
10124SOL    HW231272   1.238   4.334   3.248
10125SOL     OW31273   1.986   1.728   4.677
10125SOL    HW131274   2.054   1.745   4.607
10125SOL    HW231275   2.020   1.659   4.741
10126SOL     OW31276   6.739   5.974   4.299
10126SOL    HW131277   6.677   5.988   4.221
10126SOL    HW231278   6.812   6.041   4.295
10127SOL     OW31279   2.273   0.805   4.989
10127SOL    HW131280   2.175   0.801   4.969
10127SOL    HW231281   2.317   0.723   4.955
10128SOL     OW31282   3.210   1.247   0.384
10128SOL    HW131283   3.217   1.276   0.479
10128SOL    HW231284   3.118   1.211   0.366
10129SOL     OW31285   6.647   2.268   5.641
10129SOL    HW131286   6.566   2.213   5.623
10129SOL    HW231287   6.675   2.315   5.556
10130SOL     OW31288   1.272   2.472   3.317
10130SOL    HW131289   1.349   2.496   3.258
10130SOL    HW231290   1.288   2.508   3.409
10131SOL     OW31291   2.025   0.763   5.248
10131SOL    HW131292   1.956   0.741   5.316
10131SOL    HW231293   2.114   0.727   5.278
10132SOL     OW31294   5.956   0.624   2.068
10132SOL    HW131295   6.025   0.676   2.017
10132SOL    HW231296   5.921   0.680   2.143
10133SOL     OW31297   4.408   5.119   0.795
10133SOL    HW131298   4.359   5.196   0.837
10133SOL    HW231299   4.458   5.069   0.866
10134SOL     OW31300   6.366   0.139   3.223
10134SOL    HW131301   6.457   0.112   3.189
10134SOL    HW231302   6.368   0.235   3.249
10135SOL     OW31303   6.075   6.646   3.524
10135SOL    HW131304   5.976   6.654   3.512
10135SOL    HW231305   6.109   6.724   3.576
10136SOL     OW31306   4.716   0.727   2.764
10136SOL    HW131307   4.770   0.782   2.700
10136SOL    HW231308   4.775   0.695   2.838
10137SOL     OW31309   6.617   5.612   3.207
10137SOL    HW131310   6.528   5.566   3.217
10137SOL    HW231311   6.622   5.688   3.273
10138SOL     OW31312   0.223   1.693   2.140
10138SOL    HW131313   0.217   1.597   2.166
10138SOL    HW231314   0.137   1.739   2.160
10139SOL     OW31315   3.535   2.666   0.768
10139SOL    HW131316   3.570   2.681   0.861
10139SOL    HW231317   3.448   2.713   0.757
10140SOL     OW31318   6.041   6.559   4.431
10140SOL    HW131319   6.013   6.474   4.387
10140SOL    HW231320   5.984   6.576   4.511
10141SOL     OW31321   1.094   2.158   4.611
10141SOL    HW131322   1.188   2.130   4.592
10141SOL    HW231323   1.030   2.102   4.558
10142SOL     OW31324   4.198   6.252   1.836
10142SOL    HW131325   4.268   6.204   1.783
10142SOL    HW231326   4.107   6.231   1.798
10143SOL     OW31327   6.412   3.334   6.719
10143SOL    HW131328   6.416   3.234   6.713
10143SOL    HW231329   6.376   3.360   6.809
10144SOL     OW31330   4.042   0.950   1.344
10144SOL    HW131331   4.130   0.929   1.303
10144SOL    HW231332   3.969   0.910   1.289
10145SOL     OW31333   6.646   0.222   5.358
10145SOL    HW131334   6.557   0.207   5.401
10145SOL    HW231335   6.656   0.318   5.334
10146SOL     OW31336   1.838   1.705   5.331
10146SOL    HW131337   1.805   1.777   5.271
10146SOL    HW231338   1.769   1.685   5.401
10147SOL     OW31339   3.442   5.004   0.649
10147SOL    HW131340   3.512   5.013   0.577
10147SOL    HW231341   3.438   5.088   0.703
10148SOL     OW31342   0.117   5.415   6.295
10148SOL    HW131343   0.093   5.453   6.385
10148SOL    HW231344   0.187   5.345   6.307
10149SOL     OW31345   2.912   3.664   3.730
10149SOL    HW131346   2.918   3.564   3.726
10149SOL    HW231347   2.965   3.703   3.654
10150SOL     OW31348   5.618   4.581   0.394
10150SOL    HW131349   5.659   4.647   0.331
10150SOL    HW231350   5.660   4.589   0.484
10151SOL     OW31351   0.432   0.996   0.553
10151SOL    HW131352   0.382   0.967   0.471
10151SOL    HW231353   0.368   1.007   0.629
10152SOL     OW31354   3.305   6.368   3.723
10152SOL    HW131355   3.326   6.276   3.756
10152SOL    HW231356   3.207   6.376   3.705
10153SOL     OW31357   4.974   3.954   1.165
10153SOL    HW131358   4.946   4.044   1.198
10153SOL    HW231359   4.905   3.918   1.103
10154SOL     OW31360   4.765   5.497   5.784
10154SOL    HW131361   4.750   5.592   5.757
10154SOL    HW231362   4.853   5.465   5.748
10155SOL     OW31363   4.623   2.418   4.623
10155SOL    HW131364   4.547   2.436   4.686
10155SOL    HW231365   4.688   2.495   4.628
10156SOL     OW31366   3.401   1.717   6.789
10156SOL    HW131367   3.472   1.689   6.725
10156SOL    HW231368   3.423   1.806   6.827
10157SOL     OW31369   0.928   4.826   1.770
10157SOL    HW131370   0.970   4.878   1.844
10157SOL    HW231371   0.839   4.865   1.748
10158SOL     OW31372   6.169   4.922   6.609
10158SOL    HW131373   6.182   4.824   6.623
10158SOL    HW231374   6.077   4.949   6.639
10159SOL     OW31375   3.907   3.015   1.507
10159SOL    HW131376   3.853   3.100   1.507
10159SOL    HW231377   3.855   2.943   1.552
10160SOL     OW31378   0.103   4.220   2.293
10160SOL    HW131379   0.163   4.241   2.216
10160SOL    HW231380   0.135   4.137   2.338
10161SOL     OW31381   6.447   3.047   0.207
10161SOL    HW131382   6.379   3.046   0.133
10161SOL    HW231383   6.431   3.126   0.266
10162SOL     OW31384   2.497   2.553   2.191
10162SOL    HW131385   2.442   2.631   2.159
10162SOL    HW231386   2.586   2.555   2.147
10163SOL     OW31387   3.724   5.337   4.891
10163SOL    HW131388   3.785   5.271   4.848
10163SOL    HW231389   3.631   5.324   4.856
10164SOL     OW31390   0.290   0.724   3.823
10164SOL    HW131391   0.204   0.727   3.873
10164SOL    HW231392   0.286   0.651   3.754
10165SOL     OW31393   2.167   3.437   3.877
10165SOL    HW131394   2.179   3.536   3.872
10165SOL    HW231395   2.135   3.403   3.788
10166SOL     OW31396   3.042   6.209   3.148
10166SOL    HW131397   3.109   6.206   3.073
10166SOL    HW231398   3.013   6.117   3.170
10167SOL     OW31399   4.096   1.277   6.918
10167SOL    HW131400   4.176   1.268   6.858
10167SOL    HW231401   4.040   1.354   6.886
10168SOL     OW31402   0.766   0.839   6.314
10168SOL    HW131403   0.695   0.859   6.381
10168SOL    HW231404   0.854   0.828   6.361
10169SOL     OW31405   4.447   4.820   2.683
10169SOL    HW131406   4.385   4.744   2.662
10169SOL    HW231407   4.454   4.831   2.782
10170SOL     OW31408   4.844   6.467   6.734
10170SOL    HW131409   4.854   6.442   6.637
10170SOL    HW231410   4.825   6.565   6.741
10171SOL     OW31411   1.440   3.901   3.340
10171SOL    HW131412   1.457   3.969   3.268
10171SOL    HW231413   1.520   3.896   3.400
10172SOL     OW31414   0.681   1.257   3.290
10172SOL    HW131415   0.690   1.165   3.327
10172SOL    HW231416   0.771   1.301   3.285
10173SOL     OW31417   4.612   2.833   5.249
10173SOL    HW131418   4.568   2.836   5.339
10173SOL    HW231419   4.687   2.898   5.245
10174SOL     OW31420   5.032   4.874   1.218
10174SOL    HW131421   4.982   4.867   1.132
10174SOL    HW231422   4.969   4.897   1.291
10175SOL     OW31423   6.576   0.040   3.450
10175SOL    HW131424   6.607   0.035   3.355
10175SOL    HW231425   6.527   6.985   3.474
10176SOL     OW31426   6.727   1.526   5.017
10176SOL    HW131427   6.726   1.431   5.049
10176SOL    HW231428   6.636   1.550   4.984
10177SOL     OW31429   3.039   0.922   4.365
10177SOL    HW131430   3.118   0.866   4.340
10177SOL    HW231431   3.018   0.985   4.291
10178SOL     OW31432   6.941   1.530   2.278
10178SOL    HW131433   6.939   1.630   2.278
10178SOL    HW231434   7.010   1.498   2.213
10179SOL     OW31435   0.320   5.949   0.784
10179SOL    HW131436   0.369   5.987   0.861
10179SOL    HW231437   0.225   5.932   0.810
10180SOL     OW31438   2.441   0.260   6.234
10180SOL    HW131439   2.484   0.301   6.314
10180SOL    HW231440   2.413   0.166   6.256
10181SOL     OW31441   6.840   4.126   2.013
10181SOL    HW131442   6.794   4.045   2.050
10181SOL    HW231443   6.924   4.099   1.966
10182SOL     OW31444   3.662   0.102   6.793
10182SOL    HW131445   3.686   0.008   6.818
10182SOL    HW231446   3.614   0.145   6.869
10183SOL     OW31447   4.024   6.090   5.888
10183SOL    HW131448   3.936   6.085   5.841
10183SOL    HW231449   4.060   5.998   5.902
10184SOL     OW31450   5.027   2.478   4.407
10184SOL    HW131451   5.041   2.385   4.374
10184SOL    HW231452   5.007   2.476   4.505
10185SOL     OW31453   3.039   4.789   2.024
10185SOL    HW131454   2.970   4.718   2.039
10185SOL    HW231455   2.995   4.879   2.030
10186SOL     OW31456   3.396   2.999   1.726
10186SOL    HW131457   3.393   2.920   1.666
10186SOL    HW231458   3.383   2.970   1.821
10187SOL     OW31459   1.833   3.903   5.637
10187SOL    HW131460   1.757   3.842   5.612
10187SOL    HW231461   1.902   3.901   5.565
10188SOL     OW31462   2.264   0.452   6.685
10188SOL    HW131463   2.293   0.370   6.636
10188SOL    HW231464   2.212   0.511   6.623
10189SOL     OW31465   2.074   2.149   5.276
10189SOL    HW131466   2.106   2.064   5.235
10189SOL    HW231467   1.985   2.173   5.236
10190SOL     OW31468   3.381   4.083   0.526
10190SOL    HW131469   3.287   4.117   0.535
10190SOL    HW231470   3.392   4.039   0.437
10191SOL     OW31471   5.650   0.667   0.307
10191SOL    HW131472   5.729   0.718   0.272
10191SOL    HW231473   5.566   0.715   0.283
10192SOL     OW31474   2.466   0.383   4.224
10192SOL    HW131475   2.501   0.325   4.297
10192SOL    HW231476   2.399   0.447   4.261
10193SOL     OW31477   4.131   3.630   3.770
10193SOL    HW131478   4.138   3.531   3.781
10193SOL    HW231479   4.132   3.674   3.860
10194SOL     OW31480   2.887   5.754   3.454
10194SOL    HW131481   2.985   5.732   3.451
10194SOL    HW231482   2.835   5.682   3.409
10195SOL     OW31483   5.264   0.243   2.494
10195SOL    HW131484   5.347   0.276   2.538
10195SOL    HW231485   5.250   0.147   2.518
10196SOL     OW31486   4.573   4.564   3.768
10196SOL    HW131487   4.558   4.489   3.832
10196SOL    HW231488   4.515   4.642   3.793
10197SOL     OW31489   5.141   1.647   2.822
10197SOL    HW131490   5.125   1.595   2.906
10197SOL    HW231491   5.217   1.711   2.837
10198SOL     OW31492   3.385   1.924   1.842
10198SOL    HW131493   3.418   1.864   1.769
10198SOL    HW231494   3.304   1.883   1.884
10199SOL     OW31495   1.356   2.002   6.979
10199SOL    HW131496   1.264   2.006   7.019
10199SOL    HW231497   1.368   2.080   6.917
10200SOL     OW31498   5.993   0.040   3.687
10200SOL    HW131499   5.965   0.122   3.736
10200SOL    HW231500   6.088   0.018   3.710
10201SOL     OW31501   1.344   4.970   2.882
10201SOL    HW131502   1.251   4.935   2.886
10201SOL    HW231503   1.355   5.026   2.799
10202SOL     OW31504   1.091   2.284   3.120
10202SOL    HW131505   1.065   2.335   3.038
10202SOL    HW231506   1.155   2.338   3.174
10203SOL     OW31507   0.035   2.393   0.771
10203SOL    HW131508   6.981   2.387   0.713
10203SOL    HW231509   0.052   2.304   0.813
10204SOL     OW31510   1.884   6.242   4.366
10204SOL    HW131511   1.960   6.180   4.349
10204SOL    HW231512   1.901   6.330   4.321
10205SOL     OW31513   3.147   0.005   1.030
10205SOL    HW131514   3.138   0.076   1.100
10205SOL    HW231515   3.192   6.953   1.070
10206SOL     OW31516   5.985   6.363   0.079
10206SOL    HW131517   6.052   6.413   0.024
10206SOL    HW231518   6.031   6.321   0.158
10207SOL     OW31519   3.466   1.234   2.483
10207SOL    HW131520   3.403   1.311   2.496
10207SOL    HW231521   3.460   1.173   2.563
10208SOL     OW31522   6.867   2.588   6.283
10208SOL    HW131523   6.814   2.629   6.357
10208SOL    HW231524   6.963   2.615   6.293
10209SOL     OW31525   3.889   6.467   6.802
10209SOL    HW131526   3.793   6.438   6.805
10209SOL    HW231527   3.931   6.434   6.718
10210SOL     OW31528   4.585   6.379   6.638
10210SOL    HW131529   4.616   6.436   6.562
10210SOL    HW231530   4.584   6.432   6.722
10211SOL     OW31531   3.477   5.324   5.301
10211SOL    HW131532   3.399   5.303   5.241
10211SOL    HW231533   3.559   5.338   5.245
10212SOL     OW31534   6.407   6.163   5.657
10212SOL    HW131535   6.501   6.156   5.690
10212SOL    HW231536   6.407   6.175   5.558
10213SOL     OW31537   4.380   7.020   4.465
10213SOL    HW131538   4.473   6.981   4.461
10213SOL    HW231539   4.380   0.082   4.422
10214SOL     OW31540   7.026   0.771   0.356
10214SOL    HW131541   7.018   0.689   0.299
10214SOL    HW231542   6.966   0.842   0.321
10215SOL     OW31543   4.451   2.479   0.401
10215SOL    HW131544   4.374   2.417   0.386
10215SOL    HW231545   4.442   2.521   0.491
10216SOL     OW31546   5.015   0.665   2.507
10216SOL    HW131547   5.022   0.570   2.537
10216SOL    HW231548   4.930   0.677   2.456
10217SOL     OW31549   3.229   2.403   5.870
10217SOL    HW131550   3.257   2.378   5.963
10217SOL    HW231551   3.260   2.333   5.805
10218SOL     OW31552   3.996   0.759   6.494
10218SOL    HW131553   4.018   0.857   6.495
10218SOL    HW231554   3.916   0.741   6.550
10219SOL     OW31555   0.183   4.737   6.954
10219SOL    HW131556   0.170   4.647   6.913
10219SOL    HW231557   0.103   4.760   7.009
10220SOL     OW31558   4.175   2.279   6.715
10220SOL    HW131559   4.185   2.257   6.812
10220SOL    HW231560   4.084   2.251   6.684
10221SOL     OW31561   2.448   0.856   4.176
10221SOL    HW131562   2.431   0.848   4.078
10221SOL    HW231563   2.487   0.770   4.210
10222SOL     OW31564   2.471   4.725   5.364
10222SOL    HW131565   2.430   4.658   5.302
10222SOL    HW231566   2.408   4.803   5.374
10223SOL     OW31567   1.213   4.923   6.102
10223SOL    HW131568   1.249   4.990   6.038
10223SOL    HW231569   1.279   4.909   6.176
10224SOL     OW31570   3.032   5.936   5.605
10224SOL    HW131571   3.122   5.928   5.561
10224SOL    HW231572   2.978   5.854   5.585
10225SOL     OW31573   5.282   6.980   4.480
10225SOL    HW131574   5.349   6.913   4.448
10225SOL    HW231575   5.286   6.985   4.580
10226SOL     OW31576   0.147   2.456   6.446
10226SOL    HW131577   0.217   2.430   6.512
10226SOL    HW231578   0.061   2.473   6.495
10227SOL     OW31579   4.892   4.447   5.323
10227SOL    HW131580   4.988   4.443   5.293
10227SOL    HW231581   4.833   4.418   5.248
10228SOL     OW31582   0.870   2.783   1.635
10228SOL    HW131583   0.859   2.810   1.731
10228SOL    HW231584   0.930   2.848   1.589
10229SOL     OW31585   2.632   1.188   2.123
10229SOL    HW131586   2.731   1.203   2.115
10229SOL    HW231587   2.602   1.124   2.052
10230SOL     OW31588   5.176   6.717   3.290
10230SOL    HW131589   5.142   6.763   3.372
10230SOL    HW231590   5.274   6.698   3.300
10231SOL     OW31591   4.598   5.950   4.461
10231SOL    HW131592   4.628   6.045   4.468
10231SOL    HW231593   4.662   5.891   4.509
10232SOL     OW31594   4.223   2.330   3.017
10232SOL    HW131595   4.216   2.277   3.102
10232SOL    HW231596   4.152   2.301   2.953
10233SOL     OW31597   4.781   6.433   5.670
10233SOL    HW131598   4.753   6.529   5.665
10233SOL    HW231599   4.879   6.427   5.649
10234SOL     OW31600   4.104   4.565   1.171
10234SOL    HW131601   4.022   4.537   1.222
10234SOL    HW231602   4.076   4.605   1.084
10235SOL     OW31603   4.538   0.102   0.017
10235SOL    HW131604   4.484   0.171   0.065
10235SOL    HW231605   4.555   0.133   6.951
10236SOL     OW31606   1.244   5.316   1.263
10236SOL    HW131607   1.178   5.347   1.331
10236SOL    HW231608   1.336   5.320   1.302
10237SOL     OW31609   5.857   2.590   2.992
10237SOL    HW131610   5.774   2.645   2.990
10237SOL    HW231611   5.907   2.609   3.077
10238SOL     OW31612   4.727   5.423   6.315
10238SOL    HW131613   4.794   5.494   6.297
10238SOL    HW231614   4.637   5.453   6.283
10239SOL     OW31615   5.694   3.674   4.383
10239SOL    HW131616   5.766   3.705   4.446
10239SOL    HW231617   5.732   3.605   4.320
10240SOL     OW31618   4.878   3.712   2.925
10240SOL    HW131619   4.874   3.632   2.986
10240SOL    HW231620   4.971   3.748   2.923
10241SOL     OW31621   1.096   2.312   2.694
10241SOL    HW131622   1.145   2.387   2.651
10241SOL    HW231623   1.041   2.347   2.770
10242SOL     OW31624   1.334   5.399   6.722
10242SOL    HW131625   1.419   5.362   6.760
10242SOL    HW231626   1.308   5.345   6.642
10243SOL     OW31627   0.513   5.922   3.440
10243SOL    HW131628   0.439   5.891   3.500
10243SOL    HW231629   0.577   5.847   3.425
10244SOL     OW31630   2.163   6.025   6.719
10244SOL    HW131631   2.222   5.944   6.720
10244SOL    HW231632   2.118   6.032   6.630
10245SOL     OW31633   3.343   2.841   0.675
10245SOL    HW131634   3.291   2.910   0.726
10245SOL    HW231635   3.280   2.780   0.628
10246SOL     OW31636   3.594   4.201   4.868
10246SOL    HW131637   3.542   4.123   4.902
10246SOL    HW231638   3.566   4.284   4.917
10247SOL     OW31639   1.126   6.083   6.236
10247SOL    HW131640   1.104   6.073   6.333
10247SOL    HW231641   1.223   6.064   6.222
10248SOL     OW31642   6.141   0.634   3.563
10248SOL    HW131643   6.078   0.557   3.556
10248SOL    HW231644   6.193   0.628   3.648
10249SOL     OW31645   4.424   0.909   5.989
10249SOL    HW131646   4.486   0.891   6.065
10249SOL    HW231647   4.448   0.996   5.946
10250SOL     OW31648   4.320   5.740   0.998
10250SOL    HW131649   4.320   5.701   0.906
10250SOL    HW231650   4.397   5.802   1.009
10251SOL     OW31651   4.071   4.498   1.609
10251SOL    HW131652   4.089   4.546   1.523
10251SOL    HW231653   4.155   4.452   1.640
10252SOL     OW31654   0.334   3.672   0.963
10252SOL    HW131655   0.301   3.689   1.056
10252SOL    HW231656   0.423   3.626   0.967
10253SOL     OW31657   4.314   4.410   0.199
10253SOL    HW131658   4.322   4.310   0.202
10253SOL    HW231659   4.244   4.436   0.132
10254SOL     OW31660   2.838   1.815   5.169
10254SOL    HW131661   2.748   1.772   5.160
10254SOL    HW231662   2.831   1.912   5.149
10255SOL     OW31663   3.142   4.930   4.044
10255SOL    HW131664   3.098   4.983   4.116
10255SOL    HW231665   3.239   4.918   4.066
10256SOL     OW31666   5.264   6.202   0.385
10256SOL    HW131667   5.216   6.213   0.298
10256SOL    HW231668   5.210   6.144   0.446
10257SOL     OW31669   2.103   4.694   5.653
10257SOL    HW131670   2.013   4.692   5.696
10257SOL    HW231671   2.095   4.733   5.561
10258SOL     OW31672   4.447   1.083   2.431
10258SOL    HW131673   4.408   1.148   2.496
10258SOL    HW231674   4.381   1.010   2.414
10259SOL     OW31675   6.761   3.224   4.295
10259SOL    HW131676   6.855   3.257   4.283
10259SOL    HW231677   6.762   3.124   4.297
10260SOL     OW31678   0.092   5.648   1.934
10260SOL    HW131679   0.085   5.629   1.836
10260SOL    HW231680   0.091   5.563   1.985
10261SOL     OW31681   2.095   0.372   2.102
10261SOL    HW131682   2.133   0.332   2.018
10261SOL    HW231683   2.064   0.298   2.162
10262SOL     OW31684   0.371   6.195   4.202
10262SOL    HW131685   0.355   6.218   4.106
10262SOL    HW231686   0.410   6.274   4.250
10263SOL     OW31687   6.597   2.979   4.633
10263SOL    HW131688   6.644   2.943   4.713
10263SOL    HW231689   6.658   3.043   4.585
10264SOL     OW31690   0.623   0.107   0.507
10264SOL    HW131691   0.543   0.166   0.491
10264SOL    HW231692   0.704   0.164   0.519
10265SOL     OW31693   4.974   2.633   4.194
10265SOL    HW131694   5.028   2.715   4.215
10265SOL    HW231695   4.966   2.576   4.276
10266SOL     OW31696   3.432   3.747   0.033
10266SOL    HW131697   3.502   3.704   0.090
10266SOL    HW231698   3.348   3.694   0.037
10267SOL     OW31699   0.037   0.861   6.498
10267SOL    HW131700   0.131   0.894   6.511
10267SOL    HW231701   0.015   0.861   6.401
10268SOL     OW31702   6.885   3.697   0.287
10268SOL    HW131703   6.955   3.706   0.217
10268SOL    HW231704   6.795   3.706   0.246
10269SOL     OW31705   3.946   1.655   6.125
10269SOL    HW131706   3.998   1.614   6.201
10269SOL    HW231707   4.008   1.699   6.061
10270SOL     OW31708   3.729   5.811   2.812
10270SOL    HW131709   3.660   5.798   2.741
10270SOL    HW231710   3.802   5.871   2.777
10271SOL     OW31711   1.942   4.767   1.483
10271SOL    HW131712   1.992   4.812   1.409
10271SOL    HW231713   1.848   4.802   1.486
10272SOL     OW31714   1.864   2.684   4.081
10272SOL    HW131715   1.773   2.695   4.041
10272SOL    HW231716   1.933   2.717   4.017
10273SOL     OW31717   4.298   6.125   3.378
10273SOL    HW131718   4.221   6.189   3.373
10273SOL    HW231719   4.380   6.175   3.407
10274SOL     OW31720   2.315   4.411   6.591
10274SOL    HW131721   2.331   4.326   6.540
10274SOL    HW231722   2.317   4.391   6.689
10275SOL     OW31723   0.816   5.959   1.842
10275SOL    HW131724   0.766   6.019   1.905
10275SOL    HW231725   0.872   6.014   1.780
10276SOL     OW31726   1.238   6.974   0.578
10276SOL    HW131727   1.278   7.004   0.664
10276SOL    HW231728   1.234   0.023   0.515
10277SOL     OW31729   6.744   6.008   2.244
10277SOL    HW131730   6.792   6.085   2.203
10277SOL    HW231731   6.687   5.963   2.175
10278SOL     OW31732   6.240   1.045   5.327
10278SOL    HW131733   6.278   0.962   5.287
10278SOL    HW231734   6.164   1.077   5.270
10279SOL     OW31735   3.654   6.162   4.312
10279SOL    HW131736   3.637   6.224   4.388
10279SOL    HW231737   3.711   6.208   4.244
10280SOL     OW31738   2.527   2.533   0.140
10280SOL    HW131739   2.430   2.538   0.167
10280SOL    HW231740   2.568   2.452   0.183
10281SOL     OW31741   4.430   1.106   4.257
10281SOL    HW131742   4.458   1.073   4.167
10281SOL    HW231743   4.399   1.028   4.312
10282SOL     OW31744   1.582   3.102   4.194
10282SOL    HW131745   1.593   3.123   4.291
10282SOL    HW231746   1.664   3.131   4.144
10283SOL     OW31747   1.758   5.075   6.090
10283SOL    HW131748   1.694   5.045   6.020
10283SOL    HW231749   1.708   5.112   6.168
10284SOL     OW31750   5.016   2.874   6.878
10284SOL    HW131751   5.070   2.956   6.897
10284SOL    HW231752   4.976   2.840   6.964
10285SOL     OW31753   5.149   1.547   1.367
10285SOL    HW131754   5.167   1.638   1.328
10285SOL    HW231755   5.192   1.542   1.458
10286SOL     OW31756   4.020   0.170   3.809
10286SOL    HW131757   4.115   0.200   3.819
10286SOL    HW231758   4.018   0.072   3.791
10287SOL     OW31759   2.002   4.478   1.936
10287SOL    HW131760   2.048   4.472   1.847
10287SOL    HW231761   2.011   4.571   1.972
10288SOL     OW31762   4.088   6.002   4.083
10288SOL    HW131763   4.000   5.973   4.046
10288SOL    HW231764   4.085   6.100   4.103
10289SOL     OW31765   2.736   1.458   1.446
10289SOL    HW131766   2.719   1.501   1.534
10289SOL    HW231767   2.830   1.476   1.417
10290SOL     OW31768   3.212   3.074   3.670
10290SOL    HW131769   3.280   3.007   3.641
10290SOL    HW231770   3.193   3.064   3.767
10291SOL     OW31771   3.915   0.287   4.061
10291SOL    HW131772   3.984   0.270   4.131
10291SOL    HW231773   3.943   0.244   3.975
10292SOL     OW31774   6.700   2.318   3.930
10292SOL    HW131775   6.730   2.378   3.856
10292SOL    HW231776   6.760   2.330   4.009
10293SOL     OW31777   1.990   4.742   3.036
10293SOL    HW131778   1.986   4.700   3.127
10293SOL    HW231779   2.083   4.733   2.999
10294SOL     OW31780   5.667   0.831   3.230
10294SOL    HW131781   5.703   0.793   3.144
10294SOL    HW231782   5.664   0.759   3.299
10295SOL     OW31783   1.732   3.863   3.867
10295SOL    HW131784   1.786   3.943   3.840
10295SOL    HW231785   1.786   3.780   3.850
10296SOL     OW31786   6.254   3.276   1.465
10296SOL    HW131787   6.216   3.280   1.558
10296SOL    HW231788   6.237   3.363   1.418
10297SOL     OW31789   3.686   5.050   5.142
10297SOL    HW131790   3.624   5.083   5.214
10297SOL    HW231791   3.777   5.091   5.155
10298SOL     OW31792   5.894   3.182   2.820
10298SOL    HW131793   5.933   3.240   2.892
10298SOL    HW231794   5.929   3.212   2.731
10299SOL     OW31795   4.112   4.743   2.287
10299SOL    HW131796   4.056   4.671   2.247
10299SOL    HW231797   4.174   4.704   2.355
10300SOL     OW31798   0.759   6.246   2.209
10300SOL    HW131799   0.842   6.203   2.245
10300SOL    HW231800   0.679   6.211   2.259
10301SOL     OW31801   4.659   0.296   2.204
10301SOL    HW131802   4.701   0.383   2.179
10301SOL    HW231803   4.684   0.226   2.136
10302SOL     OW31804   0.689   3.923   3.586
10302SOL    HW131805   0.607   3.975   3.562
10302SOL    HW231806   0.769   3.965   3.544
10303SOL     OW31807   4.643   3.160   1.240
10303SOL    HW131808   4.720   3.213   1.202
10303SOL    HW231809   4.647   3.067   1.205
10304SOL     OW31810   5.513   5.709   3.265
10304SOL    HW131811   5.572   5.678   3.191
10304SOL    HW231812   5.444   5.772   3.229
10305SOL     OW31813   2.311   5.561   1.450
10305SOL    HW131814   2.396   5.508   1.441
10305SOL    HW231815   2.269   5.542   1.538
10306SOL     OW31816   4.562   4.021   6.885
10306SOL    HW131817   4.564   3.932   6.930
10306SOL    HW231818   4.636   4.026   6.817
10307SOL     OW31819   2.594   1.998   6.004
10307SOL    HW131820   2.584   1.921   6.067
10307SOL    HW231821   2.672   1.982   5.943
10308SOL     OW31822   3.056   5.071   4.273
10308SOL    HW131823   2.983   5.132   4.240
10308SOL    HW231824   3.016   4.986   4.306
10309SOL     OW31825   0.321   6.215   3.921
10309SOL    HW131826   0.271   6.143   3.873
10309SOL    HW231827   0.379   6.264   3.855
10310SOL     OW31828   3.517   4.173   4.589
10310SOL    HW131829   3.573   4.190   4.508
10310SOL    HW231830   3.552   4.226   4.666
10311SOL     OW31831   1.076   0.283   1.159
10311SOL    HW131832   0.976   0.295   1.160
10311SOL    HW231833   1.099   0.208   1.098
10312SOL     OW31834   3.030   4.776   0.610
10312SOL    HW131835   3.028   4.677   0.601
10312SOL    HW231836   3.102   4.813   0.550
10313SOL     OW31837   6.700   5.781   3.898
10313SOL    HW131838   6.620   5.724   3.882
10313SOL    HW231839   6.739   5.760   3.988
10314SOL     OW31840   7.007   5.823   5.412
10314SOL    HW131841   0.009   5.732   5.437
10314SOL    HW231842   0.055   5.875   5.374
10315SOL     OW31843   4.209   6.428   5.726
10315SOL    HW131844   4.141   6.417   5.799
10315SOL    HW231845   4.270   6.504   5.748
10316SOL     OW31846   0.603   3.658   4.066
10316SOL    HW131847   0.580   3.726   4.136
10316SOL    HW231848   0.668   3.592   4.104
10317SOL     OW31849   5.642   4.480   6.458
10317SOL    HW131850   5.659   4.563   6.511
10317SOL    HW231851   5.611   4.504   6.367
10318SOL     OW31852   5.348   4.647   2.750
10318SOL    HW131853   5.280   4.665   2.679
10318SOL    HW231854   5.354   4.726   2.811
10319SOL     OW31855   4.653   6.762   3.526
10319SOL    HW131856   4.682   6.676   3.483
10319SOL    HW231857   4.712   6.837   3.494
10320SOL     OW31858   3.735   6.542   1.885
10320SOL    HW131859   3.808   6.607   1.906
10320SOL    HW231860   3.741   6.515   1.789
10321SOL     OW31861   4.668   6.231   4.619
10321SOL    HW131862   4.685   6.329   4.603
10321SOL    HW231863   4.569   6.216   4.626
10322SOL     OW31864   7.028   1.423   7.015
10322SOL    HW131865   6.933   1.412   0.018
10322SOL    HW231866   0.025   1.520   7.019
10323SOL     OW31867   0.711   2.305   5.032
10323SOL    HW131868   0.708   2.207   5.052
10323SOL    HW231869   0.635   2.330   4.973
10324SOL     OW31870   3.081   3.152   4.240
10324SOL    HW131871   3.094   3.059   4.276
10324SOL    HW231872   3.093   3.218   4.315
10325SOL     OW31873   0.750   3.359   3.641
10325SOL    HW131874   0.819   3.291   3.620
10325SOL    HW231875   0.684   3.321   3.706
10326SOL     OW31876   5.524   1.688   1.571
10326SOL    HW131877   5.487   1.602   1.606
10326SOL    HW231878   5.511   1.760   1.639
10327SOL     OW31879   5.968   1.445   3.668
10327SOL    HW131880   5.921   1.442   3.757
10327SOL    HW231881   6.065   1.424   3.681
10328SOL     OW31882   6.777   3.875   2.114
10328SOL    HW131883   6.805   3.787   2.074
10328SOL    HW231884   6.747   3.860   2.208
10329SOL     OW31885   3.169   5.692   3.403
10329SOL    HW131886   3.232   5.671   3.328
10329SOL    HW231887   3.198   5.644   3.485
10330SOL     OW31888   3.150   3.927   0.769
10330SOL    HW131889   3.186   3.833   0.772
10330SOL    HW231890   3.142   3.963   0.862
10331SOL     OW31891   5.169   1.684   4.507
10331SOL    HW131892   5.262   1.663   4.478
10331SOL    HW231893   5.171   1.730   4.596
10332SOL     OW31894   1.323   2.533   6.761
10332SOL    HW131895   1.392   2.533   6.832
10332SOL    HW231896   1.348   2.467   6.690
10333SOL     OW31897   6.996   4.594   5.309
10333SOL    HW131898   6.932   4.528   5.349
10333SOL    HW231899   6.978   4.685   5.346
10334SOL     OW31900   0.569   4.987   5.286
10334SOL    HW131901   0.591   4.944   5.199
10334SOL    HW231902   0.552   5.085   5.272
10335SOL     OW31903   3.127   5.175   3.336
10335SOL    HW131904   3.099   5.271   3.329
10335SOL    HW231905   3.048   5.119   3.360
10336SOL     OW31906   4.633   6.973   2.996
10336SOL    HW131907   4.651   6.879   3.025
10336SOL    HW231908   4.564   6.973   2.924
10337SOL     OW31909   1.380   3.892   6.355
10337SOL    HW131910   1.397   3.843   6.440
10337SOL    HW231911   1.446   3.968   6.347
10338SOL     OW31912   2.628   4.597   2.512
10338SOL    HW131913   2.726   4.617   2.520
10338SOL    HW231914   2.600   4.607   2.417
10339SOL     OW31915   3.136   5.878   6.946
10339SOL    HW131916   3.102   5.794   6.904
10339SOL    HW231917   3.235   5.871   6.960
10340SOL     OW31918   1.568   6.714   0.847
10340SOL    HW131919   1.604   6.739   0.937
10340SOL    HW231920   1.585   6.616   0.831
10341SOL     OW31921   0.664   3.040   2.256
10341SOL    HW131922   0.722   2.962   2.282
10341SOL    HW231923   0.577   3.007   2.220
10342SOL     OW31924   2.888   5.562   4.191
10342SOL    HW131925   2.956   5.497   4.226
10342SOL    HW231926   2.848   5.526   4.107
10343SOL     OW31927   2.700   2.430   4.749
10343SOL    HW131928   2.754   2.364   4.802
10343SOL    HW231929   2.613   2.448   4.796
10344SOL     OW31930   4.727   3.671   1.439
10344SOL    HW131931   4.670   3.719   1.373
10344SOL    HW231932   4.671   3.605   1.490
10345SOL     OW31933   3.674   1.447   6.375
10345SOL    HW131934   3.582   1.453   6.413
10345SOL    HW231935   3.686   1.517   6.304
10346SOL     OW31936   6.183   5.626   0.123
10346SOL    HW131937   6.196   5.705   0.184
10346SOL    HW231938   6.121   5.651   0.049
10347SOL     OW31939   4.117   0.154   1.955
10347SOL    HW131940   4.127   0.224   1.884
10347SOL    HW231941   4.205   0.108   1.969
10348SOL     OW31942   6.866   3.861   5.557
10348SOL    HW131943   6.940   3.840   5.494
10348SOL    HW231944   6.778   3.849   5.511
10349SOL     OW31945   5.960   1.960   0.297
10349SOL    HW131946   5.863   1.936   0.293
10349SOL    HW231947   5.970   2.060   0.292
10350SOL     OW31948   1.996   4.878   4.164
10350SOL    HW131949   2.064   4.808   4.143
10350SOL    HW231950   1.905   4.845   4.140
10351SOL     OW31951   3.966   5.492   4.926
10351SOL    HW131952   3.943   5.546   4.845
10351SOL    HW231953   3.955   5.394   4.905
10352SOL     OW31954   0.561   0.993   1.441
10352SOL    HW131955   0.642   1.050   1.430
10352SOL    HW231956   0.487   1.029   1.384
10353SOL     OW31957   5.838   2.934   3.473
10353SOL    HW131958   5.779   2.915   3.395
10353SOL    HW231959   5.786   2.925   3.557
10354SOL     OW31960   6.832   3.110   1.624
10354SOL    HW131961   6.897   3.133   1.552
10354SOL    HW231962   6.767   3.042   1.590
10355SOL     OW31963   0.015   2.104   0.604
10355SOL    HW131964   6.970   2.039   0.582
10355SOL    HW231965   0.074   2.064   0.674
10356SOL     OW31966   5.880   2.356   6.894
10356SOL    HW131967   5.908   2.372   6.989
10356SOL    HW231968   5.911   2.266   6.865
10357SOL     OW31969   0.240   0.585   6.483
10357SOL    HW131970   0.280   0.640   6.556
10357SOL    HW231971   0.180   0.516   6.522
10358SOL     OW31972   0.694   2.643   3.991
10358SOL    HW131973   0.752   2.714   4.032
10358SOL    HW231974   0.751   2.580   3.938
10359SOL     OW31975   0.679   2.750   2.464
10359SOL    HW131976   0.774   2.776   2.477
10359SOL    HW231977   0.667   2.654   2.487
10360SOL     OW31978   5.981   4.566   0.689
10360SOL    HW131979   6.014   4.641   0.746
10360SOL    HW231980   6.036   4.561   0.606
10361SOL     OW31981   6.050   2.146   2.899
10361SOL    HW131982   5.977   2.129   2.965
10361SOL    HW231983   6.087   2.059   2.866
10362SOL     OW31984   0.485   6.141   1.312
10362SOL    HW131985   0.454   6.212   1.375
10362SOL    HW231986   0.531   6.068   1.364
10363SOL     OW31987   5.309   5.234   6.109
10363SOL    HW131988   5.342   5.178   6.033
10363SOL    HW231989   5.386   5.281   6.152
10364SOL     OW31990   6.001   5.109   1.842
10364SOL    HW131991   6.065   5.186   1.840
10364SOL    HW231992   6.048   5.029   1.878
10365SOL     OW31993   6.026   5.756   6.980
10365SOL    HW131994   6.033   5.716   6.889
10365SOL    HW231995   5.939   5.804   6.990
10366SOL     OW31996   3.075   0.066   3.177
10366SOL    HW131997   3.025   7.016   3.214
10366SOL    HW231998   3.011   0.138   3.149
10367SOL     OW31999   5.279   6.118   1.867
10367SOL    HW132000   5.334   6.036   1.854
10367SOL    HW232001   5.201   6.116   1.804
10368SOL     OW32002   1.239   5.928   1.435
10368SOL    HW132003   1.182   5.998   1.393
10368SOL    HW232004   1.335   5.958   1.435
10369SOL     OW32005   2.551   0.716   5.810
10369SOL    HW132006   2.523   0.683   5.900
10369SOL    HW232007   2.470   0.726   5.752
10370SOL     OW32008   1.636   2.336   5.859
10370SOL    HW132009   1.599   2.291   5.940
10370SOL    HW232010   1.696   2.411   5.888
10371SOL     OW32011   3.676   5.382   3.344
10371SOL    HW132012   3.720   5.418   3.262
10371SOL    HW232013   3.577   5.384   3.332
10372SOL     OW32014   1.311   6.140   0.869
10372SOL    HW132015   1.405   6.121   0.841
10372SOL    HW232016   1.260   6.054   0.873
10373SOL     OW32017   6.332   0.728   6.335
10373SOL    HW132018   6.357   0.726   6.238
10373SOL    HW232019   6.235   0.750   6.344
10374SOL     OW32020   2.866   4.802   3.154
10374SOL    HW132021   2.848   4.773   3.248
10374SOL    HW232022   2.822   4.738   3.091
10375SOL     OW32023   2.316   5.798   6.735
10375SOL    HW132024   2.325   5.709   6.690
10375SOL    HW232025   2.405   5.828   6.769
10376SOL     OW32026   2.226   5.027   4.072
10376SOL    HW132027   2.284   5.038   4.153
10376SOL    HW232028   2.172   4.943   4.081
10377SOL     OW32029   2.554   0.674   3.782
10377SOL    HW132030   2.478   0.640   3.837
10377SOL    HW232031   2.618   0.599   3.763
10378SOL     OW32032   0.569   6.830   5.735
10378SOL    HW132033   0.633   6.878   5.675
10378SOL    HW232034   0.544   6.889   5.811
10379SOL     OW32035   0.878   6.112   3.681
10379SOL    HW132036   0.938   6.113   3.601
10379SOL    HW232037   0.855   6.206   3.707
10380SOL     OW32038   3.029   1.023   4.005
10380SOL    HW132039   2.979   0.938   3.987
10380SOL    HW232040   3.017   1.086   3.929
10381SOL     OW32041   2.852   0.441   2.618
10381SOL    HW132042   2.855   0.352   2.572
10381SOL    HW232043   2.936   0.492   2.599
10382SOL     OW32044   4.278   5.675   1.954
10382SOL    HW132045   4.322   5.712   1.872
10382SOL    HW232046   4.333   5.599   1.989
10383SOL     OW32047   0.432   0.034   6.920
10383SOL    HW132048   0.448   0.030   7.018
10383SOL    HW232049   0.476   0.116   6.882
10384SOL     OW32050   4.820   5.124   0.713
10384SOL    HW132051   4.826   5.087   0.806
10384SOL    HW232052   4.749   5.194   0.710
10385SOL     OW32053   4.058   4.644   6.746
10385SOL    HW132054   4.124   4.719   6.733
10385SOL    HW232055   3.972   4.682   6.780
10386SOL     OW32056   0.277   0.151   2.173
10386SOL    HW132057   0.272   0.114   2.081
10386SOL    HW232058   0.288   0.251   2.169
10387SOL     OW32059   5.447   1.954   1.446
10387SOL    HW132060   5.434   1.855   1.442
10387SOL    HW232061   5.454   1.982   1.541
10388SOL     OW32062   1.355   0.451   5.089
10388SOL    HW132063   1.285   0.401   5.039
10388SOL    HW232064   1.333   0.549   5.087
10389SOL     OW32065   0.544   3.402   0.395
10389SOL    HW132066   0.619   3.424   0.333
10389SOL    HW232067   0.485   3.482   0.405
10390SOL     OW32068   2.137   1.903   2.177
10390SOL    HW132069   2.076   1.950   2.242
10390SOL    HW232070   2.207   1.968   2.145
10391SOL     OW32071   6.273   6.833   3.216
10391SOL    HW132072   6.332   6.872   3.287
10391SOL    HW232073   6.188   6.885   3.211
10392SOL     OW32074   6.518   3.587   4.331
10392SOL    HW132075   6.500   3.686   4.333
10392SOL    HW232076   6.437   3.538   4.300
10393SOL     OW32077   2.238   2.569   2.483
10393SOL    HW132078   2.258   2.666   2.497
10393SOL    HW232079   2.227   2.551   2.385
10394SOL     OW32080   3.034   6.365   3.694
10394SOL    HW132081   3.004   6.448   3.646
10394SOL    HW232082   2.981   6.287   3.662
10395SOL     OW32083   0.850   0.825   1.641
10395SOL    HW132084   0.933   0.780   1.674
10395SOL    HW232085   0.782   0.828   1.715
10396SOL     OW32086   3.453   2.181   5.152
10396SOL    HW132087   3.377   2.242   5.175
10396SOL    HW232088   3.426   2.119   5.079
10397SOL     OW32089   5.229   1.511   3.848
10397SOL    HW132090   5.175   1.442   3.896
10397SOL    HW232091   5.168   1.579   3.808
10398SOL     OW32092   5.347   2.735   2.625
10398SOL    HW132093   5.357   2.809   2.691
10398SOL    HW232094   5.291   2.767   2.548
10399SOL     OW32095   0.500   3.942   2.307
10399SOL    HW132096   0.426   3.952   2.240
10399SOL    HW232097   0.562   4.019   2.299
10400SOL     OW32098   2.026   6.569   0.411
10400SOL    HW132099   2.030   6.638   0.482
10400SOL    HW232100   2.084   6.491   0.436
10401SOL     OW32101   6.915   0.524   6.068
10401SOL    HW132102   6.864   0.587   6.009
10401SOL    HW232103   6.970   0.577   6.134
10402SOL     OW32104   6.789   4.253   4.814
10402SOL    HW132105   6.873   4.199   4.805
10402SOL    HW232106   6.801   4.341   4.768
10403SOL     OW32107   2.957   6.832   1.046
10403SOL    HW132108   2.860   6.828   1.070
10403SOL    HW232109   2.987   6.927   1.047
10404SOL     OW32110   0.316   5.847   5.909
10404SOL    HW132111   0.339   5.751   5.895
10404SOL    HW232112   0.338   5.899   5.826
10405SOL     OW32113   0.023   1.699   6.895
10405SOL    HW132114   0.006   1.779   6.954
10405SOL    HW232115   7.015   1.717   6.804
10406SOL     OW32116   1.447   5.495   0.783
10406SOL    HW132117   1.371   5.549   0.746
10406SOL    HW232118   1.412   5.430   0.850
10407SOL     OW32119   2.018   6.210   6.224
10407SOL    HW132120   1.919   6.208   6.220
10407SOL    HW232121   2.056   6.164   6.144
10408SOL     OW32122   4.646   0.782   0.135
10408SOL    HW132123   4.638   0.836   0.219
10408SOL    HW232124   4.713   0.824   0.074
10409SOL     OW32125   6.091   4.107   0.616
10409SOL    HW132126   6.058   4.191   0.660
10409SOL    HW232127   6.180   4.082   0.654
10410SOL     OW32128   4.092   6.880   0.926
10410SOL    HW132129   4.123   6.804   0.869
10410SOL    HW232130   4.144   6.963   0.904
10411SOL     OW32131   2.268   5.258   4.407
10411SOL    HW132132   2.175   5.285   4.379
10411SOL    HW232133   2.310   5.205   4.334
10412SOL     OW32134   5.439   6.932   1.756
10412SOL    HW132135   5.513   6.899   1.815
10412SOL    HW232136   5.453   0.002   1.737
10413SOL     OW32137   6.123   3.175   2.595
10413SOL    HW132138   6.222   3.187   2.608
10413SOL    HW232139   6.108   3.108   2.523
10414SOL     OW32140   5.513   3.387   4.455
10414SOL    HW132141   5.448   3.446   4.503
10414SOL    HW232142   5.557   3.325   4.520
10415SOL     OW32143   0.810   0.978   6.969
10415SOL    HW132144   0.891   1.017   6.924
10415SOL    HW232145   0.835   0.945   0.032
10416SOL     OW32146   5.092   3.018   3.966
10416SOL    HW132147   5.000   3.002   3.931
10416SOL    HW232148   5.132   3.097   3.919
10417SOL     OW32149   1.798   4.329   3.010
10417SOL    HW132150   1.851   4.280   3.080
10417SOL    HW232151   1.858   4.387   2.956
10418SOL     OW32152   1.624   5.599   6.163
10418SOL    HW132153   1.723   5.616   6.160
10418SOL    HW232154   1.577   5.681   6.195
10419SOL     OW32155   1.271   0.674   0.212
10419SOL    HW132156   1.251   0.697   0.116
10419SOL    HW232157   1.186   0.656   0.260
10420SOL     OW32158   0.109   2.894   2.685
10420SOL    HW132159   0.023   2.895   2.634
10420SOL    HW232160   0.182   2.858   2.628
10421SOL     OW32161   0.701   2.419   2.866
10421SOL    HW132162   0.663   2.484   2.801
10421SOL    HW232163   0.667   2.327   2.844
10422SOL     OW32164   5.141   3.126   6.924
10422SOL    HW132165   5.199   3.178   6.985
10422SOL    HW232166   5.165   3.146   6.829
10423SOL     OW32167   5.215   5.039   2.756
10423SOL    HW132168   5.197   5.056   2.659
10423SOL    HW232169   5.128   5.029   2.805
10424SOL     OW32170   4.609   1.815   6.527
10424SOL    HW132171   4.514   1.847   6.527
10424SOL    HW232172   4.621   1.745   6.598
10425SOL     OW32173   1.677   7.025   2.008
10425SOL    HW132174   1.680   0.009   1.908
10425SOL    HW232175   1.660   6.929   2.029
10426SOL     OW32176   6.562   4.073   0.076
10426SOL    HW132177   6.656   4.067   0.110
10426SOL    HW232178   6.498   4.055   0.150
10427SOL     OW32179   4.934   0.842   0.899
10427SOL    HW132180   4.857   0.818   0.840
10427SOL    HW232181   5.020   0.822   0.851
10428SOL     OW32182   4.880   1.339   3.349
10428SOL    HW132183   4.819   1.371   3.422
10428SOL    HW232184   4.971   1.379   3.360
10429SOL     OW32185   6.129   5.571   2.031
10429SOL    HW132186   6.131   5.659   1.983
10429SOL    HW232187   6.223   5.541   2.048
10430SOL     OW32188   4.333   6.202   2.896
10430SOL    HW132189   4.262   6.153   2.946
10430SOL    HW232190   4.348   6.158   2.808
10431SOL     OW32191   2.454   1.326   5.269
10431SOL    HW132192   2.493   1.413   5.298
10431SOL    HW232193   2.355   1.328   5.283
10432SOL     OW32194   4.433   0.717   4.740
10432SOL    HW132195   4.405   0.697   4.834
10432SOL    HW232196   4.358   0.762   4.692
10433SOL     OW32197   2.676   6.875   0.748
10433SOL    HW132198   2.773   6.880   0.721
10433SOL    HW232199   2.652   6.957   0.800
10434SOL     OW32200   2.723   1.793   4.811
10434SOL    HW132201   2.705   1.695   4.808
10434SOL    HW232202   2.821   1.810   4.800
10435SOL     OW32203   5.608   5.651   6.324
10435SOL    HW132204   5.683   5.711   6.294
10435SOL    HW232205   5.579   5.677   6.416
10436SOL     OW32206   0.823   0.623   2.697
10436SOL    HW132207   0.799   0.664   2.610
10436SOL    HW232208   0.742   0.580   2.738
10437SOL     OW32209   0.418   4.287   6.081
10437SOL    HW132210   0.343   4.311   6.019
10437SOL    HW232211   0.388   4.300   6.175
10438SOL     OW32212   3.326   6.720   5.999
10438SOL    HW132213   3.393   6.686   5.934
10438SOL    HW232214   3.256   6.650   6.015
10439SOL     OW32215   3.644   0.780   4.851
10439SOL    HW132216   3.645   0.736   4.941
10439SOL    HW232217   3.608   0.873   4.861
10440SOL     OW32218   1.104   5.446   0.852
10440SOL    HW132219   1.067   5.382   0.785
10440SOL    HW232220   1.188   5.409   0.891
10441SOL     OW32221   3.567   6.915   0.448
10441SOL    HW132222   3.621   6.975   0.390
10441SOL    HW232223   3.614   6.828   0.460
10442SOL     OW32224   4.969   5.991   5.069
10442SOL    HW132225   4.957   6.089   5.086
10442SOL    HW232226   4.988   5.976   4.972
10443SOL     OW32227   6.105   2.360   4.480
10443SOL    HW132228   6.115   2.336   4.383
10443SOL    HW232229   6.009   2.379   4.500
10444SOL     OW32230   3.686   5.039   4.843
10444SOL    HW132231   3.671   5.060   4.940
10444SOL    HW232232   3.599   5.015   4.800
10445SOL     OW32233   6.357   6.339   2.238
10445SOL    HW132234   6.442   6.390   2.255
10445SOL    HW232235   6.359   6.253   2.289
10446SOL     OW32236   0.947   6.407   6.694
10446SOL    HW132237   0.932   6.323   6.746
10446SOL    HW232238   0.926   6.486   6.751
10447SOL     OW32239   5.780   1.548   0.369
10447SOL    HW132240   5.697   1.596   0.395
10447SOL    HW232241   5.789   1.548   0.269
10448SOL     OW32242   3.431   3.751   2.525
10448SOL    HW132243   3.474   3.841   2.535
10448SOL    HW232244   3.345   3.750   2.577
10449SOL     OW32245   1.889   5.431   4.889
10449SOL    HW132246   1.796   5.397   4.882
10449SOL    HW232247   1.906   5.465   4.981
10450SOL     OW32248   6.963   3.400   1.133
10450SOL    HW132249   6.898   3.334   1.170
10450SOL    HW232250   0.027   3.378   1.167
10451SOL     OW32251   2.262   4.525   2.439
10451SOL    HW132252   2.186   4.460   2.443
10451SOL    HW232253   2.305   4.521   2.349
10452SOL     OW32254   1.587   2.866   5.725
10452SOL    HW132255   1.585   2.808   5.807
10452SOL    HW232256   1.630   2.954   5.747
10453SOL     OW32257   5.099   0.646   1.373
10453SOL    HW132258   5.070   0.679   1.463
10453SOL    HW232259   5.055   0.558   1.354
10454SOL     OW32260   5.294   3.953   1.886
10454SOL    HW132261   5.237   3.910   1.817
10454SOL    HW232262   5.339   4.034   1.846
10455SOL     OW32263   0.739   4.662   3.293
10455SOL    HW132264   0.732   4.578   3.346
10455SOL    HW232265   0.769   4.640   3.200
10456SOL     OW32266   3.663   6.318   1.358
10456SOL    HW132267   3.642   6.363   1.444
10456SOL    HW232268   3.761   6.321   1.341
10457SOL     OW32269   3.909   3.235   3.911
10457SOL    HW132270   3.870   3.144   3.895
10457SOL    HW232271   3.835   3.302   3.917
10458SOL     OW32272   0.356   6.139   1.809
10458SOL    HW132273   0.343   6.048   1.770
10458SOL    HW232274   0.356   6.132   1.909
10459SOL     OW32275   6.750   4.741   1.600
10459SOL    HW132276   6.771   4.709   1.693
10459SOL    HW232277   6.829   4.789   1.562
10460SOL     OW32278   1.310   4.300   1.781
10460SOL    HW132279   1.396   4.308   1.731
10460SOL    HW232280   1.254   4.381   1.764
10461SOL     OW32281   3.432   0.395   6.292
10461SOL    HW132282   3.354   0.405   6.355
10461SOL    HW232283   3.517   0.415   6.341
10462SOL     OW32284   5.232   6.790   1.066
10462SOL    HW132285   5.189   6.836   1.144
10462SOL    HW232286   5.202   6.833   0.981
10463SOL     OW32287   3.287   3.415   0.804
10463SOL    HW132288   3.386   3.406   0.792
10463SOL    HW232289   3.240   3.343   0.754
10464SOL     OW32290   5.760   6.289   2.198
10464SOL    HW132291   5.702   6.212   2.223
10464SOL    HW232292   5.719   6.339   2.122
10465SOL     OW32293   0.312   4.971   4.713
10465SOL    HW132294   0.256   4.939   4.789
10465SOL    HW232295   0.398   5.008   4.747
10466SOL     OW32296   5.063   6.413   5.651
10466SOL    HW132297   5.094   6.327   5.692
10466SOL    HW232298   5.121   6.435   5.573
10467SOL     OW32299   4.719   1.323   3.594
10467SOL    HW132300   4.806   1.311   3.641
10467SOL    HW232301   4.693   1.236   3.551
10468SOL     OW32302   3.015   5.276   3.692
10468SOL    HW132303   3.114   5.270   3.687
10468SOL    HW232304   2.981   5.203   3.752
10469SOL     OW32305   0.675   4.695   6.596
10469SOL    HW132306   0.715   4.664   6.683
10469SOL    HW232307   0.746   4.696   6.526
10470SOL     OW32308   2.922   2.059   4.708
10470SOL    HW132309   2.905   2.063   4.609
10470SOL    HW232310   2.835   2.055   4.756
10471SOL     OW32311   4.287   4.113   0.144
10471SOL    HW132312   4.251   4.082   0.232
10471SOL    HW232313   4.281   4.039   0.077
10472SOL     OW32314   3.977   1.182   3.279
10472SOL    HW132315   4.062   1.129   3.287
10472SOL    HW232316   3.901   1.127   3.314
10473SOL     OW32317   4.799   4.937   0.051
10473SOL    HW132318   4.777   4.876   7.003
10473SOL    HW232319   4.851   5.016   0.018
10474SOL     OW32320   5.144   0.863   3.687
10474SOL    HW132321   5.188   0.952   3.681
10474SOL    HW232322   5.212   0.791   3.667
10475SOL     OW32323   4.488   6.368   1.370
10475SOL    HW132324   4.430   6.295   1.334
10475SOL    HW232325   4.510   6.349   1.466
10476SOL     OW32326   0.091   4.911   6.503
10476SOL    HW132327   0.187   4.907   6.476
10476SOL    HW232328   0.081   4.878   6.596
10477SOL     OW32329   4.714   4.363   5.092
10477SOL    HW132330   4.764   4.302   5.031
10477SOL    HW232331   4.674   4.438   5.039
10478SOL     OW32332   0.394   6.375   3.316
10478SOL    HW132333   0.412   6.467   3.280
10478SOL    HW232334   0.368   6.315   3.240
10479SOL     OW32335   0.948   4.248   2.309
10479SOL    HW132336   1.037   4.210   2.284
10479SOL    HW232337   0.953   4.348   2.308
10480SOL     OW32338   5.125   1.084   0.745
10480SOL    HW132339   5.146   0.986   0.747
10480SOL    HW232340   5.130   1.118   0.651
10481SOL     OW32341   2.511   1.330   4.439
10481SOL    HW132342   2.582   1.262   4.426
10481SOL    HW232343   2.548   1.409   4.488
10482SOL     OW32344   0.902   6.133   6.827
10482SOL    HW132345   0.803   6.123   6.826
10482SOL    HW232346   0.941   6.085   6.748
10483SOL     OW32347   0.081   5.497   0.577
10483SOL    HW132348   0.043   5.526   0.664
10483SOL    HW232349   0.128   5.574   0.533
10484SOL     OW32350   6.796   1.720   1.882
10484SOL    HW132351   6.763   1.635   1.924
10484SOL    HW232352   6.837   1.699   1.793
10485SOL     OW32353   3.732   4.163   4.410
10485SOL    HW132354   3.778   4.109   4.480
10485SOL    HW232355   3.732   4.113   4.323
10486SOL     OW32356   6.283   5.691   5.841
10486SOL    HW132357   6.277   5.598   5.806
10486SOL    HW232358   6.370   5.704   5.888
10487SOL     OW32359   5.478   3.681   2.881
10487SOL    HW132360   5.451   3.715   2.971
10487SOL    HW232361   5.417   3.608   2.853
10488SOL     OW32362   0.214   1.903   5.430
10488SOL    HW132363   0.140   1.964   5.402
10488SOL    HW232364   0.302   1.946   5.410
10489SOL     OW32365   5.928   4.607   2.747
10489SOL    HW132366   5.966   4.683   2.693
10489SOL    HW232367   5.828   4.612   2.746
10490SOL     OW32368   5.243   6.424   6.541
10490SOL    HW132369   5.275   6.511   6.501
10490SOL    HW232370   5.231   6.436   6.640
10491SOL     OW32371   2.094   2.502   5.701
10491SOL    HW132372   2.079   2.425   5.763
10491SOL    HW232373   2.189   2.534   5.710
10492SOL     OW32374   2.568   6.363   0.476
10492SOL    HW132375   2.483   6.317   0.501
10492SOL    HW232376   2.594   6.426   0.548
10493SOL     OW32377   3.505   5.491   0.662
10493SOL    HW132378   3.492   5.528   0.570
10493SOL    HW232379   3.574   5.545   0.710
10494SOL     OW32380   0.166   5.101   4.202
10494SOL    HW132381   0.177   5.156   4.285
10494SOL    HW232382   0.080   5.123   4.158
10495SOL     OW32383   6.245   6.761   0.497
10495SOL    HW132384   6.336   6.762   0.540
10495SOL    HW232385   6.223   6.668   0.469
10496SOL     OW32386   0.630   4.767   6.269
10496SOL    HW132387   0.541   4.794   6.231
10496SOL    HW232388   0.623   4.674   6.306
10497SOL     OW32389   3.551   6.317   0.781
10497SOL    HW132390   3.547   6.325   0.682
10497SOL    HW232391   3.458   6.316   0.819
10498SOL     OW32392   3.685   3.313   7.008
10498SOL    HW132393   3.685   3.219   6.973
10498SOL    HW232394   3.590   3.343   7.022
10499SOL     OW32395   4.340   4.665   2.940
10499SOL    HW132396   4.315   4.629   2.850
10499SOL    HW232397   4.338   4.590   3.007
10500SOL     OW32398   2.013   2.786   4.807
10500SOL    HW132399   2.026   2.695   4.846
10500SOL    HW232400   2.027   2.782   4.708
10501SOL     OW32401   3.798   4.975   3.576
10501SOL    HW132402   3.754   5.054   3.534
10501SOL    HW232403   3.746   4.948   3.658
10502SOL     OW32404   2.861   3.510   2.772
10502SOL    HW132405   2.794   3.584   2.772
10502SOL    HW232406   2.873   3.476   2.866
10503SOL     OW32407   6.555   0.715   0.490
10503SOL    HW132408   6.565   0.813   0.475
10503SOL    HW232409   6.495   0.699   0.567
10504SOL     OW32410   1.292   3.394   5.854
10504SOL    HW132411   1.273   3.483   5.896
10504SOL    HW232412   1.390   3.384   5.840
10505SOL     OW32413   6.010   6.675   0.763
10505SOL    HW132414   5.937   6.649   0.826
10505SOL    HW232415   6.066   6.747   0.805
10506SOL     OW32416   1.578   4.844   4.988
10506SOL    HW132417   1.535   4.776   5.048
10506SOL    HW232418   1.529   4.930   4.994
10507SOL     OW32419   1.709   6.136   5.716
10507SOL    HW132420   1.624   6.084   5.719
10507SOL    HW232421   1.752   6.135   5.807
10508SOL     OW32422   1.615   6.121   1.023
10508SOL    HW132423   1.527   6.165   1.043
10508SOL    HW232424   1.606   6.066   0.940
10509SOL     OW32425   4.900   3.370   2.510
10509SOL    HW132426   4.866   3.402   2.599
10509SOL    HW232427   4.900   3.446   2.445
10510SOL     OW32428   5.550   5.841   2.928
10510SOL    HW132429   5.625   5.908   2.932
10510SOL    HW232430   5.479   5.867   2.993
10511SOL     OW32431   3.666   1.776   0.943
10511SOL    HW132432   3.678   1.712   0.867
10511SOL    HW232433   3.618   1.730   1.017
10512SOL     OW32434   4.239   1.007   5.081
10512SOL    HW132435   4.227   1.097   5.039
10512SOL    HW232436   4.166   0.946   5.049
10513SOL     OW32437   3.694   3.615   0.468
10513SOL    HW132438   3.753   3.540   0.439
10513SOL    HW232439   3.724   3.648   0.557
10514SOL     OW32440   1.091   5.461   1.465
10514SOL    HW132441   1.039   5.446   1.550
10514SOL    HW232442   1.063   5.548   1.424
10515SOL     OW32443   2.108   3.795   4.534
10515SOL    HW132444   2.167   3.862   4.579
10515SOL    HW232445   2.020   3.837   4.513
10516SOL     OW32446   5.357   1.520   2.167
10516SOL    HW132447   5.273   1.554   2.211
10516SOL    HW232448   5.356   1.420   2.165
10517SOL     OW32449   0.886   1.859   1.883
10517SOL    HW132450   0.889   1.907   1.796
10517SOL    HW232451   0.819   1.902   1.943
10518SOL     OW32452   0.953   6.112   2.328
10518SOL    HW132453   1.042   6.077   2.301
10518SOL    HW232454   0.910   6.049   2.392
10519SOL     OW32455   2.584   6.389   0.809
10519SOL    HW132456   2.545   6.296   0.807
10519SOL    HW232457   2.611   6.411   0.903
10520SOL     OW32458   2.766   2.633   6.369
10520SOL    HW132459   2.735   2.716   6.414
10520SOL    HW232460   2.718   2.623   6.282
10521SOL     OW32461   6.278   2.295   2.933
10521SOL    HW132462   6.300   2.315   2.837
10521SOL    HW232463   6.196   2.238   2.937
10522SOL     OW32464   5.060   1.659   3.683
10522SOL    HW132465   5.104   1.667   3.593
10522SOL    HW232466   4.965   1.688   3.676
10523SOL     OW32467   0.626   4.080   2.045
10523SOL    HW132468   0.662   4.002   2.096
10523SOL    HW232469   0.702   4.135   2.010
10524SOL     OW32470   5.872   6.323   4.643
10524SOL    HW132471   5.850   6.420   4.634
10524SOL    HW232472   5.946   6.299   4.579
10525SOL     OW32473   4.786   1.698   3.622
10525SOL    HW132474   4.709   1.635   3.615
10525SOL    HW232475   4.789   1.757   3.541
10526SOL     OW32476   1.391   5.808   5.851
10526SOL    HW132477   1.299   5.789   5.817
10526SOL    HW232478   1.447   5.725   5.843
10527SOL     OW32479   0.149   6.558   5.834
10527SOL    HW132480   0.146   6.550   5.934
10527SOL    HW232481   0.056   6.556   5.798
10528SOL     OW32482   2.170   5.469   5.308
10528SOL    HW132483   2.241   5.403   5.332
10528SOL    HW232484   2.112   5.485   5.388
10529SOL     OW32485   6.850   5.348   0.421
10529SOL    HW132486   6.817   5.382   0.509
10529SOL    HW232487   6.785   5.373   0.349
10530SOL     OW32488   6.365   0.559   1.420
10530SOL    HW132489   6.302   0.518   1.485
10530SOL    HW232490   6.349   0.522   1.328
10531SOL     OW32491   3.194   1.911   6.092
10531SOL    HW132492   3.204   1.814   6.115
10531SOL    HW232493   3.178   1.920   5.993
10532SOL     OW32494   4.741   5.750   5.730
10532SOL    HW132495   4.644   5.756   5.705
10532SOL    HW232496   4.773   5.838   5.764
10533SOL     OW32497   4.369   6.894   3.248
10533SOL    HW132498   4.341   6.853   3.161
10533SOL    HW232499   4.330   6.842   3.323
10534SOL     OW32500   1.080   6.703   4.217
10534SOL    HW132501   1.179   6.715   4.214
10534SOL    HW232502   1.058   6.610   4.244
10535SOL     OW32503   4.414   1.774   2.251
10535SOL    HW132504   4.379   1.821   2.332
10535SOL    HW232505   4.421   1.676   2.270
10536SOL     OW32506   6.057   3.752   4.184
10536SOL    HW132507   6.078   3.709   4.096
10536SOL    HW232508   6.044   3.850   4.170
10537SOL     OW32509   3.594   1.037   3.118
10537SOL    HW132510   3.494   1.042   3.109
10537SOL    HW232511   3.636   1.047   3.028
10538SOL     OW32512   6.144   2.562   3.508
10538SOL    HW132513   6.182   2.651   3.532
10538SOL    HW232514   6.107   2.518   3.591
10539SOL     OW32515   6.587   6.618   2.851
10539SOL    HW132516   6.529   6.549   2.808
10539SOL    HW232517   6.649   6.657   2.783
10540SOL     OW32518   1.654   3.662   6.501
10540SOL    HW132519   1.582   3.609   6.545
10540SOL    HW232520   1.741   3.613   6.507
10541SOL     OW32521   3.117   2.540   6.327
10541SOL    HW132522   3.174   2.467   6.289
10541SOL    HW232523   3.040   2.500   6.376
10542SOL     OW32524   4.071   6.402   2.153
10542SOL    HW132525   3.994   6.340   2.138
10542SOL    HW232526   4.066   6.478   2.089
10543SOL     OW32527   1.912   2.421   4.113
10543SOL    HW132528   1.879   2.509   4.147
10543SOL    HW232529   2.012   2.423   4.107
10544SOL     OW32530   2.863   2.237   2.512
10544SOL    HW132531   2.769   2.259   2.541
10544SOL    HW232532   2.899   2.311   2.456
10545SOL     OW32533   1.500   3.533   1.775
10545SOL    HW132534   1.584   3.571   1.815
10545SOL    HW232535   1.439   3.608   1.748
10546SOL     OW32536   2.144   0.062   5.559
10546SOL    HW132537   2.238   0.072   5.592
10546SOL    HW232538   2.143   0.002   5.479
10547SOL     OW32539   3.601   6.362   6.015
10547SOL    HW132540   3.546   6.353   6.099
10547SOL    HW232541   3.660   6.282   6.005
10548SOL     OW32542   0.921   5.519   3.548
10548SOL    HW132543   0.991   5.589   3.561
10548SOL    HW232544   0.962   5.429   3.559
10549SOL     OW32545   0.114   1.394   2.676
10549SOL    HW132546   0.041   1.448   2.720
10549SOL    HW232547   0.164   1.343   2.746
10550SOL     OW32548   5.958   5.698   3.058
10550SOL    HW132549   5.924   5.614   3.100
10550SOL    HW232550   5.910   5.714   2.972
10551SOL     OW32551   4.565   0.526   4.599
10551SOL    HW132552   4.502   0.572   4.662
10551SOL    HW232553   4.659   0.552   4.621
10552SOL     OW32554   2.565   6.654   3.325
10552SOL    HW132555   2.549   6.625   3.420
10552SOL    HW232556   2.477   6.673   3.282
10553SOL     OW32557   5.294   5.346   1.490
10553SOL    HW132558   5.286   5.436   1.532
10553SOL    HW232559   5.238   5.342   1.407
10554SOL     OW32560   6.042   5.713   1.591
10554SOL    HW132561   6.007   5.798   1.630
10554SOL    HW232562   5.968   5.666   1.542
10555SOL     OW32563   3.650   3.124   1.777
10555SOL    HW132564   3.557   3.089   1.765
10555SOL    HW232565   3.650   3.223   1.762
10556SOL     OW32566   2.497   2.313   1.963
10556SOL    HW132567   2.524   2.408   1.949
10556SOL    HW232568   2.569   2.264   2.011
10557SOL     OW32569   0.661   3.903   3.201
10557SOL    HW132570   0.567   3.902   3.237
10557SOL    HW232571   0.661   3.941   3.109
10558SOL     OW32572   4.383   4.826   4.345
10558SOL    HW132573   4.409   4.913   4.302
10558SOL    HW232574   4.400   4.751   4.281
10559SOL     OW32575   3.591   5.886   1.202
10559SOL    HW132576   3.690   5.874   1.205
10559SOL    HW232577   3.547   5.806   1.241
10560SOL     OW32578   5.701   6.958   3.731
10560SOL    HW132579   5.795   6.945   3.699
10560SOL    HW232580   5.638   6.923   3.662
10561SOL     OW32581   0.772   5.196   6.090
10561SOL    HW132582   0.776   5.138   6.171
10561SOL    HW232583   0.789   5.140   6.008
10562SOL     OW32584   3.724   6.399   2.572
10562SOL    HW132585   3.818   6.381   2.541
10562SOL    HW232586   3.661   6.338   2.524
10563SOL     OW32587   2.082   6.039   2.058
10563SOL    HW132588   1.991   6.000   2.068
10563SOL    HW232589   2.149   5.965   2.051
10564SOL     OW32590   5.267   4.538   3.381
10564SOL    HW132591   5.238   4.609   3.317
10564SOL    HW232592   5.350   4.494   3.347
10565SOL     OW32593   0.438   1.559   4.835
10565SOL    HW132594   0.347   1.588   4.864
10565SOL    HW232595   0.430   1.498   4.756
10566SOL     OW32596   4.106   1.942   0.819
10566SOL    HW132597   4.058   1.934   0.906
10566SOL    HW232598   4.043   1.972   0.748
10567SOL     OW32599   3.071   2.540   6.947
10567SOL    HW132600   2.988   2.514   6.897
10567SOL    HW232601   3.101   2.464   7.005
10568SOL     OW32602   5.760   2.386   5.807
10568SOL    HW132603   5.667   2.383   5.768
10568SOL    HW232604   5.796   2.479   5.800
10569SOL     OW32605   5.214   0.404   0.894
10569SOL    HW132606   5.200   0.424   0.797
10569SOL    HW232607   5.311   0.415   0.916
10570SOL     OW32608   1.583   4.129   2.932
10570SOL    HW132609   1.655   4.195   2.957
10570SOL    HW232610   1.624   4.051   2.885
10571SOL     OW32611   0.482   3.989   5.372
10571SOL    HW132612   0.514   4.048   5.446
10571SOL    HW232613   0.559   3.962   5.314
10572SOL     OW32614   6.284   4.707   0.682
10572SOL    HW132615   6.234   4.651   0.617
10572SOL    HW232616   6.377   4.672   0.693
10573SOL     OW32617   6.369   2.745   3.672
10573SOL    HW132618   6.435   2.819   3.680
10573SOL    HW232619   6.405   2.662   3.715
10574SOL     OW32620   5.574   2.459   2.747
10574SOL    HW132621   5.556   2.503   2.835
10574SOL    HW232622   5.556   2.524   2.674
10575SOL     OW32623   5.237   6.828   2.719
10575SOL    HW132624   5.210   6.846   2.624
10575SOL    HW232625   5.158   6.795   2.770
10576SOL     OW32626   1.798   2.969   4.897
10576SOL    HW132627   1.881   2.919   4.874
10576SOL    HW232628   1.718   2.916   4.869
10577SOL     OW32629   3.604   4.486   6.999
10577SOL    HW132630   3.624   4.417   0.040
10577SOL    HW232631   3.601   4.577   0.013
10578SOL     OW32632   1.331   3.502   2.571
10578SOL    HW132633   1.300   3.410   2.545
10578SOL    HW232634   1.261   3.569   2.547
10579SOL     OW32635   7.006   3.017   6.848
10579SOL    HW132636   0.073   2.985   6.849
10579SOL    HW232637   6.947   2.944   6.811
10580SOL     OW32638   5.625   6.080   0.025
10580SOL    HW132639   5.568   6.160   0.006
10580SOL    HW232640   5.685   6.099   0.102
10581SOL     OW32641   4.226   0.824   2.508
10581SOL    HW132642   4.191   0.763   2.579
10581SOL    HW232643   4.182   0.913   2.516
10582SOL     OW32644   6.859   3.219   6.745
10582SOL    HW132645   6.935   3.161   6.775
10582SOL    HW232646   6.827   3.275   6.822
10583SOL     OW32647   4.420   2.186   5.562
10583SOL    HW132648   4.434   2.163   5.658
10583SOL    HW232649   4.463   2.117   5.505
10584SOL     OW32650   6.285   0.875   3.865
10584SOL    HW132651   6.245   0.832   3.946
10584SOL    HW232652   6.236   0.846   3.784
10585SOL     OW32653   1.568   1.547   5.197
10585SOL    HW132654   1.595   1.458   5.161
10585SOL    HW232655   1.484   1.577   5.151
10586SOL     OW32656   4.502   3.685   6.051
10586SOL    HW132657   4.562   3.750   6.096
10586SOL    HW232658   4.478   3.719   5.960
10587SOL     OW32659   2.175   5.288   4.892
10587SOL    HW132660   2.265   5.254   4.920
10587SOL    HW232661   2.104   5.241   4.945
10588SOL     OW32662   1.253   3.949   4.161
10588SOL    HW132663   1.296   3.859   4.154
10588SOL    HW232664   1.187   3.960   4.087
10589SOL     OW32665   6.251   0.251   3.759
10589SOL    HW132666   6.261   0.259   3.660
10589SOL    HW232667   6.158   0.275   3.786
10590SOL     OW32668   0.752   5.782   2.046
10590SOL    HW132669   0.736   5.700   1.992
10590SOL    HW232670   0.732   5.863   1.990
10591SOL     OW32671   6.594   4.195   2.509
10591SOL    HW132672   6.601   4.273   2.447
10591SOL    HW232673   6.519   4.210   2.574
10592SOL     OW32674   6.985   2.902   4.695
10592SOL    HW132675   0.024   2.834   4.724
10592SOL    HW232676   6.918   2.858   4.635
10593SOL     OW32677   3.568   5.806   3.585
10593SOL    HW132678   3.596   5.872   3.655
10593SOL    HW232679   3.477   5.772   3.605
10594SOL     OW32680   3.460   5.782   3.972
10594SOL    HW132681   3.380   5.805   3.917
10594SOL    HW232682   3.480   5.857   4.035
10595SOL     OW32683   5.278   6.505   1.038
10595SOL    HW132684   5.267   6.604   1.024
10595SOL    HW232685   5.275   6.485   1.136
10596SOL     OW32686   5.538   3.655   0.179
10596SOL    HW132687   5.497   3.743   0.205
10596SOL    HW232688   5.530   3.642   0.081
10597SOL     OW32689   1.546   6.662   5.453
10597SOL    HW132690   1.574   6.566   5.446
10597SOL    HW232691   1.540   6.687   5.550
10598SOL     OW32692   3.604   1.369   0.865
10598SOL    HW132693   3.689   1.357   0.814
10598SOL    HW232694   3.538   1.299   0.839
10599SOL     OW32695   0.825   1.915   0.654
10599SOL    HW132696   0.851   1.833   0.705
10599SOL    HW232697   0.850   1.996   0.707
10600SOL     OW32698   4.429   1.492   1.562
10600SOL    HW132699   4.384   1.556   1.624
10600SOL    HW232700   4.363   1.425   1.530
10601SOL     OW32701   2.047   1.540   4.839
10601SOL    HW132702   2.104   1.574   4.915
10601SOL    HW232703   1.974   1.483   4.876
10602SOL     OW32704   6.875   6.760   1.457
10602SOL    HW132705   6.778   6.751   1.435
10602SOL    HW232706   6.921   6.674   1.438
10603SOL     OW32707   5.930   0.474   2.748
10603SOL    HW132708   5.981   0.559   2.766
10603SOL    HW232709   5.897   0.475   2.654
10604SOL     OW32710   5.773   2.493   5.435
10604SOL    HW132711   5.830   2.575   5.425
10604SOL    HW232712   5.743   2.462   5.345
10605SOL     OW32713   4.262   2.336   1.428
10605SOL    HW132714   4.210   2.266   1.378
10605SOL    HW232715   4.224   2.344   1.521
10606SOL     OW32716   6.023   1.437   0.769
10606SOL    HW132717   5.946   1.495   0.741
10606SOL    HW232718   5.990   1.344   0.785
10607SOL     OW32719   2.536   4.753   0.801
10607SOL    HW132720   2.472   4.814   0.754
10607SOL    HW232721   2.498   4.661   0.803
10608SOL     OW32722   5.683   3.986   2.925
10608SOL    HW132723   5.639   4.059   2.873
10608SOL    HW232724   5.761   4.023   2.976
10609SOL     OW32725   5.862   6.599   6.423
10609SOL    HW132726   5.960   6.589   6.443
10609SOL    HW232727   5.832   6.691   6.447
10610SOL     OW32728   0.373   2.037   2.783
10610SOL    HW132729   0.388   2.013   2.879
10610SOL    HW232730   0.461   2.053   2.739
10611SOL     OW32731   4.178   5.006   5.254
10611SOL    HW132732   4.259   5.060   5.229
10611SOL    HW232733   4.204   4.911   5.268
10612SOL     OW32734   5.512   2.744   3.448
10612SOL    HW132735   5.435   2.791   3.405
10612SOL    HW232736   5.496   2.736   3.546
10613SOL     OW32737   5.126   5.139   4.850
10613SOL    HW132738   5.103   5.144   4.753
10613SOL    HW232739   5.056   5.188   4.903
10614SOL     OW32740   3.921   2.156   6.630
10614SOL    HW132741   3.824   2.175   6.615
10614SOL    HW232742   3.970   2.165   6.543
10615SOL     OW32743   2.780   2.391   5.171
10615SOL    HW132744   2.682   2.387   5.185
10615SOL    HW232745   2.804   2.347   5.085
10616SOL     OW32746   1.500   5.647   0.312
10616SOL    HW132747   1.421   5.605   0.357
10616SOL    HW232748   1.584   5.613   0.354
10617SOL     OW32749   1.808   2.563   0.376
10617SOL    HW132750   1.749   2.547   0.297
10617SOL    HW232751   1.840   2.475   0.412
10618SOL     OW32752   0.564   4.707   4.226
10618SOL    HW132753   0.647   4.761   4.232
10618SOL    HW232754   0.552   4.673   4.132
10619SOL     OW32755   1.082   2.962   0.847
10619SOL    HW132756   1.080   3.034   0.916
10619SOL    HW232757   1.103   3.002   0.758
10620SOL     OW32758   3.577   0.849   5.574
10620SOL    HW132759   3.546   0.904   5.652
10620SOL    HW232760   3.540   0.888   5.489
10621SOL     OW32761   0.714   4.107   4.376
10621SOL    HW132762   0.700   4.187   4.434
10621SOL    HW232763   0.650   4.035   4.403
10622SOL     OW32764   4.193   1.937   5.785
10622SOL    HW132765   4.171   1.953   5.881
10622SOL    HW232766   4.113   1.957   5.729
10623SOL     OW32767   5.528   4.835   5.447
10623SOL    HW132768   5.458   4.829   5.518
10623SOL    HW232769   5.595   4.905   5.471
10624SOL     OW32770   6.758   1.661   6.287
10624SOL    HW132771   6.693   1.665   6.363
10624SOL    HW232772   6.851   1.676   6.321
10625SOL     OW32773   5.678   5.536   6.908
10625SOL    HW132774   5.716   5.555   6.999
10625SOL    HW232775   5.741   5.478   6.857
10626SOL     OW32776   5.536   3.340   2.213
10626SOL    HW132777   5.446   3.379   2.235
10626SOL    HW232778   5.538   3.244   2.243
10627SOL     OW32779   5.934   4.758   5.511
10627SOL    HW132780   5.887   4.773   5.424
10627SOL    HW232781   5.884   4.803   5.584
10628SOL     OW32782   2.607   5.733   1.530
10628SOL    HW132783   2.567   5.823   1.516
10628SOL    HW232784   2.554   5.665   1.480
10629SOL     OW32785   4.309   5.083   3.980
10629SOL    HW132786   4.327   5.178   4.006
10629SOL    HW232787   4.211   5.070   3.966
10630SOL     OW32788   3.826   1.136   1.384
10630SOL    HW132789   3.773   1.103   1.306
10630SOL    HW232790   3.921   1.104   1.376
10631SOL     OW32791   3.715   5.713   1.750
10631SOL    HW132792   3.751   5.729   1.842
10631SOL    HW232793   3.719   5.798   1.698
10632SOL     OW32794   5.836   6.791   4.438
10632SOL    HW132795   5.918   6.840   4.468
10632SOL    HW232796   5.759   6.855   4.432
10633SOL     OW32797   2.374   3.009   0.438
10633SOL    HW132798   2.336   2.917   0.449
10633SOL    HW232799   2.422   3.034   0.522
10634SOL     OW32800   0.982   4.397   0.139
10634SOL    HW132801   1.075   4.374   0.111
10634SOL    HW232802   0.918   4.330   0.100
10635SOL     OW32803   3.064   4.479   6.827
10635SOL    HW132804   3.041   4.512   6.736
10635SOL    HW232805   2.991   4.420   6.861
10636SOL     OW32806   6.646   3.274   0.982
10636SOL    HW132807   6.679   3.209   0.914
10636SOL    HW232808   6.561   3.315   0.950
10637SOL     OW32809   2.667   0.491   6.099
10637SOL    HW132810   2.751   0.510   6.048
10637SOL    HW232811   2.594   0.552   6.068
10638SOL     OW32812   5.501   5.173   6.831
10638SOL    HW132813   5.524   5.186   6.927
10638SOL    HW232814   5.524   5.255   6.779
10639SOL     OW32815   6.364   5.054   0.119
10639SOL    HW132816   6.329   4.978   0.064
10639SOL    HW232817   6.370   5.027   0.215
10640SOL     OW32818   3.672   6.245   3.989
10640SOL    HW132819   3.771   6.240   3.970
10640SOL    HW232820   3.637   6.153   4.007
10641SOL     OW32821   1.048   1.195   3.675
10641SOL    HW132822   1.006   1.111   3.710
10641SOL    HW232823   0.982   1.270   3.678
10642SOL     OW32824   0.071   1.970   6.426
10642SOL    HW132825   0.117   2.035   6.487
10642SOL    HW232826   0.096   1.990   6.332
10643SOL     OW32827   3.041   5.216   5.818
10643SOL    HW132828   3.075   5.248   5.730
10643SOL    HW232829   3.109   5.158   5.862
10644SOL     OW32830   0.377   3.538   3.505
10644SOL    HW132831   0.421   3.623   3.475
10644SOL    HW232832   0.357   3.481   3.425
10645SOL     OW32833   2.218   3.008   3.246
10645SOL    HW132834   2.137   3.064   3.232
10645SOL    HW232835   2.234   2.953   3.165
10646SOL     OW32836   4.960   0.620   2.914
10646SOL    HW132837   4.975   0.686   2.988
10646SOL    HW232838   5.011   0.650   2.833
10647SOL     OW32839   4.154   5.448   4.537
10647SOL    HW132840   4.164   5.437   4.439
10647SOL    HW232841   4.244   5.447   4.580
10648SOL     OW32842   4.782   4.042   5.522
10648SOL    HW132843   4.751   4.004   5.609
10648SOL    HW232844   4.704   4.064   5.464
10649SOL     OW32845   6.158   3.318   3.611
10649SOL    HW132846   6.126   3.225   3.627
10649SOL    HW232847   6.238   3.337   3.669
10650SOL     OW32848   0.872   6.987   2.756
10650SOL    HW132849   0.936   7.024   2.822
10650SOL    HW232850   0.817   6.915   2.799
10651SOL     OW32851   2.196   5.758   5.992
10651SOL    HW132852   2.145   5.839   5.962
10651SOL    HW232853   2.197   5.690   5.919
10652SOL     OW32854   2.525   0.767   6.956
10652SOL    HW132855   2.501   0.678   6.917
10652SOL    HW232856   2.511   0.765   0.027
10653SOL     OW32857   5.396   6.214   4.528
10653SOL    HW132858   5.341   6.183   4.451
10653SOL    HW232859   5.475   6.265   4.494
10654SOL     OW32860   6.424   1.372   4.218
10654SOL    HW132861   6.348   1.353   4.279
10654SOL    HW232862   6.413   1.463   4.177
10655SOL     OW32863   6.480   5.514   0.676
10655SOL    HW132864   6.383   5.520   0.655
10655SOL    HW232865   6.504   5.584   0.743
10656SOL     OW32866   6.201   0.933   6.066
10656SOL    HW132867   6.263   0.882   6.006
10656SOL    HW232868   6.124   0.876   6.092
10657SOL     OW32869   4.661   6.716   5.717
10657SOL    HW132870   4.702   6.796   5.761
10657SOL    HW232871   4.584   6.684   5.771
10658SOL     OW32872   0.806   1.308   5.826
10658SOL    HW132873   0.870   1.360   5.769
10658SOL    HW232874   0.767   1.233   5.772
10659SOL     OW32875   0.296   5.631   6.992
10659SOL    HW132876   0.294   5.726   6.959
10659SOL    HW232877   0.382   5.588   6.965
10660SOL     OW32878   6.172   2.491   6.660
10660SOL    HW132879   6.175   2.392   6.668
10660SOL    HW232880   6.078   2.520   6.638
10661SOL     OW32881   3.523   5.594   5.958
10661SOL    HW132882   3.551   5.653   6.034
10661SOL    HW232883   3.495   5.650   5.880
10662SOL     OW32884   3.071   1.049   0.764
10662SOL    HW132885   2.974   1.070   0.754
10662SOL    HW232886   3.088   1.014   0.857
10663SOL     OW32887   0.215   3.129   4.073
10663SOL    HW132888   0.282   3.200   4.053
10663SOL    HW232889   0.259   3.039   4.064
10664SOL     OW32890   1.028   6.253   4.968
10664SOL    HW132891   0.980   6.167   4.983
10664SOL    HW232892   1.017   6.282   4.873
10665SOL     OW32893   3.383   3.997   0.244
10665SOL    HW132894   3.458   3.976   0.181
10665SOL    HW232895   3.354   4.092   0.230
10666SOL     OW32896   4.471   3.440   1.062
10666SOL    HW132897   4.560   3.428   1.108
10666SOL    HW232898   4.426   3.352   1.053
10667SOL     OW32899   5.544   2.717   3.935
10667SOL    HW132900   5.553   2.664   4.020
10667SOL    HW232901   5.552   2.814   3.956
10668SOL     OW32902   3.299   3.681   5.954
10668SOL    HW132903   3.239   3.616   6.001
10668SOL    HW232904   3.394   3.655   5.970
10669SOL     OW32905   6.250   2.558   1.790
10669SOL    HW132906   6.277   2.651   1.764
10669SOL    HW232907   6.333   2.502   1.802
10670SOL     OW32908   4.725   4.780   3.766
10670SOL    HW132909   4.692   4.685   3.769
10670SOL    HW232910   4.796   4.793   3.835
10671SOL     OW32911   2.112   3.318   4.813
10671SOL    HW132912   2.072   3.367   4.890
10671SOL    HW232913   2.150   3.231   4.844
10672SOL     OW32914   6.138   4.492   1.189
10672SOL    HW132915   6.153   4.412   1.245
10672SOL    HW232916   6.089   4.562   1.242
10673SOL     OW32917   2.904   1.261   1.183
10673SOL    HW132918   2.878   1.291   1.275
10673SOL    HW232919   2.895   1.162   1.176
10674SOL     OW32920   3.838   3.424   4.466
10674SOL    HW132921   3.934   3.396   4.461
10674SOL    HW232922   3.780   3.350   4.430
10675SOL     OW32923   3.694   6.200   5.370
10675SOL    HW132924   3.717   6.107   5.397
10675SOL    HW232925   3.601   6.201   5.332
10676SOL     OW32926   1.431   0.974   4.756
10676SOL    HW132927   1.439   0.945   4.851
10676SOL    HW232928   1.495   1.048   4.738
10677SOL     OW32929   0.195   2.020   6.936
10677SOL    HW132930   0.255   2.054   7.008
10677SOL    HW232931   0.102   2.011   6.972
10678SOL     OW32932   3.737   5.154   2.567
10678SOL    HW132933   3.765   5.162   2.471
10678SOL    HW232934   3.637   5.154   2.573
10679SOL     OW32935   5.091   3.814   0.372
10679SOL    HW132936   5.111   3.902   0.330
10679SOL    HW232937   5.175   3.777   0.414
10680SOL     OW32938   5.121   0.929   5.458
10680SOL    HW132939   5.109   0.987   5.378
10680SOL    HW232940   5.044   0.941   5.520
10681SOL     OW32941   2.439   3.248   5.359
10681SOL    HW132942   2.506   3.321   5.348
10681SOL    HW232943   2.472   3.165   5.315
10682SOL     OW32944   4.990   3.264   6.317
10682SOL    HW132945   5.009   3.339   6.380
10682SOL    HW232946   5.039   3.278   6.232
10683SOL     OW32947   2.032   0.729   3.231
10683SOL    HW132948   2.076   0.647   3.266
10683SOL    HW232949   2.092   0.775   3.165
10684SOL     OW32950   4.971   4.613   1.375
10684SOL    HW132951   4.937   4.643   1.464
10684SOL    HW232952   5.068   4.589   1.383
10685SOL     OW32953   1.261   6.871   2.446
10685SOL    HW132954   1.168   6.878   2.411
10685SOL    HW232955   1.316   6.947   2.412
10686SOL     OW32956   2.538   1.479   6.484
10686SOL    HW132957   2.449   1.434   6.487
10686SOL    HW232958   2.530   1.574   6.515
10687SOL     OW32959   0.959   3.492   3.391
10687SOL    HW132960   1.041   3.515   3.443
10687SOL    HW232961   0.910   3.576   3.366
10688SOL     OW32962   4.985   1.322   3.673
10688SOL    HW132963   5.003   1.420   3.664
10688SOL    HW232964   5.072   1.273   3.683
10689SOL     OW32965   1.153   1.191   2.753
10689SOL    HW132966   1.179   1.283   2.783
10689SOL    HW232967   1.208   1.123   2.802
10690SOL     OW32968   1.094   6.537   5.001
10690SOL    HW132969   1.167   6.547   4.934
10690SOL    HW232970   1.065   6.442   5.006
10691SOL     OW32971   3.367   6.464   1.451
10691SOL    HW132972   3.403   6.519   1.526
10691SOL    HW232973   3.314   6.388   1.489
10692SOL     OW32974   2.840   1.883   4.221
10692SOL    HW132975   2.837   1.797   4.272
10692SOL    HW232976   2.789   1.873   4.136
10693SOL     OW32977   0.839   4.831   0.715
10693SOL    HW132978   0.877   4.747   0.677
10693SOL    HW232979   0.751   4.851   0.670
10694SOL     OW32980   4.596   0.649   5.028
10694SOL    HW132981   4.499   0.631   5.042
10694SOL    HW232982   4.645   0.637   5.115
10695SOL     OW32983   5.082   4.502   1.680
10695SOL    HW132984   4.997   4.554   1.673
10695SOL    HW232985   5.160   4.566   1.679
10696SOL     OW32986   6.363   4.438   4.507
10696SOL    HW132987   6.271   4.463   4.477
10696SOL    HW232988   6.388   4.349   4.468
10697SOL     OW32989   3.097   5.562   4.957
10697SOL    HW132990   3.197   5.557   4.954
10697SOL    HW232991   3.060   5.470   4.972
10698SOL     OW32992   3.639   3.985   0.109
10698SOL    HW132993   3.657   3.890   0.132
10698SOL    HW232994   3.600   3.990   0.017
10699SOL     OW32995   3.818   3.190   1.162
10699SOL    HW132996   3.738   3.155   1.113
10699SOL    HW232997   3.869   3.252   1.103
10700SOL     OW32998   4.953   0.414   1.359
10700SOL    HW132999   4.858   0.425   1.389
10700SOL    HW233000   4.966   0.321   1.323
10701SOL     OW33001   3.438   6.093   6.425
10701SOL    HW133002   3.380   6.050   6.495
10701SOL    HW233003   3.529   6.111   6.464
10702SOL     OW33004   5.611   1.524   1.904
10702SOL    HW133005   5.563   1.610   1.922
10702SOL    HW233006   5.671   1.503   1.981
10703SOL     OW33007   0.516   1.708   5.461
10703SOL    HW133008   0.580   1.784   5.457
10703SOL    HW233009   0.443   1.729   5.527
10704SOL     OW33010   5.424   6.808   2.389
10704SOL    HW133011   5.353   6.742   2.414
10704SOL    HW233012   5.494   6.811   2.460
10705SOL     OW33013   4.571   3.313   0.577
10705SOL    HW133014   4.622   3.241   0.531
10705SOL    HW233015   4.548   3.386   0.512
10706SOL     OW33016   3.474   1.025   1.590
10706SOL    HW133017   3.458   1.113   1.546
10706SOL    HW233018   3.570   1.000   1.579
10707SOL     OW33019   4.780   6.487   3.512
10707SOL    HW133020   4.845   6.434   3.458
10707SOL    HW233021   4.723   6.424   3.567
10708SOL     OW33022   4.191   1.085   1.649
10708SOL    HW133023   4.106   1.131   1.675
10708SOL    HW233024   4.172   0.989   1.630
10709SOL     OW33025   6.199   4.570   2.437
10709SOL    HW133026   6.226   4.512   2.361
10709SOL    HW233027   6.172   4.512   2.515
10710SOL     OW33028   4.457   1.667   3.593
10710SOL    HW133029   4.370   1.697   3.554
10710SOL    HW233030   4.490   1.737   3.656
10711SOL     OW33031   2.759   6.809   2.377
10711SOL    HW133032   2.795   6.718   2.395
10711SOL    HW233033   2.705   6.839   2.456
10712SOL     OW33034   5.300   0.434   3.538
10712SOL    HW133035   5.353   0.358   3.501
10712SOL    HW233036   5.226   0.398   3.595
10713SOL     OW33037   1.540   4.052   1.441
10713SOL    HW133038   1.443   4.048   1.420
10713SOL    HW233039   1.580   4.134   1.401
10714SOL     OW33040   3.097   4.102   5.125
10714SOL    HW133041   3.028   4.034   5.149
10714SOL    HW233042   3.094   4.120   5.026
10715SOL     OW33043   5.934   0.868   2.225
10715SOL    HW133044   5.880   0.922   2.160
10715SOL    HW233045   5.873   0.831   2.295
10716SOL     OW33046   5.233   0.926   3.187
10716SOL    HW133047   5.140   0.894   3.168
10716SOL    HW233048   5.251   0.918   3.285
10717SOL     OW33049   2.549   2.741   7.009
10717SOL    HW133050   2.466   2.795   6.994
10717SOL    HW233051   2.530   2.670   0.049
10718SOL     OW33052   1.670   4.772   6.315
10718SOL    HW133053   1.647   4.825   6.397
10718SOL    HW233054   1.704   4.682   6.342
10719SOL     OW33055   0.430   5.715   4.790
10719SOL    HW133056   0.501   5.667   4.738
10719SOL    HW233057   0.343   5.708   4.742
10720SOL     OW33058   0.258   5.027   3.188
10720SOL    HW133059   0.229   4.992   3.099
10720SOL    HW233060   0.249   5.127   3.190
10721SOL     OW33061   4.943   3.053   6.054
10721SOL    HW133062   4.906   2.986   5.989
10721SOL    HW233063   5.038   3.072   6.032
10722SOL     OW33064   0.220   3.494   5.549
10722SOL    HW133065   0.262   3.550   5.477
10722SOL    HW233066   0.290   3.438   5.593
10723SOL     OW33067   5.388   6.731   0.677
10723SOL    HW133068   5.474   6.712   0.630
10723SOL    HW233069   5.338   6.646   0.691
10724SOL     OW33070   0.087   6.597   6.804
10724SOL    HW133071   0.122   6.537   6.876
10724SOL    HW233072   0.032   6.670   6.845
10725SOL     OW33073   2.187   5.999   5.658
10725SOL    HW133074   2.243   5.927   5.700
10725SOL    HW233075   2.242   6.048   5.590
10726SOL     OW33076   4.207   1.059   3.640
10726SOL    HW133077   4.135   1.085   3.705
10726SOL    HW233078   4.296   1.079   3.680
10727SOL     OW33079   2.306   6.506   6.209
10727SOL    HW133080   2.250   6.581   6.243
10727SOL    HW233081   2.254   6.452   6.142
10728SOL     OW33082   5.250   5.591   0.727
10728SOL    HW133083   5.281   5.650   0.653
10728SOL    HW233084   5.151   5.602   0.740
10729SOL     OW33085   6.148   2.202   1.147
10729SOL    HW133086   6.117   2.165   1.235
10729SOL    HW233087   6.220   2.269   1.163
10730SOL     OW33088   4.369   0.185   2.469
10730SOL    HW133089   4.375   0.203   2.370
10730SOL    HW233090   4.462   0.184   2.507
10731SOL     OW33091   4.639   0.106   1.224
10731SOL    HW133092   4.727   0.152   1.227
10731SOL    HW233093   4.628   0.048   1.306
10732SOL     OW33094   0.979   3.660   5.671
10732SOL    HW133095   0.954   3.579   5.725
10732SOL    HW233096   1.076   3.654   5.646
10733SOL     OW33097   5.808   1.581   0.649
10733SOL    HW133098   5.802   1.551   0.554
10733SOL    HW233099   5.797   1.680   0.653
10734SOL     OW33100   6.601   3.053   1.969
10734SOL    HW133101   6.517   3.097   2.000
10734SOL    HW233102   6.680   3.102   2.007
10735SOL     OW33103   0.303   4.987   2.887
10735SOL    HW133104   0.384   5.045   2.882
10735SOL    HW233105   0.331   4.891   2.875
10736SOL     OW33106   2.337   0.596   3.915
10736SOL    HW133107   2.260   0.620   3.975
10736SOL    HW233108   2.351   0.498   3.917
10737SOL     OW33109   6.769   2.109   0.967
10737SOL    HW133110   6.770   2.072   0.874
10737SOL    HW233111   6.861   2.136   0.993
10738SOL     OW33112   4.003   0.155   3.538
10738SOL    HW133113   4.065   0.076   3.532
10738SOL    HW233114   3.995   0.183   3.634
10739SOL     OW33115   2.871   1.824   1.869
10739SOL    HW133116   2.816   1.784   1.942
10739SOL    HW233117   2.831   1.910   1.839
10740SOL     OW33118   4.455   5.352   3.097
10740SOL    HW133119   4.361   5.386   3.093
10740SOL    HW233120   4.467   5.281   3.028
10741SOL     OW33121   3.933   0.687   2.667
10741SOL    HW133122   4.002   0.714   2.734
10741SOL    HW233123   3.879   0.766   2.641
10742SOL     OW33124   6.762   5.482   0.640
10742SOL    HW133125   6.662   5.487   0.636
10742SOL    HW233126   6.798   5.572   0.664
10743SOL     OW33127   2.505   2.592   5.155
10743SOL    HW133128   2.427   2.623   5.100
10743SOL    HW233129   2.532   2.666   5.218
10744SOL     OW33130   5.585   1.989   0.612
10744SOL    HW133131   5.511   2.006   0.677
10744SOL    HW233132   5.658   1.937   0.657
10745SOL     OW33133   6.757   5.912   6.596
10745SOL    HW133134   6.750   5.816   6.567
10745SOL    HW233135   6.736   5.919   6.693
10746SOL     OW33136   1.221   4.292   5.826
10746SOL    HW133137   1.298   4.262   5.883
10746SOL    HW233138   1.203   4.223   5.756
10747SOL     OW33139   3.410   2.139   4.346
10747SOL    HW133140   3.458   2.142   4.258
10747SOL    HW233141   3.471   2.169   4.419
10748SOL     OW33142   4.921   1.610   2.422
10748SOL    HW133143   4.861   1.636   2.347
10748SOL    HW233144   4.927   1.510   2.427
10749SOL     OW33145   2.528   0.226   6.777
10749SOL    HW133146   2.598   0.158   6.756
10749SOL    HW233147   2.440   0.180   6.792
10750SOL     OW33148   3.986   0.154   6.292
10750SOL    HW133149   3.890   0.170   6.271
10750SOL    HW233150   3.994   0.108   6.380
10751SOL     OW33151   2.178   5.394   4.028
10751SOL    HW133152   2.134   5.478   3.999
10751SOL    HW233153   2.120   5.316   4.003
10752SOL     OW33154   5.310   4.945   3.974
10752SOL    HW133155   5.263   5.031   3.994
10752SOL    HW233156   5.274   4.906   3.889
10753SOL     OW33157   6.457   3.304   4.263
10753SOL    HW133158   6.383   3.305   4.330
10753SOL    HW233159   6.529   3.241   4.293
10754SOL     OW33160   1.193   0.104   2.615
10754SOL    HW133161   1.117   0.077   2.556
10754SOL    HW233162   1.205   0.035   2.687
10755SOL     OW33163   6.299   5.835   2.192
10755SOL    HW133164   6.302   5.771   2.269
10755SOL    HW233165   6.207   5.833   2.151
10756SOL     OW33166   0.886   6.958   5.349
10756SOL    HW133167   0.855   6.921   5.261
10756SOL    HW233168   0.976   7.001   5.337
10757SOL     OW33169   2.788   2.989   0.873
10757SOL    HW133170   2.748   2.910   0.920
10757SOL    HW233171   2.798   3.064   0.938
10758SOL     OW33172   0.779   5.036   4.131
10758SOL    HW133173   0.720   5.080   4.199
10758SOL    HW233174   0.780   4.937   4.146
10759SOL     OW33175   6.953   1.419   6.707
10759SOL    HW133176   6.976   1.420   6.805
10759SOL    HW233177   6.949   1.513   6.673
10760SOL     OW33178   5.654   1.323   4.638
10760SOL    HW133179   5.742   1.326   4.686
10760SOL    HW233180   5.620   1.416   4.627
10761SOL     OW33181   2.721   4.934   5.599
10761SOL    HW133182   2.761   4.843   5.611
10761SOL    HW233183   2.738   4.967   5.507
10762SOL     OW33184   2.980   1.427   4.798
10762SOL    HW133185   2.962   1.358   4.728
10762SOL    HW233186   3.061   1.401   4.851
10763SOL     OW33187   4.182   6.389   3.727
10763SOL    HW133188   4.223   6.459   3.785
10763SOL    HW233189   4.254   6.329   3.692
10764SOL     OW33190   4.756   0.249   4.839
10764SOL    HW133191   4.785   0.281   4.749
10764SOL    HW233192   4.692   0.173   4.827
10765SOL     OW33193   6.007   3.699   0.521
10765SOL    HW133194   5.996   3.760   0.600
10765SOL    HW233195   5.930   3.711   0.459
10766SOL     OW33196   3.419   3.411   1.301
10766SOL    HW133197   3.508   3.440   1.266
10766SOL    HW233198   3.431   3.339   1.369
10767SOL     OW33199   4.771   1.705   2.177
10767SOL    HW133200   4.716   1.786   2.161
10767SOL    HW233201   4.759   1.640   2.101
10768SOL     OW33202   5.807   4.851   6.834
10768SOL    HW133203   5.856   4.907   6.901
10768SOL    HW233204   5.864   4.773   6.809
10769SOL     OW33205   1.708   3.807   5.324
10769SOL    HW133206   1.724   3.725   5.379
10769SOL    HW233207   1.793   3.858   5.313
10770SOL     OW33208   3.653   6.038   3.767
10770SOL    HW133209   3.693   6.122   3.732
10770SOL    HW233210   3.722   5.985   3.816
10771SOL     OW33211   2.122   1.369   4.003
10771SOL    HW133212   2.131   1.468   3.993
10771SOL    HW233213   2.213   1.328   4.013
10772SOL     OW33214   5.088   5.640   3.173
10772SOL    HW133215   5.015   5.651   3.105
10772SOL    HW233216   5.149   5.566   3.145
10773SOL     OW33217   5.910   4.523   3.223
10773SOL    HW133218   5.816   4.549   3.246
10773SOL    HW233219   5.939   4.570   3.140
10774SOL     OW33220   0.333   0.069   3.109
10774SOL    HW133221   0.373   0.110   3.191
10774SOL    HW233222   0.234   0.062   3.121
10775SOL     OW33223   0.570   3.437   1.523
10775SOL    HW133224   0.640   3.457   1.454
10775SOL    HW233225   0.552   3.519   1.577
10776SOL     OW33226   1.383   0.327   6.192
10776SOL    HW133227   1.335   0.413   6.171
10776SOL    HW233228   1.460   0.346   6.252
10777SOL     OW33229   2.510   5.900   1.201
10777SOL    HW133230   2.488   5.960   1.279
10777SOL    HW233231   2.454   5.817   1.206
10778SOL     OW33232   5.886   5.709   2.395
10778SOL    HW133233   5.954   5.635   2.391
10778SOL    HW233234   5.796   5.673   2.371
10779SOL     OW33235   4.918   2.795   3.685
10779SOL    HW133236   4.885   2.791   3.779
10779SOL    HW233237   4.915   2.889   3.652
10780SOL     OW33238   6.688   0.305   2.571
10780SOL    HW133239   6.590   0.292   2.557
10780SOL    HW233240   6.705   0.397   2.605
10781SOL     OW33241   3.383   0.038   4.083
10781SOL    HW133242   3.342   0.067   3.997
10781SOL    HW233243   3.454   6.998   4.064
10782SOL     OW33244   6.017   5.276   3.521
10782SOL    HW133245   6.068   5.354   3.557
10782SOL    HW233246   5.928   5.270   3.567
10783SOL     OW33247   0.049   1.982   3.620
10783SOL    HW133248   0.124   1.967   3.555
10783SOL    HW233249   0.086   2.010   3.708
10784SOL     OW33250   2.804   1.660   4.390
10784SOL    HW133251   2.895   1.671   4.432
10784SOL    HW233252   2.741   1.620   4.457
10785SOL     OW33253   1.120   3.436   6.179
10785SOL    HW133254   1.148   3.363   6.241
10785SOL    HW233255   1.187   3.444   6.105
10786SOL     OW33256   0.371   4.557   3.791
10786SOL    HW133257   0.308   4.635   3.794
10786SOL    HW233258   0.356   4.500   3.872
10787SOL     OW33259   1.716   2.309   6.175
10787SOL    HW133260   1.718   2.216   6.211
10787SOL    HW233261   1.808   2.336   6.147
10788SOL     OW33262   5.911   3.968   6.043
10788SOL    HW133263   5.863   3.995   6.126
10788SOL    HW233264   5.997   3.923   6.066
10789SOL     OW33265   5.913   1.776   0.971
10789SOL    HW133266   5.988   1.842   0.962
10789SOL    HW233267   5.950   1.686   0.992
10790SOL     OW33268   0.053   6.379   3.156
10790SOL    HW133269   0.123   6.308   3.148
10790SOL    HW233270   0.094   6.468   3.141
10791SOL     OW33271   0.790   6.346   2.619
10791SOL    HW133272   0.810   6.420   2.683
10791SOL    HW233273   0.725   6.378   2.550
10792SOL     OW33274   3.748   4.131   5.510
10792SOL    HW133275   3.672   4.195   5.520
10792SOL    HW233276   3.735   4.076   5.427
10793SOL     OW33277   6.257   3.712   4.383
10793SOL    HW133278   6.341   3.763   4.366
10793SOL    HW233279   6.189   3.738   4.314
10794SOL     OW33280   3.164   3.989   4.292
10794SOL    HW133281   3.263   3.982   4.294
10794SOL    HW233282   3.137   4.080   4.260
10795SOL     OW33283   6.949   5.303   3.017
10795SOL    HW133284   6.861   5.344   2.994
10795SOL    HW233285   6.935   5.210   3.051
10796SOL     OW33286   1.494   5.974   5.640
10796SOL    HW133287   1.490   5.878   5.667
10796SOL    HW233288   1.402   6.013   5.640
10797SOL     OW33289   3.502   2.415   0.157
10797SOL    HW133290   3.552   2.461   0.084
10797SOL    HW233291   3.511   2.468   0.241
10798SOL     OW33292   6.766   1.281   1.113
10798SOL    HW133293   6.851   1.251   1.069
10798SOL    HW233294   6.710   1.201   1.136
10799SOL     OW33295   4.890   2.175   1.023
10799SOL    HW133296   4.804   2.154   0.977
10799SOL    HW233297   4.902   2.113   1.101
10800SOL     OW33298   0.266   6.691   1.835
10800SOL    HW133299   0.269   6.732   1.743
10800SOL    HW233300   0.347   6.635   1.848
10801SOL     OW33301   1.692   0.753   1.243
10801SOL    HW133302   1.756   0.683   1.211
10801SOL    HW233303   1.734   0.804   1.318
10802SOL     OW33304   6.499   1.180   3.337
10802SOL    HW133305   6.480   1.083   3.322
10802SOL    HW233306   6.586   1.190   3.385
10803SOL     OW33307   2.160   5.339   5.975
10803SOL    HW133308   2.176   5.356   6.072
10803SOL    HW233309   2.241   5.297   5.934
10804SOL     OW33310   0.049   2.992   4.438
10804SOL    HW133311   0.140   3.018   4.405
10804SOL    HW233312   0.057   2.952   4.529
10805SOL     OW33313   6.126   1.112   6.388
10805SOL    HW133314   6.102   1.023   6.349
10805SOL    HW233315   6.215   1.141   6.353
10806SOL     OW33316   1.305   5.310   0.154
10806SOL    HW133317   1.225   5.367   0.130
10806SOL    HW233318   1.306   5.295   0.253
10807SOL     OW33319   3.027   5.979   5.223
10807SOL    HW133320   3.081   5.963   5.140
10807SOL    HW233321   3.035   5.900   5.284
10808SOL     OW33322   0.990   3.109   6.139
10808SOL    HW133323   0.917   3.171   6.110
10808SOL    HW233324   1.074   3.130   6.088
10809SOL     OW33325   1.699   0.216   4.975
10809SOL    HW133326   1.795   0.192   4.965
10809SOL    HW233327   1.691   0.309   5.012
10810SOL     OW33328   6.466   0.753   4.104
10810SOL    HW133329   6.405   0.821   4.145
10810SOL    HW233330   6.421   0.710   4.026
10811SOL     OW33331   5.075   5.115   4.581
10811SOL    HW133332   4.990   5.165   4.597
10811SOL    HW233333   5.146   5.178   4.549
10812SOL     OW33334   6.838   3.180   0.367
10812SOL    HW133335   6.860   3.187   0.464
10812SOL    HW233336   6.916   3.142   0.318
10813SOL     OW33337   0.707   2.999   6.296
10813SOL    HW133338   0.691   3.035   6.204
10813SOL    HW233339   0.687   2.901   6.297
10814SOL     OW33340   3.045   1.443   0.821
10814SOL    HW133341   2.946   1.453   0.824
10814SOL    HW233342   3.081   1.429   0.913
10815SOL     OW33343   5.423   1.011   4.482
10815SOL    HW133344   5.515   1.051   4.487
10815SOL    HW233345   5.428   0.914   4.503
10816SOL     OW33346   3.323   3.103   4.869
10816SOL    HW133347   3.290   3.130   4.778
10816SOL    HW233348   3.255   3.046   4.914
10817SOL     OW33349   1.505   6.438   3.917
10817SOL    HW133350   1.497   6.468   4.012
10817SOL    HW233351   1.472   6.510   3.856
10818SOL     OW33352   3.855   4.375   6.772
10818SOL    HW133353   3.887   4.409   6.683
10818SOL    HW233354   3.772   4.321   6.759
10819SOL     OW33355   6.542   6.643   5.413
10819SOL    HW133356   6.561   6.605   5.322
10819SOL    HW233357   6.451   6.684   5.413
10820SOL     OW33358   2.646   4.284   5.845
10820SOL    HW133359   2.650   4.383   5.831
10820SOL    HW233360   2.550   4.254   5.839
10821SOL     OW33361   4.619   5.464   2.870
10821SOL    HW133362   4.698   5.458   2.931
10821SOL    HW233363   4.603   5.559   2.844
10822SOL     OW33364   5.774   1.123   2.485
10822SOL    HW133365   5.754   1.072   2.402
10822SOL    HW233366   5.840   1.196   2.465
10823SOL     OW33367   5.540   6.597   1.183
10823SOL    HW133368   5.586   6.512   1.156
10823SOL    HW233369   5.530   6.656   1.103
10824SOL     OW33370   1.142   2.983   4.019
10824SOL    HW133371   1.128   2.898   4.068
10824SOL    HW233372   1.236   2.988   3.986
10825SOL     OW33373   0.503   2.604   0.590
10825SOL    HW133374   0.529   2.515   0.553
10825SOL    HW233375   0.527   2.609   0.687
10826SOL     OW33376   6.904   3.647   2.908
10826SOL    HW133377   6.907   3.675   2.812
10826SOL    HW233378   6.816   3.604   2.928
10827SOL     OW33379   0.138   3.649   4.773
10827SOL    HW133380   0.220   3.644   4.717
10827SOL    HW233381   0.088   3.562   4.766
10828SOL     OW33382   6.535   4.191   5.289
10828SOL    HW133383   6.542   4.251   5.369
10828SOL    HW233384   6.601   4.116   5.298
10829SOL     OW33385   3.640   3.104   5.420
10829SOL    HW133386   3.740   3.108   5.412
10829SOL    HW233387   3.602   3.062   5.338
10830SOL     OW33388   4.834   2.027   3.165
10830SOL    HW133389   4.865   2.021   3.070
10830SOL    HW233390   4.734   2.033   3.167
10831SOL     OW33391   4.217   6.892   3.780
10831SOL    HW133392   4.269   6.923   3.700
10831SOL    HW233393   4.120   6.891   3.759
10832SOL     OW33394   6.597   2.513   0.044
10832SOL    HW133395   6.669   2.581   0.031
10832SOL    HW233396   6.527   2.526   7.002
10833SOL     OW33397   0.638   1.333   7.023
10833SOL    HW133398   0.619   1.362   0.089
10833SOL    HW233399   0.713   1.386   6.986
10834SOL     OW33400   6.043   6.329   1.490
10834SOL    HW133401   6.083   6.419   1.509
10834SOL    HW233402   5.945   6.340   1.474
10835SOL     OW33403   6.961   2.352   5.517
10835SOL    HW133404   7.011   2.388   5.596
10835SOL    HW233405   6.987   2.404   5.435
10836SOL     OW33406   0.236   1.129   3.367
10836SOL    HW133407   0.237   1.153   3.464
10836SOL    HW233408   0.288   1.197   3.315
10837SOL     OW33409   0.559   3.213   3.836
10837SOL    HW133410   0.515   3.252   3.918
10837SOL    HW233411   0.511   3.245   3.755
10838SOL     OW33412   0.530   6.067   2.331
10838SOL    HW133413   0.560   5.971   2.328
10838SOL    HW233414   0.555   6.107   2.419
10839SOL     OW33415   4.732   2.891   0.447
10839SOL    HW133416   4.686   2.881   0.359
10839SOL    HW233417   4.672   2.858   0.520
10840SOL     OW33418   2.078   0.415   1.768
10840SOL    HW133419   2.128   0.331   1.786
10840SOL    HW233420   2.021   0.402   1.687
10841SOL     OW33421   2.128   5.579   4.898
10841SOL    HW133422   2.223   5.562   4.924
10841SOL    HW233423   2.088   5.494   4.862
10842SOL     OW33424   5.750   4.528   2.256
10842SOL    HW133425   5.768   4.575   2.342
10842SOL    HW233426   5.652   4.531   2.236
10843SOL     OW33427   2.954   1.800   1.506
10843SOL    HW133428   2.969   1.898   1.521
10843SOL    HW233429   3.014   1.768   1.433
10844SOL     OW33430   1.607   5.289   5.359
10844SOL    HW133431   1.545   5.333   5.295
10844SOL    HW233432   1.681   5.244   5.309
10845SOL     OW33433   3.923   6.985   4.215
10845SOL    HW133434   3.975   0.042   4.220
10845SOL    HW233435   3.890   6.960   4.307
10846SOL     OW33436   5.857   0.276   6.145
10846SOL    HW133437   5.848   0.191   6.093
10846SOL    HW233438   5.836   0.257   6.241
10847SOL     OW33439   3.206   0.484   6.439
10847SOL    HW133440   3.136   0.488   6.368
10847SOL    HW233441   3.170   0.435   6.519
10848SOL     OW33442   1.627   4.050   1.732
10848SOL    HW133443   1.600   4.027   1.639
10848SOL    HW233444   1.726   4.063   1.735
10849SOL     OW33445   2.330   6.361   3.019
10849SOL    HW133446   2.418   6.364   3.066
10849SOL    HW233447   2.345   6.365   2.920
10850SOL     OW33448   4.295   4.373   0.931
10850SOL    HW133449   4.323   4.298   0.872
10850SOL    HW233450   4.299   4.459   0.879
10851SOL     OW33451   1.570   4.296   0.625
10851SOL    HW133452   1.479   4.258   0.643
10851SOL    HW233453   1.583   4.308   0.527
10852SOL     OW33454   2.410   2.125   2.474
10852SOL    HW133455   2.318   2.148   2.443
10852SOL    HW233456   2.477   2.180   2.424
10853SOL     OW33457   3.327   1.502   5.932
10853SOL    HW133458   3.342   1.570   5.860
10853SOL    HW233459   3.415   1.461   5.957
10854SOL     OW33460   3.044   6.028   5.871
10854SOL    HW133461   3.066   5.985   5.783
10854SOL    HW233462   2.946   6.023   5.887
10855SOL     OW33463   4.166   1.633   0.086
10855SOL    HW133464   4.104   1.678   0.022
10855SOL    HW233465   4.230   1.701   0.123
10856SOL     OW33466   1.086   1.291   0.612
10856SOL    HW133467   1.015   1.239   0.563
10856SOL    HW233468   1.164   1.232   0.631
10857SOL     OW33469   6.663   2.805   2.442
10857SOL    HW133470   6.618   2.856   2.515
10857SOL    HW233471   6.595   2.753   2.391
10858SOL     OW33472   2.668   6.188   2.118
10858SOL    HW133473   2.639   6.271   2.167
10858SOL    HW233474   2.766   6.174   2.131
10859SOL     OW33475   1.617   5.408   3.680
10859SOL    HW133476   1.631   5.318   3.638
10859SOL    HW233477   1.519   5.427   3.685
10860SOL     OW33478   6.957   4.333   3.392
10860SOL    HW133479   6.924   4.265   3.327
10860SOL    HW233480   6.889   4.406   3.404
10861SOL     OW33481   3.654   2.836   5.604
10861SOL    HW133482   3.605   2.789   5.531
10861SOL    HW233483   3.654   2.935   5.586
10862SOL     OW33484   0.737   0.649   5.064
10862SOL    HW133485   0.721   0.710   4.986
10862SOL    HW233486   0.821   0.597   5.048
10863SOL     OW33487   2.478   6.386   4.405
10863SOL    HW133488   2.516   6.296   4.384
10863SOL    HW233489   2.484   6.402   4.504
10864SOL     OW33490   3.647   6.120   2.891
10864SOL    HW133491   3.642   6.032   2.843
10864SOL    HW233492   3.706   6.182   2.840
10865SOL     OW33493   6.324   1.764   6.001
10865SOL    HW133494   6.350   1.670   5.980
10865SOL    HW233495   6.387   1.801   6.069
10866SOL     OW33496   5.207   5.151   6.881
10866SOL    HW133497   5.200   5.206   6.964
10866SOL    HW233498   5.303   5.142   6.855
10867SOL     OW33499   2.948   1.482   6.890
10867SOL    HW133500   2.853   1.499   6.915
10867SOL    HW233501   2.999   1.453   6.971
10868SOL     OW33502   2.621   2.417   3.326
10868SOL    HW133503   2.700   2.395   3.383
10868SOL    HW233504   2.541   2.369   3.361
10869NA      NA33505   6.394   2.557   5.740
10870NA      NA33506   4.299   4.658   5.264
10871NA      NA33507   2.173   3.545   1.766
10872NA      NA33508   4.854   3.677   5.283
10873NA      NA33509   4.112   2.453   5.363
10874NA      NA33510   3.745   4.770   1.653
10875NA      NA33511   6.696   5.948   4.543
10876NA      NA33512   3.607   3.462   4.832
10877NA      NA33513   4.636   6.578   6.318
10878NA      NA33514   2.765   0.497   5.099
10879NA      NA33515   0.596   4.793   2.526
10880NA      NA33516   2.675   0.564   2.721
10881NA      NA33517   3.487   4.277   1.338
10882NA      NA33518   3.429   3.061   2.865
   7.02798   7.02798   7.02798
